 vasp.5.4.4.18Apr17-6-g9f103f2a35 (build Nov 03 2018 10:20:46) complex          
  
 executed on             LinuxIFC date 2018.12.14  08:27:35
 running on   32 total cores
 distrk:  each k-point on    2 cores,   16 groups
 distr:  one band on NCORES_PER_BAND=   1 cores,    2 groups


--------------------------------------------------------------------------------------------------------


 INCAR:
 POTCAR:    PAW_PBE Ne_GW 22Sep2014               

 ----------------------------------------------------------------------------- 
|                                                                             |
|           W    W    AA    RRRRR   N    N  II  N    N   GGGG   !!!           |
|           W    W   A  A   R    R  NN   N  II  NN   N  G    G  !!!           |
|           W    W  A    A  R    R  N N  N  II  N N  N  G       !!!           |
|           W WW W  AAAAAA  RRRRR   N  N N  II  N  N N  G  GGG   !            |
|           WW  WW  A    A  R   R   N   NN  II  N   NN  G    G                |
|           W    W  A    A  R    R  N    N  II  N    N   GGGG   !!!           |
|                                                                             |
|      For optimal performance we recommend to set                            |
|        NCORE= 4 - approx SQRT( number of cores)                             |
|      NCORE specifies how many cores store one orbital (NPAR=cpu/NCORE).     |
|      This setting can  greatly improve the performance of VASP for DFT.     |
|      The default,   NCORE=1            might be grossly inefficient         |
|      on modern multi-core architectures or massively parallel machines.     |
|      Do your own testing !!!!                                               |
|      Unfortunately you need to use the default for GW and RPA calculations. |
|      (for HF NCORE is supported but not extensively tested yet)             |
|                                                                             |
 ----------------------------------------------------------------------------- 


 ----------------------------------------------------------------------------- 
|                                                                             |
|           W    W    AA    RRRRR   N    N  II  N    N   GGGG   !!!           |
|           W    W   A  A   R    R  NN   N  II  NN   N  G    G  !!!           |
|           W    W  A    A  R    R  N N  N  II  N N  N  G       !!!           |
|           W WW W  AAAAAA  RRRRR   N  N N  II  N  N N  G  GGG   !            |
|           WW  WW  A    A  R   R   N   NN  II  N   NN  G    G                |
|           W    W  A    A  R    R  N    N  II  N    N   GGGG   !!!           |
|                                                                             |
|      You have enabled k-point parallelism (KPAR>1).                         |
|      This developmental code was originally  written by Paul Kent at ORNL,  |
|      and carefully double checked in Vienna.                                |
|      GW as well as linear response parallelism added by Martijn Marsman     |
|      and Georg Kresse.                                                      |
|      Carefully verify results versus KPAR=1.                                |
|      Report problems to Paul Kent and Vienna.                               |
|                                                                             |
 ----------------------------------------------------------------------------- 

 POTCAR:    PAW_PBE Ne_GW 22Sep2014               
  local pseudopotential read in
  partial core-charges read in
  partial kinetic energy density read in
  kinetic energy density of atom read in
  atomic valenz-charges read in
  non local Contribution for L=           0  read in
    real space projection operators read in
  non local Contribution for L=           0  read in
    real space projection operators read in
  non local Contribution for L=           0  read in
    real space projection operators read in
  non local Contribution for L=           1  read in
    real space projection operators read in
  non local Contribution for L=           1  read in
    real space projection operators read in
  non local Contribution for L=           1  read in
    real space projection operators read in
  non local Contribution for L=           2  read in
    real space projection operators read in
  non local Contribution for L=           2  read in
    real space projection operators read in
    PAW grid and wavefunctions read in
 
   number of l-projection  operators is LMAX  =           8
   number of lm-projection operators is LMMAX =          22
 
  PAW_PBE Ne_GW 22Sep2014               :
 energy of atom  1       EATOM= -955.3367
 kinetic energy error for atom=    2.6586 (will be added to EATOM!!)
 
 
 POSCAR: Ne_FCC                                  
  positions in direct lattice
  velocities in cartesian coordinates
 exchange correlation table for  LEXCH =        8
   RHO(1)=    0.500       N(1)  =     2000
   RHO(2)=  100.500       N(2)  =     4000
 


--------------------------------------------------------------------------------------------------------


 ion  position               nearest neighbor table
   1  0.000  0.000  0.000-
 

IMPORTANT INFORMATION: All symmetrisations will be switched off!
NOSYMM: (Re-)initialisation of all symmetry stuff for point group C_1.

 
 
 KPOINTS: k-points                                

Automatic generation of k-mesh.
Space group operators:
 irot       det(A)        alpha          n_x          n_y          n_z        tau_x        tau_y        tau_z
    1     1.000000     0.000000     1.000000     0.000000     0.000000     0.000000     0.000000     0.000000
 
 Subroutine IBZKPT returns following result:
 ===========================================
 
 Found    172 irreducible k-points:
 
 Following reciprocal coordinates:
            Coordinates               Weight
  0.000000  0.000000  0.000000      1.000000
  0.142857 -0.000000 -0.000000      2.000000
  0.285714 -0.000000 -0.000000      2.000000
  0.428571  0.000000  0.000000      2.000000
  0.000000  0.142857  0.000000      2.000000
  0.142857  0.142857  0.000000      2.000000
  0.285714  0.142857  0.000000      2.000000
  0.428571  0.142857 -0.000000      2.000000
 -0.428571  0.142857  0.000000      2.000000
 -0.285714  0.142857  0.000000      2.000000
 -0.142857  0.142857 -0.000000      2.000000
  0.000000  0.285714  0.000000      2.000000
  0.142857  0.285714 -0.000000      2.000000
  0.285714  0.285714 -0.000000      2.000000
  0.428571  0.285714 -0.000000      2.000000
 -0.428571  0.285714  0.000000      2.000000
 -0.285714  0.285714  0.000000      2.000000
 -0.142857  0.285714 -0.000000      2.000000
  0.000000  0.428571  0.000000      2.000000
  0.142857  0.428571 -0.000000      2.000000
  0.285714  0.428571  0.000000      2.000000
  0.428571  0.428571  0.000000      2.000000
 -0.428571  0.428571  0.000000      2.000000
 -0.285714  0.428571 -0.000000      2.000000
 -0.142857  0.428571 -0.000000      2.000000
  0.000000  0.000000  0.142857      2.000000
  0.142857 -0.000000  0.142857      2.000000
  0.285714 -0.000000  0.142857      2.000000
  0.428571  0.000000  0.142857      2.000000
 -0.428571  0.000000  0.142857      2.000000
 -0.285714  0.000000  0.142857      2.000000
 -0.142857 -0.000000  0.142857      2.000000
  0.000000  0.142857  0.142857      2.000000
  0.142857  0.142857  0.142857      2.000000
  0.285714  0.142857  0.142857      2.000000
  0.428571  0.142857  0.142857      2.000000
 -0.428571  0.142857  0.142857      2.000000
 -0.285714  0.142857  0.142857      2.000000
 -0.142857  0.142857  0.142857      2.000000
  0.000000  0.285714  0.142857      2.000000
  0.142857  0.285714  0.142857      2.000000
  0.285714  0.285714  0.142857      2.000000
  0.428571  0.285714  0.142857      2.000000
 -0.428571  0.285714  0.142857      2.000000
 -0.285714  0.285714  0.142857      2.000000
 -0.142857  0.285714  0.142857      2.000000
  0.000000  0.428571  0.142857      2.000000
  0.142857  0.428571  0.142857      2.000000
  0.285714  0.428571  0.142857      2.000000
  0.428571  0.428571  0.142857      2.000000
 -0.428571  0.428571  0.142857      2.000000
 -0.285714  0.428571  0.142857      2.000000
 -0.142857  0.428571  0.142857      2.000000
  0.000000 -0.428571  0.142857      2.000000
  0.142857 -0.428571  0.142857      2.000000
  0.285714 -0.428571  0.142857      2.000000
  0.428571 -0.428571  0.142857      2.000000
 -0.428571 -0.428571  0.142857      2.000000
 -0.285714 -0.428571  0.142857      2.000000
 -0.142857 -0.428571  0.142857      2.000000
  0.000000 -0.285714  0.142857      2.000000
  0.142857 -0.285714  0.142857      2.000000
  0.285714 -0.285714  0.142857      2.000000
  0.428571 -0.285714  0.142857      2.000000
 -0.428571 -0.285714  0.142857      2.000000
 -0.285714 -0.285714  0.142857      2.000000
 -0.142857 -0.285714  0.142857      2.000000
  0.000000 -0.142857  0.142857      2.000000
  0.142857 -0.142857  0.142857      2.000000
  0.285714 -0.142857  0.142857      2.000000
  0.428571 -0.142857  0.142857      2.000000
 -0.428571 -0.142857  0.142857      2.000000
 -0.285714 -0.142857  0.142857      2.000000
 -0.142857 -0.142857  0.142857      2.000000
  0.000000  0.000000  0.285714      2.000000
  0.142857 -0.000000  0.285714      2.000000
  0.285714 -0.000000  0.285714      2.000000
  0.428571  0.000000  0.285714      2.000000
 -0.428571  0.000000  0.285714      2.000000
 -0.285714  0.000000  0.285714      2.000000
 -0.142857 -0.000000  0.285714      2.000000
  0.000000  0.142857  0.285714      2.000000
  0.142857  0.142857  0.285714      2.000000
  0.285714  0.142857  0.285714      2.000000
  0.428571  0.142857  0.285714      2.000000
 -0.428571  0.142857  0.285714      2.000000
 -0.285714  0.142857  0.285714      2.000000
 -0.142857  0.142857  0.285714      2.000000
  0.000000  0.285714  0.285714      2.000000
  0.142857  0.285714  0.285714      2.000000
  0.285714  0.285714  0.285714      2.000000
  0.428571  0.285714  0.285714      2.000000
 -0.428571  0.285714  0.285714      2.000000
 -0.285714  0.285714  0.285714      2.000000
 -0.142857  0.285714  0.285714      2.000000
  0.000000  0.428571  0.285714      2.000000
  0.142857  0.428571  0.285714      2.000000
  0.285714  0.428571  0.285714      2.000000
  0.428571  0.428571  0.285714      2.000000
 -0.428571  0.428571  0.285714      2.000000
 -0.285714  0.428571  0.285714      2.000000
 -0.142857  0.428571  0.285714      2.000000
  0.000000 -0.428571  0.285714      2.000000
  0.142857 -0.428571  0.285714      2.000000
  0.285714 -0.428571  0.285714      2.000000
  0.428571 -0.428571  0.285714      2.000000
 -0.428571 -0.428571  0.285714      2.000000
 -0.285714 -0.428571  0.285714      2.000000
 -0.142857 -0.428571  0.285714      2.000000
  0.000000 -0.285714  0.285714      2.000000
  0.142857 -0.285714  0.285714      2.000000
  0.285714 -0.285714  0.285714      2.000000
  0.428571 -0.285714  0.285714      2.000000
 -0.428571 -0.285714  0.285714      2.000000
 -0.285714 -0.285714  0.285714      2.000000
 -0.142857 -0.285714  0.285714      2.000000
  0.000000 -0.142857  0.285714      2.000000
  0.142857 -0.142857  0.285714      2.000000
  0.285714 -0.142857  0.285714      2.000000
  0.428571 -0.142857  0.285714      2.000000
 -0.428571 -0.142857  0.285714      2.000000
 -0.285714 -0.142857  0.285714      2.000000
 -0.142857 -0.142857  0.285714      2.000000
  0.000000  0.000000  0.428571      2.000000
  0.142857 -0.000000  0.428571      2.000000
  0.285714 -0.000000  0.428571      2.000000
  0.428571  0.000000  0.428571      2.000000
 -0.428571  0.000000  0.428571      2.000000
 -0.285714  0.000000  0.428571      2.000000
 -0.142857 -0.000000  0.428571      2.000000
  0.000000  0.142857  0.428571      2.000000
  0.142857  0.142857  0.428571      2.000000
  0.285714  0.142857  0.428571      2.000000
  0.428571  0.142857  0.428571      2.000000
 -0.428571  0.142857  0.428571      2.000000
 -0.285714  0.142857  0.428571      2.000000
 -0.142857  0.142857  0.428571      2.000000
  0.000000  0.285714  0.428571      2.000000
  0.142857  0.285714  0.428571      2.000000
  0.285714  0.285714  0.428571      2.000000
  0.428571  0.285714  0.428571      2.000000
 -0.428571  0.285714  0.428571      2.000000
 -0.285714  0.285714  0.428571      2.000000
 -0.142857  0.285714  0.428571      2.000000
  0.000000  0.428571  0.428571      2.000000
  0.142857  0.428571  0.428571      2.000000
  0.285714  0.428571  0.428571      2.000000
  0.428571  0.428571  0.428571      2.000000
 -0.428571  0.428571  0.428571      2.000000
 -0.285714  0.428571  0.428571      2.000000
 -0.142857  0.428571  0.428571      2.000000
  0.000000 -0.428571  0.428571      2.000000
  0.142857 -0.428571  0.428571      2.000000
  0.285714 -0.428571  0.428571      2.000000
  0.428571 -0.428571  0.428571      2.000000
 -0.428571 -0.428571  0.428571      2.000000
 -0.285714 -0.428571  0.428571      2.000000
 -0.142857 -0.428571  0.428571      2.000000
  0.000000 -0.285714  0.428571      2.000000
  0.142857 -0.285714  0.428571      2.000000
  0.285714 -0.285714  0.428571      2.000000
  0.428571 -0.285714  0.428571      2.000000
 -0.428571 -0.285714  0.428571      2.000000
 -0.285714 -0.285714  0.428571      2.000000
 -0.142857 -0.285714  0.428571      2.000000
  0.000000 -0.142857  0.428571      2.000000
  0.142857 -0.142857  0.428571      2.000000
  0.285714 -0.142857  0.428571      2.000000
  0.428571 -0.142857  0.428571      2.000000
 -0.428571 -0.142857  0.428571      2.000000
 -0.285714 -0.142857  0.428571      2.000000
 -0.142857 -0.142857  0.428571      2.000000
 
 Following cartesian coordinates:
            Coordinates               Weight
  0.000000  0.000000  0.000000      1.000000
  0.048032 -0.027731 -0.019609      2.000000
  0.096064 -0.055462 -0.039218      2.000000
  0.144095 -0.083193 -0.058827      2.000000
  0.000000  0.055462 -0.019609      2.000000
  0.048032  0.027731 -0.039218      2.000000
  0.096064  0.000000 -0.058827      2.000000
  0.144095 -0.027731 -0.078436      2.000000
 -0.144095  0.138656  0.039218      2.000000
 -0.096064  0.110925  0.019609      2.000000
 -0.048032  0.083193  0.000000      2.000000
  0.000000  0.110925 -0.039218      2.000000
  0.048032  0.083193 -0.058827      2.000000
  0.096064  0.055462 -0.078436      2.000000
  0.144095  0.027731 -0.098044      2.000000
 -0.144095  0.194118  0.019609      2.000000
 -0.096064  0.166387  0.000000      2.000000
 -0.048032  0.138656 -0.019609      2.000000
  0.000000  0.166387 -0.058827      2.000000
  0.048032  0.138656 -0.078436      2.000000
  0.096064  0.110925 -0.098044      2.000000
  0.144095  0.083193 -0.117653      2.000000
 -0.144095  0.249580  0.000000      2.000000
 -0.096064  0.221849 -0.019609      2.000000
 -0.048032  0.194118 -0.039218      2.000000
  0.000000  0.000000  0.058827      2.000000
  0.048032 -0.027731  0.039218      2.000000
  0.096064 -0.055462  0.019609      2.000000
  0.144095 -0.083193 -0.000000      2.000000
 -0.144095  0.083193  0.117653      2.000000
 -0.096064  0.055462  0.098044      2.000000
 -0.048032  0.027731  0.078436      2.000000
  0.000000  0.055462  0.039218      2.000000
  0.048032  0.027731  0.019609      2.000000
  0.096064  0.000000  0.000000      2.000000
  0.144095 -0.027731 -0.019609      2.000000
 -0.144095  0.138656  0.098044      2.000000
 -0.096064  0.110925  0.078436      2.000000
 -0.048032  0.083193  0.058827      2.000000
  0.000000  0.110925  0.019609      2.000000
  0.048032  0.083193  0.000000      2.000000
  0.096064  0.055462 -0.019609      2.000000
  0.144095  0.027731 -0.039218      2.000000
 -0.144095  0.194118  0.078436      2.000000
 -0.096064  0.166387  0.058827      2.000000
 -0.048032  0.138656  0.039218      2.000000
  0.000000  0.166387  0.000000      2.000000
  0.048032  0.138656 -0.019609      2.000000
  0.096064  0.110925 -0.039218      2.000000
  0.144095  0.083193 -0.058827      2.000000
 -0.144095  0.249580  0.058827      2.000000
 -0.096064  0.221849  0.039218      2.000000
 -0.048032  0.194118  0.019609      2.000000
  0.000000 -0.166387  0.117653      2.000000
  0.048032 -0.194118  0.098044      2.000000
  0.096064 -0.221849  0.078436      2.000000
  0.144095 -0.249580  0.058827      2.000000
 -0.144095 -0.083193  0.176480      2.000000
 -0.096064 -0.110925  0.156871      2.000000
 -0.048032 -0.138656  0.137262      2.000000
  0.000000 -0.110925  0.098044      2.000000
  0.048032 -0.138656  0.078436      2.000000
  0.096064 -0.166387  0.058827      2.000000
  0.144095 -0.194118  0.039218      2.000000
 -0.144095 -0.027731  0.156871      2.000000
 -0.096064 -0.055462  0.137262      2.000000
 -0.048032 -0.083193  0.117653      2.000000
  0.000000 -0.055462  0.078436      2.000000
  0.048032 -0.083193  0.058827      2.000000
  0.096064 -0.110925  0.039218      2.000000
  0.144095 -0.138656  0.019609      2.000000
 -0.144095  0.027731  0.137262      2.000000
 -0.096064  0.000000  0.117653      2.000000
 -0.048032 -0.027731  0.098044      2.000000
  0.000000  0.000000  0.117653      2.000000
  0.048032 -0.027731  0.098044      2.000000
  0.096064 -0.055462  0.078436      2.000000
  0.144095 -0.083193  0.058827      2.000000
 -0.144095  0.083193  0.176480      2.000000
 -0.096064  0.055462  0.156871      2.000000
 -0.048032  0.027731  0.137262      2.000000
  0.000000  0.055462  0.098044      2.000000
  0.048032  0.027731  0.078436      2.000000
  0.096064  0.000000  0.058827      2.000000
  0.144095 -0.027731  0.039218      2.000000
 -0.144095  0.138656  0.156871      2.000000
 -0.096064  0.110925  0.137262      2.000000
 -0.048032  0.083193  0.117653      2.000000
  0.000000  0.110925  0.078436      2.000000
  0.048032  0.083193  0.058827      2.000000
  0.096064  0.055462  0.039218      2.000000
  0.144095  0.027731  0.019609      2.000000
 -0.144095  0.194118  0.137262      2.000000
 -0.096064  0.166387  0.117653      2.000000
 -0.048032  0.138656  0.098044      2.000000
  0.000000  0.166387  0.058827      2.000000
  0.048032  0.138656  0.039218      2.000000
  0.096064  0.110925  0.019609      2.000000
  0.144095  0.083193  0.000000      2.000000
 -0.144095  0.249580  0.117653      2.000000
 -0.096064  0.221849  0.098044      2.000000
 -0.048032  0.194118  0.078436      2.000000
  0.000000 -0.166387  0.176480      2.000000
  0.048032 -0.194118  0.156871      2.000000
  0.096064 -0.221849  0.137262      2.000000
  0.144095 -0.249580  0.117653      2.000000
 -0.144095 -0.083193  0.235307      2.000000
 -0.096064 -0.110925  0.215698      2.000000
 -0.048032 -0.138656  0.196089      2.000000
  0.000000 -0.110925  0.156871      2.000000
  0.048032 -0.138656  0.137262      2.000000
  0.096064 -0.166387  0.117653      2.000000
  0.144095 -0.194118  0.098044      2.000000
 -0.144095 -0.027731  0.215698      2.000000
 -0.096064 -0.055462  0.196089      2.000000
 -0.048032 -0.083193  0.176480      2.000000
  0.000000 -0.055462  0.137262      2.000000
  0.048032 -0.083193  0.117653      2.000000
  0.096064 -0.110925  0.098044      2.000000
  0.144095 -0.138656  0.078436      2.000000
 -0.144095  0.027731  0.196089      2.000000
 -0.096064  0.000000  0.176480      2.000000
 -0.048032 -0.027731  0.156871      2.000000
  0.000000  0.000000  0.176480      2.000000
  0.048032 -0.027731  0.156871      2.000000
  0.096064 -0.055462  0.137262      2.000000
  0.144095 -0.083193  0.117653      2.000000
 -0.144095  0.083193  0.235307      2.000000
 -0.096064  0.055462  0.215698      2.000000
 -0.048032  0.027731  0.196089      2.000000
  0.000000  0.055462  0.156871      2.000000
  0.048032  0.027731  0.137262      2.000000
  0.096064  0.000000  0.117653      2.000000
  0.144095 -0.027731  0.098044      2.000000
 -0.144095  0.138656  0.215698      2.000000
 -0.096064  0.110925  0.196089      2.000000
 -0.048032  0.083193  0.176480      2.000000
  0.000000  0.110925  0.137262      2.000000
  0.048032  0.083193  0.117653      2.000000
  0.096064  0.055462  0.098044      2.000000
  0.144095  0.027731  0.078436      2.000000
 -0.144095  0.194118  0.196089      2.000000
 -0.096064  0.166387  0.176480      2.000000
 -0.048032  0.138656  0.156871      2.000000
  0.000000  0.166387  0.117653      2.000000
  0.048032  0.138656  0.098044      2.000000
  0.096064  0.110925  0.078436      2.000000
  0.144095  0.083193  0.058827      2.000000
 -0.144095  0.249580  0.176480      2.000000
 -0.096064  0.221849  0.156871      2.000000
 -0.048032  0.194118  0.137262      2.000000
  0.000000 -0.166387  0.235307      2.000000
  0.048032 -0.194118  0.215698      2.000000
  0.096064 -0.221849  0.196089      2.000000
  0.144095 -0.249580  0.176480      2.000000
 -0.144095 -0.083193  0.294133      2.000000
 -0.096064 -0.110925  0.274525      2.000000
 -0.048032 -0.138656  0.254916      2.000000
  0.000000 -0.110925  0.215698      2.000000
  0.048032 -0.138656  0.196089      2.000000
  0.096064 -0.166387  0.176480      2.000000
  0.144095 -0.194118  0.156871      2.000000
 -0.144095 -0.027731  0.274525      2.000000
 -0.096064 -0.055462  0.254916      2.000000
 -0.048032 -0.083193  0.235307      2.000000
  0.000000 -0.055462  0.196089      2.000000
  0.048032 -0.083193  0.176480      2.000000
  0.096064 -0.110925  0.156871      2.000000
  0.144095 -0.138656  0.137262      2.000000
 -0.144095  0.027731  0.254916      2.000000
 -0.096064  0.000000  0.235307      2.000000
 -0.048032 -0.027731  0.215698      2.000000
 
 
 Subroutine IBZKPT_HF returns following result:
 ==============================================
 
 Found    343 k-points in 1st BZ
 the following    343 k-points will be used (e.g. in the exchange kernel)
 Following reciprocal coordinates:   # in IRBZ
  0.000000  0.000000  0.000000    0.00291545   1 t-inv F
  0.142857 -0.000000 -0.000000    0.00291545   2 t-inv F
  0.285714 -0.000000 -0.000000    0.00291545   3 t-inv F
  0.428571  0.000000  0.000000    0.00291545   4 t-inv F
  0.000000  0.142857  0.000000    0.00291545   5 t-inv F
  0.142857  0.142857  0.000000    0.00291545   6 t-inv F
  0.285714  0.142857  0.000000    0.00291545   7 t-inv F
  0.428571  0.142857 -0.000000    0.00291545   8 t-inv F
 -0.428571  0.142857  0.000000    0.00291545   9 t-inv F
 -0.285714  0.142857  0.000000    0.00291545  10 t-inv F
 -0.142857  0.142857 -0.000000    0.00291545  11 t-inv F
  0.000000  0.285714  0.000000    0.00291545  12 t-inv F
  0.142857  0.285714 -0.000000    0.00291545  13 t-inv F
  0.285714  0.285714 -0.000000    0.00291545  14 t-inv F
  0.428571  0.285714 -0.000000    0.00291545  15 t-inv F
 -0.428571  0.285714  0.000000    0.00291545  16 t-inv F
 -0.285714  0.285714  0.000000    0.00291545  17 t-inv F
 -0.142857  0.285714 -0.000000    0.00291545  18 t-inv F
  0.000000  0.428571  0.000000    0.00291545  19 t-inv F
  0.142857  0.428571 -0.000000    0.00291545  20 t-inv F
  0.285714  0.428571  0.000000    0.00291545  21 t-inv F
  0.428571  0.428571  0.000000    0.00291545  22 t-inv F
 -0.428571  0.428571  0.000000    0.00291545  23 t-inv F
 -0.285714  0.428571 -0.000000    0.00291545  24 t-inv F
 -0.142857  0.428571 -0.000000    0.00291545  25 t-inv F
  0.000000  0.000000  0.142857    0.00291545  26 t-inv F
  0.142857 -0.000000  0.142857    0.00291545  27 t-inv F
  0.285714 -0.000000  0.142857    0.00291545  28 t-inv F
  0.428571  0.000000  0.142857    0.00291545  29 t-inv F
 -0.428571  0.000000  0.142857    0.00291545  30 t-inv F
 -0.285714  0.000000  0.142857    0.00291545  31 t-inv F
 -0.142857 -0.000000  0.142857    0.00291545  32 t-inv F
  0.000000  0.142857  0.142857    0.00291545  33 t-inv F
  0.142857  0.142857  0.142857    0.00291545  34 t-inv F
  0.285714  0.142857  0.142857    0.00291545  35 t-inv F
  0.428571  0.142857  0.142857    0.00291545  36 t-inv F
 -0.428571  0.142857  0.142857    0.00291545  37 t-inv F
 -0.285714  0.142857  0.142857    0.00291545  38 t-inv F
 -0.142857  0.142857  0.142857    0.00291545  39 t-inv F
  0.000000  0.285714  0.142857    0.00291545  40 t-inv F
  0.142857  0.285714  0.142857    0.00291545  41 t-inv F
  0.285714  0.285714  0.142857    0.00291545  42 t-inv F
  0.428571  0.285714  0.142857    0.00291545  43 t-inv F
 -0.428571  0.285714  0.142857    0.00291545  44 t-inv F
 -0.285714  0.285714  0.142857    0.00291545  45 t-inv F
 -0.142857  0.285714  0.142857    0.00291545  46 t-inv F
  0.000000  0.428571  0.142857    0.00291545  47 t-inv F
  0.142857  0.428571  0.142857    0.00291545  48 t-inv F
  0.285714  0.428571  0.142857    0.00291545  49 t-inv F
  0.428571  0.428571  0.142857    0.00291545  50 t-inv F
 -0.428571  0.428571  0.142857    0.00291545  51 t-inv F
 -0.285714  0.428571  0.142857    0.00291545  52 t-inv F
 -0.142857  0.428571  0.142857    0.00291545  53 t-inv F
  0.000000 -0.428571  0.142857    0.00291545  54 t-inv F
  0.142857 -0.428571  0.142857    0.00291545  55 t-inv F
  0.285714 -0.428571  0.142857    0.00291545  56 t-inv F
  0.428571 -0.428571  0.142857    0.00291545  57 t-inv F
 -0.428571 -0.428571  0.142857    0.00291545  58 t-inv F
 -0.285714 -0.428571  0.142857    0.00291545  59 t-inv F
 -0.142857 -0.428571  0.142857    0.00291545  60 t-inv F
  0.000000 -0.285714  0.142857    0.00291545  61 t-inv F
  0.142857 -0.285714  0.142857    0.00291545  62 t-inv F
  0.285714 -0.285714  0.142857    0.00291545  63 t-inv F
  0.428571 -0.285714  0.142857    0.00291545  64 t-inv F
 -0.428571 -0.285714  0.142857    0.00291545  65 t-inv F
 -0.285714 -0.285714  0.142857    0.00291545  66 t-inv F
 -0.142857 -0.285714  0.142857    0.00291545  67 t-inv F
  0.000000 -0.142857  0.142857    0.00291545  68 t-inv F
  0.142857 -0.142857  0.142857    0.00291545  69 t-inv F
  0.285714 -0.142857  0.142857    0.00291545  70 t-inv F
  0.428571 -0.142857  0.142857    0.00291545  71 t-inv F
 -0.428571 -0.142857  0.142857    0.00291545  72 t-inv F
 -0.285714 -0.142857  0.142857    0.00291545  73 t-inv F
 -0.142857 -0.142857  0.142857    0.00291545  74 t-inv F
  0.000000  0.000000  0.285714    0.00291545  75 t-inv F
  0.142857 -0.000000  0.285714    0.00291545  76 t-inv F
  0.285714 -0.000000  0.285714    0.00291545  77 t-inv F
  0.428571  0.000000  0.285714    0.00291545  78 t-inv F
 -0.428571  0.000000  0.285714    0.00291545  79 t-inv F
 -0.285714  0.000000  0.285714    0.00291545  80 t-inv F
 -0.142857 -0.000000  0.285714    0.00291545  81 t-inv F
  0.000000  0.142857  0.285714    0.00291545  82 t-inv F
  0.142857  0.142857  0.285714    0.00291545  83 t-inv F
  0.285714  0.142857  0.285714    0.00291545  84 t-inv F
  0.428571  0.142857  0.285714    0.00291545  85 t-inv F
 -0.428571  0.142857  0.285714    0.00291545  86 t-inv F
 -0.285714  0.142857  0.285714    0.00291545  87 t-inv F
 -0.142857  0.142857  0.285714    0.00291545  88 t-inv F
  0.000000  0.285714  0.285714    0.00291545  89 t-inv F
  0.142857  0.285714  0.285714    0.00291545  90 t-inv F
  0.285714  0.285714  0.285714    0.00291545  91 t-inv F
  0.428571  0.285714  0.285714    0.00291545  92 t-inv F
 -0.428571  0.285714  0.285714    0.00291545  93 t-inv F
 -0.285714  0.285714  0.285714    0.00291545  94 t-inv F
 -0.142857  0.285714  0.285714    0.00291545  95 t-inv F
  0.000000  0.428571  0.285714    0.00291545  96 t-inv F
  0.142857  0.428571  0.285714    0.00291545  97 t-inv F
  0.285714  0.428571  0.285714    0.00291545  98 t-inv F
  0.428571  0.428571  0.285714    0.00291545  99 t-inv F
 -0.428571  0.428571  0.285714    0.00291545 100 t-inv F
 -0.285714  0.428571  0.285714    0.00291545 101 t-inv F
 -0.142857  0.428571  0.285714    0.00291545 102 t-inv F
  0.000000 -0.428571  0.285714    0.00291545 103 t-inv F
  0.142857 -0.428571  0.285714    0.00291545 104 t-inv F
  0.285714 -0.428571  0.285714    0.00291545 105 t-inv F
  0.428571 -0.428571  0.285714    0.00291545 106 t-inv F
 -0.428571 -0.428571  0.285714    0.00291545 107 t-inv F
 -0.285714 -0.428571  0.285714    0.00291545 108 t-inv F
 -0.142857 -0.428571  0.285714    0.00291545 109 t-inv F
  0.000000 -0.285714  0.285714    0.00291545 110 t-inv F
  0.142857 -0.285714  0.285714    0.00291545 111 t-inv F
  0.285714 -0.285714  0.285714    0.00291545 112 t-inv F
  0.428571 -0.285714  0.285714    0.00291545 113 t-inv F
 -0.428571 -0.285714  0.285714    0.00291545 114 t-inv F
 -0.285714 -0.285714  0.285714    0.00291545 115 t-inv F
 -0.142857 -0.285714  0.285714    0.00291545 116 t-inv F
  0.000000 -0.142857  0.285714    0.00291545 117 t-inv F
  0.142857 -0.142857  0.285714    0.00291545 118 t-inv F
  0.285714 -0.142857  0.285714    0.00291545 119 t-inv F
  0.428571 -0.142857  0.285714    0.00291545 120 t-inv F
 -0.428571 -0.142857  0.285714    0.00291545 121 t-inv F
 -0.285714 -0.142857  0.285714    0.00291545 122 t-inv F
 -0.142857 -0.142857  0.285714    0.00291545 123 t-inv F
  0.000000  0.000000  0.428571    0.00291545 124 t-inv F
  0.142857 -0.000000  0.428571    0.00291545 125 t-inv F
  0.285714 -0.000000  0.428571    0.00291545 126 t-inv F
  0.428571  0.000000  0.428571    0.00291545 127 t-inv F
 -0.428571  0.000000  0.428571    0.00291545 128 t-inv F
 -0.285714  0.000000  0.428571    0.00291545 129 t-inv F
 -0.142857 -0.000000  0.428571    0.00291545 130 t-inv F
  0.000000  0.142857  0.428571    0.00291545 131 t-inv F
  0.142857  0.142857  0.428571    0.00291545 132 t-inv F
  0.285714  0.142857  0.428571    0.00291545 133 t-inv F
  0.428571  0.142857  0.428571    0.00291545 134 t-inv F
 -0.428571  0.142857  0.428571    0.00291545 135 t-inv F
 -0.285714  0.142857  0.428571    0.00291545 136 t-inv F
 -0.142857  0.142857  0.428571    0.00291545 137 t-inv F
  0.000000  0.285714  0.428571    0.00291545 138 t-inv F
  0.142857  0.285714  0.428571    0.00291545 139 t-inv F
  0.285714  0.285714  0.428571    0.00291545 140 t-inv F
  0.428571  0.285714  0.428571    0.00291545 141 t-inv F
 -0.428571  0.285714  0.428571    0.00291545 142 t-inv F
 -0.285714  0.285714  0.428571    0.00291545 143 t-inv F
 -0.142857  0.285714  0.428571    0.00291545 144 t-inv F
  0.000000  0.428571  0.428571    0.00291545 145 t-inv F
  0.142857  0.428571  0.428571    0.00291545 146 t-inv F
  0.285714  0.428571  0.428571    0.00291545 147 t-inv F
  0.428571  0.428571  0.428571    0.00291545 148 t-inv F
 -0.428571  0.428571  0.428571    0.00291545 149 t-inv F
 -0.285714  0.428571  0.428571    0.00291545 150 t-inv F
 -0.142857  0.428571  0.428571    0.00291545 151 t-inv F
  0.000000 -0.428571  0.428571    0.00291545 152 t-inv F
  0.142857 -0.428571  0.428571    0.00291545 153 t-inv F
  0.285714 -0.428571  0.428571    0.00291545 154 t-inv F
  0.428571 -0.428571  0.428571    0.00291545 155 t-inv F
 -0.428571 -0.428571  0.428571    0.00291545 156 t-inv F
 -0.285714 -0.428571  0.428571    0.00291545 157 t-inv F
 -0.142857 -0.428571  0.428571    0.00291545 158 t-inv F
  0.000000 -0.285714  0.428571    0.00291545 159 t-inv F
  0.142857 -0.285714  0.428571    0.00291545 160 t-inv F
  0.285714 -0.285714  0.428571    0.00291545 161 t-inv F
  0.428571 -0.285714  0.428571    0.00291545 162 t-inv F
 -0.428571 -0.285714  0.428571    0.00291545 163 t-inv F
 -0.285714 -0.285714  0.428571    0.00291545 164 t-inv F
 -0.142857 -0.285714  0.428571    0.00291545 165 t-inv F
  0.000000 -0.142857  0.428571    0.00291545 166 t-inv F
  0.142857 -0.142857  0.428571    0.00291545 167 t-inv F
  0.285714 -0.142857  0.428571    0.00291545 168 t-inv F
  0.428571 -0.142857  0.428571    0.00291545 169 t-inv F
 -0.428571 -0.142857  0.428571    0.00291545 170 t-inv F
 -0.285714 -0.142857  0.428571    0.00291545 171 t-inv F
 -0.142857 -0.142857  0.428571    0.00291545 172 t-inv F
 -0.142857  0.000000  0.000000    0.00291545   2 t-inv T
 -0.285714  0.000000  0.000000    0.00291545   3 t-inv T
 -0.428571  0.000000 -0.000000    0.00291545   4 t-inv T
  0.000000 -0.142857 -0.000000    0.00291545   5 t-inv T
 -0.142857 -0.142857  0.000000    0.00291545   6 t-inv T
 -0.285714 -0.142857  0.000000    0.00291545   7 t-inv T
 -0.428571 -0.142857  0.000000    0.00291545   8 t-inv T
  0.428571 -0.142857 -0.000000    0.00291545   9 t-inv T
  0.285714 -0.142857 -0.000000    0.00291545  10 t-inv T
  0.142857 -0.142857  0.000000    0.00291545  11 t-inv T
  0.000000 -0.285714  0.000000    0.00291545  12 t-inv T
 -0.142857 -0.285714  0.000000    0.00291545  13 t-inv T
 -0.285714 -0.285714  0.000000    0.00291545  14 t-inv T
 -0.428571 -0.285714  0.000000    0.00291545  15 t-inv T
  0.428571 -0.285714  0.000000    0.00291545  16 t-inv T
  0.285714 -0.285714 -0.000000    0.00291545  17 t-inv T
  0.142857 -0.285714  0.000000    0.00291545  18 t-inv T
  0.000000 -0.428571  0.000000    0.00291545  19 t-inv T
 -0.142857 -0.428571  0.000000    0.00291545  20 t-inv T
 -0.285714 -0.428571  0.000000    0.00291545  21 t-inv T
 -0.428571 -0.428571  0.000000    0.00291545  22 t-inv T
  0.428571 -0.428571 -0.000000    0.00291545  23 t-inv T
  0.285714 -0.428571  0.000000    0.00291545  24 t-inv T
  0.142857 -0.428571  0.000000    0.00291545  25 t-inv T
  0.000000  0.000000 -0.142857    0.00291545  26 t-inv T
 -0.142857  0.000000 -0.142857    0.00291545  27 t-inv T
 -0.285714  0.000000 -0.142857    0.00291545  28 t-inv T
 -0.428571  0.000000 -0.142857    0.00291545  29 t-inv T
  0.428571  0.000000 -0.142857    0.00291545  30 t-inv T
  0.285714 -0.000000 -0.142857    0.00291545  31 t-inv T
  0.142857  0.000000 -0.142857    0.00291545  32 t-inv T
  0.000000 -0.142857 -0.142857    0.00291545  33 t-inv T
 -0.142857 -0.142857 -0.142857    0.00291545  34 t-inv T
 -0.285714 -0.142857 -0.142857    0.00291545  35 t-inv T
 -0.428571 -0.142857 -0.142857    0.00291545  36 t-inv T
  0.428571 -0.142857 -0.142857    0.00291545  37 t-inv T
  0.285714 -0.142857 -0.142857    0.00291545  38 t-inv T
  0.142857 -0.142857 -0.142857    0.00291545  39 t-inv T
  0.000000 -0.285714 -0.142857    0.00291545  40 t-inv T
 -0.142857 -0.285714 -0.142857    0.00291545  41 t-inv T
 -0.285714 -0.285714 -0.142857    0.00291545  42 t-inv T
 -0.428571 -0.285714 -0.142857    0.00291545  43 t-inv T
  0.428571 -0.285714 -0.142857    0.00291545  44 t-inv T
  0.285714 -0.285714 -0.142857    0.00291545  45 t-inv T
  0.142857 -0.285714 -0.142857    0.00291545  46 t-inv T
  0.000000 -0.428571 -0.142857    0.00291545  47 t-inv T
 -0.142857 -0.428571 -0.142857    0.00291545  48 t-inv T
 -0.285714 -0.428571 -0.142857    0.00291545  49 t-inv T
 -0.428571 -0.428571 -0.142857    0.00291545  50 t-inv T
  0.428571 -0.428571 -0.142857    0.00291545  51 t-inv T
  0.285714 -0.428571 -0.142857    0.00291545  52 t-inv T
  0.142857 -0.428571 -0.142857    0.00291545  53 t-inv T
  0.000000  0.428571 -0.142857    0.00291545  54 t-inv T
 -0.142857  0.428571 -0.142857    0.00291545  55 t-inv T
 -0.285714  0.428571 -0.142857    0.00291545  56 t-inv T
 -0.428571  0.428571 -0.142857    0.00291545  57 t-inv T
  0.428571  0.428571 -0.142857    0.00291545  58 t-inv T
  0.285714  0.428571 -0.142857    0.00291545  59 t-inv T
  0.142857  0.428571 -0.142857    0.00291545  60 t-inv T
  0.000000  0.285714 -0.142857    0.00291545  61 t-inv T
 -0.142857  0.285714 -0.142857    0.00291545  62 t-inv T
 -0.285714  0.285714 -0.142857    0.00291545  63 t-inv T
 -0.428571  0.285714 -0.142857    0.00291545  64 t-inv T
  0.428571  0.285714 -0.142857    0.00291545  65 t-inv T
  0.285714  0.285714 -0.142857    0.00291545  66 t-inv T
  0.142857  0.285714 -0.142857    0.00291545  67 t-inv T
  0.000000  0.142857 -0.142857    0.00291545  68 t-inv T
 -0.142857  0.142857 -0.142857    0.00291545  69 t-inv T
 -0.285714  0.142857 -0.142857    0.00291545  70 t-inv T
 -0.428571  0.142857 -0.142857    0.00291545  71 t-inv T
  0.428571  0.142857 -0.142857    0.00291545  72 t-inv T
  0.285714  0.142857 -0.142857    0.00291545  73 t-inv T
  0.142857  0.142857 -0.142857    0.00291545  74 t-inv T
  0.000000  0.000000 -0.285714    0.00291545  75 t-inv T
 -0.142857  0.000000 -0.285714    0.00291545  76 t-inv T
 -0.285714  0.000000 -0.285714    0.00291545  77 t-inv T
 -0.428571  0.000000 -0.285714    0.00291545  78 t-inv T
  0.428571  0.000000 -0.285714    0.00291545  79 t-inv T
  0.285714 -0.000000 -0.285714    0.00291545  80 t-inv T
  0.142857  0.000000 -0.285714    0.00291545  81 t-inv T
  0.000000 -0.142857 -0.285714    0.00291545  82 t-inv T
 -0.142857 -0.142857 -0.285714    0.00291545  83 t-inv T
 -0.285714 -0.142857 -0.285714    0.00291545  84 t-inv T
 -0.428571 -0.142857 -0.285714    0.00291545  85 t-inv T
  0.428571 -0.142857 -0.285714    0.00291545  86 t-inv T
  0.285714 -0.142857 -0.285714    0.00291545  87 t-inv T
  0.142857 -0.142857 -0.285714    0.00291545  88 t-inv T
  0.000000 -0.285714 -0.285714    0.00291545  89 t-inv T
 -0.142857 -0.285714 -0.285714    0.00291545  90 t-inv T
 -0.285714 -0.285714 -0.285714    0.00291545  91 t-inv T
 -0.428571 -0.285714 -0.285714    0.00291545  92 t-inv T
  0.428571 -0.285714 -0.285714    0.00291545  93 t-inv T
  0.285714 -0.285714 -0.285714    0.00291545  94 t-inv T
  0.142857 -0.285714 -0.285714    0.00291545  95 t-inv T
  0.000000 -0.428571 -0.285714    0.00291545  96 t-inv T
 -0.142857 -0.428571 -0.285714    0.00291545  97 t-inv T
 -0.285714 -0.428571 -0.285714    0.00291545  98 t-inv T
 -0.428571 -0.428571 -0.285714    0.00291545  99 t-inv T
  0.428571 -0.428571 -0.285714    0.00291545 100 t-inv T
  0.285714 -0.428571 -0.285714    0.00291545 101 t-inv T
  0.142857 -0.428571 -0.285714    0.00291545 102 t-inv T
  0.000000  0.428571 -0.285714    0.00291545 103 t-inv T
 -0.142857  0.428571 -0.285714    0.00291545 104 t-inv T
 -0.285714  0.428571 -0.285714    0.00291545 105 t-inv T
 -0.428571  0.428571 -0.285714    0.00291545 106 t-inv T
  0.428571  0.428571 -0.285714    0.00291545 107 t-inv T
  0.285714  0.428571 -0.285714    0.00291545 108 t-inv T
  0.142857  0.428571 -0.285714    0.00291545 109 t-inv T
  0.000000  0.285714 -0.285714    0.00291545 110 t-inv T
 -0.142857  0.285714 -0.285714    0.00291545 111 t-inv T
 -0.285714  0.285714 -0.285714    0.00291545 112 t-inv T
 -0.428571  0.285714 -0.285714    0.00291545 113 t-inv T
  0.428571  0.285714 -0.285714    0.00291545 114 t-inv T
  0.285714  0.285714 -0.285714    0.00291545 115 t-inv T
  0.142857  0.285714 -0.285714    0.00291545 116 t-inv T
  0.000000  0.142857 -0.285714    0.00291545 117 t-inv T
 -0.142857  0.142857 -0.285714    0.00291545 118 t-inv T
 -0.285714  0.142857 -0.285714    0.00291545 119 t-inv T
 -0.428571  0.142857 -0.285714    0.00291545 120 t-inv T
  0.428571  0.142857 -0.285714    0.00291545 121 t-inv T
  0.285714  0.142857 -0.285714    0.00291545 122 t-inv T
  0.142857  0.142857 -0.285714    0.00291545 123 t-inv T
  0.000000  0.000000 -0.428571    0.00291545 124 t-inv T
 -0.142857  0.000000 -0.428571    0.00291545 125 t-inv T
 -0.285714  0.000000 -0.428571    0.00291545 126 t-inv T
 -0.428571  0.000000 -0.428571    0.00291545 127 t-inv T
  0.428571  0.000000 -0.428571    0.00291545 128 t-inv T
  0.285714 -0.000000 -0.428571    0.00291545 129 t-inv T
  0.142857  0.000000 -0.428571    0.00291545 130 t-inv T
  0.000000 -0.142857 -0.428571    0.00291545 131 t-inv T
 -0.142857 -0.142857 -0.428571    0.00291545 132 t-inv T
 -0.285714 -0.142857 -0.428571    0.00291545 133 t-inv T
 -0.428571 -0.142857 -0.428571    0.00291545 134 t-inv T
  0.428571 -0.142857 -0.428571    0.00291545 135 t-inv T
  0.285714 -0.142857 -0.428571    0.00291545 136 t-inv T
  0.142857 -0.142857 -0.428571    0.00291545 137 t-inv T
  0.000000 -0.285714 -0.428571    0.00291545 138 t-inv T
 -0.142857 -0.285714 -0.428571    0.00291545 139 t-inv T
 -0.285714 -0.285714 -0.428571    0.00291545 140 t-inv T
 -0.428571 -0.285714 -0.428571    0.00291545 141 t-inv T
  0.428571 -0.285714 -0.428571    0.00291545 142 t-inv T
  0.285714 -0.285714 -0.428571    0.00291545 143 t-inv T
  0.142857 -0.285714 -0.428571    0.00291545 144 t-inv T
  0.000000 -0.428571 -0.428571    0.00291545 145 t-inv T
 -0.142857 -0.428571 -0.428571    0.00291545 146 t-inv T
 -0.285714 -0.428571 -0.428571    0.00291545 147 t-inv T
 -0.428571 -0.428571 -0.428571    0.00291545 148 t-inv T
  0.428571 -0.428571 -0.428571    0.00291545 149 t-inv T
  0.285714 -0.428571 -0.428571    0.00291545 150 t-inv T
  0.142857 -0.428571 -0.428571    0.00291545 151 t-inv T
  0.000000  0.428571 -0.428571    0.00291545 152 t-inv T
 -0.142857  0.428571 -0.428571    0.00291545 153 t-inv T
 -0.285714  0.428571 -0.428571    0.00291545 154 t-inv T
 -0.428571  0.428571 -0.428571    0.00291545 155 t-inv T
  0.428571  0.428571 -0.428571    0.00291545 156 t-inv T
  0.285714  0.428571 -0.428571    0.00291545 157 t-inv T
  0.142857  0.428571 -0.428571    0.00291545 158 t-inv T
  0.000000  0.285714 -0.428571    0.00291545 159 t-inv T
 -0.142857  0.285714 -0.428571    0.00291545 160 t-inv T
 -0.285714  0.285714 -0.428571    0.00291545 161 t-inv T
 -0.428571  0.285714 -0.428571    0.00291545 162 t-inv T
  0.428571  0.285714 -0.428571    0.00291545 163 t-inv T
  0.285714  0.285714 -0.428571    0.00291545 164 t-inv T
  0.142857  0.285714 -0.428571    0.00291545 165 t-inv T
  0.000000  0.142857 -0.428571    0.00291545 166 t-inv T
 -0.142857  0.142857 -0.428571    0.00291545 167 t-inv T
 -0.285714  0.142857 -0.428571    0.00291545 168 t-inv T
 -0.428571  0.142857 -0.428571    0.00291545 169 t-inv T
  0.428571  0.142857 -0.428571    0.00291545 170 t-inv T
  0.285714  0.142857 -0.428571    0.00291545 171 t-inv T
  0.142857  0.142857 -0.428571    0.00291545 172 t-inv T


--------------------------------------------------------------------------------------------------------




 Dimension of arrays:
   k-points           NKPTS =    172   k-points in BZ     NKDIM =    343   number of bands    NBANDS=    128
   number of dos      NEDOS =    301   number of ions     NIONS =      1
   non local maximal  LDIM  =      8   non local SUM 2l+1 LMDIM =     22
   total plane-waves  NPLWV =   5832
   max r-space proj   IRMAX =      1   max aug-charges    IRDMAX=  41786
   dimension x,y,z NGX =    18 NGY =   18 NGZ =   18
   dimension x,y,z NGXF=    36 NGYF=   36 NGZF=   36
   support grid    NGXF=    72 NGYF=   72 NGZF=   72
   ions per type =               1
   NGX,Y,Z   is equivalent  to a cutoff of   9.48,  9.48,  9.48 a.u.
   NGXF,Y,Z  is equivalent  to a cutoff of  18.96, 18.96, 18.96 a.u.

 SYSTEM =  Og_FCC                                  
 POSCAR =  Ne_FCC                                  

 Startparameter for this run:
   NWRITE =      1    write-flag & timer
   PREC   = accura    normal or accurate (medium, high low for compatibility)
   ISTART =      1    job   : 0-new  1-cont  2-samecut
   ICHARG =      0    charge: 1-file 2-atom 10-const
   ISPIN  =      1    spin polarized calculation?
   LNONCOLLINEAR =      F non collinear calculations
   LSORBIT =      F    spin-orbit coupling
   INIWAV =      1    electr: 0-lowe 1-rand  2-diag
   LASPH  =      F    aspherical Exc in radial PAW
   METAGGA=      F    non-selfconsistent MetaGGA calc.

 Electronic Relaxation 1
   ENCUT  =  300.0 eV  22.05 Ry    4.70 a.u.   4.46  4.46  4.46*2*pi/ulx,y,z
   ENINI  =  300.0     initial cutoff
   ENAUG  =  755.8 eV  augmentation charge cutoff
   NELM   =      1;   NELMIN=  2; NELMDL=  0     # of ELM steps 
   EDIFF  = 0.1E-07   stopping-criterion for ELM
   LREAL  =      F    real-space projection
   NLSPLINE    = F    spline interpolate recip. space projectors
   LCOMPAT=      F    compatible to vasp.4.4
   GGA_COMPAT  = F    GGA compatible to vasp.4.4-vasp.4.6
   LMAXPAW     = -100 max onsite density
   LMAXMIX     =    2 max onsite mixed and CHGCAR
   VOSKOWN=      0    Vosko Wilk Nusair interpolation
   ROPT   =    0.00000
 Ionic relaxation
   EDIFFG = 0.1E-04   stopping-criterion for IOM
   NSW    =      1    number of steps for IOM
   NBLOCK =      1;   KBLOCK =      1    inner block; outer block 
   IBRION =     -1    ionic relax: 0-MD 1-quasi-New 2-CG
   NFREE  =      5    steps in history (QN), initial steepest desc. (CG)
   ISIF   =      3    stress and relaxation
   IWAVPR =     10    prediction:  0-non 1-charg 2-wave 3-comb
   ISYM   =      0    0-nonsym 1-usesym 2-fastsym
   LCORR  =      T    Harris-Foulkes like correction to forces

   POTIM  = 0.1000    time-step for ionic-motion
   TEIN   =    0.0    initial temperature
   TEBEG  =    0.0;   TEEND  =   0.0 temperature during run
   SMASS  =  -3.00    Nose mass-parameter (am)
   estimated Nose-frequenzy (Omega)   =  0.10E-29 period in steps =****** mass=  -0.228E-27a.u.
   SCALEE = 1.0000    scale energy and forces
   NPACO  =    256;   APACO  = 16.0  distance and # of slots for P.C.
   PSTRESS=    0.0 pullay stress

  Mass of Ions in am
   POMASS =  20.18
  Ionic Valenz
   ZVAL   =   8.00
  Atomic Wigner-Seitz radii
   RWIGS  =  -1.00
  virtual crystal weights 
   VCA    =   1.00
   NELECT =       8.0000    total number of electrons
   NUPDOWN=      -1.0000    fix difference up-down

 DOS related values:
   EMIN   =  10.00;   EMAX   =-10.00  energy-range for DOS
   EFERMI =   0.00
   ISMEAR =     0;   SIGMA  =   0.00  broadening in eV -4-tet -1-fermi 0-gaus

 Electronic relaxation 2 (details)
   IALGO  =     38    algorithm
   LDIAG  =      T    sub-space diagonalisation (order eigenvalues)
   LSUBROT=      F    optimize rotation matrix (better conditioning)
   TURBO    =      0    0=normal 1=particle mesh
   IRESTART =      0    0=no restart 2=restart with 2 vectors
   NREBOOT  =      0    no. of reboots
   NMIN     =      0    reboot dimension
   EREF     =   0.00    reference energy to select bands
   IMIX   =      1    mixing-type and parameters
     AMIX     =   0.40;   BMIX     =  1.00
     AMIX_MAG =   1.60;   BMIX_MAG =  1.00
     AMIN     =   0.10
     WC   =   100.;   INIMIX=   1;  MIXPRE=   1;  MAXMIX=  50

 Intra band minimization:
   WEIMIN = 0.0000     energy-eigenvalue tresh-hold
   EBREAK =  0.20E-10  absolut break condition
   DEPER  =   0.30     relativ break condition  

   TIME   =   0.40     timestep for ELM

  volume/ion in A,a.u.               =      22.24       150.09
  Fermi-wavevector in a.u.,A,eV,Ry     =   1.164266  2.200144 18.442905  1.355515
  Thomas-Fermi vector in A             =   2.300806
 
 Write flags
   LWAVE        =      T    write WAVECAR
   LDOWNSAMPLE  =      F    k-point downsampling of WAVECAR
   LCHARG       =      F    write CHGCAR
   LVTOT        =      F    write LOCPOT, total local potential
   LVHAR        =      F    write LOCPOT, Hartree potential only
   LELF         =      F    write electronic localiz. function (ELF)
   LORBIT       =      0    0 simple, 1 ext, 2 COOP (PROOUT), +10 PAW based schemes


 Dipole corrections
   LMONO  =      F    monopole corrections only (constant potential shift)
   LDIPOL =      F    correct potential (dipole corrections)
   IDIPOL =      0    1-x, 2-y, 3-z, 4-all directions 
   EPSILON=  1.0000000 bulk dielectric constant

 Exchange correlation treatment:
   GGA     =    PE    GGA type
   LEXCH   =     8    internal setting for exchange type
   VOSKOWN=      0    Vosko Wilk Nusair interpolation
   EXXOEP  =     0    0=HF, 1=EXX-LHF (local Hartree Fock) 2=EXX OEP
   LHFCALC =     T    Hartree Fock is set to
   LSYMGRAD=     F    symmetrize gradient (conserves proper symmetry)
   PRECFOCK=normal    Normal, Fast or Accurate (Low or Medium for compatibility)
   LRHFCALC=     F    long range Hartree Fock
   LRSCOR  =     F    long range correlation only (use DFT for short range part)
   LTHOMAS =     F    Thomas Fermi screening in HF
   LMODELHF=     F    short range full HF, long range fraction AEXX
   ENCUT4O =  -1.0   cutoff for four orbital integrals eV
   LMAXFOCK=     4    L truncation for augmentation on plane wave grid
   LMAXFOCKAE=   4    L truncation for all-electron charge restoration on plane wave grid
   NMAXFOCKAE=   1    number of basis functions for all-electron charge restoration
   LFOCKAEDFT=     F  apply the AE augmentation even for DFT
   NKREDX  =     1    reduce k-point grid by
   NKREDY  =     1    reduce k-point grid by
   NKREDZ  =     1    reduce k-point grid by
   SHIFTRED=     F    shift reduced grid of Gamma
   HFKIDENT=     F    idential grid for each k-point
   ODDONLY =     F    use only odd q-grid points
   EVENONLY=     F    use only even q-grid points
   HFALPHA =   -1.0000 decay constant for conv. correction
   MCALPHA =    0.0000 extent of test-charge in conv. correction in multipole expansion
   AEXX    =    1.0000 exact exchange contribution
   HFSCREEN=    0.0000 screening length (either q_TF or 0.3 A-1)
   HFSCREENC=   0.0000 screening length for correlation (either q_TF or 0.3 A-1)
   HFRCUT  =    0.0000 spherical cutoff for potential kernel
   ALDAX   =    0.0000 LDA exchange part
   AGGAX   =    0.0000 GGA exchange part
   ALDAC   =    0.0000 LDA correlation
   AGGAC   =    0.0000 GGA correlation
   ENCUTFOCK=  -1.0 apply spherical cutoff to Coloumb kernel
   NBANDSGWLOW=     1    first orbital included in HF term
   NBLOCK_FOCK=    64    blocking factor in FOCK_ACC
 Linear response parameters
   LEPSILON=     F    determine dielectric tensor
   LRPA    =     F    only Hartree local field effects (RPA)
   LNABLA  =     F    use nabla operator in PAW spheres
   LVEL    =     F    velocity operator in full k-point grid
   LINTERFAST=   F  fast interpolation
   KINTER  =     0    interpolate to denser k-point grid
   CSHIFT  =0.1000    complex shift for real part using Kramers Kronig
   OMEGAMAX=  -1.0    maximum frequency
   DEG_THRESHOLD= 0.2000000E-02 threshold for treating states as degnerate
   RTIME   =   -0.100 relaxation time in fs
  (WPLASMAI=    0.000 imaginary part of plasma frequency in eV, 0.658/RTIME)
   DFIELD  = 0.0000000 0.0000000 0.0000000 field for delta impulse in time
 
 Orbital magnetization related:
   ORBITALMAG=     F  switch on orbital magnetization
   LCHIMAG   =     F  perturbation theory with respect to B field
   DQ        =  0.001000  dq finite difference perturbation B field
   LLRAUG    =     F  two centre corrections for induced B field

 Response functions by sum over occupied states:
   ALGO    =QPGW       execute GW part
   LFXC    =     F    include DFT xc kernel in TD-HF and W
   LADDER  =     F    particle hole ladder diagrams for BSE/TD-HF and W (Nano-quanta)
   LRPAFORCE=     F   calculate RPA forces
   LHARTREE=     T    include Hartree terms (bubbles-RPA) in BSE/TD-HF
   IBSE    =     0    BSE modus: 0 exact, 1 time-evolution (store matrix), 10 time-evolution (implicit)
   KPOINT  =    -1   0   0   0    k-point index at which BSE equation is solved (and G at which response is eval.)
   LTRIPLET=     F    triplet instead of singlet excitation (BSE only)
   LRSRPA  =     F    range separated RPA (total - short) in ACFDT
   LTCTE   =     F    use test-charge test-electron dielectric function
   LTETE   =     F    use test-electron test-electron dielectric function
   LFXCEPS =     F    determine f_xc=epsilon-1/Xi Sharma and Gross kernel
   LFXHEG  =     F    model exchange using f_x(G,k_F) from free electron gas
   NATURALO=     2    0 natural orbitals, 1 only virtual, 2 only occupied-virtual rotation
   L2ORDER =     F    2nd order terms only
   LMP2LT   =     F    use LT MP2
   LUSEW   =     F    use screened W from WXXXX.tmp files instead of (screened) HF kernel
   ENCUTGW = 200.0    cutoff for response function in eV
   ENCUTGWSOFT = 200.0 soft cutoff for Coulomb kernel in GW response function in eV
   ENCUTLF =  -1.0    cutoff for local field effects
   LMAXMP2 =    -1    maximum L for one center terms
   SCISSOR =   0.0    scissor correction
   NOMEGA  =    50    number of frequencies
   NOMEGAR =    50    number of frequencies along real axis
   NBANDSGW=    -1    number of bands for which selfenergy shift is calculated
   NBANDSGWLOW=     1 lowest band included in GW (to exclude core correlation)
   NBANDSO =    -1    number of bands for electron-hole treatment (occupied)
   NBANDSV =    -1    number of bands for electron-hole treatment (virtual)
   NELM    =     1    number of iterations in solving QP/BSE equation
   NELMHF  =     1    number of iterations in the inner HF iteration
   DIM     =     3    dimensionality of system (0=0D molecules, 3=3D)
   ANTIRES =     0    antiresonant part (0) no TDA (1) w=0 exact (2) accurate
   OMEGAMAX= -30.0    maximum frequency
   OMEGAMIN= -30.000    minimum frequency
   OMEGATL =-200.0    maximum frequency of tail
   OMEGAGRID=     0    grid type (0 default)
   CSHIFT  =-0.100    complex shift used in evaluation of response functions
   SELFENERGY=   F    calculate selfenergy instead of QP shifts
   LSPECTRAL =   T    use spectral functions                   
   LSPECTRALGW=   F   use spectral functions to calculate int dz G(w-z) W(z) (more accurate)
   LSINGLES  =   F   calculate the singles contribution to the correlation energy
   LFERMIGW  =   F   update Fermi-energy in the Greens function

   ODDONLYGW =   F    avoid all even points for polarizability 
   EVENONLYGW=   F    avoid all odd  points for polarizability 
   NKREDLFX  =   1   NKREDLFY  =   1   NKREDLFZ  =   1

   TELESCOPE =   0   use telescope k-point sampling
   TAUPAR    =   1   number of TAU groups used in imaginary time calculation
   OMEGAPAR  =  -1   number of OMEGA groups used in imaginary frequency calculation



--------------------------------------------------------------------------------------------------------


 Static calculation
 charge density and potential will be updated during run
 non-spin polarized calculation
 Variant of blocked Davidson
 Davidson routine will perform the subspace rotation
 perform sub-space diagonalisation
    after iterative eigenvector-optimisation
 Kerker-like  mixing scheme
 using additional bands          124
 reciprocal scheme for non local part
 use partial core corrections
 calculate Harris-corrections to forces 
   (improved forces if not selfconsistent)
 use gradient corrections 
 use of overlap-Matrix (Vanderbilt PP)
 Gauss-broadening in eV      SIGMA  =   0.00


--------------------------------------------------------------------------------------------------------


  energy-cutoff  :      300.00
  volume of cell :       22.24
      direct lattice vectors                 reciprocal lattice vectors
     3.156634414  0.000000000  0.000000000     0.316793100 -0.182900581 -0.129330241
     1.578317207  2.733725593  0.000000000     0.000000000  0.365801163 -0.129330241
     1.578317207  0.911241864  2.577381206     0.000000000  0.000000000  0.387990724

  length of vectors
     3.156634414  3.156634414  3.156634414     0.387990724  0.387990724  0.387990724


 
 old parameters found on file WAVECAR:
  energy-cutoff  :      300.00
  volume of cell :       22.24
      direct lattice vectors                 reciprocal lattice vectors
     3.156634414  0.000000000  0.000000000     0.316793100 -0.182900581 -0.129330241
     1.578317207  2.733725593  0.000000000     0.000000000  0.365801163 -0.129330241
     1.578317207  0.911241864  2.577381206     0.000000000  0.000000000  0.387990724

  length of vectors

 
 k-points in units of 2pi/SCALE and weight: k-points                                
   0.00000000  0.00000000  0.00000000       0.003
   0.04803179 -0.02773117 -0.01960889       0.006
   0.09606357 -0.05546233 -0.03921779       0.006
   0.14409536 -0.08319350 -0.05882668       0.006
   0.00000000  0.05546233 -0.01960889       0.006
   0.04803179  0.02773117 -0.03921779       0.006
   0.09606357  0.00000000 -0.05882668       0.006
   0.14409536 -0.02773117 -0.07843558       0.006
  -0.14409536  0.13865583  0.03921779       0.006
  -0.09606357  0.11092466  0.01960889       0.006
  -0.04803179  0.08319350  0.00000000       0.006
   0.00000000  0.11092466 -0.03921779       0.006
   0.04803179  0.08319350 -0.05882668       0.006
   0.09606357  0.05546233 -0.07843558       0.006
   0.14409536  0.02773117 -0.09804447       0.006
  -0.14409536  0.19411816  0.01960889       0.006
  -0.09606357  0.16638699  0.00000000       0.006
  -0.04803179  0.13865583 -0.01960889       0.006
   0.00000000  0.16638699 -0.05882668       0.006
   0.04803179  0.13865583 -0.07843558       0.006
   0.09606357  0.11092466 -0.09804447       0.006
   0.14409536  0.08319350 -0.11765337       0.006
  -0.14409536  0.24958049  0.00000000       0.006
  -0.09606357  0.22184932 -0.01960889       0.006
  -0.04803179  0.19411816 -0.03921779       0.006
   0.00000000  0.00000000  0.05882668       0.006
   0.04803179 -0.02773117  0.03921779       0.006
   0.09606357 -0.05546233  0.01960889       0.006
   0.14409536 -0.08319350 -0.00000000       0.006
  -0.14409536  0.08319350  0.11765337       0.006
  -0.09606357  0.05546233  0.09804447       0.006
  -0.04803179  0.02773117  0.07843558       0.006
   0.00000000  0.05546233  0.03921779       0.006
   0.04803179  0.02773117  0.01960889       0.006
   0.09606357  0.00000000  0.00000000       0.006
   0.14409536 -0.02773117 -0.01960889       0.006
  -0.14409536  0.13865583  0.09804447       0.006
  -0.09606357  0.11092466  0.07843558       0.006
  -0.04803179  0.08319350  0.05882668       0.006
   0.00000000  0.11092466  0.01960889       0.006
   0.04803179  0.08319350  0.00000000       0.006
   0.09606357  0.05546233 -0.01960889       0.006
   0.14409536  0.02773117 -0.03921779       0.006
  -0.14409536  0.19411816  0.07843558       0.006
  -0.09606357  0.16638699  0.05882668       0.006
  -0.04803179  0.13865583  0.03921779       0.006
   0.00000000  0.16638699  0.00000000       0.006
   0.04803179  0.13865583 -0.01960889       0.006
   0.09606357  0.11092466 -0.03921779       0.006
   0.14409536  0.08319350 -0.05882668       0.006
  -0.14409536  0.24958049  0.05882668       0.006
  -0.09606357  0.22184932  0.03921779       0.006
  -0.04803179  0.19411816  0.01960889       0.006
   0.00000000 -0.16638699  0.11765337       0.006
   0.04803179 -0.19411816  0.09804447       0.006
   0.09606357 -0.22184932  0.07843558       0.006
   0.14409536 -0.24958049  0.05882668       0.006
  -0.14409536 -0.08319350  0.17648005       0.006
  -0.09606357 -0.11092466  0.15687116       0.006
  -0.04803179 -0.13865583  0.13726226       0.006
   0.00000000 -0.11092466  0.09804447       0.006
   0.04803179 -0.13865583  0.07843558       0.006
   0.09606357 -0.16638699  0.05882668       0.006
   0.14409536 -0.19411816  0.03921779       0.006
  -0.14409536 -0.02773117  0.15687116       0.006
  -0.09606357 -0.05546233  0.13726226       0.006
  -0.04803179 -0.08319350  0.11765337       0.006
   0.00000000 -0.05546233  0.07843558       0.006
   0.04803179 -0.08319350  0.05882668       0.006
   0.09606357 -0.11092466  0.03921779       0.006
   0.14409536 -0.13865583  0.01960889       0.006
  -0.14409536  0.02773117  0.13726226       0.006
  -0.09606357  0.00000000  0.11765337       0.006
  -0.04803179 -0.02773117  0.09804447       0.006
   0.00000000  0.00000000  0.11765337       0.006
   0.04803179 -0.02773117  0.09804447       0.006
   0.09606357 -0.05546233  0.07843558       0.006
   0.14409536 -0.08319350  0.05882668       0.006
  -0.14409536  0.08319350  0.17648005       0.006
  -0.09606357  0.05546233  0.15687116       0.006
  -0.04803179  0.02773117  0.13726226       0.006
   0.00000000  0.05546233  0.09804447       0.006
   0.04803179  0.02773117  0.07843558       0.006
   0.09606357  0.00000000  0.05882668       0.006
   0.14409536 -0.02773117  0.03921779       0.006
  -0.14409536  0.13865583  0.15687116       0.006
  -0.09606357  0.11092466  0.13726226       0.006
  -0.04803179  0.08319350  0.11765337       0.006
   0.00000000  0.11092466  0.07843558       0.006
   0.04803179  0.08319350  0.05882668       0.006
   0.09606357  0.05546233  0.03921779       0.006
   0.14409536  0.02773117  0.01960889       0.006
  -0.14409536  0.19411816  0.13726226       0.006
  -0.09606357  0.16638699  0.11765337       0.006
  -0.04803179  0.13865583  0.09804447       0.006
   0.00000000  0.16638699  0.05882668       0.006
   0.04803179  0.13865583  0.03921779       0.006
   0.09606357  0.11092466  0.01960889       0.006
   0.14409536  0.08319350  0.00000000       0.006
  -0.14409536  0.24958049  0.11765337       0.006
  -0.09606357  0.22184932  0.09804447       0.006
  -0.04803179  0.19411816  0.07843558       0.006
   0.00000000 -0.16638699  0.17648005       0.006
   0.04803179 -0.19411816  0.15687116       0.006
   0.09606357 -0.22184932  0.13726226       0.006
   0.14409536 -0.24958049  0.11765337       0.006
  -0.14409536 -0.08319350  0.23530674       0.006
  -0.09606357 -0.11092466  0.21569784       0.006
  -0.04803179 -0.13865583  0.19608895       0.006
   0.00000000 -0.11092466  0.15687116       0.006
   0.04803179 -0.13865583  0.13726226       0.006
   0.09606357 -0.16638699  0.11765337       0.006
   0.14409536 -0.19411816  0.09804447       0.006
  -0.14409536 -0.02773117  0.21569784       0.006
  -0.09606357 -0.05546233  0.19608895       0.006
  -0.04803179 -0.08319350  0.17648005       0.006
   0.00000000 -0.05546233  0.13726226       0.006
   0.04803179 -0.08319350  0.11765337       0.006
   0.09606357 -0.11092466  0.09804447       0.006
   0.14409536 -0.13865583  0.07843558       0.006
  -0.14409536  0.02773117  0.19608895       0.006
  -0.09606357  0.00000000  0.17648005       0.006
  -0.04803179 -0.02773117  0.15687116       0.006
   0.00000000  0.00000000  0.17648005       0.006
   0.04803179 -0.02773117  0.15687116       0.006
   0.09606357 -0.05546233  0.13726226       0.006
   0.14409536 -0.08319350  0.11765337       0.006
  -0.14409536  0.08319350  0.23530674       0.006
  -0.09606357  0.05546233  0.21569784       0.006
  -0.04803179  0.02773117  0.19608895       0.006
   0.00000000  0.05546233  0.15687116       0.006
   0.04803179  0.02773117  0.13726226       0.006
   0.09606357  0.00000000  0.11765337       0.006
   0.14409536 -0.02773117  0.09804447       0.006
  -0.14409536  0.13865583  0.21569784       0.006
  -0.09606357  0.11092466  0.19608895       0.006
  -0.04803179  0.08319350  0.17648005       0.006
   0.00000000  0.11092466  0.13726226       0.006
   0.04803179  0.08319350  0.11765337       0.006
   0.09606357  0.05546233  0.09804447       0.006
   0.14409536  0.02773117  0.07843558       0.006
  -0.14409536  0.19411816  0.19608895       0.006
  -0.09606357  0.16638699  0.17648005       0.006
  -0.04803179  0.13865583  0.15687116       0.006
   0.00000000  0.16638699  0.11765337       0.006
   0.04803179  0.13865583  0.09804447       0.006
   0.09606357  0.11092466  0.07843558       0.006
   0.14409536  0.08319350  0.05882668       0.006
  -0.14409536  0.24958049  0.17648005       0.006
  -0.09606357  0.22184932  0.15687116       0.006
  -0.04803179  0.19411816  0.13726226       0.006
   0.00000000 -0.16638699  0.23530674       0.006
   0.04803179 -0.19411816  0.21569784       0.006
   0.09606357 -0.22184932  0.19608895       0.006
   0.14409536 -0.24958049  0.17648005       0.006
  -0.14409536 -0.08319350  0.29413342       0.006
  -0.09606357 -0.11092466  0.27452453       0.006
  -0.04803179 -0.13865583  0.25491563       0.006
   0.00000000 -0.11092466  0.21569784       0.006
   0.04803179 -0.13865583  0.19608895       0.006
   0.09606357 -0.16638699  0.17648005       0.006
   0.14409536 -0.19411816  0.15687116       0.006
  -0.14409536 -0.02773117  0.27452453       0.006
  -0.09606357 -0.05546233  0.25491563       0.006
  -0.04803179 -0.08319350  0.23530674       0.006
   0.00000000 -0.05546233  0.19608895       0.006
   0.04803179 -0.08319350  0.17648005       0.006
   0.09606357 -0.11092466  0.15687116       0.006
   0.14409536 -0.13865583  0.13726226       0.006
  -0.14409536  0.02773117  0.25491563       0.006
  -0.09606357  0.00000000  0.23530674       0.006
  -0.04803179 -0.02773117  0.21569784       0.006
 
 k-points in reciprocal lattice and weights: k-points                                
   0.00000000  0.00000000  0.00000000       0.003
   0.14285714 -0.00000000 -0.00000000       0.006
   0.28571429 -0.00000000 -0.00000000       0.006
   0.42857143  0.00000000  0.00000000       0.006
   0.00000000  0.14285714  0.00000000       0.006
   0.14285714  0.14285714  0.00000000       0.006
   0.28571429  0.14285714  0.00000000       0.006
   0.42857143  0.14285714 -0.00000000       0.006
  -0.42857143  0.14285714  0.00000000       0.006
  -0.28571429  0.14285714  0.00000000       0.006
  -0.14285714  0.14285714 -0.00000000       0.006
   0.00000000  0.28571429  0.00000000       0.006
   0.14285714  0.28571429 -0.00000000       0.006
   0.28571429  0.28571429 -0.00000000       0.006
   0.42857143  0.28571429 -0.00000000       0.006
  -0.42857143  0.28571429  0.00000000       0.006
  -0.28571429  0.28571429  0.00000000       0.006
  -0.14285714  0.28571429 -0.00000000       0.006
   0.00000000  0.42857143  0.00000000       0.006
   0.14285714  0.42857143 -0.00000000       0.006
   0.28571429  0.42857143  0.00000000       0.006
   0.42857143  0.42857143  0.00000000       0.006
  -0.42857143  0.42857143  0.00000000       0.006
  -0.28571429  0.42857143 -0.00000000       0.006
  -0.14285714  0.42857143 -0.00000000       0.006
   0.00000000  0.00000000  0.14285714       0.006
   0.14285714 -0.00000000  0.14285714       0.006
   0.28571429 -0.00000000  0.14285714       0.006
   0.42857143  0.00000000  0.14285714       0.006
  -0.42857143  0.00000000  0.14285714       0.006
  -0.28571429  0.00000000  0.14285714       0.006
  -0.14285714 -0.00000000  0.14285714       0.006
   0.00000000  0.14285714  0.14285714       0.006
   0.14285714  0.14285714  0.14285714       0.006
   0.28571429  0.14285714  0.14285714       0.006
   0.42857143  0.14285714  0.14285714       0.006
  -0.42857143  0.14285714  0.14285714       0.006
  -0.28571429  0.14285714  0.14285714       0.006
  -0.14285714  0.14285714  0.14285714       0.006
   0.00000000  0.28571429  0.14285714       0.006
   0.14285714  0.28571429  0.14285714       0.006
   0.28571429  0.28571429  0.14285714       0.006
   0.42857143  0.28571429  0.14285714       0.006
  -0.42857143  0.28571429  0.14285714       0.006
  -0.28571429  0.28571429  0.14285714       0.006
  -0.14285714  0.28571429  0.14285714       0.006
   0.00000000  0.42857143  0.14285714       0.006
   0.14285714  0.42857143  0.14285714       0.006
   0.28571429  0.42857143  0.14285714       0.006
   0.42857143  0.42857143  0.14285714       0.006
  -0.42857143  0.42857143  0.14285714       0.006
  -0.28571429  0.42857143  0.14285714       0.006
  -0.14285714  0.42857143  0.14285714       0.006
   0.00000000 -0.42857143  0.14285714       0.006
   0.14285714 -0.42857143  0.14285714       0.006
   0.28571429 -0.42857143  0.14285714       0.006
   0.42857143 -0.42857143  0.14285714       0.006
  -0.42857143 -0.42857143  0.14285714       0.006
  -0.28571429 -0.42857143  0.14285714       0.006
  -0.14285714 -0.42857143  0.14285714       0.006
   0.00000000 -0.28571429  0.14285714       0.006
   0.14285714 -0.28571429  0.14285714       0.006
   0.28571429 -0.28571429  0.14285714       0.006
   0.42857143 -0.28571429  0.14285714       0.006
  -0.42857143 -0.28571429  0.14285714       0.006
  -0.28571429 -0.28571429  0.14285714       0.006
  -0.14285714 -0.28571429  0.14285714       0.006
   0.00000000 -0.14285714  0.14285714       0.006
   0.14285714 -0.14285714  0.14285714       0.006
   0.28571429 -0.14285714  0.14285714       0.006
   0.42857143 -0.14285714  0.14285714       0.006
  -0.42857143 -0.14285714  0.14285714       0.006
  -0.28571429 -0.14285714  0.14285714       0.006
  -0.14285714 -0.14285714  0.14285714       0.006
   0.00000000  0.00000000  0.28571429       0.006
   0.14285714 -0.00000000  0.28571429       0.006
   0.28571429 -0.00000000  0.28571429       0.006
   0.42857143  0.00000000  0.28571429       0.006
  -0.42857143  0.00000000  0.28571429       0.006
  -0.28571429  0.00000000  0.28571429       0.006
  -0.14285714 -0.00000000  0.28571429       0.006
   0.00000000  0.14285714  0.28571429       0.006
   0.14285714  0.14285714  0.28571429       0.006
   0.28571429  0.14285714  0.28571429       0.006
   0.42857143  0.14285714  0.28571429       0.006
  -0.42857143  0.14285714  0.28571429       0.006
  -0.28571429  0.14285714  0.28571429       0.006
  -0.14285714  0.14285714  0.28571429       0.006
   0.00000000  0.28571429  0.28571429       0.006
   0.14285714  0.28571429  0.28571429       0.006
   0.28571429  0.28571429  0.28571429       0.006
   0.42857143  0.28571429  0.28571429       0.006
  -0.42857143  0.28571429  0.28571429       0.006
  -0.28571429  0.28571429  0.28571429       0.006
  -0.14285714  0.28571429  0.28571429       0.006
   0.00000000  0.42857143  0.28571429       0.006
   0.14285714  0.42857143  0.28571429       0.006
   0.28571429  0.42857143  0.28571429       0.006
   0.42857143  0.42857143  0.28571429       0.006
  -0.42857143  0.42857143  0.28571429       0.006
  -0.28571429  0.42857143  0.28571429       0.006
  -0.14285714  0.42857143  0.28571429       0.006
   0.00000000 -0.42857143  0.28571429       0.006
   0.14285714 -0.42857143  0.28571429       0.006
   0.28571429 -0.42857143  0.28571429       0.006
   0.42857143 -0.42857143  0.28571429       0.006
  -0.42857143 -0.42857143  0.28571429       0.006
  -0.28571429 -0.42857143  0.28571429       0.006
  -0.14285714 -0.42857143  0.28571429       0.006
   0.00000000 -0.28571429  0.28571429       0.006
   0.14285714 -0.28571429  0.28571429       0.006
   0.28571429 -0.28571429  0.28571429       0.006
   0.42857143 -0.28571429  0.28571429       0.006
  -0.42857143 -0.28571429  0.28571429       0.006
  -0.28571429 -0.28571429  0.28571429       0.006
  -0.14285714 -0.28571429  0.28571429       0.006
   0.00000000 -0.14285714  0.28571429       0.006
   0.14285714 -0.14285714  0.28571429       0.006
   0.28571429 -0.14285714  0.28571429       0.006
   0.42857143 -0.14285714  0.28571429       0.006
  -0.42857143 -0.14285714  0.28571429       0.006
  -0.28571429 -0.14285714  0.28571429       0.006
  -0.14285714 -0.14285714  0.28571429       0.006
   0.00000000  0.00000000  0.42857143       0.006
   0.14285714 -0.00000000  0.42857143       0.006
   0.28571429 -0.00000000  0.42857143       0.006
   0.42857143  0.00000000  0.42857143       0.006
  -0.42857143  0.00000000  0.42857143       0.006
  -0.28571429  0.00000000  0.42857143       0.006
  -0.14285714 -0.00000000  0.42857143       0.006
   0.00000000  0.14285714  0.42857143       0.006
   0.14285714  0.14285714  0.42857143       0.006
   0.28571429  0.14285714  0.42857143       0.006
   0.42857143  0.14285714  0.42857143       0.006
  -0.42857143  0.14285714  0.42857143       0.006
  -0.28571429  0.14285714  0.42857143       0.006
  -0.14285714  0.14285714  0.42857143       0.006
   0.00000000  0.28571429  0.42857143       0.006
   0.14285714  0.28571429  0.42857143       0.006
   0.28571429  0.28571429  0.42857143       0.006
   0.42857143  0.28571429  0.42857143       0.006
  -0.42857143  0.28571429  0.42857143       0.006
  -0.28571429  0.28571429  0.42857143       0.006
  -0.14285714  0.28571429  0.42857143       0.006
   0.00000000  0.42857143  0.42857143       0.006
   0.14285714  0.42857143  0.42857143       0.006
   0.28571429  0.42857143  0.42857143       0.006
   0.42857143  0.42857143  0.42857143       0.006
  -0.42857143  0.42857143  0.42857143       0.006
  -0.28571429  0.42857143  0.42857143       0.006
  -0.14285714  0.42857143  0.42857143       0.006
   0.00000000 -0.42857143  0.42857143       0.006
   0.14285714 -0.42857143  0.42857143       0.006
   0.28571429 -0.42857143  0.42857143       0.006
   0.42857143 -0.42857143  0.42857143       0.006
  -0.42857143 -0.42857143  0.42857143       0.006
  -0.28571429 -0.42857143  0.42857143       0.006
  -0.14285714 -0.42857143  0.42857143       0.006
   0.00000000 -0.28571429  0.42857143       0.006
   0.14285714 -0.28571429  0.42857143       0.006
   0.28571429 -0.28571429  0.42857143       0.006
   0.42857143 -0.28571429  0.42857143       0.006
  -0.42857143 -0.28571429  0.42857143       0.006
  -0.28571429 -0.28571429  0.42857143       0.006
  -0.14285714 -0.28571429  0.42857143       0.006
   0.00000000 -0.14285714  0.42857143       0.006
   0.14285714 -0.14285714  0.42857143       0.006
   0.28571429 -0.14285714  0.42857143       0.006
   0.42857143 -0.14285714  0.42857143       0.006
  -0.42857143 -0.14285714  0.42857143       0.006
  -0.28571429 -0.14285714  0.42857143       0.006
  -0.14285714 -0.14285714  0.42857143       0.006
 
 position of ions in fractional coordinates (direct lattice) 
   0.00000000  0.00000000  0.00000000
 
 position of ions in cartesian coordinates  (Angst):
   0.00000000  0.00000000  0.00000000
 


--------------------------------------------------------------------------------------------------------


 k-point  1 :   0.0000 0.0000 0.0000  plane waves:     259
 k-point  2 :   0.1429-0.0000-0.0000  plane waves:     271
 k-point  3 :   0.2857-0.0000-0.0000  plane waves:     268
 k-point  4 :   0.4286 0.0000 0.0000  plane waves:     269
 k-point  5 :   0.0000 0.1429 0.0000  plane waves:     271
 k-point  6 :   0.1429 0.1429 0.0000  plane waves:     267
 k-point  7 :   0.2857 0.1429 0.0000  plane waves:     267
 k-point  8 :   0.4286 0.1429-0.0000  plane waves:     262
 k-point  9 :  -0.4286 0.1429 0.0000  plane waves:     262
 k-point 10 :  -0.2857 0.1429 0.0000  plane waves:     264
 k-point 11 :  -0.1429 0.1429-0.0000  plane waves:     279
 k-point 12 :   0.0000 0.2857 0.0000  plane waves:     268
 k-point 13 :   0.1429 0.2857-0.0000  plane waves:     267
 k-point 14 :   0.2857 0.2857-0.0000  plane waves:     258
 k-point 15 :   0.4286 0.2857-0.0000  plane waves:     263
 k-point 16 :  -0.4286 0.2857 0.0000  plane waves:     257
 k-point 17 :  -0.2857 0.2857 0.0000  plane waves:     258
 k-point 18 :  -0.1429 0.2857-0.0000  plane waves:     264
 k-point 19 :   0.0000 0.4286 0.0000  plane waves:     269
 k-point 20 :   0.1429 0.4286-0.0000  plane waves:     262
 k-point 21 :   0.2857 0.4286 0.0000  plane waves:     263
 k-point 22 :   0.4286 0.4286 0.0000  plane waves:     258
 k-point 23 :  -0.4286 0.4286 0.0000  plane waves:     256
 k-point 24 :  -0.2857 0.4286-0.0000  plane waves:     257
 k-point 25 :  -0.1429 0.4286-0.0000  plane waves:     262
 k-point 26 :   0.0000 0.0000 0.1429  plane waves:     271
 k-point 27 :   0.1429-0.0000 0.1429  plane waves:     267
 k-point 28 :   0.2857-0.0000 0.1429  plane waves:     267
 k-point 29 :   0.4286 0.0000 0.1429  plane waves:     262
 k-point 30 :  -0.4286 0.0000 0.1429  plane waves:     262
 k-point 31 :  -0.2857 0.0000 0.1429  plane waves:     264
 k-point 32 :  -0.1429-0.0000 0.1429  plane waves:     279
 k-point 33 :   0.0000 0.1429 0.1429  plane waves:     267
 k-point 34 :   0.1429 0.1429 0.1429  plane waves:     271
 k-point 35 :   0.2857 0.1429 0.1429  plane waves:     279
 k-point 36 :   0.4286 0.1429 0.1429  plane waves:     264
 k-point 37 :  -0.4286 0.1429 0.1429  plane waves:     262
 k-point 38 :  -0.2857 0.1429 0.1429  plane waves:     262
 k-point 39 :  -0.1429 0.1429 0.1429  plane waves:     267
 k-point 40 :   0.0000 0.2857 0.1429  plane waves:     267
 k-point 41 :   0.1429 0.2857 0.1429  plane waves:     279
 k-point 42 :   0.2857 0.2857 0.1429  plane waves:     267
 k-point 43 :   0.4286 0.2857 0.1429  plane waves:     267
 k-point 44 :  -0.4286 0.2857 0.1429  plane waves:     260
 k-point 45 :  -0.2857 0.2857 0.1429  plane waves:     260
 k-point 46 :  -0.1429 0.2857 0.1429  plane waves:     267
 k-point 47 :   0.0000 0.4286 0.1429  plane waves:     262
 k-point 48 :   0.1429 0.4286 0.1429  plane waves:     264
 k-point 49 :   0.2857 0.4286 0.1429  plane waves:     267
 k-point 50 :   0.4286 0.4286 0.1429  plane waves:     263
 k-point 51 :  -0.4286 0.4286 0.1429  plane waves:     259
 k-point 52 :  -0.2857 0.4286 0.1429  plane waves:     262
 k-point 53 :  -0.1429 0.4286 0.1429  plane waves:     260
 k-point 54 :   0.0000-0.4286 0.1429  plane waves:     262
 k-point 55 :   0.1429-0.4286 0.1429  plane waves:     262
 k-point 56 :   0.2857-0.4286 0.1429  plane waves:     260
 k-point 57 :   0.4286-0.4286 0.1429  plane waves:     259
 k-point 58 :  -0.4286-0.4286 0.1429  plane waves:     256
 k-point 59 :  -0.2857-0.4286 0.1429  plane waves:     259
 k-point 60 :  -0.1429-0.4286 0.1429  plane waves:     260
 k-point 61 :   0.0000-0.2857 0.1429  plane waves:     264
 k-point 62 :   0.1429-0.2857 0.1429  plane waves:     262
 k-point 63 :   0.2857-0.2857 0.1429  plane waves:     260
 k-point 64 :   0.4286-0.2857 0.1429  plane waves:     262
 k-point 65 :  -0.4286-0.2857 0.1429  plane waves:     259
 k-point 66 :  -0.2857-0.2857 0.1429  plane waves:     263
 k-point 67 :  -0.1429-0.2857 0.1429  plane waves:     267
 k-point 68 :   0.0000-0.1429 0.1429  plane waves:     279
 k-point 69 :   0.1429-0.1429 0.1429  plane waves:     267
 k-point 70 :   0.2857-0.1429 0.1429  plane waves:     267
 k-point 71 :   0.4286-0.1429 0.1429  plane waves:     260
 k-point 72 :  -0.4286-0.1429 0.1429  plane waves:     260
 k-point 73 :  -0.2857-0.1429 0.1429  plane waves:     267
 k-point 74 :  -0.1429-0.1429 0.1429  plane waves:     267
 k-point 75 :   0.0000 0.0000 0.2857  plane waves:     268
 k-point 76 :   0.1429-0.0000 0.2857  plane waves:     267
 k-point 77 :   0.2857-0.0000 0.2857  plane waves:     258
 k-point 78 :   0.4286 0.0000 0.2857  plane waves:     263
 k-point 79 :  -0.4286 0.0000 0.2857  plane waves:     257
 k-point 80 :  -0.2857 0.0000 0.2857  plane waves:     258
 k-point 81 :  -0.1429-0.0000 0.2857  plane waves:     264
 k-point 82 :   0.0000 0.1429 0.2857  plane waves:     267
 k-point 83 :   0.1429 0.1429 0.2857  plane waves:     279
 k-point 84 :   0.2857 0.1429 0.2857  plane waves:     267
 k-point 85 :   0.4286 0.1429 0.2857  plane waves:     267
 k-point 86 :  -0.4286 0.1429 0.2857  plane waves:     260
 k-point 87 :  -0.2857 0.1429 0.2857  plane waves:     260
 k-point 88 :  -0.1429 0.1429 0.2857  plane waves:     267
 k-point 89 :   0.0000 0.2857 0.2857  plane waves:     258
 k-point 90 :   0.1429 0.2857 0.2857  plane waves:     267
 k-point 91 :   0.2857 0.2857 0.2857  plane waves:     268
 k-point 92 :   0.4286 0.2857 0.2857  plane waves:     264
 k-point 93 :  -0.4286 0.2857 0.2857  plane waves:     258
 k-point 94 :  -0.2857 0.2857 0.2857  plane waves:     257
 k-point 95 :  -0.1429 0.2857 0.2857  plane waves:     263
 k-point 96 :   0.0000 0.4286 0.2857  plane waves:     263
 k-point 97 :   0.1429 0.4286 0.2857  plane waves:     267
 k-point 98 :   0.2857 0.4286 0.2857  plane waves:     264
 k-point 99 :   0.4286 0.4286 0.2857  plane waves:     262
 k-point ** :  -0.4286 0.4286 0.2857  plane waves:     260
 k-point ** :  -0.2857 0.4286 0.2857  plane waves:     262
 k-point ** :  -0.1429 0.4286 0.2857  plane waves:     259
 k-point ** :   0.0000-0.4286 0.2857  plane waves:     257
 k-point ** :   0.1429-0.4286 0.2857  plane waves:     260
 k-point ** :   0.2857-0.4286 0.2857  plane waves:     258
 k-point ** :   0.4286-0.4286 0.2857  plane waves:     260
 k-point ** :  -0.4286-0.4286 0.2857  plane waves:     257
 k-point ** :  -0.2857-0.4286 0.2857  plane waves:     262
 k-point ** :  -0.1429-0.4286 0.2857  plane waves:     262
 k-point ** :   0.0000-0.2857 0.2857  plane waves:     258
 k-point ** :   0.1429-0.2857 0.2857  plane waves:     260
 k-point ** :   0.2857-0.2857 0.2857  plane waves:     257
 k-point ** :   0.4286-0.2857 0.2857  plane waves:     262
 k-point ** :  -0.4286-0.2857 0.2857  plane waves:     262
 k-point ** :  -0.2857-0.2857 0.2857  plane waves:     257
 k-point ** :  -0.1429-0.2857 0.2857  plane waves:     260
 k-point ** :   0.0000-0.1429 0.2857  plane waves:     264
 k-point ** :   0.1429-0.1429 0.2857  plane waves:     267
 k-point ** :   0.2857-0.1429 0.2857  plane waves:     263
 k-point ** :   0.4286-0.1429 0.2857  plane waves:     259
 k-point ** :  -0.4286-0.1429 0.2857  plane waves:     262
 k-point ** :  -0.2857-0.1429 0.2857  plane waves:     260
 k-point ** :  -0.1429-0.1429 0.2857  plane waves:     262
 k-point ** :   0.0000 0.0000 0.4286  plane waves:     269
 k-point ** :   0.1429-0.0000 0.4286  plane waves:     262
[...]
 

 k-point 151 :      -0.1429    0.4286    0.4286
  band No. DFT-energies  QP-energies  QP-e(diag)   sigma(DFT)    Z            occupation

      1     -45.6617     -45.6817     -45.6814     -45.6842       0.8758       2.0000
      2     -18.8000     -18.7993     -18.7975     -18.7972       0.9165       2.0000
      3     -18.5248     -18.5243     -18.5236     -18.5235       0.9161       2.0000
      4     -18.3959     -18.3956     -18.3934     -18.3932       0.9175       2.0000
      5      10.3036      10.3120      10.3117      10.3119       0.9727       0.0000
      6      11.6447      11.6551      11.6529      11.6532       0.9666       0.0000
      7      13.8203      13.8296      13.8288      13.8291       0.9697       0.0000
      8      19.1871      19.1978      19.1956      19.1959       0.9631       0.0000
 

 k-point 152 :       0.0000   -0.4286    0.4286
  band No. DFT-energies  QP-energies  QP-e(diag)   sigma(DFT)    Z            occupation

      1     -45.6618     -45.6817     -45.6815     -45.6843       0.8757       2.0000
      2     -18.8000     -18.7992     -18.7974     -18.7972       0.9165       2.0000
      3     -18.5296     -18.5291     -18.5282     -18.5281       0.9161       2.0000
      4     -18.3915     -18.3912     -18.3891     -18.3889       0.9175       2.0000
      5      10.3035      10.3119      10.3116      10.3118       0.9728       0.0000
      6      11.6447      11.6551      11.6529      11.6532       0.9666       0.0000
      7      13.8193      13.8286      13.8278      13.8281       0.9696       0.0000
      8      19.1908      19.2015      19.1993      19.1996       0.9632       0.0000
 

 k-point 153 :       0.1429   -0.4286    0.4286
  band No. DFT-energies  QP-energies  QP-e(diag)   sigma(DFT)    Z            occupation

      1     -45.6702     -45.6904     -45.6901     -45.6929       0.8756       2.0000
      2     -18.7837     -18.7829     -18.7810     -18.7808       0.9163       2.0000
      3     -18.5817     -18.5813     -18.5804     -18.5802       0.9157       2.0000
      4     -18.4689     -18.4683     -18.4675     -18.4673       0.9162       2.0000
      5       9.5540       9.5633       9.5620       9.5623       0.9699       0.0000
      6      12.7415      12.7507      12.7494      12.7497       0.9692       0.0000
      7      13.6158      13.6253      13.6241      13.6244       0.9689       0.0000
      8      17.4503      17.4608      17.4601      17.4604       0.9658       0.0000
 

 k-point 154 :       0.2857   -0.4286    0.4286
  band No. DFT-energies  QP-energies  QP-e(diag)   sigma(DFT)    Z            occupation

      1     -45.6811     -45.7013     -45.7010     -45.7038       0.8747       2.0000
      2     -18.7728     -18.7720     -18.7706     -18.7704       0.9164       2.0000
      3     -18.5787     -18.5781     -18.5768     -18.5766       0.9162       2.0000
      4     -18.4451     -18.4446     -18.4441     -18.4440       0.9158       2.0000
      5       9.0152       9.0247       9.0234       9.0236       0.9693       0.0000
      6      11.8646      11.8743      11.8733      11.8735       0.9695       0.0000
      7      14.7947      14.8033      14.8025      14.8027       0.9698       0.0000
      8      18.5165      18.5267      18.5259      18.5262       0.9663       0.0000
 

 k-point 155 :       0.4286   -0.4286    0.4286
  band No. DFT-energies  QP-energies  QP-e(diag)   sigma(DFT)    Z            occupation

      1     -45.6903     -45.7107     -45.7104     -45.7133       0.8741       2.0000
      2     -18.8655     -18.8646     -18.8628     -18.8626       0.9167       2.0000
      3     -18.4816     -18.4811     -18.4805     -18.4804       0.9149       2.0000
      4     -18.4671     -18.4666     -18.4661     -18.4660       0.9159       2.0000
      5       9.1766       9.1863       9.1847       9.1849       0.9689       0.0000
      6      10.2236      10.2336      10.2327      10.2330       0.9699       0.0000
      7      16.9110      16.9193      16.9188      16.9191       0.9700       0.0000
      8      20.0029      20.0119      20.0112      20.0114       0.9678       0.0000
 

 k-point 156 :      -0.4286   -0.4286    0.4286
  band No. DFT-energies  QP-energies  QP-e(diag)   sigma(DFT)    Z            occupation

      1     -45.6903     -45.7107     -45.7104     -45.7133       0.8740       2.0000
      2     -18.8655     -18.8646     -18.8628     -18.8626       0.9167       2.0000
      3     -18.4816     -18.4811     -18.4805     -18.4803       0.9149       2.0000
      4     -18.4671     -18.4666     -18.4661     -18.4660       0.9159       2.0000
      5       9.1766       9.1863       9.1847       9.1850       0.9689       0.0000
      6      10.2236      10.2336      10.2327      10.2330       0.9699       0.0000
      7      16.9111      16.9194      16.9189      16.9192       0.9700       0.0000
      8      20.0026      20.0116      20.0109      20.0112       0.9678       0.0000
 

 k-point 157 :      -0.2857   -0.4286    0.4286
  band No. DFT-energies  QP-energies  QP-e(diag)   sigma(DFT)    Z            occupation

      1     -45.6811     -45.7013     -45.7010     -45.7038       0.8748       2.0000
      2     -18.7729     -18.7721     -18.7707     -18.7705       0.9163       2.0000
      3     -18.5785     -18.5780     -18.5767     -18.5766       0.9162       2.0000
      4     -18.4451     -18.4446     -18.4440     -18.4439       0.9159       2.0000
      5       9.0152       9.0248       9.0234       9.0236       0.9693       0.0000
      6      11.8646      11.8742      11.8732      11.8735       0.9695       0.0000
      7      14.7946      14.8033      14.8024      14.8027       0.9699       0.0000
      8      18.5167      18.5269      18.5261      18.5265       0.9663       0.0000
 

 k-point 158 :      -0.1429   -0.4286    0.4286
  band No. DFT-energies  QP-energies  QP-e(diag)   sigma(DFT)    Z            occupation

      1     -45.6702     -45.6904     -45.6901     -45.6929       0.8756       2.0000
      2     -18.7836     -18.7828     -18.7810     -18.7807       0.9164       2.0000
      3     -18.5821     -18.5817     -18.5806     -18.5805       0.9157       2.0000
      4     -18.4685     -18.4679     -18.4672     -18.4671       0.9162       2.0000
      5       9.5540       9.5633       9.5621       9.5623       0.9699       0.0000
      6      12.7415      12.7507      12.7494      12.7497       0.9693       0.0000
      7      13.6154      13.6249      13.6237      13.6240       0.9689       0.0000
      8      17.4513      17.4618      17.4610      17.4614       0.9658       0.0000
 

 k-point 159 :       0.0000   -0.2857    0.4286
  band No. DFT-energies  QP-energies  QP-e(diag)   sigma(DFT)    Z            occupation

      1     -45.6709     -45.6909     -45.6907     -45.6935       0.8753       2.0000
      2     -18.7284     -18.7276     -18.7259     -18.7256       0.9171       2.0000
      3     -18.5926     -18.5920     -18.5908     -18.5906       0.9163       2.0000
      4     -18.4034     -18.4028     -18.4012     -18.4010       0.9169       2.0000
      5      10.0123      10.0214      10.0198      10.0200       0.9693       0.0000
      6      11.3878      11.3979      11.3969      11.3972       0.9694       0.0000
      7      13.9066      13.9157      13.9148      13.9151       0.9694       0.0000
      8      19.4774      19.4873      19.4856      19.4859       0.9650       0.0000
 

 k-point 160 :       0.1429   -0.2857    0.4286
  band No. DFT-energies  QP-energies  QP-e(diag)   sigma(DFT)    Z            occupation

      1     -45.6735     -45.6937     -45.6934     -45.6962       0.8749       2.0000
      2     -18.7814     -18.7807     -18.7792     -18.7790       0.9155       2.0000
      3     -18.7318     -18.7311     -18.7298     -18.7297       0.9160       2.0000
      4     -18.5196     -18.5192     -18.5185     -18.5184       0.9154       2.0000
      5      10.6146      10.6234      10.6223      10.6225       0.9707       0.0000
      6      12.2529      12.2631      12.2613      12.2615       0.9675       0.0000
      7      12.5997      12.6092      12.6085      12.6087       0.9699       0.0000
      8      17.0764      17.0867      17.0862      17.0866       0.9668       0.0000
 

 k-point 161 :       0.2857   -0.2857    0.4286
  band No. DFT-energies  QP-energies  QP-e(diag)   sigma(DFT)    Z            occupation

      1     -45.6734     -45.6936     -45.6933     -45.6961       0.8750       2.0000
      2     -18.7812     -18.7805     -18.7789     -18.7787       0.9155       2.0000
      3     -18.7271     -18.7265     -18.7254     -18.7252       0.9160       2.0000
      4     -18.5237     -18.5232     -18.5225     -18.5223       0.9154       2.0000
      5      10.6150      10.6239      10.6228      10.6230       0.9707       0.0000
      6      12.2532      12.2634      12.2615      12.2618       0.9675       0.0000
      7      12.5996      12.6091      12.6083      12.6086       0.9699       0.0000
      8      17.0763      17.0866      17.0861      17.0864       0.9668       0.0000
 

 k-point 162 :       0.4286   -0.2857    0.4286
  band No. DFT-energies  QP-energies  QP-e(diag)   sigma(DFT)    Z            occupation

      1     -45.6706     -45.6906     -45.6903     -45.6932       0.8754       2.0000
      2     -18.7212     -18.7204     -18.7188     -18.7186       0.9171       2.0000
      3     -18.5934     -18.5928     -18.5915     -18.5914       0.9163       2.0000
      4     -18.4072     -18.4066     -18.4049     -18.4047       0.9168       2.0000
      5      10.0133      10.0224      10.0208      10.0210       0.9693       0.0000
      6      11.3882      11.3983      11.3973      11.3976       0.9694       0.0000
      7      13.9067      13.9159      13.9150      13.9152       0.9694       0.0000
      8      19.4770      19.4869      19.4852      19.4855       0.9650       0.0000
 

 k-point 163 :      -0.4286   -0.2857    0.4286
  band No. DFT-energies  QP-energies  QP-e(diag)   sigma(DFT)    Z            occupation

      1     -45.6811     -45.7013     -45.7010     -45.7038       0.8747       2.0000
      2     -18.7729     -18.7722     -18.7707     -18.7705       0.9163       2.0000
      3     -18.5786     -18.5780     -18.5768     -18.5766       0.9162       2.0000
      4     -18.4451     -18.4446     -18.4441     -18.4440       0.9159       2.0000
      5       9.0152       9.0248       9.0234       9.0237       0.9693       0.0000
      6      11.8643      11.8740      11.8730      11.8732       0.9695       0.0000
      7      14.7948      14.8034      14.8026      14.8029       0.9698       0.0000
      8      18.5167      18.5269      18.5261      18.5265       0.9662       0.0000
 

 k-point 164 :      -0.2857   -0.2857    0.4286
  band No. DFT-energies  QP-energies  QP-e(diag)   sigma(DFT)    Z            occupation

      1     -45.6809     -45.7011     -45.7007     -45.7036       0.8749       2.0000
      2     -18.6600     -18.6591     -18.6581     -18.6580       0.9173       2.0000
      3     -18.6474     -18.6469     -18.6454     -18.6453       0.9160       2.0000
      4     -18.3639     -18.3633     -18.3622     -18.3620       0.9166       2.0000
      5       8.6230       8.6327       8.6313       8.6316       0.9693       0.0000
      6      13.0137      13.0238      13.0222      13.0225       0.9678       0.0000
      7      13.6015      13.6101      13.6099      13.6101       0.9712       0.0000
      8      20.0488      20.0583      20.0571      20.0574       0.9663       0.0000
 

 k-point 165 :      -0.1429   -0.2857    0.4286
  band No. DFT-energies  QP-energies  QP-e(diag)   sigma(DFT)    Z            occupation

      1     -45.6814     -45.7016     -45.7013     -45.7041       0.8745       2.0000
      2     -18.7805     -18.7797     -18.7781     -18.7779       0.9163       2.0000
      3     -18.5744     -18.5739     -18.5728     -18.5726       0.9163       2.0000
      4     -18.4441     -18.4436     -18.4431     -18.4430       0.9159       2.0000
      5       9.0149       9.0244       9.0231       9.0233       0.9693       0.0000
      6      11.8636      11.8733      11.8722      11.8725       0.9695       0.0000
      7      14.7946      14.8032      14.8024      14.8026       0.9698       0.0000
      8      18.5173      18.5274      18.5267      18.5270       0.9662       0.0000
 

 k-point 166 :       0.0000   -0.1429    0.4286
  band No. DFT-energies  QP-energies  QP-e(diag)   sigma(DFT)    Z            occupation

      1     -45.6909     -45.7113     -45.7110     -45.7139       0.8740       2.0000
      2     -18.8735     -18.8725     -18.8706     -18.8704       0.9167       2.0000
      3     -18.4790     -18.4786     -18.4780     -18.4779       0.9149       2.0000
      4     -18.4668     -18.4663     -18.4658     -18.4657       0.9158       2.0000
      5       9.1753       9.1850       9.1833       9.1836       0.9689       0.0000
      6      10.2230      10.2329      10.2320      10.2323       0.9699       0.0000
      7      16.9109      16.9192      16.9187      16.9190       0.9700       0.0000
      8      20.0030      20.0119      20.0112      20.0115       0.9678       0.0000
 

 k-point 167 :       0.1429   -0.1429    0.4286
  band No. DFT-energies  QP-energies  QP-e(diag)   sigma(DFT)    Z            occupation

      1     -45.6815     -45.7017     -45.7014     -45.7042       0.8744       2.0000
      2     -18.7798     -18.7790     -18.7775     -18.7773       0.9163       2.0000
      3     -18.5799     -18.5793     -18.5780     -18.5778       0.9161       2.0000
      4     -18.4402     -18.4397     -18.4393     -18.4392       0.9160       2.0000
      5       9.0141       9.0237       9.0223       9.0225       0.9693       0.0000
      6      11.8640      11.8737      11.8726      11.8729       0.9695       0.0000
      7      14.7949      14.8035      14.8027      14.8029       0.9698       0.0000
      8      18.5167      18.5268      18.5260      18.5264       0.9662       0.0000
 

 k-point 168 :       0.2857   -0.1429    0.4286
  band No. DFT-energies  QP-energies  QP-e(diag)   sigma(DFT)    Z            occupation

      1     -45.6704     -45.6906     -45.6903     -45.6931       0.8754       2.0000
      2     -18.7858     -18.7850     -18.7830     -18.7827       0.9163       2.0000
      3     -18.5824     -18.5820     -18.5811     -18.5810       0.9156       2.0000
      4     -18.4677     -18.4672     -18.4664     -18.4663       0.9163       2.0000
      5       9.5533       9.5626       9.5613       9.5616       0.9699       0.0000
      6      12.7419      12.7511      12.7498      12.7501       0.9692       0.0000
      7      13.6155      13.6250      13.6238      13.6241       0.9689       0.0000
      8      17.4505      17.4611      17.4603      17.4606       0.9658       0.0000
 

 k-point 169 :       0.4286   -0.1429    0.4286
  band No. DFT-energies  QP-energies  QP-e(diag)   sigma(DFT)    Z            occupation

      1     -45.6617     -45.6817     -45.6814     -45.6842       0.8759       2.0000
      2     -18.7998     -18.7990     -18.7972     -18.7969       0.9165       2.0000
      3     -18.5251     -18.5246     -18.5239     -18.5238       0.9161       2.0000
      4     -18.3960     -18.3957     -18.3935     -18.3933       0.9175       2.0000
      5      10.3034      10.3118      10.3115      10.3118       0.9728       0.0000
      6      11.6449      11.6554      11.6532      11.6535       0.9665       0.0000
      7      13.8195      13.8288      13.8281      13.8283       0.9696       0.0000
      8      19.1902      19.2010      19.1987      19.1991       0.9632       0.0000
 

 k-point 170 :      -0.4286   -0.1429    0.4286
  band No. DFT-energies  QP-energies  QP-e(diag)   sigma(DFT)    Z            occupation

      1     -45.6702     -45.6904     -45.6901     -45.6929       0.8756       2.0000
      2     -18.7834     -18.7826     -18.7807     -18.7805       0.9164       2.0000
      3     -18.5821     -18.5817     -18.5806     -18.5805       0.9157       2.0000
      4     -18.4688     -18.4683     -18.4675     -18.4674       0.9162       2.0000
      5       9.5540       9.5633       9.5621       9.5623       0.9699       0.0000
      6      12.7416      12.7508      12.7495      12.7498       0.9692       0.0000
      7      13.6155      13.6250      13.6238      13.6241       0.9689       0.0000
      8      17.4509      17.4614      17.4607      17.4610       0.9658       0.0000
 

 k-point 171 :      -0.2857   -0.1429    0.4286
  band No. DFT-energies  QP-energies  QP-e(diag)   sigma(DFT)    Z            occupation

      1     -45.6814     -45.7016     -45.7013     -45.7041       0.8745       2.0000
      2     -18.7806     -18.7797     -18.7781     -18.7779       0.9162       2.0000
      3     -18.5741     -18.5735     -18.5724     -18.5722       0.9163       2.0000
      4     -18.4445     -18.4440     -18.4436     -18.4435       0.9159       2.0000
      5       9.0149       9.0244       9.0231       9.0233       0.9693       0.0000
      6      11.8639      11.8735      11.8725      11.8728       0.9695       0.0000
      7      14.7945      14.8031      14.8023      14.8025       0.9698       0.0000
      8      18.5170      18.5271      18.5264      18.5267       0.9662       0.0000
 

 k-point 172 :      -0.1429   -0.1429    0.4286
  band No. DFT-energies  QP-energies  QP-e(diag)   sigma(DFT)    Z            occupation

      1     -45.6909     -45.7113     -45.7110     -45.7139       0.8739       2.0000
      2     -18.8735     -18.8725     -18.8706     -18.8703       0.9167       2.0000
      3     -18.4834     -18.4829     -18.4823     -18.4822       0.9148       2.0000
      4     -18.4623     -18.4618     -18.4615     -18.4614       0.9159       2.0000
      5       9.1759       9.1856       9.1840       9.1842       0.9688       0.0000
      6      10.2225      10.2325      10.2316      10.2319       0.9700       0.0000
      7      16.9110      16.9193      16.9189      16.9191       0.9700       0.0000
      8      20.0025      20.0114      20.0107      20.0110       0.9678       0.0000
 


--------------------------------------------------------------------------------------------------------



IMPORTANT INFORMATION: All symmetrisations will be switched off!
NOSYMM: (Re-)initialisation of all symmetry stuff for point group C_1.

   GW_DIAG:  cpu time    0.7870: real time    0.7888
    GWLOOP:  cpu time  644.9723: real time  646.7708
 writing wavefunctions
    --------------------------------------------
   GWTOTAL:  cpu time  645.5319: real time  647.4073
    4ORBIT:  cpu time    0.0000: real time    0.0000

 total amount of memory used by VASP MPI-rank0   100915. kBytes
=======================================================================

   base      :      30000. kBytes
   nonl-proj :       8480. kBytes
   fftplans  :       6831. kBytes
   grid      :       2052. kBytes
   one-center:         23. kBytes
   HF        :        193. kBytes
   nonlr-proj:        146. kBytes
   wavefun   :      53190. kBytes
   2eintegral:          0. kBytes
   fockhandle:          0. kBytes
   response  :          0. kBytes
   cacher    :          0. kBytes
 
  
  
 General timing and accounting informations for this job:
 ========================================================
  
                  Total CPU time used (sec):      648.160
                            User time (sec):      646.872
                          System time (sec):        1.288
                         Elapsed time (sec):      650.470
  
                   Maximum memory used (kb):      961076.
                   Average memory used (kb):           0.
  
                          Minor page faults:       105920
                          Major page faults:            0
                 Voluntary context switches:         5965
