<?xml version="1.0" encoding="ISO-8859-1"?>
<modeling>
 <generator>
  <i name="program" type="string">vasp </i>
  <i name="version" type="string">5.4.4.18Apr17-6-g9f103f2a35  </i>
  <i name="subversion" type="string">(build Nov 03 2018 10:20:46) complex            parallel </i>
  <i name="platform" type="string">LinuxIFC </i>
  <i name="date" type="string">2018 12 14 </i>
  <i name="time" type="string">08:38:27 </i>
 </generator>
 <incar>
  <i type="string" name="SYSTEM">   Og_FCC</i>
  <i type="string" name="PREC">accurate</i>
  <i type="string" name="ALGO">   QPGW</i>
  <i type="logical" name="ADDGRID"> T  </i>
  <i type="logical" name="LSORBIT"> F  </i>
  <i type="int" name="ISPIN">     1</i>
  <i type="int" name="MAXMIX">    50</i>
  <i type="int" name="NELM">     1</i>
  <i type="int" name="IBRION">    -1</i>
  <i type="int" name="NFREE">     5</i>
  <i name="EDIFF">      0.00000001</i>
  <i name="EDIFFG">      0.00001000</i>
  <i type="int" name="NSW">     1</i>
  <i type="int" name="ISIF">     3</i>
  <i type="int" name="ISYM">     0</i>
  <i name="SYMPREC">      0.00000010</i>
  <i name="ENCUT">    300.00000000</i>
  <i type="int" name="NBANDS">   128</i>
  <i name="POTIM">      0.10000000</i>
  <i type="logical" name="LREAL"> F  </i>
  <i type="int" name="ISMEAR">     0</i>
  <i name="SIGMA">      0.00100000</i>
  <i type="int" name="NWRITE">     1</i>
  <i type="logical" name="LWAVE"> T  </i>
  <i type="logical" name="LCHARG"> F  </i>
  <i type="logical" name="LVTOT"> F  </i>
  <i type="logical" name="GGA_COMPAT"> F  </i>
  <i type="int" name="NOMEGA">    50</i>
  <v type="int" name="KPOINT_BSE">    -1     0     0     0</v>
  <i type="logical" name="LSPECTRAL"> T  </i>
  <i type="int" name="NELM">     1</i>
  <i type="string" name="GGA"> PE</i>
 </incar>
 <structure name="primitive_cell" >
  <crystal>
   <varray name="basis" >
    <v>       3.15663441       0.00000000       0.00000000 </v>
    <v>       1.57831721       2.73372559       0.00000000 </v>
    <v>       1.57831721       0.91124186       2.57738121 </v>
   </varray>
   <i name="volume">     22.24118194 </i>
   <varray name="rec_basis" >
    <v>       0.31679310      -0.18290058      -0.12933024 </v>
    <v>       0.00000000       0.36580116      -0.12933024 </v>
    <v>       0.00000000       0.00000000       0.38799072 </v>
   </varray>
  </crystal>
  <varray name="positions" >
   <v>       0.00000000       0.00000000       0.00000000 </v>
  </varray>
 </structure>
 <varray name="primitive_index" >
  <v type="int" >        1 </v>
 </varray>
 <kpoints>
  <generation param="Gamma">
   <v type="int" name="divisions">       7        7        7 </v>
   <v name="usershift">      0.00000000       0.00000000       0.00000000 </v>
   <v name="genvec1">      0.14285714       0.00000000      -0.00000000 </v>
   <v name="genvec2">      0.00000000       0.14285714      -0.00000000 </v>
   <v name="genvec3">      0.00000000       0.00000000       0.14285714 </v>
   <v name="shift">      0.00000000       0.00000000       0.00000000 </v>
  </generation>
  <varray name="kpointlist" >
   <v>       0.00000000       0.00000000       0.00000000 </v>
   <v>       0.14285714      -0.00000000      -0.00000000 </v>
   <v>       0.28571429      -0.00000000      -0.00000000 </v>
   <v>       0.42857143       0.00000000       0.00000000 </v>
   <v>       0.00000000       0.14285714       0.00000000 </v>
   <v>       0.14285714       0.14285714       0.00000000 </v>
   <v>       0.28571429       0.14285714       0.00000000 </v>
   <v>       0.42857143       0.14285714      -0.00000000 </v>
   <v>      -0.42857143       0.14285714       0.00000000 </v>
   <v>      -0.28571429       0.14285714       0.00000000 </v>
   <v>      -0.14285714       0.14285714      -0.00000000 </v>
   <v>       0.00000000       0.28571429       0.00000000 </v>
   <v>       0.14285714       0.28571429      -0.00000000 </v>
   <v>       0.28571429       0.28571429      -0.00000000 </v>
   <v>       0.42857143       0.28571429      -0.00000000 </v>
   <v>      -0.42857143       0.28571429       0.00000000 </v>
   <v>      -0.28571429       0.28571429       0.00000000 </v>
   <v>      -0.14285714       0.28571429      -0.00000000 </v>
   <v>       0.00000000       0.42857143       0.00000000 </v>
   <v>       0.14285714       0.42857143      -0.00000000 </v>
   <v>       0.28571429       0.42857143       0.00000000 </v>
   <v>       0.42857143       0.42857143       0.00000000 </v>
   <v>      -0.42857143       0.42857143       0.00000000 </v>
   <v>      -0.28571429       0.42857143      -0.00000000 </v>
   <v>      -0.14285714       0.42857143      -0.00000000 </v>
   <v>       0.00000000       0.00000000       0.14285714 </v>
   <v>       0.14285714      -0.00000000       0.14285714 </v>
   <v>       0.28571429      -0.00000000       0.14285714 </v>
   <v>       0.42857143       0.00000000       0.14285714 </v>
   <v>      -0.42857143       0.00000000       0.14285714 </v>
   <v>      -0.28571429       0.00000000       0.14285714 </v>
   <v>      -0.14285714      -0.00000000       0.14285714 </v>
   <v>       0.00000000       0.14285714       0.14285714 </v>
   <v>       0.14285714       0.14285714       0.14285714 </v>
   <v>       0.28571429       0.14285714       0.14285714 </v>
   <v>       0.42857143       0.14285714       0.14285714 </v>
   <v>      -0.42857143       0.14285714       0.14285714 </v>
   <v>      -0.28571429       0.14285714       0.14285714 </v>
   <v>      -0.14285714       0.14285714       0.14285714 </v>
   <v>       0.00000000       0.28571429       0.14285714 </v>
   <v>       0.14285714       0.28571429       0.14285714 </v>
   <v>       0.28571429       0.28571429       0.14285714 </v>
   <v>       0.42857143       0.28571429       0.14285714 </v>
   <v>      -0.42857143       0.28571429       0.14285714 </v>
   <v>      -0.28571429       0.28571429       0.14285714 </v>
   <v>      -0.14285714       0.28571429       0.14285714 </v>
   <v>       0.00000000       0.42857143       0.14285714 </v>
   <v>       0.14285714       0.42857143       0.14285714 </v>
   <v>       0.28571429       0.42857143       0.14285714 </v>
   <v>       0.42857143       0.42857143       0.14285714 </v>
   <v>      -0.42857143       0.42857143       0.14285714 </v>
   <v>      -0.28571429       0.42857143       0.14285714 </v>
   <v>      -0.14285714       0.42857143       0.14285714 </v>
   <v>       0.00000000      -0.42857143       0.14285714 </v>
   <v>       0.14285714      -0.42857143       0.14285714 </v>
   <v>       0.28571429      -0.42857143       0.14285714 </v>
   <v>       0.42857143      -0.42857143       0.14285714 </v>
   <v>      -0.42857143      -0.42857143       0.14285714 </v>
   <v>      -0.28571429      -0.42857143       0.14285714 </v>
   <v>      -0.14285714      -0.42857143       0.14285714 </v>
   <v>       0.00000000      -0.28571429       0.14285714 </v>
   <v>       0.14285714      -0.28571429       0.14285714 </v>
   <v>       0.28571429      -0.28571429       0.14285714 </v>
   <v>       0.42857143      -0.28571429       0.14285714 </v>
   <v>      -0.42857143      -0.28571429       0.14285714 </v>
   <v>      -0.28571429      -0.28571429       0.14285714 </v>
   <v>      -0.14285714      -0.28571429       0.14285714 </v>
   <v>       0.00000000      -0.14285714       0.14285714 </v>
   <v>       0.14285714      -0.14285714       0.14285714 </v>
   <v>       0.28571429      -0.14285714       0.14285714 </v>
   <v>       0.42857143      -0.14285714       0.14285714 </v>
   <v>      -0.42857143      -0.14285714       0.14285714 </v>
   <v>      -0.28571429      -0.14285714       0.14285714 </v>
   <v>      -0.14285714      -0.14285714       0.14285714 </v>
   <v>       0.00000000       0.00000000       0.28571429 </v>
   <v>       0.14285714      -0.00000000       0.28571429 </v>
   <v>       0.28571429      -0.00000000       0.28571429 </v>
   <v>       0.42857143       0.00000000       0.28571429 </v>
   <v>      -0.42857143       0.00000000       0.28571429 </v>
   <v>      -0.28571429       0.00000000       0.28571429 </v>
   <v>      -0.14285714      -0.00000000       0.28571429 </v>
   <v>       0.00000000       0.14285714       0.28571429 </v>
   <v>       0.14285714       0.14285714       0.28571429 </v>
   <v>       0.28571429       0.14285714       0.28571429 </v>
   <v>       0.42857143       0.14285714       0.28571429 </v>
   <v>      -0.42857143       0.14285714       0.28571429 </v>
   <v>      -0.28571429       0.14285714       0.28571429 </v>
   <v>      -0.14285714       0.14285714       0.28571429 </v>
   <v>       0.00000000       0.28571429       0.28571429 </v>
   <v>       0.14285714       0.28571429       0.28571429 </v>
   <v>       0.28571429       0.28571429       0.28571429 </v>
   <v>       0.42857143       0.28571429       0.28571429 </v>
   <v>      -0.42857143       0.28571429       0.28571429 </v>
   <v>      -0.28571429       0.28571429       0.28571429 </v>
   <v>      -0.14285714       0.28571429       0.28571429 </v>
   <v>       0.00000000       0.42857143       0.28571429 </v>
   <v>       0.14285714       0.42857143       0.28571429 </v>
   <v>       0.28571429       0.42857143       0.28571429 </v>
   <v>       0.42857143       0.42857143       0.28571429 </v>
   <v>      -0.42857143       0.42857143       0.28571429 </v>
   <v>      -0.28571429       0.42857143       0.28571429 </v>
   <v>      -0.14285714       0.42857143       0.28571429 </v>
   <v>       0.00000000      -0.42857143       0.28571429 </v>
   <v>       0.14285714      -0.42857143       0.28571429 </v>
   <v>       0.28571429      -0.42857143       0.28571429 </v>
   <v>       0.42857143      -0.42857143       0.28571429 </v>
   <v>      -0.42857143      -0.42857143       0.28571429 </v>
   <v>      -0.28571429      -0.42857143       0.28571429 </v>
   <v>      -0.14285714      -0.42857143       0.28571429 </v>
   <v>       0.00000000      -0.28571429       0.28571429 </v>
   <v>       0.14285714      -0.28571429       0.28571429 </v>
   <v>       0.28571429      -0.28571429       0.28571429 </v>
   <v>       0.42857143      -0.28571429       0.28571429 </v>
   <v>      -0.42857143      -0.28571429       0.28571429 </v>
   <v>      -0.28571429      -0.28571429       0.28571429 </v>
   <v>      -0.14285714      -0.28571429       0.28571429 </v>
   <v>       0.00000000      -0.14285714       0.28571429 </v>
   <v>       0.14285714      -0.14285714       0.28571429 </v>
   <v>       0.28571429      -0.14285714       0.28571429 </v>
   <v>       0.42857143      -0.14285714       0.28571429 </v>
   <v>      -0.42857143      -0.14285714       0.28571429 </v>
   <v>      -0.28571429      -0.14285714       0.28571429 </v>
   <v>      -0.14285714      -0.14285714       0.28571429 </v>
   <v>       0.00000000       0.00000000       0.42857143 </v>
   <v>       0.14285714      -0.00000000       0.42857143 </v>
   <v>       0.28571429      -0.00000000       0.42857143 </v>
   <v>       0.42857143       0.00000000       0.42857143 </v>
   <v>      -0.42857143       0.00000000       0.42857143 </v>
   <v>      -0.28571429       0.00000000       0.42857143 </v>
   <v>      -0.14285714      -0.00000000       0.42857143 </v>
   <v>       0.00000000       0.14285714       0.42857143 </v>
   <v>       0.14285714       0.14285714       0.42857143 </v>
   <v>       0.28571429       0.14285714       0.42857143 </v>
   <v>       0.42857143       0.14285714       0.42857143 </v>
   <v>      -0.42857143       0.14285714       0.42857143 </v>
   <v>      -0.28571429       0.14285714       0.42857143 </v>
   <v>      -0.14285714       0.14285714       0.42857143 </v>
   <v>       0.00000000       0.28571429       0.42857143 </v>
   <v>       0.14285714       0.28571429       0.42857143 </v>
   <v>       0.28571429       0.28571429       0.42857143 </v>
   <v>       0.42857143       0.28571429       0.42857143 </v>
   <v>      -0.42857143       0.28571429       0.42857143 </v>
   <v>      -0.28571429       0.28571429       0.42857143 </v>
   <v>      -0.14285714       0.28571429       0.42857143 </v>
   <v>       0.00000000       0.42857143       0.42857143 </v>
   <v>       0.14285714       0.42857143       0.42857143 </v>
   <v>       0.28571429       0.42857143       0.42857143 </v>
   <v>       0.42857143       0.42857143       0.42857143 </v>
   <v>      -0.42857143       0.42857143       0.42857143 </v>
   <v>      -0.28571429       0.42857143       0.42857143 </v>
   <v>      -0.14285714       0.42857143       0.42857143 </v>
   <v>       0.00000000      -0.42857143       0.42857143 </v>
   <v>       0.14285714      -0.42857143       0.42857143 </v>
   <v>       0.28571429      -0.42857143       0.42857143 </v>
   <v>       0.42857143      -0.42857143       0.42857143 </v>
   <v>      -0.42857143      -0.42857143       0.42857143 </v>
   <v>      -0.28571429      -0.42857143       0.42857143 </v>
   <v>      -0.14285714      -0.42857143       0.42857143 </v>
   <v>       0.00000000      -0.28571429       0.42857143 </v>
   <v>       0.14285714      -0.28571429       0.42857143 </v>
   <v>       0.28571429      -0.28571429       0.42857143 </v>
   <v>       0.42857143      -0.28571429       0.42857143 </v>
   <v>      -0.42857143      -0.28571429       0.42857143 </v>
   <v>      -0.28571429      -0.28571429       0.42857143 </v>
   <v>      -0.14285714      -0.28571429       0.42857143 </v>
   <v>       0.00000000      -0.14285714       0.42857143 </v>
   <v>       0.14285714      -0.14285714       0.42857143 </v>
   <v>       0.28571429      -0.14285714       0.42857143 </v>
   <v>       0.42857143      -0.14285714       0.42857143 </v>
   <v>      -0.42857143      -0.14285714       0.42857143 </v>
   <v>      -0.28571429      -0.14285714       0.42857143 </v>
   <v>      -0.14285714      -0.14285714       0.42857143 </v>
  </varray>
  <varray name="weights" >
   <v>       0.00291545 </v>
   <v>       0.00583090 </v>
   <v>       0.00583090 </v>
   <v>       0.00583090 </v>
   <v>       0.00583090 </v>
   <v>       0.00583090 </v>
   <v>       0.00583090 </v>
   <v>       0.00583090 </v>
   <v>       0.00583090 </v>
   <v>       0.00583090 </v>
   <v>       0.00583090 </v>
   <v>       0.00583090 </v>
   <v>       0.00583090 </v>
   <v>       0.00583090 </v>
   <v>       0.00583090 </v>
   <v>       0.00583090 </v>
   <v>       0.00583090 </v>
   <v>       0.00583090 </v>
   <v>       0.00583090 </v>
   <v>       0.00583090 </v>
   <v>       0.00583090 </v>
   <v>       0.00583090 </v>
   <v>       0.00583090 </v>
   <v>       0.00583090 </v>
   <v>       0.00583090 </v>
   <v>       0.00583090 </v>
   <v>       0.00583090 </v>
   <v>       0.00583090 </v>
   <v>       0.00583090 </v>
   <v>       0.00583090 </v>
   <v>       0.00583090 </v>
   <v>       0.00583090 </v>
   <v>       0.00583090 </v>
   <v>       0.00583090 </v>
   <v>       0.00583090 </v>
   <v>       0.00583090 </v>
   <v>       0.00583090 </v>
   <v>       0.00583090 </v>
   <v>       0.00583090 </v>
   <v>       0.00583090 </v>
   <v>       0.00583090 </v>
   <v>       0.00583090 </v>
   <v>       0.00583090 </v>
   <v>       0.00583090 </v>
   <v>       0.00583090 </v>
   <v>       0.00583090 </v>
   <v>       0.00583090 </v>
   <v>       0.00583090 </v>
   <v>       0.00583090 </v>
   <v>       0.00583090 </v>
   <v>       0.00583090 </v>
   <v>       0.00583090 </v>
   <v>       0.00583090 </v>
   <v>       0.00583090 </v>
   <v>       0.00583090 </v>
   <v>       0.00583090 </v>
   <v>       0.00583090 </v>
   <v>       0.00583090 </v>
   <v>       0.00583090 </v>
   <v>       0.00583090 </v>
   <v>       0.00583090 </v>
   <v>       0.00583090 </v>
   <v>       0.00583090 </v>
   <v>       0.00583090 </v>
   <v>       0.00583090 </v>
   <v>       0.00583090 </v>
   <v>       0.00583090 </v>
   <v>       0.00583090 </v>
   <v>       0.00583090 </v>
   <v>       0.00583090 </v>
   <v>       0.00583090 </v>
   <v>       0.00583090 </v>
   <v>       0.00583090 </v>
   <v>       0.00583090 </v>
   <v>       0.00583090 </v>
   <v>       0.00583090 </v>
   <v>       0.00583090 </v>
   <v>       0.00583090 </v>
   <v>       0.00583090 </v>
   <v>       0.00583090 </v>
   <v>       0.00583090 </v>
   <v>       0.00583090 </v>
   <v>       0.00583090 </v>
   <v>       0.00583090 </v>
   <v>       0.00583090 </v>
   <v>       0.00583090 </v>
   <v>       0.00583090 </v>
   <v>       0.00583090 </v>
   <v>       0.00583090 </v>
   <v>       0.00583090 </v>
   <v>       0.00583090 </v>
   <v>       0.00583090 </v>
   <v>       0.00583090 </v>
   <v>       0.00583090 </v>
   <v>       0.00583090 </v>
   <v>       0.00583090 </v>
   <v>       0.00583090 </v>
   <v>       0.00583090 </v>
   <v>       0.00583090 </v>
   <v>       0.00583090 </v>
   <v>       0.00583090 </v>
   <v>       0.00583090 </v>
   <v>       0.00583090 </v>
   <v>       0.00583090 </v>
   <v>       0.00583090 </v>
   <v>       0.00583090 </v>
   <v>       0.00583090 </v>
   <v>       0.00583090 </v>
   <v>       0.00583090 </v>
   <v>       0.00583090 </v>
   <v>       0.00583090 </v>
   <v>       0.00583090 </v>
   <v>       0.00583090 </v>
   <v>       0.00583090 </v>
   <v>       0.00583090 </v>
   <v>       0.00583090 </v>
   <v>       0.00583090 </v>
   <v>       0.00583090 </v>
   <v>       0.00583090 </v>
   <v>       0.00583090 </v>
   <v>       0.00583090 </v>
   <v>       0.00583090 </v>
   <v>       0.00583090 </v>
   <v>       0.00583090 </v>
   <v>       0.00583090 </v>
   <v>       0.00583090 </v>
   <v>       0.00583090 </v>
   <v>       0.00583090 </v>
   <v>       0.00583090 </v>
   <v>       0.00583090 </v>
   <v>       0.00583090 </v>
   <v>       0.00583090 </v>
   <v>       0.00583090 </v>
   <v>       0.00583090 </v>
   <v>       0.00583090 </v>
   <v>       0.00583090 </v>
   <v>       0.00583090 </v>
   <v>       0.00583090 </v>
   <v>       0.00583090 </v>
   <v>       0.00583090 </v>
   <v>       0.00583090 </v>
   <v>       0.00583090 </v>
   <v>       0.00583090 </v>
   <v>       0.00583090 </v>
   <v>       0.00583090 </v>
   <v>       0.00583090 </v>
   <v>       0.00583090 </v>
   <v>       0.00583090 </v>
   <v>       0.00583090 </v>
   <v>       0.00583090 </v>
   <v>       0.00583090 </v>
   <v>       0.00583090 </v>
   <v>       0.00583090 </v>
   <v>       0.00583090 </v>
   <v>       0.00583090 </v>
   <v>       0.00583090 </v>
   <v>       0.00583090 </v>
   <v>       0.00583090 </v>
   <v>       0.00583090 </v>
   <v>       0.00583090 </v>
   <v>       0.00583090 </v>
   <v>       0.00583090 </v>
   <v>       0.00583090 </v>
   <v>       0.00583090 </v>
   <v>       0.00583090 </v>
   <v>       0.00583090 </v>
   <v>       0.00583090 </v>
   <v>       0.00583090 </v>
   <v>       0.00583090 </v>
   <v>       0.00583090 </v>
   <v>       0.00583090 </v>
   <v>       0.00583090 </v>
  </varray>
 </kpoints>
 <parameters>
  <separator name="general" >
   <i type="string" name="SYSTEM">Og_FCC</i>
   <i type="logical" name="LCOMPAT"> F  </i>
  </separator>
  <separator name="electronic" >
   <i type="string" name="PREC">accura</i>
   <i name="ENMAX">    300.00000000</i>
   <i name="ENAUG">    755.75300000</i>
   <i name="EDIFF">      0.00000001</i>
   <i type="int" name="IALGO">    38</i>
   <i type="int" name="IWAVPR">    10</i>
   <i type="int" name="NBANDS">   128</i>
   <i name="NELECT">      8.00000000</i>
   <i type="int" name="TURBO">     0</i>
   <i type="int" name="IRESTART">     0</i>
   <i type="int" name="NREBOOT">     0</i>
   <i type="int" name="NMIN">     0</i>
   <i name="EREF">      0.00000000</i>
   <separator name="electronic smearing" >
    <i type="int" name="ISMEAR">     0</i>
    <i name="SIGMA">      0.00100000</i>
    <i name="KSPACING">      0.50000000</i>
    <i type="logical" name="KGAMMA"> T  </i>
   </separator>
   <separator name="electronic projectors" >
    <i type="logical" name="LREAL"> F  </i>
    <v name="ROPT">      0.00000000</v>
    <i type="int" name="LMAXPAW">  -100</i>
    <i type="int" name="LMAXMIX">     2</i>
    <i type="logical" name="NLSPLINE"> F  </i>
   </separator>
   <separator name="electronic startup" >
    <i type="int" name="ISTART">     1</i>
    <i type="int" name="ICHARG">     0</i>
    <i type="int" name="INIWAV">     1</i>
   </separator>
   <separator name="electronic spin" >
    <i type="int" name="ISPIN">     1</i>
    <i type="logical" name="LNONCOLLINEAR"> F  </i>
    <v name="MAGMOM">      1.00000000</v>
    <i name="NUPDOWN">     -1.00000000</i>
    <i type="logical" name="LSORBIT"> F  </i>
    <v name="SAXIS">      0.00000000      0.00000000      1.00000000</v>
    <i type="logical" name="LSPIRAL"> F  </i>
    <v name="QSPIRAL">      0.00000000      0.00000000      0.00000000</v>
    <i type="logical" name="LZEROZ"> F  </i>
   </separator>
   <separator name="electronic exchange-correlation" >
    <i type="logical" name="LASPH"> F  </i>
    <i type="logical" name="LMETAGGA"> F  </i>
   </separator>
   <separator name="electronic convergence" >
    <i type="int" name="NELM">     1</i>
    <i type="int" name="NELMDL">     0</i>
    <i type="int" name="NELMIN">     2</i>
    <i name="ENINI">    300.00000000</i>
    <separator name="electronic convergence detail" >
     <i type="logical" name="LDIAG"> T  </i>
     <i type="logical" name="LSUBROT"> F  </i>
     <i name="WEIMIN">      0.00000000</i>
     <i name="EBREAK">      0.00000000</i>
     <i name="DEPER">      0.30000000</i>
     <i type="int" name="NRMM">     4</i>
     <i name="TIME">      0.40000000</i>
    </separator>
   </separator>
   <separator name="electronic mixer" >
    <i name="AMIX">      0.40000000</i>
    <i name="BMIX">      1.00000000</i>
    <i name="AMIN">      0.10000000</i>
    <i name="AMIX_MAG">      1.60000000</i>
    <i name="BMIX_MAG">      1.00000000</i>
    <separator name="electronic mixer details" >
     <i type="int" name="IMIX">     1</i>
     <i type="logical" name="MIXFIRST"> F  </i>
     <i type="int" name="MAXMIX">    50</i>
     <i name="WC">    100.00000000</i>
     <i type="int" name="INIMIX">     1</i>
     <i type="int" name="MIXPRE">     1</i>
     <i type="int" name="MREMOVE">     5</i>
    </separator>
   </separator>
   <separator name="electronic dipolcorrection" >
    <i type="logical" name="LDIPOL"> F  </i>
    <i type="logical" name="LMONO"> F  </i>
    <i type="int" name="IDIPOL">     0</i>
    <i name="EPSILON">      1.00000000</i>
    <v name="DIPOL">   -100.00000000   -100.00000000   -100.00000000</v>
    <i name="EFIELD">      0.00000000</i>
   </separator>
  </separator>
  <separator name="grids" >
   <i type="int" name="NGX">    18</i>
   <i type="int" name="NGY">    18</i>
   <i type="int" name="NGZ">    18</i>
   <i type="int" name="NGXF">    36</i>
   <i type="int" name="NGYF">    36</i>
   <i type="int" name="NGZF">    36</i>
   <i type="logical" name="ADDGRID"> T  </i>
  </separator>
  <separator name="ionic" >
   <i type="int" name="NSW">     1</i>
   <i type="int" name="IBRION">    -1</i>
   <i type="int" name="MDALGO">     0</i>
   <i type="int" name="ISIF">     3</i>
   <i name="PSTRESS">      0.00000000</i>
   <i name="EDIFFG">      0.00001000</i>
   <i type="int" name="NFREE">     5</i>
   <i name="POTIM">      0.10000000</i>
   <i name="SMASS">     -3.00000000</i>
   <i name="SCALEE">      1.00000000</i>
  </separator>
  <separator name="ionic md" >
   <i name="TEBEG">      0.00010000</i>
   <i name="TEEND">      0.00010000</i>
   <i type="int" name="NBLOCK">     1</i>
   <i type="int" name="KBLOCK">     1</i>
   <i type="int" name="NPACO">   256</i>
   <i name="APACO">     16.00000000</i>
  </separator>
  <separator name="symmetry" >
   <i type="int" name="ISYM">     0</i>
   <i name="SYMPREC">      0.00000010</i>
  </separator>
  <separator name="dos" >
   <i type="int" name="LORBIT">     0</i>
   <v name="RWIGS">     -1.00000000</v>
   <i type="int" name="NEDOS">   301</i>
   <i name="EMIN">     10.00000000</i>
   <i name="EMAX">    -10.00000000</i>
   <i name="EFERMI">      0.00000000</i>
  </separator>
  <separator name="writing" >
   <i type="int" name="NWRITE">     1</i>
   <i type="logical" name="LWAVE"> T  </i>
   <i type="logical" name="LDOWNSAMPLE"> F  </i>
   <i type="logical" name="LCHARG"> F  </i>
   <i type="logical" name="LPARD"> F  </i>
   <i type="logical" name="LVTOT"> F  </i>
   <i type="logical" name="LVHAR"> F  </i>
   <i type="logical" name="LELF"> F  </i>
   <i type="logical" name="LOPTICS"> F  </i>
   <v name="STM">      0.00000000      0.00000000      0.00000000      0.00000000      0.00000000      0.00000000      0.00000000</v>
  </separator>
  <separator name="performance" >
   <i type="int" name="NPAR">     2</i>
   <i type="int" name="NSIM">     4</i>
   <i type="int" name="NBLK">    -1</i>
   <i type="logical" name="LPLANE"> T  </i>
   <i type="logical" name="LSCALAPACK"> T  </i>
   <i type="logical" name="LSCAAWARE"> F  </i>
   <i type="logical" name="LSCALU"> F  </i>
   <i type="logical" name="LASYNC"> F  </i>
   <i type="logical" name="LORBITALREAL"> F  </i>
  </separator>
  <separator name="miscellaneous" >
   <i type="int" name="IDIOT">     3</i>
   <i type="int" name="ISPECIAL">     0</i>
   <i type="logical" name="LMUSIC"> F  </i>
   <v name="POMASS">     20.18000000</v>
   <v name="DARWINR">      0.00000000</v>
   <v name="DARWINV">      1.00000000</v>
   <i type="logical" name="LCORR"> T  </i>
  </separator>
  <i type="logical" name="GGA_COMPAT"> F  </i>
  <i type="logical" name="LBERRY"> F  </i>
  <i type="int" name="ICORELEVEL">     0</i>
  <i type="logical" name="LDAU"> F  </i>
  <i type="int" name="I_CONSTRAINED_M">     0</i>
  <separator name="electronic exchange-correlation" >
   <i type="string" name="GGA">PE</i>
   <i type="int" name="VOSKOWN">     0</i>
   <i type="logical" name="LHFCALC"> T  </i>
   <i type="string" name="PRECFOCK">normal</i>
   <i type="logical" name="LSYMGRAD"> F  </i>
   <i type="logical" name="LHFONE"> F  </i>
   <i type="logical" name="LRHFCALC"> F  </i>
   <i type="logical" name="LTHOMAS"> F  </i>
   <i type="logical" name="LMODELHF"> F  </i>
   <i name="ENCUT4O">     -1.00000000</i>
   <i type="int" name="EXXOEP">     0</i>
   <i type="int" name="FOURORBIT">     0</i>
   <i name="AEXX">      1.00000000</i>
   <i name="HFALPHA">     -1.00000000</i>
   <i name="MCALPHA">      0.00000000</i>
   <i name="ALDAX">      0.00000000</i>
   <i name="AGGAX">      0.00000000</i>
   <i name="ALDAC">      0.00000000</i>
   <i name="AGGAC">      0.00000000</i>
   <i type="int" name="NKREDX">     1</i>
   <i type="int" name="NKREDY">     1</i>
   <i type="int" name="NKREDZ">     1</i>
   <i type="logical" name="SHIFTRED"> F  </i>
   <i type="logical" name="ODDONLY"> F  </i>
   <i type="logical" name="EVENONLY"> F  </i>
   <i type="int" name="LMAXFOCK">     4</i>
   <i type="int" name="NMAXFOCKAE">     1</i>
   <i type="logical" name="LFOCKAEDFT"> F  </i>
   <i name="HFSCREEN">      0.00000000</i>
   <i name="HFSCREENC">      0.00000000</i>
   <i type="int" name="NBANDSGWLOW">     1</i>
  </separator>
  <separator name="vdW DFT" >
   <i type="logical" name="LUSE_VDW"> F  </i>
   <i name="Zab_VDW">     -0.84910000</i>
   <i name="PARAM1">      0.12340000</i>
   <i name="PARAM2">      1.00000000</i>
   <i name="PARAM3">      0.00000000</i>
  </separator>
  <separator name="model GW" >
   <i type="int" name="MODEL_GW">     0</i>
   <i name="MODEL_EPS0">     13.34470917</i>
   <i name="MODEL_ALPHA">      1.00000000</i>
  </separator>
  <separator name="linear response parameters" >
   <i type="logical" name="LEPSILON"> F  </i>
   <i type="logical" name="LRPA"> F  </i>
   <i type="logical" name="LNABLA"> F  </i>
   <i type="logical" name="LVEL"> F  </i>
   <i type="int" name="KINTER">     0</i>
   <i name="CSHIFT">      0.10000000</i>
   <i name="OMEGAMAX">     -1.00000000</i>
   <i name="DEG_THRESHOLD">      0.00200000</i>
   <i name="RTIME">     -0.10000000</i>
   <i name="WPLASMAI">      0.00000000</i>
   <v name="DFIELD">      0.00000000      0.00000000      0.00000000</v>
   <v name="WPLASMA">      0.00000000      0.00000000      0.00000000      0.00000000      0.00000000      0.00000000      0.00000000      0.00000000      0.00000000</v>
  </separator>
  <separator name="orbital magnetization" >
   <i type="logical" name="NUCIND"> F  </i>
   <v name="MAGPOS">      0.00000000      0.00000000      0.00000000</v>
   <i type="logical" name="LNICSALL"> T  </i>
   <i type="logical" name="ORBITALMAG"> F  </i>
   <i type="logical" name="LMAGBLOCH"> F  </i>
   <i type="logical" name="LCHIMAG"> F  </i>
   <i type="logical" name="LGAUGE"> T  </i>
   <i type="int" name="MAGATOM">     0</i>
   <v name="MAGDIPOL">      0.00000000      0.00000000      0.00000000</v>
   <v name="AVECCONST">      0.00000000      0.00000000      0.00000000</v>
  </separator>
  <separator name="response functions" >
   <i type="logical" name="LADDER"> F  </i>
   <i type="logical" name="LRPAFORCE"> F  </i>
   <i type="logical" name="LFXC"> F  </i>
   <i type="logical" name="LHARTREE"> T  </i>
   <i type="int" name="IBSE">     0</i>
   <v type="int" name="KPOINT">    -1     0     0     0</v>
   <i type="logical" name="LTCTE"> F  </i>
   <i type="logical" name="LTETE"> F  </i>
   <i type="logical" name="LTRIPLET"> F  </i>
   <i type="logical" name="LFXCEPS"> F  </i>
   <i type="logical" name="LFXHEG"> F  </i>
   <i type="int" name="NATURALO">     2</i>
   <i type="logical" name="L2ORDER"> F  </i>
   <i type="logical" name="LMP2LT"> F  </i>
   <i type="logical" name="LUSEW"> F  </i>
   <i name="ENCUTGW">    200.00000000</i>
   <i name="ENCUTGWSOFT">    200.00000000</i>
   <i name="ENCUTLF">     -1.00000000</i>
   <i type="int" name="LMAXMP2">    -1</i>
   <i name="SCISSOR">      0.00000000</i>
   <i type="int" name="NOMEGA">    50</i>
   <i type="int" name="NOMEGAR">    50</i>
   <i type="int" name="NBANDSGW">    -1</i>
   <i type="int" name="NBANDSO">    -1</i>
   <i type="int" name="NBANDSV">    -1</i>
   <i type="int" name="NELM">     1</i>
   <i type="int" name="NELMHF">     1</i>
   <i type="int" name="DIM">     3</i>
   <i type="int" name="ANTIRES">     0</i>
   <i name="OMEGAMAX">    -30.00000000</i>
   <i name="OMEGAMIN">    -30.00000000</i>
   <i name="OMEGATL">   -200.00000000</i>
   <i type="int" name="OMEGAGRID">     0</i>
   <i name="CSHIFT">     -0.10000000</i>
   <i type="logical" name="SELFENERGY"> F  </i>
   <i type="logical" name="LSPECTRAL"> T  </i>
   <i type="logical" name="LSPECTRALGW"> F  </i>
   <i type="logical" name="LSINGLES"> F  </i>
   <i type="logical" name="LFERMIGW"> F  </i>
   <i type="logical" name="ODDONLYGW"> F  </i>
   <i type="logical" name="EVENONLYGW"> F  </i>
   <i type="int" name="NKREDLFX">     1</i>
   <i type="int" name="NKREDLFY">     1</i>
   <i type="int" name="NKREDLFZ">     1</i>
   <i type="int" name="MAXMEM">  2800</i>
   <i type="int" name="TELESCOPE">     0</i>
   <i type="int" name="TAUPAR">     1</i>
   <i type="int" name="OMEGAPAR">    -1</i>
   <i name="LAMBDA">      1.00000000</i>
  </separator>
  <separator name="External order field" >
   <i name="OFIELD_KAPPA">      0.00000000</i>
   <v name="OFIELD_K">      0.00000000      0.00000000      0.00000000</v>
   <i name="OFIELD_Q6_NEAR">      0.00000000</i>
   <i name="OFIELD_Q6_FAR">      0.00000000</i>
   <i name="OFIELD_A">      0.00000000</i>
  </separator>
 </parameters>
 <atominfo>
  <atoms>       1 </atoms>
  <types>       1 </types>
  <array name="atoms" >
   <dimension dim="1">ion</dimension>
   <field type="string">element</field>
   <field type="int">atomtype</field>
   <set>
    <rc><c>Ne</c><c>   1</c></rc>
   </set>
  </array>
  <array name="atomtypes" >
   <dimension dim="1">type</dimension>
   <field type="int">atomspertype</field>
   <field type="string">element</field>
   <field>mass</field>
   <field>valence</field>
   <field type="string">pseudopotential</field>
   <set>
    <rc><c>   1</c><c>Ne</c><c>     20.18000000</c><c>      8.00000000</c><c>  PAW_PBE Ne_GW 22Sep2014               </c></rc>
   </set>
  </array>
 </atominfo>
 <structure name="initialpos" >
  <crystal>
   <varray name="basis" >
    <v>       3.15663441       0.00000000       0.00000000 </v>
    <v>       1.57831721       2.73372559       0.00000000 </v>
    <v>       1.57831721       0.91124186       2.57738121 </v>
   </varray>
   <i name="volume">     22.24118194 </i>
   <varray name="rec_basis" >
    <v>       0.31679310      -0.18290058      -0.12933024 </v>
    <v>       0.00000000       0.36580116      -0.12933024 </v>
    <v>       0.00000000       0.00000000       0.38799072 </v>
   </varray>
  </crystal>
  <varray name="positions" >
   <v>       0.00000000       0.00000000       0.00000000 </v>
  </varray>
  <varray name="velocities" >
   <v>       0.00000000       0.00000000       0.00000000 </v>
  </varray>
 </structure>
 <kpoints>
  <generation param="Gamma">
   <v type="int" name="divisions">       7        7        7 </v>
   <v name="usershift">      0.00000000       0.00000000       0.00000000 </v>
   <v name="genvec1">      0.14285714       0.00000000      -0.00000000 </v>
   <v name="genvec2">      0.00000000       0.14285714      -0.00000000 </v>
   <v name="genvec3">      0.00000000       0.00000000       0.14285714 </v>
   <v name="shift">      0.00000000       0.00000000       0.00000000 </v>
  </generation>
  <varray name="kpointlist" >
   <v>       0.00000000       0.00000000       0.00000000 </v>
   <v>       0.14285714      -0.00000000      -0.00000000 </v>
   <v>       0.28571429      -0.00000000      -0.00000000 </v>
   <v>       0.42857143       0.00000000       0.00000000 </v>
   <v>      -0.42857143       0.00000000      -0.00000000 </v>
   <v>      -0.28571429       0.00000000       0.00000000 </v>
   <v>      -0.14285714      -0.00000000       0.00000000 </v>
   <v>       0.00000000       0.14285714       0.00000000 </v>
   <v>       0.14285714       0.14285714       0.00000000 </v>
   <v>       0.28571429       0.14285714       0.00000000 </v>
   <v>       0.42857143       0.14285714      -0.00000000 </v>
   <v>      -0.42857143       0.14285714       0.00000000 </v>
   <v>      -0.28571429       0.14285714       0.00000000 </v>
   <v>      -0.14285714       0.14285714      -0.00000000 </v>
   <v>       0.00000000       0.28571429       0.00000000 </v>
   <v>       0.14285714       0.28571429      -0.00000000 </v>
   <v>       0.28571429       0.28571429      -0.00000000 </v>
   <v>       0.42857143       0.28571429      -0.00000000 </v>
   <v>      -0.42857143       0.28571429       0.00000000 </v>
   <v>      -0.28571429       0.28571429       0.00000000 </v>
   <v>      -0.14285714       0.28571429      -0.00000000 </v>
   <v>       0.00000000       0.42857143       0.00000000 </v>
   <v>       0.14285714       0.42857143      -0.00000000 </v>
   <v>       0.28571429       0.42857143       0.00000000 </v>
   <v>       0.42857143       0.42857143       0.00000000 </v>
   <v>      -0.42857143       0.42857143       0.00000000 </v>
   <v>      -0.28571429       0.42857143      -0.00000000 </v>
   <v>      -0.14285714       0.42857143      -0.00000000 </v>
   <v>       0.00000000      -0.42857143       0.00000000 </v>
   <v>       0.14285714      -0.42857143       0.00000000 </v>
   <v>       0.28571429      -0.42857143       0.00000000 </v>
   <v>       0.42857143      -0.42857143      -0.00000000 </v>
   <v>      -0.42857143      -0.42857143       0.00000000 </v>
   <v>      -0.28571429      -0.42857143       0.00000000 </v>
   <v>      -0.14285714      -0.42857143       0.00000000 </v>
   <v>       0.00000000      -0.28571429       0.00000000 </v>
   <v>       0.14285714      -0.28571429       0.00000000 </v>
   <v>       0.28571429      -0.28571429      -0.00000000 </v>
   <v>       0.42857143      -0.28571429       0.00000000 </v>
   <v>      -0.42857143      -0.28571429       0.00000000 </v>
   <v>      -0.28571429      -0.28571429       0.00000000 </v>
   <v>      -0.14285714      -0.28571429       0.00000000 </v>
   <v>       0.00000000      -0.14285714       0.00000000 </v>
   <v>       0.14285714      -0.14285714      -0.00000000 </v>
   <v>       0.28571429      -0.14285714      -0.00000000 </v>
   <v>       0.42857143      -0.14285714      -0.00000000 </v>
   <v>      -0.42857143      -0.14285714      -0.00000000 </v>
   <v>      -0.28571429      -0.14285714       0.00000000 </v>
   <v>      -0.14285714      -0.14285714       0.00000000 </v>
   <v>       0.00000000       0.00000000       0.14285714 </v>
   <v>       0.14285714      -0.00000000       0.14285714 </v>
   <v>       0.28571429      -0.00000000       0.14285714 </v>
   <v>       0.42857143       0.00000000       0.14285714 </v>
   <v>      -0.42857143       0.00000000       0.14285714 </v>
   <v>      -0.28571429       0.00000000       0.14285714 </v>
   <v>      -0.14285714      -0.00000000       0.14285714 </v>
   <v>       0.00000000       0.14285714       0.14285714 </v>
   <v>       0.14285714       0.14285714       0.14285714 </v>
   <v>       0.28571429       0.14285714       0.14285714 </v>
   <v>       0.42857143       0.14285714       0.14285714 </v>
   <v>      -0.42857143       0.14285714       0.14285714 </v>
   <v>      -0.28571429       0.14285714       0.14285714 </v>
   <v>      -0.14285714       0.14285714       0.14285714 </v>
   <v>       0.00000000       0.28571429       0.14285714 </v>
   <v>       0.14285714       0.28571429       0.14285714 </v>
   <v>       0.28571429       0.28571429       0.14285714 </v>
   <v>       0.42857143       0.28571429       0.14285714 </v>
   <v>      -0.42857143       0.28571429       0.14285714 </v>
   <v>      -0.28571429       0.28571429       0.14285714 </v>
   <v>      -0.14285714       0.28571429       0.14285714 </v>
   <v>       0.00000000       0.42857143       0.14285714 </v>
   <v>       0.14285714       0.42857143       0.14285714 </v>
   <v>       0.28571429       0.42857143       0.14285714 </v>
   <v>       0.42857143       0.42857143       0.14285714 </v>
   <v>      -0.42857143       0.42857143       0.14285714 </v>
   <v>      -0.28571429       0.42857143       0.14285714 </v>
   <v>      -0.14285714       0.42857143       0.14285714 </v>
   <v>       0.00000000      -0.42857143       0.14285714 </v>
   <v>       0.14285714      -0.42857143       0.14285714 </v>
   <v>       0.28571429      -0.42857143       0.14285714 </v>
   <v>       0.42857143      -0.42857143       0.14285714 </v>
   <v>      -0.42857143      -0.42857143       0.14285714 </v>
   <v>      -0.28571429      -0.42857143       0.14285714 </v>
   <v>      -0.14285714      -0.42857143       0.14285714 </v>
   <v>       0.00000000      -0.28571429       0.14285714 </v>
   <v>       0.14285714      -0.28571429       0.14285714 </v>
   <v>       0.28571429      -0.28571429       0.14285714 </v>
   <v>       0.42857143      -0.28571429       0.14285714 </v>
   <v>      -0.42857143      -0.28571429       0.14285714 </v>
   <v>      -0.28571429      -0.28571429       0.14285714 </v>
   <v>      -0.14285714      -0.28571429       0.14285714 </v>
   <v>       0.00000000      -0.14285714       0.14285714 </v>
   <v>       0.14285714      -0.14285714       0.14285714 </v>
   <v>       0.28571429      -0.14285714       0.14285714 </v>
   <v>       0.42857143      -0.14285714       0.14285714 </v>
   <v>      -0.42857143      -0.14285714       0.14285714 </v>
   <v>      -0.28571429      -0.14285714       0.14285714 </v>
   <v>      -0.14285714      -0.14285714       0.14285714 </v>
   <v>       0.00000000       0.00000000       0.28571429 </v>
   <v>       0.14285714      -0.00000000       0.28571429 </v>
   <v>       0.28571429      -0.00000000       0.28571429 </v>
   <v>       0.42857143       0.00000000       0.28571429 </v>
   <v>      -0.42857143       0.00000000       0.28571429 </v>
   <v>      -0.28571429       0.00000000       0.28571429 </v>
   <v>      -0.14285714      -0.00000000       0.28571429 </v>
   <v>       0.00000000       0.14285714       0.28571429 </v>
   <v>       0.14285714       0.14285714       0.28571429 </v>
   <v>       0.28571429       0.14285714       0.28571429 </v>
   <v>       0.42857143       0.14285714       0.28571429 </v>
   <v>      -0.42857143       0.14285714       0.28571429 </v>
   <v>      -0.28571429       0.14285714       0.28571429 </v>
   <v>      -0.14285714       0.14285714       0.28571429 </v>
   <v>       0.00000000       0.28571429       0.28571429 </v>
   <v>       0.14285714       0.28571429       0.28571429 </v>
   <v>       0.28571429       0.28571429       0.28571429 </v>
   <v>       0.42857143       0.28571429       0.28571429 </v>
   <v>      -0.42857143       0.28571429       0.28571429 </v>
   <v>      -0.28571429       0.28571429       0.28571429 </v>
   <v>      -0.14285714       0.28571429       0.28571429 </v>
   <v>       0.00000000       0.42857143       0.28571429 </v>
   <v>       0.14285714       0.42857143       0.28571429 </v>
   <v>       0.28571429       0.42857143       0.28571429 </v>
   <v>       0.42857143       0.42857143       0.28571429 </v>
   <v>      -0.42857143       0.42857143       0.28571429 </v>
   <v>      -0.28571429       0.42857143       0.28571429 </v>
   <v>      -0.14285714       0.42857143       0.28571429 </v>
   <v>       0.00000000      -0.42857143       0.28571429 </v>
   <v>       0.14285714      -0.42857143       0.28571429 </v>
   <v>       0.28571429      -0.42857143       0.28571429 </v>
   <v>       0.42857143      -0.42857143       0.28571429 </v>
   <v>      -0.42857143      -0.42857143       0.28571429 </v>
   <v>      -0.28571429      -0.42857143       0.28571429 </v>
   <v>      -0.14285714      -0.42857143       0.28571429 </v>
   <v>       0.00000000      -0.28571429       0.28571429 </v>
   <v>       0.14285714      -0.28571429       0.28571429 </v>
   <v>       0.28571429      -0.28571429       0.28571429 </v>
   <v>       0.42857143      -0.28571429       0.28571429 </v>
   <v>      -0.42857143      -0.28571429       0.28571429 </v>
   <v>      -0.28571429      -0.28571429       0.28571429 </v>
   <v>      -0.14285714      -0.28571429       0.28571429 </v>
   <v>       0.00000000      -0.14285714       0.28571429 </v>
   <v>       0.14285714      -0.14285714       0.28571429 </v>
   <v>       0.28571429      -0.14285714       0.28571429 </v>
   <v>       0.42857143      -0.14285714       0.28571429 </v>
   <v>      -0.42857143      -0.14285714       0.28571429 </v>
   <v>      -0.28571429      -0.14285714       0.28571429 </v>
   <v>      -0.14285714      -0.14285714       0.28571429 </v>
   <v>       0.00000000       0.00000000       0.42857143 </v>
   <v>       0.14285714      -0.00000000       0.42857143 </v>
   <v>       0.28571429      -0.00000000       0.42857143 </v>
   <v>       0.42857143       0.00000000       0.42857143 </v>
   <v>      -0.42857143       0.00000000       0.42857143 </v>
   <v>      -0.28571429       0.00000000       0.42857143 </v>
   <v>      -0.14285714      -0.00000000       0.42857143 </v>
   <v>       0.00000000       0.14285714       0.42857143 </v>
   <v>       0.14285714       0.14285714       0.42857143 </v>
   <v>       0.28571429       0.14285714       0.42857143 </v>
   <v>       0.42857143       0.14285714       0.42857143 </v>
   <v>      -0.42857143       0.14285714       0.42857143 </v>
   <v>      -0.28571429       0.14285714       0.42857143 </v>
   <v>      -0.14285714       0.14285714       0.42857143 </v>
   <v>       0.00000000       0.28571429       0.42857143 </v>
   <v>       0.14285714       0.28571429       0.42857143 </v>
   <v>       0.28571429       0.28571429       0.42857143 </v>
   <v>       0.42857143       0.28571429       0.42857143 </v>
   <v>      -0.42857143       0.28571429       0.42857143 </v>
   <v>      -0.28571429       0.28571429       0.42857143 </v>
   <v>      -0.14285714       0.28571429       0.42857143 </v>
   <v>       0.00000000       0.42857143       0.42857143 </v>
   <v>       0.14285714       0.42857143       0.42857143 </v>
   <v>       0.28571429       0.42857143       0.42857143 </v>
   <v>       0.42857143       0.42857143       0.42857143 </v>
   <v>      -0.42857143       0.42857143       0.42857143 </v>
   <v>      -0.28571429       0.42857143       0.42857143 </v>
   <v>      -0.14285714       0.42857143       0.42857143 </v>
   <v>       0.00000000      -0.42857143       0.42857143 </v>
   <v>       0.14285714      -0.42857143       0.42857143 </v>
   <v>       0.28571429      -0.42857143       0.42857143 </v>
   <v>       0.42857143      -0.42857143       0.42857143 </v>
   <v>      -0.42857143      -0.42857143       0.42857143 </v>
   <v>      -0.28571429      -0.42857143       0.42857143 </v>
   <v>      -0.14285714      -0.42857143       0.42857143 </v>
   <v>       0.00000000      -0.28571429       0.42857143 </v>
   <v>       0.14285714      -0.28571429       0.42857143 </v>
   <v>       0.28571429      -0.28571429       0.42857143 </v>
   <v>       0.42857143      -0.28571429       0.42857143 </v>
   <v>      -0.42857143      -0.28571429       0.42857143 </v>
   <v>      -0.28571429      -0.28571429       0.42857143 </v>
   <v>      -0.14285714      -0.28571429       0.42857143 </v>
   <v>       0.00000000      -0.14285714       0.42857143 </v>
   <v>       0.14285714      -0.14285714       0.42857143 </v>
   <v>       0.28571429      -0.14285714       0.42857143 </v>
   <v>       0.42857143      -0.14285714       0.42857143 </v>
   <v>      -0.42857143      -0.14285714       0.42857143 </v>
   <v>      -0.28571429      -0.14285714       0.42857143 </v>
   <v>      -0.14285714      -0.14285714       0.42857143 </v>
   <v>       0.00000000       0.00000000      -0.42857143 </v>
   <v>       0.14285714      -0.00000000      -0.42857143 </v>
   <v>       0.28571429      -0.00000000      -0.42857143 </v>
   <v>       0.42857143       0.00000000      -0.42857143 </v>
   <v>      -0.42857143       0.00000000      -0.42857143 </v>
   <v>      -0.28571429       0.00000000      -0.42857143 </v>
   <v>      -0.14285714      -0.00000000      -0.42857143 </v>
   <v>       0.00000000       0.14285714      -0.42857143 </v>
   <v>       0.14285714       0.14285714      -0.42857143 </v>
   <v>       0.28571429       0.14285714      -0.42857143 </v>
   <v>       0.42857143       0.14285714      -0.42857143 </v>
   <v>      -0.42857143       0.14285714      -0.42857143 </v>
   <v>      -0.28571429       0.14285714      -0.42857143 </v>
   <v>      -0.14285714       0.14285714      -0.42857143 </v>
   <v>       0.00000000       0.28571429      -0.42857143 </v>
   <v>       0.14285714       0.28571429      -0.42857143 </v>
   <v>       0.28571429       0.28571429      -0.42857143 </v>
   <v>       0.42857143       0.28571429      -0.42857143 </v>
   <v>      -0.42857143       0.28571429      -0.42857143 </v>
   <v>      -0.28571429       0.28571429      -0.42857143 </v>
   <v>      -0.14285714       0.28571429      -0.42857143 </v>
   <v>       0.00000000       0.42857143      -0.42857143 </v>
   <v>       0.14285714       0.42857143      -0.42857143 </v>
   <v>       0.28571429       0.42857143      -0.42857143 </v>
   <v>       0.42857143       0.42857143      -0.42857143 </v>
   <v>      -0.42857143       0.42857143      -0.42857143 </v>
   <v>      -0.28571429       0.42857143      -0.42857143 </v>
   <v>      -0.14285714       0.42857143      -0.42857143 </v>
   <v>       0.00000000      -0.42857143      -0.42857143 </v>
   <v>       0.14285714      -0.42857143      -0.42857143 </v>
   <v>       0.28571429      -0.42857143      -0.42857143 </v>
   <v>       0.42857143      -0.42857143      -0.42857143 </v>
   <v>      -0.42857143      -0.42857143      -0.42857143 </v>
   <v>      -0.28571429      -0.42857143      -0.42857143 </v>
   <v>      -0.14285714      -0.42857143      -0.42857143 </v>
   <v>       0.00000000      -0.28571429      -0.42857143 </v>
   <v>       0.14285714      -0.28571429      -0.42857143 </v>
   <v>       0.28571429      -0.28571429      -0.42857143 </v>
   <v>       0.42857143      -0.28571429      -0.42857143 </v>
   <v>      -0.42857143      -0.28571429      -0.42857143 </v>
   <v>      -0.28571429      -0.28571429      -0.42857143 </v>
   <v>      -0.14285714      -0.28571429      -0.42857143 </v>
   <v>       0.00000000      -0.14285714      -0.42857143 </v>
   <v>       0.14285714      -0.14285714      -0.42857143 </v>
   <v>       0.28571429      -0.14285714      -0.42857143 </v>
   <v>       0.42857143      -0.14285714      -0.42857143 </v>
   <v>      -0.42857143      -0.14285714      -0.42857143 </v>
   <v>      -0.28571429      -0.14285714      -0.42857143 </v>
   <v>      -0.14285714      -0.14285714      -0.42857143 </v>
   <v>       0.00000000       0.00000000      -0.28571429 </v>
   <v>       0.14285714      -0.00000000      -0.28571429 </v>
   <v>       0.28571429      -0.00000000      -0.28571429 </v>
   <v>       0.42857143       0.00000000      -0.28571429 </v>
   <v>      -0.42857143       0.00000000      -0.28571429 </v>
   <v>      -0.28571429       0.00000000      -0.28571429 </v>
   <v>      -0.14285714      -0.00000000      -0.28571429 </v>
   <v>       0.00000000       0.14285714      -0.28571429 </v>
   <v>       0.14285714       0.14285714      -0.28571429 </v>
   <v>       0.28571429       0.14285714      -0.28571429 </v>
   <v>       0.42857143       0.14285714      -0.28571429 </v>
   <v>      -0.42857143       0.14285714      -0.28571429 </v>
   <v>      -0.28571429       0.14285714      -0.28571429 </v>
   <v>      -0.14285714       0.14285714      -0.28571429 </v>
   <v>       0.00000000       0.28571429      -0.28571429 </v>
   <v>       0.14285714       0.28571429      -0.28571429 </v>
   <v>       0.28571429       0.28571429      -0.28571429 </v>
   <v>       0.42857143       0.28571429      -0.28571429 </v>
   <v>      -0.42857143       0.28571429      -0.28571429 </v>
   <v>      -0.28571429       0.28571429      -0.28571429 </v>
   <v>      -0.14285714       0.28571429      -0.28571429 </v>
   <v>       0.00000000       0.42857143      -0.28571429 </v>
   <v>       0.14285714       0.42857143      -0.28571429 </v>
   <v>       0.28571429       0.42857143      -0.28571429 </v>
   <v>       0.42857143       0.42857143      -0.28571429 </v>
   <v>      -0.42857143       0.42857143      -0.28571429 </v>
   <v>      -0.28571429       0.42857143      -0.28571429 </v>
   <v>      -0.14285714       0.42857143      -0.28571429 </v>
   <v>       0.00000000      -0.42857143      -0.28571429 </v>
   <v>       0.14285714      -0.42857143      -0.28571429 </v>
   <v>       0.28571429      -0.42857143      -0.28571429 </v>
   <v>       0.42857143      -0.42857143      -0.28571429 </v>
   <v>      -0.42857143      -0.42857143      -0.28571429 </v>
   <v>      -0.28571429      -0.42857143      -0.28571429 </v>
   <v>      -0.14285714      -0.42857143      -0.28571429 </v>
   <v>       0.00000000      -0.28571429      -0.28571429 </v>
   <v>       0.14285714      -0.28571429      -0.28571429 </v>
   <v>       0.28571429      -0.28571429      -0.28571429 </v>
   <v>       0.42857143      -0.28571429      -0.28571429 </v>
   <v>      -0.42857143      -0.28571429      -0.28571429 </v>
   <v>      -0.28571429      -0.28571429      -0.28571429 </v>
   <v>      -0.14285714      -0.28571429      -0.28571429 </v>
   <v>       0.00000000      -0.14285714      -0.28571429 </v>
   <v>       0.14285714      -0.14285714      -0.28571429 </v>
   <v>       0.28571429      -0.14285714      -0.28571429 </v>
   <v>       0.42857143      -0.14285714      -0.28571429 </v>
   <v>      -0.42857143      -0.14285714      -0.28571429 </v>
   <v>      -0.28571429      -0.14285714      -0.28571429 </v>
   <v>      -0.14285714      -0.14285714      -0.28571429 </v>
   <v>       0.00000000       0.00000000      -0.14285714 </v>
   <v>       0.14285714      -0.00000000      -0.14285714 </v>
   <v>       0.28571429      -0.00000000      -0.14285714 </v>
   <v>       0.42857143       0.00000000      -0.14285714 </v>
   <v>      -0.42857143       0.00000000      -0.14285714 </v>
   <v>      -0.28571429       0.00000000      -0.14285714 </v>
   <v>      -0.14285714      -0.00000000      -0.14285714 </v>
   <v>       0.00000000       0.14285714      -0.14285714 </v>
   <v>       0.14285714       0.14285714      -0.14285714 </v>
   <v>       0.28571429       0.14285714      -0.14285714 </v>
   <v>       0.42857143       0.14285714      -0.14285714 </v>
   <v>      -0.42857143       0.14285714      -0.14285714 </v>
   <v>      -0.28571429       0.14285714      -0.14285714 </v>
   <v>      -0.14285714       0.14285714      -0.14285714 </v>
   <v>       0.00000000       0.28571429      -0.14285714 </v>
   <v>       0.14285714       0.28571429      -0.14285714 </v>
   <v>       0.28571429       0.28571429      -0.14285714 </v>
   <v>       0.42857143       0.28571429      -0.14285714 </v>
   <v>      -0.42857143       0.28571429      -0.14285714 </v>
   <v>      -0.28571429       0.28571429      -0.14285714 </v>
   <v>      -0.14285714       0.28571429      -0.14285714 </v>
   <v>       0.00000000       0.42857143      -0.14285714 </v>
   <v>       0.14285714       0.42857143      -0.14285714 </v>
   <v>       0.28571429       0.42857143      -0.14285714 </v>
   <v>       0.42857143       0.42857143      -0.14285714 </v>
   <v>      -0.42857143       0.42857143      -0.14285714 </v>
   <v>      -0.28571429       0.42857143      -0.14285714 </v>
   <v>      -0.14285714       0.42857143      -0.14285714 </v>
   <v>       0.00000000      -0.42857143      -0.14285714 </v>
   <v>       0.14285714      -0.42857143      -0.14285714 </v>
   <v>       0.28571429      -0.42857143      -0.14285714 </v>
   <v>       0.42857143      -0.42857143      -0.14285714 </v>
   <v>      -0.42857143      -0.42857143      -0.14285714 </v>
   <v>      -0.28571429      -0.42857143      -0.14285714 </v>
   <v>      -0.14285714      -0.42857143      -0.14285714 </v>
   <v>       0.00000000      -0.28571429      -0.14285714 </v>
   <v>       0.14285714      -0.28571429      -0.14285714 </v>
   <v>       0.28571429      -0.28571429      -0.14285714 </v>
   <v>       0.42857143      -0.28571429      -0.14285714 </v>
   <v>      -0.42857143      -0.28571429      -0.14285714 </v>
   <v>      -0.28571429      -0.28571429      -0.14285714 </v>
   <v>      -0.14285714      -0.28571429      -0.14285714 </v>
   <v>       0.00000000      -0.14285714      -0.14285714 </v>
   <v>       0.14285714      -0.14285714      -0.14285714 </v>
   <v>       0.28571429      -0.14285714      -0.14285714 </v>
   <v>       0.42857143      -0.14285714      -0.14285714 </v>
   <v>      -0.42857143      -0.14285714      -0.14285714 </v>
   <v>      -0.28571429      -0.14285714      -0.14285714 </v>
   <v>      -0.14285714      -0.14285714      -0.14285714 </v>
  </varray>
  <varray name="weights" >
   <v>       0.00291545 </v>
   <v>       0.00291545 </v>
   <v>       0.00291545 </v>
   <v>       0.00291545 </v>
   <v>       0.00291545 </v>
   <v>       0.00291545 </v>
   <v>       0.00291545 </v>
   <v>       0.00291545 </v>
   <v>       0.00291545 </v>
   <v>       0.00291545 </v>
   <v>       0.00291545 </v>
   <v>       0.00291545 </v>
   <v>       0.00291545 </v>
   <v>       0.00291545 </v>
   <v>       0.00291545 </v>
   <v>       0.00291545 </v>
   <v>       0.00291545 </v>
   <v>       0.00291545 </v>
   <v>       0.00291545 </v>
   <v>       0.00291545 </v>
   <v>       0.00291545 </v>
   <v>       0.00291545 </v>
   <v>       0.00291545 </v>
   <v>       0.00291545 </v>
   <v>       0.00291545 </v>
   <v>       0.00291545 </v>
   <v>       0.00291545 </v>
   <v>       0.00291545 </v>
   <v>       0.00291545 </v>
   <v>       0.00291545 </v>
   <v>       0.00291545 </v>
   <v>       0.00291545 </v>
   <v>       0.00291545 </v>
   <v>       0.00291545 </v>
   <v>       0.00291545 </v>
   <v>       0.00291545 </v>
   <v>       0.00291545 </v>
   <v>       0.00291545 </v>
   <v>       0.00291545 </v>
   <v>       0.00291545 </v>
   <v>       0.00291545 </v>
   <v>       0.00291545 </v>
   <v>       0.00291545 </v>
   <v>       0.00291545 </v>
   <v>       0.00291545 </v>
   <v>       0.00291545 </v>
   <v>       0.00291545 </v>
   <v>       0.00291545 </v>
   <v>       0.00291545 </v>
   <v>       0.00291545 </v>
   <v>       0.00291545 </v>
   <v>       0.00291545 </v>
   <v>       0.00291545 </v>
   <v>       0.00291545 </v>
   <v>       0.00291545 </v>
   <v>       0.00291545 </v>
   <v>       0.00291545 </v>
   <v>       0.00291545 </v>
   <v>       0.00291545 </v>
   <v>       0.00291545 </v>
   <v>       0.00291545 </v>
   <v>       0.00291545 </v>
   <v>       0.00291545 </v>
   <v>       0.00291545 </v>
   <v>       0.00291545 </v>
   <v>       0.00291545 </v>
   <v>       0.00291545 </v>
   <v>       0.00291545 </v>
   <v>       0.00291545 </v>
   <v>       0.00291545 </v>
   <v>       0.00291545 </v>
   <v>       0.00291545 </v>
   <v>       0.00291545 </v>
   <v>       0.00291545 </v>
   <v>       0.00291545 </v>
   <v>       0.00291545 </v>
   <v>       0.00291545 </v>
   <v>       0.00291545 </v>
   <v>       0.00291545 </v>
   <v>       0.00291545 </v>
   <v>       0.00291545 </v>
   <v>       0.00291545 </v>
   <v>       0.00291545 </v>
   <v>       0.00291545 </v>
   <v>       0.00291545 </v>
   <v>       0.00291545 </v>
   <v>       0.00291545 </v>
   <v>       0.00291545 </v>
   <v>       0.00291545 </v>
   <v>       0.00291545 </v>
   <v>       0.00291545 </v>
   <v>       0.00291545 </v>
   <v>       0.00291545 </v>
   <v>       0.00291545 </v>
   <v>       0.00291545 </v>
   <v>       0.00291545 </v>
   <v>       0.00291545 </v>
   <v>       0.00291545 </v>
   <v>       0.00291545 </v>
   <v>       0.00291545 </v>
   <v>       0.00291545 </v>
   <v>       0.00291545 </v>
   <v>       0.00291545 </v>
   <v>       0.00291545 </v>
   <v>       0.00291545 </v>
   <v>       0.00291545 </v>
   <v>       0.00291545 </v>
   <v>       0.00291545 </v>
   <v>       0.00291545 </v>
   <v>       0.00291545 </v>
   <v>       0.00291545 </v>
   <v>       0.00291545 </v>
   <v>       0.00291545 </v>
   <v>       0.00291545 </v>
   <v>       0.00291545 </v>
   <v>       0.00291545 </v>
   <v>       0.00291545 </v>
   <v>       0.00291545 </v>
   <v>       0.00291545 </v>
   <v>       0.00291545 </v>
   <v>       0.00291545 </v>
   <v>       0.00291545 </v>
   <v>       0.00291545 </v>
   <v>       0.00291545 </v>
   <v>       0.00291545 </v>
   <v>       0.00291545 </v>
   <v>       0.00291545 </v>
   <v>       0.00291545 </v>
   <v>       0.00291545 </v>
   <v>       0.00291545 </v>
   <v>       0.00291545 </v>
   <v>       0.00291545 </v>
   <v>       0.00291545 </v>
   <v>       0.00291545 </v>
   <v>       0.00291545 </v>
   <v>       0.00291545 </v>
   <v>       0.00291545 </v>
   <v>       0.00291545 </v>
   <v>       0.00291545 </v>
   <v>       0.00291545 </v>
   <v>       0.00291545 </v>
   <v>       0.00291545 </v>
   <v>       0.00291545 </v>
   <v>       0.00291545 </v>
   <v>       0.00291545 </v>
   <v>       0.00291545 </v>
   <v>       0.00291545 </v>
   <v>       0.00291545 </v>
   <v>       0.00291545 </v>
   <v>       0.00291545 </v>
   <v>       0.00291545 </v>
   <v>       0.00291545 </v>
   <v>       0.00291545 </v>
   <v>       0.00291545 </v>
   <v>       0.00291545 </v>
   <v>       0.00291545 </v>
   <v>       0.00291545 </v>
   <v>       0.00291545 </v>
   <v>       0.00291545 </v>
   <v>       0.00291545 </v>
   <v>       0.00291545 </v>
   <v>       0.00291545 </v>
   <v>       0.00291545 </v>
   <v>       0.00291545 </v>
   <v>       0.00291545 </v>
   <v>       0.00291545 </v>
   <v>       0.00291545 </v>
   <v>       0.00291545 </v>
   <v>       0.00291545 </v>
   <v>       0.00291545 </v>
   <v>       0.00291545 </v>
   <v>       0.00291545 </v>
   <v>       0.00291545 </v>
   <v>       0.00291545 </v>
   <v>       0.00291545 </v>
   <v>       0.00291545 </v>
   <v>       0.00291545 </v>
   <v>       0.00291545 </v>
   <v>       0.00291545 </v>
   <v>       0.00291545 </v>
   <v>       0.00291545 </v>
   <v>       0.00291545 </v>
   <v>       0.00291545 </v>
   <v>       0.00291545 </v>
   <v>       0.00291545 </v>
   <v>       0.00291545 </v>
   <v>       0.00291545 </v>
   <v>       0.00291545 </v>
   <v>       0.00291545 </v>
   <v>       0.00291545 </v>
   <v>       0.00291545 </v>
   <v>       0.00291545 </v>
   <v>       0.00291545 </v>
   <v>       0.00291545 </v>
   <v>       0.00291545 </v>
   <v>       0.00291545 </v>
   <v>       0.00291545 </v>
   <v>       0.00291545 </v>
   <v>       0.00291545 </v>
   <v>       0.00291545 </v>
   <v>       0.00291545 </v>
   <v>       0.00291545 </v>
   <v>       0.00291545 </v>
   <v>       0.00291545 </v>
   <v>       0.00291545 </v>
   <v>       0.00291545 </v>
   <v>       0.00291545 </v>
   <v>       0.00291545 </v>
   <v>       0.00291545 </v>
   <v>       0.00291545 </v>
   <v>       0.00291545 </v>
   <v>       0.00291545 </v>
   <v>       0.00291545 </v>
   <v>       0.00291545 </v>
   <v>       0.00291545 </v>
   <v>       0.00291545 </v>
   <v>       0.00291545 </v>
   <v>       0.00291545 </v>
   <v>       0.00291545 </v>
   <v>       0.00291545 </v>
   <v>       0.00291545 </v>
   <v>       0.00291545 </v>
   <v>       0.00291545 </v>
   <v>       0.00291545 </v>
   <v>       0.00291545 </v>
   <v>       0.00291545 </v>
   <v>       0.00291545 </v>
   <v>       0.00291545 </v>
   <v>       0.00291545 </v>
   <v>       0.00291545 </v>
   <v>       0.00291545 </v>
   <v>       0.00291545 </v>
   <v>       0.00291545 </v>
   <v>       0.00291545 </v>
   <v>       0.00291545 </v>
   <v>       0.00291545 </v>
   <v>       0.00291545 </v>
   <v>       0.00291545 </v>
   <v>       0.00291545 </v>
   <v>       0.00291545 </v>
   <v>       0.00291545 </v>
   <v>       0.00291545 </v>
   <v>       0.00291545 </v>
   <v>       0.00291545 </v>
   <v>       0.00291545 </v>
   <v>       0.00291545 </v>
   <v>       0.00291545 </v>
   <v>       0.00291545 </v>
   <v>       0.00291545 </v>
   <v>       0.00291545 </v>
   <v>       0.00291545 </v>
   <v>       0.00291545 </v>
   <v>       0.00291545 </v>
   <v>       0.00291545 </v>
   <v>       0.00291545 </v>
   <v>       0.00291545 </v>
   <v>       0.00291545 </v>
   <v>       0.00291545 </v>
   <v>       0.00291545 </v>
   <v>       0.00291545 </v>
   <v>       0.00291545 </v>
   <v>       0.00291545 </v>
   <v>       0.00291545 </v>
   <v>       0.00291545 </v>
   <v>       0.00291545 </v>
   <v>       0.00291545 </v>
   <v>       0.00291545 </v>
   <v>       0.00291545 </v>
   <v>       0.00291545 </v>
   <v>       0.00291545 </v>
   <v>       0.00291545 </v>
   <v>       0.00291545 </v>
   <v>       0.00291545 </v>
   <v>       0.00291545 </v>
   <v>       0.00291545 </v>
   <v>       0.00291545 </v>
   <v>       0.00291545 </v>
   <v>       0.00291545 </v>
   <v>       0.00291545 </v>
   <v>       0.00291545 </v>
   <v>       0.00291545 </v>
   <v>       0.00291545 </v>
   <v>       0.00291545 </v>
   <v>       0.00291545 </v>
   <v>       0.00291545 </v>
   <v>       0.00291545 </v>
   <v>       0.00291545 </v>
   <v>       0.00291545 </v>
   <v>       0.00291545 </v>
   <v>       0.00291545 </v>
   <v>       0.00291545 </v>
   <v>       0.00291545 </v>
   <v>       0.00291545 </v>
   <v>       0.00291545 </v>
   <v>       0.00291545 </v>
   <v>       0.00291545 </v>
   <v>       0.00291545 </v>
   <v>       0.00291545 </v>
   <v>       0.00291545 </v>
   <v>       0.00291545 </v>
   <v>       0.00291545 </v>
   <v>       0.00291545 </v>
   <v>       0.00291545 </v>
   <v>       0.00291545 </v>
   <v>       0.00291545 </v>
   <v>       0.00291545 </v>
   <v>       0.00291545 </v>
   <v>       0.00291545 </v>
   <v>       0.00291545 </v>
   <v>       0.00291545 </v>
   <v>       0.00291545 </v>
   <v>       0.00291545 </v>
   <v>       0.00291545 </v>
   <v>       0.00291545 </v>
   <v>       0.00291545 </v>
   <v>       0.00291545 </v>
   <v>       0.00291545 </v>
   <v>       0.00291545 </v>
   <v>       0.00291545 </v>
   <v>       0.00291545 </v>
   <v>       0.00291545 </v>
   <v>       0.00291545 </v>
   <v>       0.00291545 </v>
   <v>       0.00291545 </v>
   <v>       0.00291545 </v>
   <v>       0.00291545 </v>
   <v>       0.00291545 </v>
   <v>       0.00291545 </v>
   <v>       0.00291545 </v>
   <v>       0.00291545 </v>
   <v>       0.00291545 </v>
   <v>       0.00291545 </v>
   <v>       0.00291545 </v>
   <v>       0.00291545 </v>
   <v>       0.00291545 </v>
   <v>       0.00291545 </v>
   <v>       0.00291545 </v>
   <v>       0.00291545 </v>
   <v>       0.00291545 </v>
   <v>       0.00291545 </v>
   <v>       0.00291545 </v>
   <v>       0.00291545 </v>
   <v>       0.00291545 </v>
  </varray>
 </kpoints>
 <dielectricfunction comment="HEAD OF MICROSCOPIC DIELECTRIC TENSOR (INDEPENDENT PARTICLE)">
  <imag>
   <array>
    <dimension dim="1">gridpoints</dimension>
    <field>energy</field>
    <field>xx</field>
    <field>yy</field>
    <field>zz</field>
    <field>xy</field>
    <field>yz</field>
    <field>zx</field>
    <set>
     <r>     0.0000    -0.0000     0.0000    -0.0000     0.0000    -0.0000     0.0000 </r>
     <r>     1.2857     0.0003     0.0003     0.0003     0.0000     0.0000     0.0000 </r>
     <r>     2.5667     0.0007     0.0007     0.0007     0.0000     0.0000     0.0000 </r>
     <r>     3.8387     0.0011     0.0011     0.0011     0.0000     0.0000     0.0000 </r>
     <r>     5.0978     0.0014     0.0014     0.0014     0.0000     0.0000     0.0000 </r>
     <r>     6.3407     0.0018     0.0018     0.0018     0.0000     0.0000     0.0000 </r>
     <r>     7.5650     0.0023     0.0023     0.0023     0.0000     0.0000     0.0000 </r>
     <r>     8.7693     0.0028     0.0028     0.0028     0.0000     0.0000     0.0000 </r>
     <r>     9.9527     0.0034     0.0034     0.0034     0.0000     0.0000     0.0000 </r>
     <r>    11.1154     0.0040     0.0040     0.0040     0.0000     0.0000     0.0000 </r>
     <r>    12.2581     0.0048     0.0048     0.0048     0.0000     0.0000     0.0000 </r>
     <r>    13.3823     0.0058     0.0058     0.0058     0.0000     0.0000     0.0000 </r>
     <r>    14.4898     0.0070     0.0070     0.0070     0.0000     0.0000     0.0000 </r>
     <r>    15.5831     0.0086     0.0086     0.0086     0.0000    -0.0000     0.0000 </r>
     <r>    16.6647     0.0108     0.0108     0.0108     0.0000    -0.0000     0.0000 </r>
     <r>    17.7377     0.0141     0.0141     0.0141     0.0000    -0.0000     0.0000 </r>
     <r>    18.8054     0.0198     0.0198     0.0198     0.0000    -0.0000     0.0000 </r>
     <r>    19.8714     0.0318     0.0318     0.0318     0.0000    -0.0000     0.0000 </r>
     <r>    20.9395     0.0642     0.0641     0.0642     0.0000    -0.0000     0.0000 </r>
     <r>    22.0137     0.1291     0.1290     0.1290     0.0001     0.0000     0.0001 </r>
     <r>    23.0984     0.1866     0.1865     0.1864     0.0001     0.0000     0.0000 </r>
     <r>    24.1986     0.2196     0.2196     0.2196    -0.0000    -0.0000    -0.0000 </r>
     <r>    25.3190     0.2446     0.2446     0.2445     0.0000     0.0000     0.0000 </r>
     <r>    26.4657     0.2496     0.2497     0.2496    -0.0000    -0.0000    -0.0000 </r>
     <r>    27.6445     0.2766     0.2766     0.2766    -0.0000     0.0000    -0.0000 </r>
     <r>    28.8629     0.2934     0.2934     0.2934     0.0000     0.0000     0.0000 </r>
     <r>    30.1284     0.3148     0.3148     0.3147     0.0001     0.0000     0.0000 </r>
     <r>    31.4503     0.3588     0.3590     0.3589     0.0000    -0.0000    -0.0001 </r>
     <r>    32.8387     0.3705     0.3711     0.3708     0.0002    -0.0000    -0.0001 </r>
     <r>    34.3058     0.3391     0.3404     0.3396     0.0006    -0.0000    -0.0003 </r>
     <r>    35.8654     0.3487     0.3494     0.3490     0.0003    -0.0000    -0.0001 </r>
     <r>    37.5347     0.3728     0.3719     0.3725    -0.0005    -0.0000     0.0001 </r>
     <r>    39.3335     0.3612     0.3603     0.3609    -0.0004     0.0000     0.0002 </r>
     <r>    41.2863     0.2741     0.2738     0.2740    -0.0001     0.0000     0.0001 </r>
     <r>    43.4226     0.2327     0.2326     0.2326    -0.0000    -0.0000     0.0000 </r>
     <r>    45.7801     0.2698     0.2698     0.2698     0.0000     0.0000     0.0000 </r>
     <r>    48.4048     0.3014     0.3014     0.3014     0.0000     0.0000     0.0000 </r>
     <r>    51.3559     0.1887     0.1887     0.1887    -0.0000    -0.0000    -0.0000 </r>
     <r>    54.7100     0.1271     0.1271     0.1271     0.0000    -0.0000    -0.0000 </r>
     <r>    58.5681     0.1218     0.1218     0.1218     0.0000    -0.0000    -0.0000 </r>
     <r>    63.0653     0.1130     0.1130     0.1130     0.0000     0.0000    -0.0000 </r>
     <r>    68.3877     0.1022     0.1021     0.1021    -0.0000     0.0000     0.0000 </r>
     <r>    74.7972     0.0952     0.0953     0.0953     0.0000     0.0000    -0.0000 </r>
     <r>    82.6755     0.0581     0.0581     0.0581     0.0000     0.0000    -0.0000 </r>
     <r>    92.6007     0.0431     0.0431     0.0431     0.0000     0.0000     0.0000 </r>
     <r>   105.4905     0.0330     0.0330     0.0330    -0.0000    -0.0000    -0.0000 </r>
     <r>   122.8965     0.0184     0.0184     0.0184     0.0000     0.0000     0.0000 </r>
     <r>   147.6609     0.0111     0.0111     0.0111    -0.0000    -0.0000    -0.0000 </r>
     <r>   185.6164     0.0041     0.0041     0.0041    -0.0000     0.0000    -0.0000 </r>
     <r>   250.9206     0.0003     0.0003     0.0003    -0.0000     0.0000    -0.0000 </r>
    </set>
   </array>
  </imag>
  <real>
   <array>
    <dimension dim="1">gridpoints</dimension>
    <field>energy</field>
    <field>xx</field>
    <field>yy</field>
    <field>zz</field>
    <field>xy</field>
    <field>yz</field>
    <field>zx</field>
    <set>
     <r>     0.0000     1.2102     1.2103     1.2103     0.0000     0.0000    -0.0000 </r>
     <r>     1.2857     1.2105     1.2106     1.2105     0.0000     0.0000    -0.0000 </r>
     <r>     2.5667     1.2114     1.2114     1.2114     0.0000     0.0000    -0.0000 </r>
     <r>     3.8387     1.2128     1.2128     1.2128     0.0000     0.0000    -0.0000 </r>
     <r>     5.0978     1.2148     1.2148     1.2148     0.0000     0.0000    -0.0000 </r>
     <r>     6.3407     1.2174     1.2174     1.2174     0.0000     0.0000    -0.0000 </r>
     <r>     7.5650     1.2206     1.2206     1.2206     0.0000     0.0000    -0.0000 </r>
     <r>     8.7693     1.2245     1.2246     1.2245     0.0000     0.0000    -0.0000 </r>
     <r>     9.9527     1.2292     1.2292     1.2292     0.0000     0.0000    -0.0000 </r>
     <r>    11.1154     1.2347     1.2347     1.2347     0.0000     0.0000    -0.0000 </r>
     <r>    12.2581     1.2411     1.2411     1.2411     0.0000     0.0000    -0.0000 </r>
     <r>    13.3823     1.2487     1.2487     1.2487     0.0000     0.0000    -0.0000 </r>
     <r>    14.4898     1.2577     1.2577     1.2577     0.0000     0.0000    -0.0000 </r>
     <r>    15.5831     1.2685     1.2685     1.2685     0.0000     0.0000     0.0000 </r>
     <r>    16.6647     1.2817     1.2817     1.2817     0.0000     0.0000     0.0000 </r>
     <r>    17.7377     1.2983     1.2983     1.2983     0.0000     0.0000     0.0000 </r>
     <r>    18.8054     1.3202     1.3202     1.3202     0.0000     0.0000     0.0000 </r>
     <r>    19.8714     1.3508     1.3508     1.3508     0.0000     0.0000     0.0000 </r>
     <r>    20.9395     1.3903     1.3903     1.3903     0.0001     0.0000     0.0000 </r>
     <r>    22.0137     1.4084     1.4084     1.4083     0.0000     0.0000    -0.0000 </r>
     <r>    23.0984     1.3876     1.3877     1.3876    -0.0000    -0.0000    -0.0001 </r>
     <r>    24.1986     1.3595     1.3596     1.3596    -0.0000    -0.0000    -0.0001 </r>
     <r>    25.3190     1.3283     1.3284     1.3284    -0.0000    -0.0000    -0.0000 </r>
     <r>    26.4657     1.3107     1.3109     1.3108     0.0000    -0.0000    -0.0000 </r>
     <r>    27.6445     1.2991     1.2992     1.2992     0.0000     0.0000    -0.0000 </r>
     <r>    28.8629     1.2755     1.2757     1.2756     0.0001    -0.0000    -0.0000 </r>
     <r>    30.1284     1.2645     1.2647     1.2646     0.0000    -0.0000    -0.0001 </r>
     <r>    31.4503     1.2310     1.2314     1.2313     0.0001    -0.0000    -0.0001 </r>
     <r>    32.8387     1.1630     1.1635     1.1632     0.0002    -0.0000    -0.0001 </r>
     <r>    34.3058     1.1288     1.1286     1.1287    -0.0001    -0.0000     0.0000 </r>
     <r>    35.8654     1.1211     1.1196     1.1206    -0.0007    -0.0000     0.0003 </r>
     <r>    37.5347     1.0758     1.0747     1.0754    -0.0005     0.0000     0.0002 </r>
     <r>    39.3335     0.9933     0.9934     0.9933     0.0001     0.0000     0.0000 </r>
     <r>    41.2863     0.9545     0.9549     0.9546     0.0002     0.0000    -0.0001 </r>
     <r>    43.4226     0.9934     0.9936     0.9935     0.0001     0.0000    -0.0000 </r>
     <r>    45.7801     1.0079     1.0080     1.0079     0.0001     0.0000    -0.0000 </r>
     <r>    48.4048     0.9232     0.9233     0.9232     0.0000     0.0000    -0.0000 </r>
     <r>    51.3559     0.8632     0.8633     0.8633     0.0000     0.0000    -0.0000 </r>
     <r>    54.7100     0.9056     0.9057     0.9057     0.0000     0.0000    -0.0000 </r>
     <r>    58.5681     0.9340     0.9340     0.9340     0.0000     0.0000    -0.0000 </r>
     <r>    63.0653     0.9377     0.9377     0.9377    -0.0000     0.0000     0.0000 </r>
     <r>    68.3877     0.9399     0.9399     0.9399     0.0000     0.0000     0.0000 </r>
     <r>    74.7972     0.9310     0.9310     0.9310     0.0000     0.0000    -0.0000 </r>
     <r>    82.6755     0.9292     0.9291     0.9291    -0.0000    -0.0000     0.0000 </r>
     <r>    92.6007     0.9452     0.9452     0.9452    -0.0000    -0.0000     0.0000 </r>
     <r>   105.4905     0.9533     0.9533     0.9533    -0.0000    -0.0000     0.0000 </r>
     <r>   122.8965     0.9618     0.9618     0.9618    -0.0000    -0.0000     0.0000 </r>
     <r>   147.6609     0.9725     0.9725     0.9725    -0.0000    -0.0000     0.0000 </r>
     <r>   185.6164     0.9813     0.9813     0.9813    -0.0000    -0.0000     0.0000 </r>
     <r>   250.9206     0.9895     0.9895     0.9895    -0.0000    -0.0000     0.0000 </r>
    </set>
   </array>
  </real>
 </dielectricfunction>
 <varray name="epsilon_diag_mic" >
  <v>       0.00000000       1.21025996 </v>
  <v>       2.43781762       1.10897519 </v>
  <v>       4.87563523       1.03218598 </v>
  <v>       4.87563523       1.03218602 </v>
  <v>       2.43781762       1.10897530 </v>
  <v>       2.43781762       1.10898930 </v>
  <v>       2.81494931       1.09117353 </v>
  <v>       4.66806534       1.03590837 </v>
  <v>       6.89518947       1.00971833 </v>
  <v>       6.13503979       1.01575096 </v>
  <v>       3.98093950       1.05114953 </v>
  <v>       4.87563523       1.03218456 </v>
  <v>       4.66806534       1.03590668 </v>
  <v>       5.62989863       1.02123243 </v>
  <v>       6.13503979       1.01575045 </v>
  <v>       6.89518947       1.00971779 </v>
  <v>       6.89518947       1.00971784 </v>
  <v>       4.87563523       1.03218464 </v>
  <v>       6.13503979       1.01575048 </v>
  <v>       5.62989863       1.02123252 </v>
  <v>       4.66806534       1.03590679 </v>
  <v>       2.43781762       1.10898956 </v>
  <v>       3.98093950       1.05114956 </v>
  <v>       6.13503979       1.01575096 </v>
  <v>       6.89518947       1.00971837 </v>
  <v>       4.66806534       1.03590845 </v>
  <v>       2.81494931       1.09117380 </v>
  <v>       2.43781762       1.10898113 </v>
  <v>       2.81494931       1.09116911 </v>
  <v>       4.66806534       1.03590994 </v>
  <v>       6.89518947       1.00971826 </v>
  <v>       6.13503979       1.01575058 </v>
  <v>       3.98093950       1.05114699 </v>
  <v>       2.81494931       1.09117586 </v>
  <v>       2.43781762       1.10898880 </v>
  <v>       3.98093950       1.05114807 </v>
  <v>       6.13503979       1.01575107 </v>
  <v>       6.89518947       1.00971831 </v>
  <v>       4.66806534       1.03590866 </v>
  <v>       4.66806534       1.03590698 </v>
  <v>       3.98093950       1.05114903 </v>
  <v>       4.66806534       1.03590747 </v>
  <v>       6.29441802       1.01427415 </v>
  <v>       6.29441802       1.01427385 </v>
  <v>       6.89518947       1.00971772 </v>
  <v>       6.13503979       1.01575009 </v>
  <v>       6.29441802       1.01427314 </v>
  <v>       6.13503979       1.01575056 </v>
  <v>       6.89518947       1.00971784 </v>
  <v>       6.29441802       1.01427372 </v>
  <v>       3.98093950       1.05115005 </v>
  <v>       4.66806534       1.03590928 </v>
  <v>       6.29441802       1.01427399 </v>
  <v>       6.29441802       1.01427375 </v>
  <v>       4.66806534       1.03590804 </v>
  <v>       4.87563523       1.03218539 </v>
  <v>       4.66806534       1.03590914 </v>
  <v>       5.62989863       1.02123430 </v>
  <v>       6.13503979       1.01575026 </v>
  <v>       4.66806534       1.03590786 </v>
  <v>       3.98093950       1.05114898 </v>
  <v>       4.66806534       1.03590960 </v>
  <v>       6.29441802       1.01427420 </v>
  <v>       6.29441802       1.01427368 </v>
  <v>       5.62989863       1.02123242 </v>
  <v>       4.66806534       1.03590733 </v>
  <v>       4.87563523       1.03218569 </v>
  <v>       6.13503979       1.01575086 </v>
  <v>       6.29441802       1.01427311 </v>
  <v>       6.13503979       1.01575038 </v>
  <v>       6.89518947       1.00971805 </v>
  <v>       6.13503979       1.01575073 </v>
  <v>       6.29441802       1.01427374 </v>
  <v>       6.89518947       1.00971807 </v>
  <v>       6.89518947       1.00971800 </v>
  <v>       6.89518947       1.00971800 </v>
  <v>       6.13503979       1.01575081 </v>
  <v>       6.29441802       1.01427397 </v>
  <v>       6.29441802       1.01427384 </v>
  <v>       6.13503979       1.01575092 </v>
  <v>       6.89518947       1.00971809 </v>
  <v>       6.89518947       1.00971804 </v>
  <v>       6.89518947       1.00971811 </v>
  <v>       6.89518947       1.00971820 </v>
  <v>       6.89518947       1.00971824 </v>
  <v>       6.13503979       1.01575114 </v>
  <v>       6.29441802       1.01427404 </v>
  <v>       6.89518947       1.00971812 </v>
  <v>       6.29441802       1.01427415 </v>
  <v>       6.13503979       1.01575101 </v>
  <v>       4.87563523       1.03218559 </v>
  <v>       6.13503979       1.01575036 </v>
  <v>       5.62989863       1.02123448 </v>
  <v>       4.66806534       1.03590938 </v>
  <v>       6.13503979       1.01575082 </v>
  <v>       6.89518947       1.00971811 </v>
  <v>       6.29441802       1.01427384 </v>
  <v>       6.89518947       1.00971818 </v>
  <v>       6.13503979       1.01575058 </v>
  <v>       6.29441802       1.01427329 </v>
  <v>       5.62989863       1.02123263 </v>
  <v>       6.13503979       1.01575105 </v>
  <v>       4.87563523       1.03218600 </v>
  <v>       4.66806534       1.03590766 </v>
  <v>       4.66806534       1.03590812 </v>
  <v>       6.29441802       1.01427380 </v>
  <v>       6.29441802       1.01427435 </v>
  <v>       4.66806534       1.03590989 </v>
  <v>       3.98093950       1.05114939 </v>
  <v>       2.43781762       1.10898178 </v>
  <v>       3.98093950       1.05114712 </v>
  <v>       6.13503979       1.01575061 </v>
[...]
       <r>   47.2350    0.0000 </r>
       <r>   47.9833    0.0000 </r>
       <r>   48.1525    0.0000 </r>
       <r>   50.3691    0.0000 </r>
       <r>   52.0711    0.0000 </r>
       <r>   52.5667    0.0000 </r>
       <r>   54.5448    0.0000 </r>
       <r>   54.5919    0.0000 </r>
       <r>   57.1201    0.0000 </r>
       <r>   58.5860    0.0000 </r>
       <r>   62.3958    0.0000 </r>
       <r>   63.8788    0.0000 </r>
       <r>   64.2179    0.0000 </r>
       <r>   64.9333    0.0000 </r>
       <r>   67.8323    0.0000 </r>
       <r>   69.3760    0.0000 </r>
       <r>   71.1900    0.0000 </r>
       <r>   71.6016    0.0000 </r>
       <r>   74.2488    0.0000 </r>
       <r>   75.3045    0.0000 </r>
       <r>   80.0611    0.0000 </r>
       <r>   80.7661    0.0000 </r>
       <r>   82.3744    0.0000 </r>
       <r>   83.3038    0.0000 </r>
       <r>   83.5289    0.0000 </r>
       <r>   86.2363    0.0000 </r>
       <r>   86.9394    0.0000 </r>
       <r>   88.7580    0.0000 </r>
       <r>   89.9792    0.0000 </r>
       <r>   92.8501    0.0000 </r>
       <r>   93.1344    0.0000 </r>
       <r>   93.2818    0.0000 </r>
       <r>   94.9111    0.0000 </r>
       <r>   95.1571    0.0000 </r>
       <r>   98.3502    0.0000 </r>
       <r>   98.7414    0.0000 </r>
       <r>   99.2653    0.0000 </r>
       <r>   99.7083    0.0000 </r>
       <r>  100.5161    0.0000 </r>
       <r>  102.5036    0.0000 </r>
       <r>  102.9560    0.0000 </r>
       <r>  104.8009    0.0000 </r>
       <r>  104.8249    0.0000 </r>
       <r>  105.8629    0.0000 </r>
       <r>  109.0944    0.0000 </r>
       <r>  110.4733    0.0000 </r>
       <r>  111.2359    0.0000 </r>
       <r>  112.5735    0.0000 </r>
       <r>  112.6896    0.0000 </r>
       <r>  113.1160    0.0000 </r>
       <r>  114.8676    0.0000 </r>
       <r>  116.9802    0.0000 </r>
       <r>  117.5401    0.0000 </r>
       <r>  117.7560    0.0000 </r>
       <r>  119.5182    0.0000 </r>
       <r>  120.6569    0.0000 </r>
       <r>  121.1793    0.0000 </r>
       <r>  122.6897    0.0000 </r>
       <r>  124.2623    0.0000 </r>
       <r>  126.0660    0.0000 </r>
       <r>  126.9406    0.0000 </r>
       <r>  127.3978    0.0000 </r>
       <r>  129.3726    0.0000 </r>
       <r>  130.5017    0.0000 </r>
       <r>  134.1773    0.0000 </r>
       <r>  135.9188    0.0000 </r>
       <r>  136.9158    0.0000 </r>
       <r>  136.9436    0.0000 </r>
       <r>  137.9475    0.0000 </r>
       <r>  138.3632    0.0000 </r>
       <r>  138.8900    0.0000 </r>
       <r>  139.3430    0.0000 </r>
       <r>  141.7356    0.0000 </r>
       <r>  142.3791    0.0000 </r>
       <r>  143.8513    0.0000 </r>
       <r>  145.6571    0.0000 </r>
       <r>  146.6216    0.0000 </r>
       <r>  148.2281    0.0000 </r>
       <r>  149.3258    0.0000 </r>
       <r>  150.3474    0.0000 </r>
       <r>  151.1739    0.0000 </r>
       <r>  151.8054    0.0000 </r>
       <r>  152.0577    0.0000 </r>
       <r>  152.9142    0.0000 </r>
       <r>  153.3326    0.0000 </r>
       <r>  154.8526    0.0000 </r>
       <r>  155.4432    0.0000 </r>
       <r>  157.0453    0.0000 </r>
       <r>  159.3374    0.0000 </r>
       <r>  160.8090    0.0000 </r>
       <r>  161.1310    0.0000 </r>
       <r>  162.4855    0.0000 </r>
       <r>  162.8828    0.0000 </r>
       <r>  164.1519    0.0000 </r>
       <r>  164.4606    0.0000 </r>
       <r>  164.7536    0.0000 </r>
       <r>  165.4766    0.0000 </r>
       <r>  166.5883    0.0000 </r>
       <r>  167.6067    0.0000 </r>
       <r>  168.5719    0.0000 </r>
       <r>  168.7587    0.0000 </r>
       <r>  169.4595    0.0000 </r>
       <r>  171.0166    0.0000 </r>
       <r>  174.0436    0.0000 </r>
       <r>  175.0229    0.0000 </r>
       <r>  175.2101    0.0000 </r>
       <r>  175.3032    0.0000 </r>
       <r>  176.0204    0.0000 </r>
      </set>
     </set>
    </set>
   </array>
  </eigenvalues>
  <separator name="orbital magnetization" >
   <v name="MAGDIPOLOUT">      0.00000000      0.00000000      0.00000000</v>
  </separator>
  <dos>
   <i name="efermi">    -17.67801896 </i>
   <total>
    <array>
     <dimension dim="1">gridpoints</dimension>
     <dimension dim="2">spin</dimension>
     <field>energy</field>
     <field>total</field>
     <field>integrated</field>
     <set>
      <set comment="spin 1">
       <r>   -57.1983     0.0000     0.0000 </r>
       <r>   -56.3618     0.0000     0.0000 </r>
       <r>   -55.5254     0.0000     0.0000 </r>
       <r>   -54.6890     0.0000     0.0000 </r>
       <r>   -53.8526     0.0000     0.0000 </r>
       <r>   -53.0162     0.0000     0.0000 </r>
       <r>   -52.1798     0.0000     0.0000 </r>
       <r>   -51.3434     0.0000     0.0000 </r>
       <r>   -50.5070     0.0000     0.0000 </r>
       <r>   -49.6706     0.0000     0.0000 </r>
       <r>   -48.8342     0.0000     0.0000 </r>
       <r>   -47.9978     0.0000     0.0000 </r>
       <r>   -47.1614     0.0000     0.0000 </r>
       <r>   -46.3250     0.0000     0.0000 </r>
       <r>   -45.4886     0.0000     2.0000 </r>
       <r>   -44.6521     0.0000     2.0000 </r>
       <r>   -43.8157     0.0000     2.0000 </r>
       <r>   -42.9793     0.0000     2.0000 </r>
       <r>   -42.1429     0.0000     2.0000 </r>
       <r>   -41.3065     0.0000     2.0000 </r>
       <r>   -40.4701     0.0000     2.0000 </r>
       <r>   -39.6337     0.0000     2.0000 </r>
       <r>   -38.7973     0.0000     2.0000 </r>
       <r>   -37.9609     0.0000     2.0000 </r>
       <r>   -37.1245     0.0000     2.0000 </r>
       <r>   -36.2881     0.0000     2.0000 </r>
       <r>   -35.4517     0.0000     2.0000 </r>
       <r>   -34.6153     0.0000     2.0000 </r>
       <r>   -33.7789     0.0000     2.0000 </r>
       <r>   -32.9424     0.0000     2.0000 </r>
       <r>   -32.1060     0.0000     2.0000 </r>
       <r>   -31.2696     0.0000     2.0000 </r>
       <r>   -30.4332     0.0000     2.0000 </r>
       <r>   -29.5968     0.0000     2.0000 </r>
       <r>   -28.7604     0.0000     2.0000 </r>
       <r>   -27.9240     0.0000     2.0000 </r>
       <r>   -27.0876     0.0000     2.0000 </r>
       <r>   -26.2512     0.0000     2.0000 </r>
       <r>   -25.4148     0.0000     2.0000 </r>
       <r>   -24.5784     0.0000     2.0000 </r>
       <r>   -23.7420     0.0000     2.0000 </r>
       <r>   -22.9056     0.0000     2.0000 </r>
       <r>   -22.0692     0.0000     2.0000 </r>
       <r>   -21.2327     0.0000     2.0000 </r>
       <r>   -20.3963     0.0000     2.0000 </r>
       <r>   -19.5599     0.0000     2.0000 </r>
       <r>   -18.7235     0.2928     3.7726 </r>
       <r>   -17.8871     0.0000     8.0000 </r>
       <r>   -17.0507     0.0000     8.0000 </r>
       <r>   -16.2143     0.0000     8.0000 </r>
       <r>   -15.3779     0.0000     8.0000 </r>
       <r>   -14.5415     0.0000     8.0000 </r>
       <r>   -13.7051     0.0000     8.0000 </r>
       <r>   -12.8687     0.0000     8.0000 </r>
       <r>   -12.0323     0.0000     8.0000 </r>
       <r>   -11.1959     0.0000     8.0000 </r>
       <r>   -10.3595     0.0000     8.0000 </r>
       <r>    -9.5231     0.0000     8.0000 </r>
       <r>    -8.6866     0.0000     8.0000 </r>
       <r>    -7.8502     0.0000     8.0000 </r>
       <r>    -7.0138     0.0000     8.0000 </r>
       <r>    -6.1774     0.0000     8.0000 </r>
       <r>    -5.3410     0.0000     8.0000 </r>
       <r>    -4.5046     0.0000     8.0000 </r>
       <r>    -3.6682     0.0000     8.0000 </r>
       <r>    -2.8318     0.0000     8.0000 </r>
       <r>    -1.9954     0.0000     8.0000 </r>
       <r>    -1.1590     0.0000     8.0000 </r>
       <r>    -0.3226     0.0000     8.0000 </r>
       <r>     0.5138     0.0000     8.0000 </r>
       <r>     1.3502     0.0000     8.0000 </r>
       <r>     2.1866     0.0000     8.0000 </r>
       <r>     3.0231     0.0000     8.0000 </r>
       <r>     3.8595     0.0000     8.0525 </r>
       <r>     4.6959     0.0000     8.0875 </r>
       <r>     5.5323     0.0000     8.3440 </r>
       <r>     6.3687     0.0000     8.3790 </r>
       <r>     7.2051     0.0000     8.6589 </r>
       <r>     8.0415     0.0000     8.9854 </r>
       <r>     8.8779     0.0000     9.0554 </r>
       <r>     9.7143     0.0000     9.6501 </r>
       <r>    10.5507     0.0000    10.0000 </r>
       <r>    11.3871     0.0000    10.1866 </r>
       <r>    12.2235     0.0000    10.6764 </r>
       <r>    13.0599     0.0000    11.3411 </r>
       <r>    13.8963     0.0000    11.9009 </r>
       <r>    14.7328     0.0000    12.2274 </r>
       <r>    15.5692     0.0000    12.8222 </r>
       <r>    16.4056     0.0000    13.1720 </r>
       <r>    17.2420     0.0000    13.9417 </r>
       <r>    18.0784     0.0000    14.2216 </r>
       <r>    18.9148     0.0000    15.1778 </r>
       <r>    19.7512     0.0000    16.3207 </r>
       <r>    20.5876     0.0000    17.3644 </r>
       <r>    21.4240     0.0000    17.9942 </r>
       <r>    22.2604     0.0000    18.8397 </r>
       <r>    23.0968     0.0000    19.6968 </r>
       <r>    23.9332     0.0000    20.6064 </r>
       <r>    24.7696     0.0000    20.9213 </r>
       <r>    25.6060     0.0000    21.7026 </r>
       <r>    26.4425     0.0000    22.5015 </r>
       <r>    27.2789     0.0000    23.5160 </r>
       <r>    28.1153     0.0000    24.3440 </r>
       <r>    28.9517     0.0000    25.4402 </r>
       <r>    29.7881     0.0000    26.4781 </r>
       <r>    30.6245     0.0000    27.5044 </r>
       <r>    31.4609     0.0000    27.9184 </r>
       <r>    32.2973     0.0000    28.4082 </r>
       <r>    33.1337     0.0000    29.1312 </r>
       <r>    33.9701     0.0000    29.6910 </r>
       <r>    34.8065     0.1611    30.9219 </r>
       <r>    35.6429     0.0000    31.3120 </r>
       <r>    36.4793     0.0000    31.7551 </r>
       <r>    37.3157     0.0000    32.5248 </r>
       <r>    38.1522     0.1673    33.3994 </r>
       <r>    38.9886     0.0000    34.3790 </r>
       <r>    39.8250     0.0000    35.0437 </r>
       <r>    40.6614     0.0000    36.1283 </r>
       <r>    41.4978     0.0000    36.9329 </r>
       <r>    42.3342     0.0000    38.0525 </r>
       <r>    43.1706     0.0000    38.8455 </r>
       <r>    44.0070     0.0000    39.7376 </r>
       <r>    44.8434     0.0000    40.5539 </r>
       <r>    45.6798     0.0000    41.2187 </r>
       <r>    46.5162     0.0000    42.1749 </r>
       <r>    47.3526     0.0000    43.3528 </r>
       <r>    48.1890     0.0000    44.4723 </r>
       <r>    49.0254     0.0000    45.1720 </r>
       <r>    49.8619     0.0000    45.8834 </r>
       <r>    50.6983     0.0000    47.2128 </r>
       <r>    51.5347     0.0000    47.7143 </r>
       <r>    52.3711     0.0000    48.5539 </r>
       <r>    53.2075     0.0000    49.4227 </r>
       <r>    54.0439     0.0000    50.8105 </r>
       <r>    54.8803     0.0000    52.4548 </r>
       <r>    55.7167     0.0000    53.1020 </r>
       <r>    56.5531     0.0000    54.1633 </r>
       <r>    57.3895     0.0000    54.8280 </r>
       <r>    58.2259     0.0000    56.1924 </r>
       <r>    59.0623     0.0000    57.5802 </r>
       <r>    59.8987     0.0000    58.5248 </r>
       <r>    60.7351     0.0000    59.8542 </r>
       <r>    61.5716     0.0000    60.3440 </r>
       <r>    62.4080     0.0000    61.3644 </r>
       <r>    63.2444     0.0000    62.6006 </r>
       <r>    64.0808     0.0000    63.5219 </r>
       <r>    64.9172     0.0000    64.3965 </r>
       <r>    65.7536     0.0000    65.5394 </r>
       <r>    66.5900     0.0000    66.3673 </r>
       <r>    67.4264     0.0002    67.3471 </r>
       <r>    68.2628     0.0000    68.5364 </r>
       <r>    69.0992     0.1673    69.5160 </r>
       <r>    69.9356     0.0000    70.7697 </r>
       <r>    70.7720     0.0000    71.4694 </r>
       <r>    71.6084     0.1673    72.7638 </r>
       <r>    72.4448     0.0000    73.7551 </r>
       <r>    73.2812     0.0000    75.3645 </r>
       <r>    74.1177     0.0000    76.7813 </r>
       <r>    74.9541     0.0000    77.7026 </r>
       <r>    75.7905     0.0000    79.3703 </r>
       <r>    76.6269     0.1673    80.1866 </r>
       <r>    77.4633     0.0000    81.0904 </r>
       <r>    78.2997     0.0000    82.1108 </r>
       <r>    79.1361     0.0000    82.6589 </r>
       <r>    79.9725     0.0000    83.5160 </r>
       <r>    80.8089     0.0000    85.5802 </r>
       <r>    81.6453     0.0000    87.6210 </r>
       <r>    82.4817     0.0000    88.5073 </r>
       <r>    83.3181     0.0000    89.3469 </r>
       <r>    84.1545     0.0000    90.6764 </r>
       <r>    84.9909     0.0000    91.7143 </r>
       <r>    85.8274     0.0000    92.5306 </r>
       <r>    86.6638     0.0418    94.8863 </r>
       <r>    87.5002     0.0000    95.7259 </r>
       <r>    88.3366     0.0000    97.1603 </r>
       <r>    89.1730     0.0000    98.0700 </r>
       <r>    90.0094     0.1673    99.5977 </r>
       <r>    90.8458     0.0000   100.6122 </r>
       <r>    91.6822     0.0000   101.0787 </r>
       <r>    92.5186     0.0000   102.6414 </r>
       <r>    93.3550     0.0000   104.4257 </r>
       <r>    94.1914     0.0000   106.2566 </r>
       <r>    95.0278     0.0000   107.6093 </r>
       <r>    95.8642     0.0000   108.6239 </r>
       <r>    96.7006     0.0000   109.7901 </r>
       <r>    97.5371     0.0000   110.8805 </r>
       <r>    98.3735     0.0000   111.8367 </r>
       <r>    99.2099     0.0000   112.8163 </r>
       <r>   100.0463     0.0000   114.9271 </r>
       <r>   100.8827     0.0000   115.7201 </r>
       <r>   101.7191     0.0000   116.8397 </r>
       <r>   102.5555     0.0000   118.5539 </r>
       <r>   103.3919     0.0000   119.7434 </r>
       <r>   104.2283     0.0000   121.6327 </r>
       <r>   105.0647     0.0000   123.4519 </r>
       <r>   105.9011     0.0000   124.0816 </r>
       <r>   106.7375     0.0000   125.3761 </r>
       <r>   107.5739     0.0000   126.2157 </r>
       <r>   108.4103     0.0000   127.8834 </r>
       <r>   109.2468     0.0000   129.2945 </r>
       <r>   110.0832     0.0000   130.5539 </r>
       <r>   110.9196     0.0000   131.9767 </r>
       <r>   111.7560     0.0000   133.2828 </r>
       <r>   112.5924     0.0000   134.2624 </r>
       <r>   113.4288     0.0418   135.7434 </r>
       <r>   114.2652     0.0000   136.7988 </r>
       <r>   115.1016     0.0000   138.6647 </r>
       <r>   115.9380     0.0837   140.8571 </r>
       <r>   116.7744     0.0000   141.9417 </r>
       <r>   117.6108     0.0000   144.0641 </r>
       <r>   118.4472     0.0000   144.6414 </r>
       <r>   119.2836     0.0000   145.9592 </r>
       <r>   120.1200     0.0000   147.0087 </r>
       <r>   120.9565     0.0000   148.4315 </r>
       <r>   121.7929     0.0000   150.2507 </r>
       <r>   122.6293     0.0000   150.9271 </r>
       <r>   123.4657     0.0000   152.5948 </r>
       <r>   124.3021     0.0000   154.3673 </r>
       <r>   125.1385     0.0000   156.0233 </r>
       <r>   125.9749     0.0000   156.9504 </r>
       <r>   126.8113     0.1673   158.9913 </r>
       <r>   127.6477     0.0837   161.0437 </r>
       <r>   128.4841     0.0000   162.9213 </r>
       <r>   129.3205     0.0000   163.8601 </r>
       <r>   130.1569     0.0000   165.6327 </r>
       <r>   130.9933     0.0000   166.7638 </r>
       <r>   131.8297     0.0000   168.2799 </r>
       <r>   132.6662     0.0000   169.0146 </r>
       <r>   133.5026     0.0000   170.7405 </r>
       <r>   134.3390     0.0000   172.0525 </r>
       <r>   135.1754     0.0000   173.2653 </r>
       <r>   136.0118     0.0000   174.5364 </r>
       <r>   136.8482     0.0000   176.2507 </r>
       <r>   137.6846     0.0000   178.4257 </r>
       <r>   138.5210     0.0000   180.1633 </r>
       <r>   139.3574     0.0000   181.2945 </r>
       <r>   140.1938     0.0000   182.8980 </r>
       <r>   141.0302     0.0000   184.6006 </r>
       <r>   141.8666     0.0000   185.6968 </r>
       <r>   142.7030     0.0000   187.4577 </r>
       <r>   143.5394     0.0000   189.4461 </r>
       <r>   144.3759     0.0000   191.2536 </r>
       <r>   145.2123     0.0000   192.8047 </r>
       <r>   146.0487     0.0000   194.1050 </r>
       <r>   146.8851     0.0000   195.2420 </r>
       <r>   147.7215     0.0000   197.0437 </r>
       <r>   148.5579     0.0000   198.2566 </r>
       <r>   149.3943     0.0000   200.0292 </r>
       <r>   150.2307     0.0000   200.7522 </r>
       <r>   151.0671     0.0000   202.7230 </r>
       <r>   151.9035     0.0000   205.0321 </r>
       <r>   152.7399     0.0000   206.6414 </r>
       <r>   153.5763     0.0000   208.1691 </r>
       <r>   154.4127     0.0000   209.5918 </r>
       <r>   155.2491     0.0000   211.3761 </r>
       <r>   156.0855     0.0000   213.6268 </r>
       <r>   156.9220     0.0000   214.5364 </r>
       <r>   157.7584     0.0000   216.1341 </r>
       <r>   158.5948     0.0000   217.6501 </r>
       <r>   159.4312     0.0000   219.0729 </r>
       <r>   160.2676     0.0000   220.8222 </r>
       <r>   161.1040     0.0000   222.2857 </r>
       <r>   161.9404     0.0000   224.1399 </r>
       <r>   162.7768     0.0000   225.5394 </r>
       <r>   163.6132     0.0837   227.0554 </r>
       <r>   164.4496     0.0000   228.6880 </r>
       <r>   165.2860     0.0000   229.9359 </r>
       <r>   166.1224     0.0000   231.7085 </r>
       <r>   166.9588     0.0000   234.0758 </r>
       <r>   167.7952     0.0000   235.7784 </r>
       <r>   168.6317     0.0000   237.5510 </r>
       <r>   169.4681     0.0000   239.3703 </r>
       <r>   170.3045     0.0000   240.8338 </r>
       <r>   171.1409     0.0000   243.2595 </r>
       <r>   171.9773     0.0000   244.3673 </r>
       <r>   172.8137     0.0000   246.0233 </r>
       <r>   173.6501     0.0000   247.3994 </r>
       <r>   174.4865     0.0000   248.7055 </r>
       <r>   175.3229     0.0000   250.5481 </r>
       <r>   176.1593     0.0000   251.7434 </r>
       <r>   176.9957     0.0000   252.4431 </r>
       <r>   177.8321     0.0000   252.8863 </r>
       <r>   178.6685     0.0000   253.9708 </r>
       <r>   179.5049     0.1652   255.0886 </r>
       <r>   180.3414     0.0000   255.6501 </r>
       <r>   181.1778     0.0000   255.8950 </r>
       <r>   182.0142     0.0000   255.9650 </r>
       <r>   182.8506     0.0000   256.0000 </r>
       <r>   183.6870     0.0000   256.0000 </r>
       <r>   184.5234     0.0000   256.0000 </r>
       <r>   185.3598     0.0000   256.0000 </r>
       <r>   186.1962     0.0000   256.0000 </r>
       <r>   187.0326     0.0000   256.0000 </r>
       <r>   187.8690     0.0000   256.0000 </r>
       <r>   188.7054     0.0000   256.0000 </r>
       <r>   189.5418     0.0000   256.0000 </r>
       <r>   190.3782     0.0000   256.0000 </r>
       <r>   191.2146     0.0000   256.0000 </r>
       <r>   192.0511     0.0000   256.0000 </r>
       <r>   192.8875     0.0000   256.0000 </r>
       <r>   193.7239     0.0000   256.0000 </r>
      </set>
     </set>
    </array>
   </total>
  </dos>
 </calculation>
 <structure name="finalpos" >
  <crystal>
   <varray name="basis" >
    <v>       3.15663441       0.00000000       0.00000000 </v>
    <v>       1.57831721       2.73372559       0.00000000 </v>
    <v>       1.57831721       0.91124186       2.57738121 </v>
   </varray>
   <i name="volume">     22.24118194 </i>
   <varray name="rec_basis" >
    <v>       0.31679310      -0.18290058      -0.12933024 </v>
    <v>       0.00000000       0.36580116      -0.12933024 </v>
    <v>       0.00000000       0.00000000       0.38799072 </v>
   </varray>
  </crystal>
  <varray name="positions" >
   <v>       0.00000000       0.00000000       0.00000000 </v>
  </varray>
  <varray name="velocities" >
   <v>       0.00000000       0.00000000       0.00000000 </v>
  </varray>
 </structure>
</modeling>
