   1   1   0   0
  0.6567536E+02  0.4528689E-09  0.4528689E-09  0.4528689E-09  0.5000000E-15
  1.000000000000000E-004
  CAR 
 Og_FCC                                  
     15.16055947    -31.46638905  301      0.36112769      1.00000000
    -31.466  0.0000E+00  0.0000E+00
    -31.311  0.0000E+00  0.0000E+00
    -31.156  0.0000E+00  0.0000E+00
    -31.000  0.0000E+00  0.0000E+00
    -30.845  0.0000E+00  0.0000E+00
    -30.689  0.0000E+00  0.0000E+00
    -30.534  0.0000E+00  0.0000E+00
    -30.378  0.0000E+00  0.0000E+00
    -30.223  0.0000E+00  0.0000E+00
    -30.068  0.0000E+00  0.0000E+00
    -29.912  0.0000E+00  0.0000E+00
    -29.757 -0.3605E-27 -0.5603E-28
    -29.601 -0.2623E-09 -0.4077E-10
    -29.446 -0.4356E+00 -0.6770E-01
    -29.290  0.6668E+02  0.1030E+02
    -29.135 -0.1906E+01  0.1000E+02
    -28.980 -0.2192E-05  0.1000E+02
    -28.824  0.0000E+00  0.1000E+02
    -28.669  0.0000E+00  0.1000E+02
    -28.513  0.0000E+00  0.1000E+02
    -28.358  0.0000E+00  0.1000E+02
    -28.203  0.0000E+00  0.1000E+02
    -28.047  0.0000E+00  0.1000E+02
    -27.892  0.0000E+00  0.1000E+02
    -27.736  0.0000E+00  0.1000E+02
    -27.581  0.0000E+00  0.1000E+02
    -27.425  0.0000E+00  0.1000E+02
    -27.270  0.0000E+00  0.1000E+02
    -27.115  0.0000E+00  0.1000E+02
    -26.959  0.0000E+00  0.1000E+02
    -26.804  0.0000E+00  0.1000E+02
    -26.648  0.0000E+00  0.1000E+02
    -26.493  0.0000E+00  0.1000E+02
    -26.337  0.0000E+00  0.1000E+02
    -26.182  0.0000E+00  0.1000E+02
    -26.027  0.0000E+00  0.1000E+02
    -25.871  0.0000E+00  0.1000E+02
    -25.716  0.0000E+00  0.1000E+02
    -25.560  0.0000E+00  0.1000E+02
    -25.405  0.0000E+00  0.1000E+02
    -25.249  0.0000E+00  0.1000E+02
    -25.094  0.0000E+00  0.1000E+02
    -24.939  0.0000E+00  0.1000E+02
    -24.783  0.0000E+00  0.1000E+02
    -24.628  0.0000E+00  0.1000E+02
    -24.472  0.0000E+00  0.1000E+02
    -24.317  0.0000E+00  0.1000E+02
    -24.162  0.0000E+00  0.1000E+02
    -24.006  0.0000E+00  0.1000E+02
    -23.851  0.0000E+00  0.1000E+02
    -23.695  0.0000E+00  0.1000E+02
    -23.540  0.0000E+00  0.1000E+02
    -23.384  0.0000E+00  0.1000E+02
    -23.229  0.0000E+00  0.1000E+02
    -23.074  0.0000E+00  0.1000E+02
    -22.918  0.0000E+00  0.1000E+02
    -22.763 -0.2755E-53  0.1000E+02
    -22.607 -0.1038E-27  0.1000E+02
    -22.452 -0.1400E-10  0.1000E+02
    -22.296 -0.1002E-01  0.9998E+01
    -22.141  0.7246E+01  0.1112E+02
    -21.986  0.5633E+01  0.1200E+02
    -21.830 -0.1067E-02  0.1200E+02
    -21.675  0.0000E+00  0.1200E+02
    -21.519  0.0000E+00  0.1200E+02
    -21.364  0.0000E+00  0.1200E+02
    -21.208  0.0000E+00  0.1200E+02
    -21.053  0.0000E+00  0.1200E+02
    -20.898  0.0000E+00  0.1200E+02
    -20.742  0.0000E+00  0.1200E+02
    -20.587  0.0000E+00  0.1200E+02
    -20.431  0.0000E+00  0.1200E+02
    -20.276  0.0000E+00  0.1200E+02
    -20.120  0.0000E+00  0.1200E+02
    -19.965  0.0000E+00  0.1200E+02
    -19.810  0.0000E+00  0.1200E+02
    -19.654  0.0000E+00  0.1200E+02
    -19.499  0.0000E+00  0.1200E+02
    -19.343  0.0000E+00  0.1200E+02
    -19.188  0.0000E+00  0.1200E+02
    -19.033  0.0000E+00  0.1200E+02
    -18.877  0.0000E+00  0.1200E+02
    -18.722  0.0000E+00  0.1200E+02
    -18.566  0.0000E+00  0.1200E+02
    -18.411  0.0000E+00  0.1200E+02
    -18.255  0.0000E+00  0.1200E+02
    -18.100  0.0000E+00  0.1200E+02
    -17.945  0.0000E+00  0.1200E+02
    -17.789  0.0000E+00  0.1200E+02
    -17.634  0.0000E+00  0.1200E+02
    -17.478  0.0000E+00  0.1200E+02
    -17.323  0.0000E+00  0.1200E+02
    -17.167  0.0000E+00  0.1200E+02
    -17.012  0.0000E+00  0.1200E+02
    -16.857  0.0000E+00  0.1200E+02
    -16.701  0.0000E+00  0.1200E+02
    -16.546  0.0000E+00  0.1200E+02
    -16.390  0.0000E+00  0.1200E+02
    -16.235  0.0000E+00  0.1200E+02
    -16.079  0.0000E+00  0.1200E+02
    -15.924  0.0000E+00  0.1200E+02
    -15.769  0.0000E+00  0.1200E+02
    -15.613  0.0000E+00  0.1200E+02
    -15.458  0.0000E+00  0.1200E+02
    -15.302  0.0000E+00  0.1200E+02
    -15.147  0.0000E+00  0.1200E+02
    -14.992  0.0000E+00  0.1200E+02
    -14.836  0.0000E+00  0.1200E+02
    -14.681  0.0000E+00  0.1200E+02
    -14.525  0.0000E+00  0.1200E+02
    -14.370  0.0000E+00  0.1200E+02
    -14.214  0.0000E+00  0.1200E+02
    -14.059  0.0000E+00  0.1200E+02
    -13.904  0.0000E+00  0.1200E+02
    -13.748  0.0000E+00  0.1200E+02
    -13.593  0.0000E+00  0.1200E+02
    -13.437  0.0000E+00  0.1200E+02
    -13.282  0.0000E+00  0.1200E+02
    -13.126  0.0000E+00  0.1200E+02
    -12.971  0.0000E+00  0.1200E+02
    -12.816  0.0000E+00  0.1200E+02
    -12.660  0.0000E+00  0.1200E+02
    -12.505  0.0000E+00  0.1200E+02
    -12.349  0.0000E+00  0.1200E+02
    -12.194  0.0000E+00  0.1200E+02
    -12.038  0.0000E+00  0.1200E+02
    -11.883  0.0000E+00  0.1200E+02
    -11.728  0.0000E+00  0.1200E+02
    -11.572  0.0000E+00  0.1200E+02
    -11.417  0.0000E+00  0.1200E+02
    -11.261  0.0000E+00  0.1200E+02
    -11.106  0.0000E+00  0.1200E+02
    -10.951  0.0000E+00  0.1200E+02
    -10.795  0.0000E+00  0.1200E+02
    -10.640  0.0000E+00  0.1200E+02
    -10.484  0.0000E+00  0.1200E+02
    -10.329  0.0000E+00  0.1200E+02
    -10.173  0.0000E+00  0.1200E+02
    -10.018  0.0000E+00  0.1200E+02
     -9.863  0.0000E+00  0.1200E+02
     -9.707  0.0000E+00  0.1200E+02
     -9.552  0.0000E+00  0.1200E+02
     -9.396  0.0000E+00  0.1200E+02
     -9.241  0.0000E+00  0.1200E+02
     -9.085  0.0000E+00  0.1200E+02
     -8.930  0.0000E+00  0.1200E+02
     -8.775  0.0000E+00  0.1200E+02
     -8.619  0.0000E+00  0.1200E+02
     -8.464  0.0000E+00  0.1200E+02
     -8.308  0.0000E+00  0.1200E+02
     -8.153  0.0000E+00  0.1200E+02
     -7.997  0.0000E+00  0.1200E+02
     -7.842  0.0000E+00  0.1200E+02
     -7.687  0.0000E+00  0.1200E+02
     -7.531  0.0000E+00  0.1200E+02
     -7.376  0.0000E+00  0.1200E+02
     -7.220  0.0000E+00  0.1200E+02
     -7.065  0.0000E+00  0.1200E+02
     -6.910  0.0000E+00  0.1200E+02
     -6.754  0.0000E+00  0.1200E+02
     -6.599  0.0000E+00  0.1200E+02
     -6.443  0.0000E+00  0.1200E+02
     -6.288  0.0000E+00  0.1200E+02
     -6.132  0.0000E+00  0.1200E+02
     -5.977  0.0000E+00  0.1200E+02
     -5.822  0.0000E+00  0.1200E+02
     -5.666  0.0000E+00  0.1200E+02
     -5.511  0.0000E+00  0.1200E+02
     -5.355  0.0000E+00  0.1200E+02
     -5.200  0.0000E+00  0.1200E+02
     -5.044  0.0000E+00  0.1200E+02
     -4.889  0.0000E+00  0.1200E+02
     -4.734  0.0000E+00  0.1200E+02
     -4.578  0.0000E+00  0.1200E+02
     -4.423  0.0000E+00  0.1200E+02
     -4.267  0.0000E+00  0.1200E+02
     -4.112  0.0000E+00  0.1200E+02
     -3.956  0.0000E+00  0.1200E+02
     -3.801  0.0000E+00  0.1200E+02
     -3.646  0.0000E+00  0.1200E+02
     -3.490  0.0000E+00  0.1200E+02
     -3.335  0.0000E+00  0.1200E+02
     -3.179  0.0000E+00  0.1200E+02
     -3.024  0.0000E+00  0.1200E+02
     -2.869  0.0000E+00  0.1200E+02
     -2.713  0.0000E+00  0.1200E+02
     -2.558 -0.2778E-37  0.1200E+02
     -2.402 -0.1076E-16  0.1200E+02
     -2.247 -0.1148E-04  0.1200E+02
     -2.091  0.9976E-01  0.1202E+02
     -1.936  0.7344E+00  0.1213E+02
     -1.781  0.2678E+01  0.1255E+02
     -1.625  0.4673E+01  0.1327E+02
     -1.470  0.2154E+01  0.1361E+02
     -1.314  0.1002E+01  0.1376E+02
     -1.159  0.1156E+01  0.1394E+02
     -1.003  0.1804E+01  0.1422E+02
     -0.848  0.1796E+01  0.1450E+02
     -0.693  0.1367E+01  0.1471E+02
     -0.537  0.3772E+01  0.1530E+02
     -0.382  0.2988E+01  0.1577E+02
     -0.226  0.3679E+01  0.1634E+02
     -0.071  0.3810E+01  0.1693E+02
      0.085  0.3795E+01  0.1752E+02
      0.240  0.2396E+01  0.1789E+02
      0.395  0.7068E+00  0.1800E+02
      0.551 -0.8864E-02  0.1800E+02
      0.706 -0.4397E-08  0.1800E+02
      0.862  0.0000E+00  0.1800E+02
      1.017  0.0000E+00  0.1800E+02
      1.172  0.0000E+00  0.1800E+02
      1.328  0.0000E+00  0.1800E+02
      1.483  0.0000E+00  0.1800E+02
      1.639  0.0000E+00  0.1800E+02
      1.794  0.0000E+00  0.1800E+02
      1.950  0.0000E+00  0.1800E+02
      2.105  0.0000E+00  0.1800E+02
      2.260  0.0000E+00  0.1800E+02
      2.416  0.0000E+00  0.1800E+02
      2.571 -0.4560E-29  0.1800E+02
      2.727 -0.7740E-12  0.1800E+02
      2.882 -0.2518E-03  0.1800E+02
      3.038  0.1851E-01  0.1800E+02
      3.193 -0.6105E-03  0.1800E+02
      3.348 -0.7339E-10  0.1800E+02
      3.504 -0.8643E-03  0.1800E+02
      3.659  0.1460E+00  0.1803E+02
      3.815  0.2888E-01  0.1803E+02
      3.970  0.7312E-01  0.1804E+02
      4.126 -0.1936E-04  0.1804E+02
      4.281 -0.5012E-02  0.1804E+02
      4.436  0.2225E+00  0.1807E+02
      4.592 -0.9665E-02  0.1807E+02
      4.747  0.4050E+00  0.1814E+02
      4.903  0.1639E+00  0.1816E+02
      5.058 -0.9755E-05  0.1816E+02
      5.213  0.4548E-02  0.1816E+02
      5.369  0.6958E+00  0.1827E+02
      5.524  0.2683E+00  0.1831E+02
      5.680  0.7382E+00  0.1843E+02
      5.835  0.8644E+00  0.1856E+02
      5.991  0.1072E+01  0.1873E+02
      6.146  0.5962E+00  0.1882E+02
      6.301  0.6027E+00  0.1891E+02
      6.457  0.2136E+01  0.1925E+02
      6.612  0.1108E+01  0.1942E+02
      6.768  0.1463E+01  0.1965E+02
      6.923  0.5819E+00  0.1974E+02
      7.079  0.5591E-01  0.1975E+02
      7.234  0.9705E+00  0.1990E+02
      7.389  0.8527E+00  0.2003E+02
      7.545  0.7145E+00  0.2014E+02
      7.700  0.3721E+00  0.2020E+02
      7.856  0.4220E+00  0.2026E+02
      8.011  0.9028E+00  0.2040E+02
      8.167  0.1930E+01  0.2070E+02
      8.322  0.2714E+01  0.2113E+02
      8.477  0.1776E+01  0.2140E+02
      8.633  0.1189E+01  0.2159E+02
      8.788  0.1793E+01  0.2186E+02
      8.944  0.3840E+01  0.2246E+02
      9.099  0.1477E+01  0.2269E+02
      9.254  0.1415E+00  0.2271E+02
      9.410  0.4912E+00  0.2279E+02
      9.565  0.4132E+00  0.2285E+02
      9.721  0.5350E+00  0.2294E+02
      9.876  0.3324E+01  0.2345E+02
     10.032  0.2897E+01  0.2390E+02
     10.187  0.1790E+01  0.2418E+02
     10.342  0.1986E+01  0.2449E+02
     10.498  0.2397E+01  0.2486E+02
     10.653  0.1838E+01  0.2515E+02
     10.809  0.3664E+00  0.2521E+02
     10.964  0.8749E+00  0.2534E+02
     11.120  0.5200E+00  0.2542E+02
     11.275  0.4395E+00  0.2549E+02
     11.430  0.1374E+00  0.2551E+02
     11.586  0.7993E+00  0.2564E+02
     11.741  0.7729E+00  0.2576E+02
     11.897  0.3277E+00  0.2581E+02
     12.052  0.6484E+00  0.2591E+02
     12.208  0.4875E+00  0.2598E+02
     12.363 -0.7374E-03  0.2598E+02
     12.518 -0.1039E-47  0.2598E+02
     12.674 -0.7892E-24  0.2598E+02
     12.829 -0.1884E-08  0.2598E+02
     12.985 -0.3591E-02  0.2598E+02
     13.140  0.1104E+00  0.2600E+02
     13.295 -0.9082E-03  0.2600E+02
     13.451  0.0000E+00  0.2600E+02
     13.606  0.0000E+00  0.2600E+02
     13.762  0.0000E+00  0.2600E+02
     13.917  0.0000E+00  0.2600E+02
     14.073  0.0000E+00  0.2600E+02
     14.228  0.0000E+00  0.2600E+02
     14.383  0.0000E+00  0.2600E+02
     14.539  0.0000E+00  0.2600E+02
     14.694  0.0000E+00  0.2600E+02
     14.850  0.0000E+00  0.2600E+02
     15.005  0.0000E+00  0.2600E+02
     15.161  0.0000E+00  0.2600E+02
