    1    1    1    1
  0.6567536E+02  0.4528689E-09  0.4528689E-09  0.4528689E-09  0.5000000E-15
  1.000000000000000E-004
  CAR 
 Og_FCC                                  
     18     35     13
 
  0.0000000E+00  0.0000000E+00  0.0000000E+00  0.1371742E-02
    1      -29.345192   1.000000
    2      -29.345192   1.000000
    3      -29.345192   1.000000
    4      -29.344163   1.000000
    5      -29.344163   1.000000
    6      -22.214013   1.000000
    7        0.348414   0.707670
    8        0.348414   0.707670
    9        0.348416   0.707628
   10        2.972344   0.000000
   11        9.957809   0.000000
   12        9.957811   0.000000
   13        9.957811   0.000000
 
  0.1111111E+00  0.1006643E-17 -0.1387779E-16  0.1097394E-01
    1      -29.345180   1.000000
    2      -29.345078   1.000000
    3      -29.345077   1.000000
    4      -29.344186   1.000000
    5      -29.344185   1.000000
    6      -22.206234   1.000000
    7       -0.181873   1.000000
    8        0.308857   1.029221
    9        0.308859   1.029218
   10        3.607823   0.000000
   11        9.263122   0.000000
   12       10.081669   0.000000
   13       10.081670   0.000000
 
  0.2222222E+00 -0.1186450E-16 -0.1387779E-16  0.1097394E-01
    1      -29.345092   1.000000
    2      -29.345090   1.000000
    3      -29.344748   1.000000
    4      -29.343189   1.000000
    5      -29.343188   1.000000
    6      -22.186422   1.000000
    7       -1.046288   1.000000
    8        0.211896   1.000102
    9        0.211898   1.000102
   10        4.643358   0.000000
   11        8.987573   0.000000
   12       10.104775   0.000000
   13       10.104775   0.000000
 
  0.3333333E+00  0.3077550E-16 -0.2775558E-16  0.1097394E-01
    1      -29.345371   1.000000
    2      -29.345369   1.000000
    3      -29.344139   1.000000
    4      -29.341711   1.000000
    5      -29.341710   1.000000
    6      -22.163706   1.000000
    7       -1.730336   1.000000
    8        0.106530   1.000000
    9        0.106532   1.000000
   10        5.245602   0.000000
   11        9.594110   0.000000
   12        9.769290   0.000000
   13        9.769291   0.000000
 
  0.4444444E+00 -0.2372900E-16 -0.2775558E-16  0.1097394E-01
    1      -29.345600   1.000000
    2      -29.345598   1.000000
    3      -29.343954   1.000000
    4      -29.340734   1.000000
    5      -29.340733   1.000000
    6      -22.148781   1.000000
    7       -2.095410   1.000000
    8        0.040284   1.000000
    9        0.040286   1.000000
   10        5.394751   0.000000
   11        9.531550   0.000000
   12        9.531551   0.000000
   13        9.894162   0.000000
 
  0.1111111E+00  0.1111111E+00  0.0000000E+00  0.8230453E-02
    1      -29.345509   1.000000
    2      -29.344632   1.000000
    3      -29.344631   1.000000
    4      -29.344476   1.000000
    5      -29.344011   1.000000
    6      -22.203640   1.000000
    7       -0.207079   1.000000
    8        0.223823   1.000360
    9        0.223825   1.000360
   10        3.826246   0.000000
   11        8.971165   0.000000
   12       10.252079   0.000000
   13       10.252280   0.000000
 
  0.2222222E+00  0.1111111E+00 -0.1387779E-16  0.3292181E-01
    1      -29.345403   1.000000
    2      -29.344759   1.000000
    3      -29.344381   1.000000
    4      -29.343627   1.000000
    5      -29.343036   1.000000
    6      -22.187850   1.000000
    7       -0.855979   1.000000
    8        0.095831   1.000000
    9        0.132913   1.000000
   10        4.740575   0.000000
   11        8.582724   0.000000
   12        9.692667   0.000000
   13       10.478196   0.000000
 
  0.3333333E+00  0.1111111E+00 -0.2775558E-16  0.3292181E-01
    1      -29.345411   1.000000
    2      -29.344691   1.000000
    3      -29.344432   1.000000
    4      -29.342456   1.000000
    5      -29.341596   1.000000
    6      -22.166103   1.000000
    7       -1.523094   1.000000
    8       -0.013348   1.000000
    9       -0.007544   1.000000
   10        5.530358   0.000000
   11        8.870127   0.000000
   12        9.047595   0.000000
   13       10.270807   0.000000
 
  0.4444444E+00  0.1111111E+00 -0.5551115E-16  0.3292181E-01
    1      -29.345610   1.000000
    2      -29.344992   1.000000
    3      -29.343854   1.000000
    4      -29.341447   1.000000
    5      -29.340662   1.000000
    6      -22.148559   1.000000
    7       -1.949814   1.000000
    8       -0.162754   1.000000
    9       -0.057189   1.000000
   10        5.820724   0.000000
   11        8.645290   0.000000
   12        9.926293   0.000000
   13       10.054143   0.000000
 
 -0.4444444E+00  0.1111111E+00  0.5551115E-16  0.3292181E-01
    1      -29.345587   1.000000
    2      -29.345135   1.000000
    3      -29.343642   1.000000
    4      -29.340891   1.000000
    5      -29.340692   1.000000
    6      -22.143567   1.000000
    7       -2.057309   1.000000
    8       -0.260205   1.000000
    9       -0.018603   1.000000
   10        5.869415   0.000000
   11        8.586875   0.000000
   12        9.745474   0.000000
   13       10.777469   0.000000
 
 -0.3333333E+00  0.1111111E+00  0.1387779E-16  0.3292181E-01
    1      -29.345358   1.000000
    2      -29.345018   1.000000
    3      -29.343868   1.000000
    4      -29.341757   1.000000
    5      -29.341038   1.000000
    6      -22.153525   1.000000
    7       -1.833142   1.000000
    8       -0.254558   1.000000
    9        0.087128   1.000000
   10        5.785091   0.000000
   11        8.839415   0.000000
   12        9.783253   0.000000
   13        9.809677   0.000000
 
 -0.2222222E+00  0.1111111E+00  0.2775558E-16  0.3292181E-01
    1      -29.345112   1.000000
    2      -29.344788   1.000000
    3      -29.344485   1.000000
    4      -29.343283   1.000000
    5      -29.342003   1.000000
    6      -22.173658   1.000000
    7       -1.322054   1.000000
    8       -0.134345   1.000000
    9        0.215420   1.000150
   10        5.311046   0.000000
   11        8.867124   0.000000
   12        9.376627   0.000000
   13       10.126941   0.000000
 
 -0.1111111E+00  0.1111111E+00  0.1496906E-16  0.1646091E-01
    1      -29.345008   1.000000
    2      -29.344865   1.000000
    3      -29.344559   1.000000
    4      -29.344346   1.000000
    5      -29.343321   1.000000
    6      -22.194438   1.000000
    7       -0.665246   1.000000
    8        0.085575   1.000000
    9        0.305356   1.033331
   10        4.360292   0.000000
   11        8.862536   0.000000
   12       10.011986   0.000000
   13       10.245017   0.000000
 
  0.2222222E+00  0.2222222E+00 -0.2775558E-16  0.8230453E-02
    1      -29.346018   1.000000
    2      -29.344991   1.000000
    3      -29.343254   1.000000
    4      -29.342957   1.000000
    5      -29.342957   1.000000
    6      -22.177286   1.000000
    7       -1.024119   1.000000
    8       -0.068745   1.000000
    9       -0.068743   1.000000
   10        5.331034   0.000000
   11        8.027291   0.000000
   12        9.210947   0.000000
   13       11.027563   0.000000
 
  0.3333333E+00  0.2222222E+00  0.0000000E+00  0.3292181E-01
    1      -29.345955   1.000000
    2      -29.345113   1.000000
    3      -29.343358   1.000000
    4      -29.341899   1.000000
    5      -29.341434   1.000000
    6      -22.159582   1.000000
    7       -1.436665   1.000000
    8       -0.258620   1.000000
    9       -0.203098   1.000000
   10        5.977291   0.000000
   11        7.900946   0.000000
   12        8.831607   0.000000
   13       11.180897   0.000000
 
  0.4444444E+00  0.2222222E+00 -0.8326673E-16  0.3292181E-01
    1      -29.345805   1.000000
    2      -29.344476   1.000000
    3      -29.343574   1.000000
    4      -29.341384   1.000000
    5      -29.340462   1.000000
    6      -22.142983   1.000000
    7       -1.750511   1.000000
    8       -0.538806   1.000000
    9       -0.252222   1.000000
   10        6.379256   0.000000
   11        8.300069   0.000000
   12        8.792477   0.000000
   13       10.847043   0.000000
 
 -0.4444444E+00  0.2222222E+00  0.6938894E-16  0.3292181E-01
    1      -29.345802   1.000000
    2      -29.343871   1.000000
    3      -29.343351   1.000000
    4      -29.341525   1.000000
    5      -29.340550   1.000000
    6      -22.135333   1.000000
    7       -1.846042   1.000000
    8       -0.795131   1.000000
    9       -0.197787   1.000000
   10        6.599426   0.000000
   11        8.207412   0.000000
   12       10.000186   0.000000
   13       10.512424   0.000000
 
 -0.3333333E+00  0.2222222E+00  0.3469447E-16  0.3292181E-01
    1      -29.345552   1.000000
    2      -29.344025   1.000000
    3      -29.343010   1.000000
    4      -29.341553   1.000000
    5      -29.341501   1.000000
    6      -22.140276   1.000000
    7       -1.743681   1.000000
    8       -0.862843   1.000000
    9       -0.059986   1.000000
   10        6.729562   0.000000
   11        8.208096   0.000000
   12        9.769246   0.000000
   13       10.341297   0.000000
 
 -0.2222222E+00  0.2222222E+00  0.2676953E-16  0.1646091E-01
    1      -29.345263   1.000000
    2      -29.344175   1.000000
    3      -29.343801   1.000000
    4      -29.342850   1.000000
    5      -29.341320   1.000000
    6      -22.155444   1.000000
    7       -1.554216   1.000000
    8       -0.612446   1.000000
    9        0.104227   1.000000
   10        6.299615   0.000000
   11        8.572792   0.000000
   12        8.907312   0.000000
   13       10.305894   0.000000
 
  0.3333333E+00  0.3333333E+00 -0.2775558E-16  0.8230453E-02
    1      -29.346560   1.000000
    2      -29.345541   1.000000
    3      -29.342406   1.000000
    4      -29.340850   1.000000
    5      -29.340850   1.000000
    6      -22.147155   1.000000
    7       -1.611444   1.000000
    8       -0.369178   1.000000
    9       -0.369177   1.000000
   10        5.956271   0.000000
   11        7.389910   0.000000
   12        9.514713   0.000000
   13       12.068069   0.000000
 
  0.4444444E+00  0.3333333E+00 -0.5551115E-16  0.3292181E-01
    1      -29.346460   1.000000
    2      -29.345574   1.000000
    3      -29.342321   1.000000
    4      -29.340330   1.000000
    5      -29.340069   1.000000
    6      -22.134625   1.000000
    7       -1.772456   1.000000
    8       -0.607190   1.000000
    9       -0.443661   1.000000
   10        6.039775   0.000000
   11        7.456641   0.000000
   12        9.922259   0.000000
   13       12.086696   0.000000
 
 -0.4444444E+00  0.3333333E+00  0.3469447E-16  0.3292181E-01
    1      -29.346073   1.000000
    2      -29.344597   1.000000
    3      -29.342532   1.000000
    4      -29.340625   1.000000
    5      -29.340066   1.000000
    6      -22.127888   1.000000
    7       -1.718529   1.000000
    8       -1.027418   1.000000
    9       -0.399563   1.000000
   10        6.328571   0.000000
   11        8.174908   0.000000
   12        9.930055   0.000000
   13       11.645892   0.000000
 
 -0.3333333E+00  0.3333333E+00  0.4019662E-16  0.1646091E-01
    1      -29.345773   1.000000
    2      -29.343009   1.000000
    3      -29.342973   1.000000
    4      -29.341606   1.000000
    5      -29.340819   1.000000
    6      -22.130133   1.000000
    7       -1.463193   1.000000
    8       -1.392545   1.000000
    9       -0.252396   1.000000
   10        6.710111   0.000000
   11        8.703824   0.000000
   12       10.163745   0.000000
   13       10.501988   0.000000
 
  0.4444444E+00  0.4444444E+00 -0.5551115E-16  0.8230453E-02
    1      -29.346982   1.000000
    2      -29.346003   1.000000
    3      -29.341841   1.000000
    4      -29.339616   1.000000
    5      -29.339616   1.000000
    6      -22.127403   1.000000
    7       -1.903816   1.000000
    8       -0.550403   1.000000
    9       -0.550402   1.000000
   10        5.686469   0.000000
   11        7.070066   0.000000
   12       11.512520   0.000000
   13       13.041153   0.000000
 
 -0.4444444E+00  0.4444444E+00  0.5353907E-16  0.1646091E-01
    1      -29.346662   1.000000
    2      -29.345842   1.000000
    3      -29.341902   1.000000
    4      -29.339718   1.000000
    5      -29.339611   1.000000
    6      -22.124739   1.000000
    7       -1.875595   1.000000
    8       -0.745318   1.000000
    9       -0.533825   1.000000
   10        5.854530   0.000000
   11        7.305841   0.000000
   12       11.850601   0.000000
   13       11.921481   0.000000
 
  0.3333333E+00  0.2222222E+00  0.1111111E+00  0.3292181E-01
    1      -29.345300   1.000000
    2      -29.344950   1.000000
    3      -29.344060   1.000000
    4      -29.342949   1.000000
    5      -29.341912   1.000000
    6      -22.171095   1.000000
    7       -1.256545   1.000000
    8       -0.235286   1.000000
    9        0.079037   1.000000
   10        5.597715   0.000000
   11        8.349374   0.000000
   12        8.979023   0.000000
   13       10.894126   0.000000
 
  0.4444444E+00  0.2222222E+00  0.1111111E+00  0.6584362E-01
    1      -29.345283   1.000000
    2      -29.344532   1.000000
    3      -29.344021   1.000000
    4      -29.341942   1.000000
    5      -29.341058   1.000000
    6      -22.151919   1.000000
    7       -1.647655   1.000000
    8       -0.502119   1.000000
    9       -0.043286   1.000000
   10        6.330138   0.000000
   11        8.379176   0.000000
   12        8.774074   0.000000
   13       10.566342   0.000000
 
 -0.4444444E+00  0.2222222E+00  0.1111111E+00  0.6584362E-01
    1      -29.345446   1.000000
    2      -29.344520   1.000000
    3      -29.343277   1.000000
    4      -29.341537   1.000000
    5      -29.340610   1.000000
    6      -22.139333   1.000000
    7       -1.880302   1.000000
    8       -0.628661   1.000000
    9       -0.150816   1.000000
   10        6.580254   0.000000
   11        8.045913   0.000000
   12        9.986235   0.000000
   13       10.377563   0.000000
 
  0.4444444E+00  0.3333333E+00  0.1111111E+00  0.3292181E-01
    1      -29.345837   1.000000
    2      -29.345364   1.000000
    3      -29.343112   1.000000
    4      -29.340945   1.000000
    5      -29.340842   1.000000
    6      -22.144461   1.000000
    7       -1.639976   1.000000
    8       -0.560146   1.000000
    9       -0.305567   1.000000
   10        6.385929   0.000000
   11        7.846586   0.000000
   12        8.791719   0.000000
   13       11.722914   0.000000
 
 -0.4444444E+00  0.3333333E+00  0.1111111E+00  0.6584362E-01
    1      -29.345620   1.000000
    2      -29.344557   1.000000
    3      -29.343221   1.000000
    4      -29.341219   1.000000
    5      -29.340187   1.000000
    6      -22.132807   1.000000
    7       -1.706828   1.000000
    8       -0.883253   1.000000
    9       -0.403573   1.000000
   10        6.778995   0.000000
   11        8.279407   0.000000
   12        8.793054   0.000000
   13       11.451918   0.000000
 
 -0.3333333E+00  0.3333333E+00  0.1111111E+00  0.6584362E-01
    1      -29.345544   1.000000
    2      -29.343708   1.000000
    3      -29.342800   1.000000
    4      -29.342318   1.000000
    5      -29.340284   1.000000
    6      -22.130135   1.000000
    7       -1.629685   1.000000
    8       -1.136728   1.000000
    9       -0.359965   1.000000
   10        7.124342   0.000000
   11        8.108098   0.000000
   12        9.827536   0.000000
   13       10.401153   0.000000
 
 -0.2222222E+00  0.3333333E+00  0.1111111E+00  0.3292181E-01
    1      -29.345281   1.000000
    2      -29.343735   1.000000
    3      -29.343733   1.000000
    4      -29.341532   1.000000
    5      -29.341026   1.000000
    6      -22.137702   1.000000
    7       -1.634403   1.000000
    8       -0.983896   1.000000
    9       -0.202581   1.000000
   10        7.254722   0.000000
   11        7.864181   0.000000
   12        8.990703   0.000000
   13       11.015968   0.000000
 
 -0.4444444E+00  0.4444444E+00  0.1111111E+00  0.3292181E-01
    1      -29.346170   1.000000
    2      -29.345656   1.000000
    3      -29.342223   1.000000
    4      -29.340400   1.000000
    5      -29.339605   1.000000
    6      -22.127033   1.000000
    7       -1.796376   1.000000
    8       -0.754188   1.000000
    9       -0.588339   1.000000
   10        6.175370   0.000000
   11        7.572050   0.000000
   12       10.254402   0.000000
   13       12.010731   0.000000
 
 -0.3333333E+00  0.4444444E+00  0.1111111E+00  0.3292181E-01
    1      -29.345736   1.000000
    2      -29.344583   1.000000
    3      -29.342501   1.000000
    4      -29.341359   1.000000
    5      -29.339633   1.000000
    6      -22.125262   1.000000
    7       -1.629369   1.000000
    8       -1.116225   1.000000
    9       -0.551889   1.000000
   10        6.640727   0.000000
   11        8.286195   0.000000
   12        9.826435   0.000000
   13       10.586774   0.000000
 
 -0.3333333E+00  0.4444444E+00  0.2222222E+00  0.3292181E-01
    1      -29.345037   1.000000
    2      -29.343878   1.000000
    3      -29.343104   1.000000
    4      -29.342229   1.000000
    5      -29.339618   1.000000
    6      -22.126151   1.000000
    7       -1.505227   1.000000
    8       -1.201919   1.000000
    9       -0.614868   1.000000
   10        7.384282   0.000000
   11        8.426261   0.000000
   12        8.882965   0.000000
   13       10.187380   0.000000
