Og_FCC                                  
           1
     4.528689    0.000000    0.000000
     2.264344    3.921960   -0.000000
     2.264344    1.307320    3.697659
   Og
   1
Direct configuration=     1
   0.00000000  0.00000000  0.00000000
