    1    1  999    1
  0.6156630E+02  0.4432200E-09  0.4432200E-09  0.4432200E-09  0.1000000E-15
  1.000000000000000E-004
  CAR 
 Cn_FCC                                  
      8     35      8
 
  0.0000000E+00  0.0000000E+00  0.0000000E+00  0.1371742E-02
    1      -16.335167   1.000000
    2       -4.023356   0.695048
    3       -4.023356   0.695048
    4       -4.023356   0.695048
    5        2.193000   0.000000
    6        6.682820   0.000000
    7        6.682820   0.000000
    8        6.682820   0.000000
 
  0.1111111E+00  0.7962334E-17  0.2081668E-16  0.1097394E-01
    1      -16.314023   1.000000
    2       -4.238443   1.001877
    3       -4.045186   0.845021
    4       -4.045186   0.845021
    5        2.516818   0.000000
    6        6.326705   0.000000
    7        6.803632   0.000000
    8        6.803633   0.000000
 
  0.2222222E+00 -0.1183091E-16  0.2775558E-16  0.1097394E-01
    1      -16.259590   1.000000
    2       -4.718693   1.000000
    3       -4.099274   1.024807
    4       -4.099274   1.024807
    5        3.212421   0.000000
    6        5.944031   0.000000
    7        6.884970   0.000000
    8        6.884970   0.000000
 
  0.3333333E+00  0.3070321E-17  0.8326673E-16  0.1097394E-01
    1      -16.195942   1.000000
    2       -5.189172   1.000000
    3       -4.158805   1.023424
    4       -4.158805   1.023424
    5        3.657387   0.000000
    6        6.200564   0.000000
    7        6.627924   0.000000
    8        6.627924   0.000000
 
  0.4444444E+00 -0.2366181E-16  0.5551115E-16  0.1097394E-01
    1      -16.153381   1.000000
    2       -5.466554   1.000000
    3       -4.196595   1.008793
    4       -4.196595   1.008793
    5        3.716537   0.000000
    6        6.414401   0.000000
    7        6.414401   0.000000
    8        6.764022   0.000000
 
  0.1111111E+00  0.1111111E+00  0.0000000E+00  0.8230453E-02
    1      -16.306990   1.000000
    2       -4.235676   1.002107
    3       -4.089018   1.010413
    4       -4.089018   1.010413
    5        2.626724   0.000000
    6        6.123255   0.000000
    7        6.922645   0.000000
    8        6.922660   0.000000
 
  0.2222222E+00  0.1111111E+00  0.1387779E-16  0.3292181E-01
    1      -16.263685   1.000000
    2       -4.593618   1.000000
    3       -4.158969   1.023348
    4       -4.135211   1.033242
    5        3.219629   0.000000
    6        5.723820   0.000000
    7        6.822539   0.000000
    8        7.134490   0.000000
 
  0.3333333E+00  0.1111111E+00  0.8326673E-16  0.3292181E-01
    1      -16.202985   1.000000
    2       -5.040750   1.000000
    3       -4.221244   1.003734
    4       -4.210058   1.005616
    5        3.813247   0.000000
    6        5.731622   0.000000
    7        6.307051   0.000000
    8        7.012302   0.000000
 
  0.4444444E+00  0.1111111E+00  0.2775558E-16  0.3292181E-01
    1      -16.153105   1.000000
    2       -5.361088   1.000000
    3       -4.294050   1.000127
    4       -4.248163   1.001233
    5        3.986582   0.000000
    6        5.813798   0.000000
    7        6.573910   0.000000
    8        6.737590   0.000000
 
 -0.4444444E+00  0.1111111E+00 -0.8326673E-16  0.3292181E-01
    1      -16.138733   1.000000
    2       -5.445903   1.000000
    3       -4.347452   1.000005
    4       -4.228662   1.002800
    5        4.008964   0.000000
    6        5.783437   0.000000
    7        6.602976   0.000000
    8        6.915625   0.000000
 
 -0.3333333E+00  0.1111111E+00 -0.4163336E-16  0.3292181E-01
    1      -16.167263   1.000000
    2       -5.271376   1.000000
    3       -4.344446   1.000006
    4       -4.171074   1.017901
    5        4.002465   0.000000
    6        5.978338   0.000000
    7        6.363095   0.000000
    8        6.698933   0.000000
 
 -0.2222222E+00  0.1111111E+00 -0.4163336E-16  0.3292181E-01
    1      -16.224148   1.000000
    2       -4.898157   1.000000
    3       -4.279247   1.000278
    4       -4.100474   1.026031
    5        3.680318   0.000000
    6        5.774379   0.000000
    7        6.494393   0.000000
    8        7.008271   0.000000
 
 -0.1111111E+00  0.1111111E+00 -0.3794861E-16  0.1646091E-01
    1      -16.281773   1.000000
    2       -4.482779   1.000000
    3       -4.161687   1.022094
    4       -4.049938   0.872061
    5        2.982797   0.000000
    6        5.964542   0.000000
    7        6.855902   0.000000
    8        7.000187   0.000000
 
  0.2222222E+00  0.2222222E+00  0.2775558E-16  0.8230453E-02
    1      -16.234620   1.000000
    2       -4.689390   1.000000
    3       -4.248539   1.001213
    4       -4.248539   1.001213
    5        3.551716   0.000000
    6        5.274194   0.000000
    7        6.620430   0.000000
    8        7.608794   0.000000
 
  0.3333333E+00  0.2222222E+00  0.0000000E+00  0.3292181E-01
    1      -16.185150   1.000000
    2       -4.978433   1.000000
    3       -4.350305   1.000004
    4       -4.325001   1.000021
    5        3.973640   0.000000
    6        5.059092   0.000000
    7        6.230542   0.000000
    8        7.792928   0.000000
 
  0.4444444E+00  0.2222222E+00  0.0000000E+00  0.3292181E-01
    1      -16.137934   1.000000
    2       -5.222512   1.000000
    3       -4.501900   1.000000
    4       -4.355058   1.000003
    5        4.234971   0.000000
    6        5.225754   0.000000
    7        6.133415   0.000000
    8        7.536793   0.000000
 
 -0.4444444E+00  0.2222222E+00 -0.6938894E-16  0.3292181E-01
    1      -16.115801   1.000000
    2       -5.307478   1.000000
    3       -4.646445   1.000000
    4       -4.326541   1.000019
    5        4.439735   0.000000
    6        5.260805   0.000000
    7        6.534167   0.000000
    8        7.267014   0.000000
 
 -0.3333333E+00  0.2222222E+00 -0.6245005E-16  0.3292181E-01
    1      -16.129867   1.000000
    2       -5.225497   1.000000
    3       -4.690187   1.000000
    4       -4.251232   1.001075
    5        4.697206   0.000000
    6        5.317535   0.000000
    7        6.208776   0.000000
    8        7.160050   0.000000
 
 -0.2222222E+00  0.2222222E+00 -0.3883153E-16  0.1646091E-01
    1      -16.173003   1.000000
    2       -5.066578   1.000000
    3       -4.548883   1.000000
    4       -4.161715   1.022081
    5        4.444354   0.000000
    6        5.680150   0.000000
    7        5.770645   0.000000
    8        7.201538   0.000000
 
  0.3333333E+00  0.3333333E+00  0.2775558E-16  0.8230453E-02
    1      -16.150376   1.000000
    2       -5.110756   1.000000
    3       -4.419501   1.000000
    4       -4.419501   1.000000
    5        3.820049   0.000000
    6        4.637720   0.000000
    7        6.784246   0.000000
    8        8.671397   0.000000
 
  0.4444444E+00  0.3333333E+00  0.0000000E+00  0.3292181E-01
    1      -16.114659   1.000000
    2       -5.245359   1.000000
    3       -4.552087   1.000000
    4       -4.463641   1.000000
    5        3.813132   0.000000
    6        4.607413   0.000000
    7        7.011758   0.000000
    8        8.721797   0.000000
 
 -0.4444444E+00  0.3333333E+00 -0.6245005E-16  0.3292181E-01
    1      -16.095074   1.000000
    2       -5.228544   1.000000
    3       -4.792543   1.000000
    4       -4.439775   1.000000
    5        4.026403   0.000000
    6        4.999978   0.000000
    7        6.903706   0.000000
    8        8.291705   0.000000
 
 -0.3333333E+00  0.3333333E+00 -0.8030763E-16  0.1646091E-01
    1      -16.101183   1.000000
    2       -5.053156   1.000000
    3       -5.023045   1.000000
    4       -4.357406   1.000003
    5        4.432657   0.000000
    6        5.416714   0.000000
    7        6.446923   0.000000
    8        7.770495   0.000000
 
  0.4444444E+00  0.4444444E+00  0.5551115E-16  0.8230453E-02
    1      -16.094208   1.000000
    2       -5.349653   1.000000
    3       -4.525806   1.000000
    4       -4.525806   1.000000
    5        3.497701   0.000000
    6        4.308486   0.000000
    7        7.928958   0.000000
    8       10.021850   0.000000
 
 -0.4444444E+00  0.4444444E+00 -0.7766305E-16  0.1646091E-01
    1      -16.086437   1.000000
    2       -5.337611   1.000000
    3       -4.633132   1.000000
    4       -4.516666   1.000000
    5        3.606207   0.000000
    6        4.452758   0.000000
    7        7.814887   0.000000
    8        9.436157   0.000000
 
  0.3333333E+00  0.2222222E+00  0.1111111E+00  0.3292181E-01
    1      -16.217193   1.000000
    2       -4.850059   1.000000
    3       -4.337290   1.000010
    4       -4.169069   1.018770
    5        3.817319   0.000000
    6        5.436904   0.000000
    7        6.271411   0.000000
    8        7.622561   0.000000
 
  0.4444444E+00  0.2222222E+00  0.1111111E+00  0.6584362E-01
    1      -16.163121   1.000000
    2       -5.138222   1.000000
    3       -4.483527   1.000000
    4       -4.237590   1.001945
    5        4.350651   0.000000
    6        5.506547   0.000000
    7        5.825687   0.000000
    8        7.323164   0.000000
 
 -0.4444444E+00  0.2222222E+00  0.1111111E+00  0.6584362E-01
    1      -16.127102   1.000000
    2       -5.324659   1.000000
    3       -4.550555   1.000000
    4       -4.298289   1.000100
    5        4.486300   0.000000
    6        5.271434   0.000000
    7        6.451609   0.000000
    8        7.095758   0.000000
 
  0.4444444E+00  0.3333333E+00  0.1111111E+00  0.3292181E-01
    1      -16.142444   1.000000
    2       -5.137392   1.000000
    3       -4.524133   1.000000
    4       -4.380616   1.000000
    5        4.169247   0.000000
    6        4.934579   0.000000
    7        6.169249   0.000000
    8        8.282300   0.000000
 
 -0.4444444E+00  0.3333333E+00  0.1111111E+00  0.6584362E-01
    1      -16.109021   1.000000
    2       -5.209266   1.000000
    3       -4.708073   1.000000
    4       -4.435788   1.000000
    5        4.371441   0.000000
    6        5.173399   0.000000
    7        6.133485   0.000000
    8        7.944713   0.000000
 
 -0.3333333E+00  0.3333333E+00  0.1111111E+00  0.6584362E-01
    1      -16.101182   1.000000
    2       -5.168201   1.000000
    3       -4.856867   1.000000
    4       -4.411960   1.000000
    5        4.645955   0.000000
    6        5.271901   0.000000
    7        6.251301   0.000000
    8        7.502995   0.000000
 
 -0.2222222E+00  0.3333333E+00  0.1111111E+00  0.3292181E-01
    1      -16.122761   1.000000
    2       -5.149244   1.000000
    3       -4.770154   1.000000
    4       -4.324827   1.000021
    5        4.993082   0.000000
    6        5.184889   0.000000
    7        5.678350   0.000000
    8        7.609353   0.000000
 
 -0.4444444E+00  0.4444444E+00  0.1111111E+00  0.3292181E-01
    1      -16.092873   1.000000
    2       -5.278951   1.000000
    3       -4.639682   1.000000
    4       -4.540711   1.000000
    5        3.842098   0.000000
    6        4.657030   0.000000
    7        7.192258   0.000000
    8        8.694657   0.000000
 
 -0.3333333E+00  0.4444444E+00  0.1111111E+00  0.3292181E-01
    1      -16.087566   1.000000
    2       -5.175601   1.000000
    3       -4.848716   1.000000
    4       -4.519332   1.000000
    5        4.162333   0.000000
    6        5.107407   0.000000
    7        6.815565   0.000000
    8        7.768429   0.000000
 
 -0.3333333E+00  0.4444444E+00  0.2222222E+00  0.3292181E-01
    1      -16.089996   1.000000
    2       -5.090775   1.000000
    3       -4.905267   1.000000
    4       -4.549129   1.000000
    5        4.521923   0.000000
    6        5.589675   0.000000
    7        5.955833   0.000000
    8        7.359811   0.000000
