<?xml version="1.0" encoding="ISO-8859-1"?>
<modeling>
 <generator>
  <i name="program" type="string">vasp </i>
  <i name="version" type="string">5.4.4.18Apr17-6-g9f103f2a35  </i>
  <i name="subversion" type="string">(build Nov 03 2018 10:20:43) complex            parallel </i>
  <i name="platform" type="string">LinuxIFC </i>
  <i name="date" type="string">2018 11 14 </i>
  <i name="time" type="string">12:37:25 </i>
 </generator>
 <incar>
  <i type="string" name="SYSTEM">   Cn_FCC</i>
  <i type="string" name="PREC">accurate</i>
  <i type="string" name="ALGO">   Fast</i>
  <i type="logical" name="ADDGRID"> T  </i>
  <i type="logical" name="LSORBIT"> F  </i>
  <i type="int" name="ISPIN">     1</i>
  <i type="int" name="MAXMIX">    50</i>
  <i type="int" name="NELM">   100</i>
  <i type="int" name="NELMDL">    -5</i>
  <i type="int" name="NELMIN">     5</i>
  <i type="int" name="IBRION">     1</i>
  <i type="int" name="NFREE">     5</i>
  <i name="EDIFF">      0.00000010</i>
  <i name="EDIFFG">      0.00001000</i>
  <i type="int" name="NSW">   999</i>
  <i type="int" name="ISIF">     7</i>
  <i type="int" name="ISYM">     2</i>
  <i name="SYMPREC">      0.00000010</i>
  <i name="ENCUT">    600.00000000</i>
  <i name="POTIM">      0.10000000</i>
  <i type="logical" name="LREAL"> F  </i>
  <i type="int" name="ISMEAR">     1</i>
  <i name="SIGMA">      0.10000000</i>
  <i name="KSPACING">      0.20000000</i>
  <i type="int" name="NWRITE">     2</i>
  <i type="logical" name="LWAVE"> F  </i>
  <i type="logical" name="LCHARG"> F  </i>
  <i type="logical" name="LVTOT"> F  </i>
  <i type="logical" name="GGA_COMPAT"> F  </i>
  <v type="int" name="KPOINT_BSE">    -1     0     0     0</v>
  <i type="int" name="NELM">   100</i>
  <i type="string" name="GGA"> PE</i>
 </incar>
 <structure name="primitive_cell" >
  <crystal>
   <varray name="basis" >
    <v>       4.43220013       0.00000000       0.00000000 </v>
    <v>       2.21610006       3.83839790      -0.00000000 </v>
    <v>       2.21610006       1.27946597       3.61887625 </v>
   </varray>
   <i name="volume">     61.56630471 </i>
   <varray name="rec_basis" >
    <v>       0.22562158      -0.13026268      -0.09210962 </v>
    <v>       0.00000000       0.26052536      -0.09210962 </v>
    <v>      -0.00000000       0.00000000       0.27632887 </v>
   </varray>
  </crystal>
  <varray name="positions" >
   <v>       0.00000000       0.00000000       0.00000000 </v>
  </varray>
 </structure>
 <varray name="primitive_index" >
  <v type="int" >        1 </v>
 </varray>
 <kpoints>
  <generation param="Gamma">
   <v type="int" name="divisions">       9        9        9 </v>
   <v name="usershift">      0.00000000       0.00000000       0.00000000 </v>
   <v name="genvec1">      0.11111111       0.00000000       0.00000000 </v>
   <v name="genvec2">     -0.00000000       0.11111111       0.00000000 </v>
   <v name="genvec3">     -0.00000000      -0.00000000       0.11111111 </v>
   <v name="shift">      0.00000000       0.00000000       0.00000000 </v>
  </generation>
  <varray name="kpointlist" >
   <v>       0.00000000       0.00000000       0.00000000 </v>
   <v>       0.11111111       0.00000000       0.00000000 </v>
   <v>       0.22222222      -0.00000000       0.00000000 </v>
   <v>       0.33333333       0.00000000       0.00000000 </v>
   <v>       0.44444444      -0.00000000       0.00000000 </v>
   <v>       0.11111111       0.11111111       0.00000000 </v>
   <v>       0.22222222       0.11111111       0.00000000 </v>
   <v>       0.33333333       0.11111111       0.00000000 </v>
   <v>       0.44444444       0.11111111       0.00000000 </v>
   <v>      -0.44444444       0.11111111      -0.00000000 </v>
   <v>      -0.33333333       0.11111111      -0.00000000 </v>
   <v>      -0.22222222       0.11111111      -0.00000000 </v>
   <v>      -0.11111111       0.11111111      -0.00000000 </v>
   <v>       0.22222222       0.22222222       0.00000000 </v>
   <v>       0.33333333       0.22222222       0.00000000 </v>
   <v>       0.44444444       0.22222222       0.00000000 </v>
   <v>      -0.44444444       0.22222222      -0.00000000 </v>
   <v>      -0.33333333       0.22222222      -0.00000000 </v>
   <v>      -0.22222222       0.22222222      -0.00000000 </v>
   <v>       0.33333333       0.33333333       0.00000000 </v>
   <v>       0.44444444       0.33333333       0.00000000 </v>
   <v>      -0.44444444       0.33333333      -0.00000000 </v>
   <v>      -0.33333333       0.33333333      -0.00000000 </v>
   <v>       0.44444444       0.44444444       0.00000000 </v>
   <v>      -0.44444444       0.44444444      -0.00000000 </v>
   <v>       0.33333333       0.22222222       0.11111111 </v>
   <v>       0.44444444       0.22222222       0.11111111 </v>
   <v>      -0.44444444       0.22222222       0.11111111 </v>
   <v>       0.44444444       0.33333333       0.11111111 </v>
   <v>      -0.44444444       0.33333333       0.11111111 </v>
   <v>      -0.33333333       0.33333333       0.11111111 </v>
   <v>      -0.22222222       0.33333333       0.11111111 </v>
   <v>      -0.44444444       0.44444444       0.11111111 </v>
   <v>      -0.33333333       0.44444444       0.11111111 </v>
   <v>      -0.33333333       0.44444444       0.22222222 </v>
  </varray>
  <varray name="weights" >
   <v>       0.00137174 </v>
   <v>       0.01097394 </v>
   <v>       0.01097394 </v>
   <v>       0.01097394 </v>
   <v>       0.01097394 </v>
   <v>       0.00823045 </v>
   <v>       0.03292181 </v>
   <v>       0.03292181 </v>
   <v>       0.03292181 </v>
   <v>       0.03292181 </v>
   <v>       0.03292181 </v>
   <v>       0.03292181 </v>
   <v>       0.01646091 </v>
   <v>       0.00823045 </v>
   <v>       0.03292181 </v>
   <v>       0.03292181 </v>
   <v>       0.03292181 </v>
   <v>       0.03292181 </v>
   <v>       0.01646091 </v>
   <v>       0.00823045 </v>
   <v>       0.03292181 </v>
   <v>       0.03292181 </v>
   <v>       0.01646091 </v>
   <v>       0.00823045 </v>
   <v>       0.01646091 </v>
   <v>       0.03292181 </v>
   <v>       0.06584362 </v>
   <v>       0.06584362 </v>
   <v>       0.03292181 </v>
   <v>       0.06584362 </v>
   <v>       0.06584362 </v>
   <v>       0.03292181 </v>
   <v>       0.03292181 </v>
   <v>       0.03292181 </v>
   <v>       0.03292181 </v>
  </varray>
 </kpoints>
 <parameters>
  <separator name="general" >
   <i type="string" name="SYSTEM">Cn_FCC</i>
   <i type="logical" name="LCOMPAT"> F  </i>
  </separator>
  <separator name="electronic" >
   <i type="string" name="PREC">accura</i>
   <i name="ENMAX">    600.00000000</i>
   <i name="ENAUG">    605.90000000</i>
   <i name="EDIFF">      0.00000010</i>
   <i type="int" name="IALGO">    68</i>
   <i type="int" name="IWAVPR">    11</i>
   <i type="int" name="NBANDS">     8</i>
   <i name="NELECT">      8.00000000</i>
   <i type="int" name="TURBO">     0</i>
   <i type="int" name="IRESTART">     0</i>
   <i type="int" name="NREBOOT">     0</i>
   <i type="int" name="NMIN">     0</i>
   <i name="EREF">      0.00000000</i>
   <separator name="electronic smearing" >
    <i type="int" name="ISMEAR">     1</i>
    <i name="SIGMA">      0.10000000</i>
    <i name="KSPACING">      0.20000000</i>
    <i type="logical" name="KGAMMA"> T  </i>
   </separator>
   <separator name="electronic projectors" >
    <i type="logical" name="LREAL"> F  </i>
    <v name="ROPT">      0.00000000</v>
    <i type="int" name="LMAXPAW">  -100</i>
    <i type="int" name="LMAXMIX">     2</i>
    <i type="logical" name="NLSPLINE"> F  </i>
   </separator>
   <separator name="electronic startup" >
    <i type="int" name="ISTART">     0</i>
    <i type="int" name="ICHARG">     2</i>
    <i type="int" name="INIWAV">     1</i>
   </separator>
   <separator name="electronic spin" >
    <i type="int" name="ISPIN">     1</i>
    <i type="logical" name="LNONCOLLINEAR"> F  </i>
    <v name="MAGMOM">      1.00000000</v>
    <i name="NUPDOWN">     -1.00000000</i>
    <i type="logical" name="LSORBIT"> F  </i>
    <v name="SAXIS">      0.00000000      0.00000000      1.00000000</v>
    <i type="logical" name="LSPIRAL"> F  </i>
    <v name="QSPIRAL">      0.00000000      0.00000000      0.00000000</v>
    <i type="logical" name="LZEROZ"> F  </i>
   </separator>
   <separator name="electronic exchange-correlation" >
    <i type="logical" name="LASPH"> F  </i>
    <i type="logical" name="LMETAGGA"> F  </i>
   </separator>
   <separator name="electronic convergence" >
    <i type="int" name="NELM">   100</i>
    <i type="int" name="NELMDL">    -5</i>
    <i type="int" name="NELMIN">     5</i>
    <i name="ENINI">    600.00000000</i>
    <separator name="electronic convergence detail" >
     <i type="logical" name="LDIAG"> T  </i>
     <i type="logical" name="LSUBROT"> F  </i>
     <i name="WEIMIN">      0.00100000</i>
     <i name="EBREAK">      0.00000000</i>
     <i name="DEPER">      0.30000000</i>
     <i type="int" name="NRMM">     4</i>
     <i name="TIME">      0.40000000</i>
    </separator>
   </separator>
   <separator name="electronic mixer" >
    <i name="AMIX">      0.40000000</i>
    <i name="BMIX">      1.00000000</i>
    <i name="AMIN">      0.10000000</i>
    <i name="AMIX_MAG">      1.60000000</i>
    <i name="BMIX_MAG">      1.00000000</i>
    <separator name="electronic mixer details" >
     <i type="int" name="IMIX">     4</i>
     <i type="logical" name="MIXFIRST"> F  </i>
     <i type="int" name="MAXMIX">    50</i>
     <i name="WC">    100.00000000</i>
     <i type="int" name="INIMIX">     1</i>
     <i type="int" name="MIXPRE">     1</i>
     <i type="int" name="MREMOVE">     5</i>
    </separator>
   </separator>
   <separator name="electronic dipolcorrection" >
    <i type="logical" name="LDIPOL"> F  </i>
    <i type="logical" name="LMONO"> F  </i>
    <i type="int" name="IDIPOL">     0</i>
    <i name="EPSILON">      1.00000000</i>
    <v name="DIPOL">   -100.00000000   -100.00000000   -100.00000000</v>
    <i name="EFIELD">      0.00000000</i>
   </separator>
  </separator>
  <separator name="grids" >
   <i type="int" name="NGX">    36</i>
   <i type="int" name="NGY">    36</i>
   <i type="int" name="NGZ">    36</i>
   <i type="int" name="NGXF">    72</i>
   <i type="int" name="NGYF">    72</i>
   <i type="int" name="NGZF">    72</i>
   <i type="logical" name="ADDGRID"> T  </i>
  </separator>
  <separator name="ionic" >
   <i type="int" name="NSW">   999</i>
   <i type="int" name="IBRION">     1</i>
   <i type="int" name="MDALGO">     0</i>
   <i type="int" name="ISIF">     7</i>
   <i name="PSTRESS">      0.00000000</i>
   <i name="EDIFFG">      0.00001000</i>
   <i type="int" name="NFREE">     5</i>
   <i name="POTIM">      0.10000000</i>
   <i name="SMASS">     -3.00000000</i>
   <i name="SCALEE">      1.00000000</i>
  </separator>
  <separator name="ionic md" >
   <i name="TEBEG">      0.00010000</i>
   <i name="TEEND">      0.00010000</i>
   <i type="int" name="NBLOCK">     1</i>
   <i type="int" name="KBLOCK">   999</i>
   <i type="int" name="NPACO">   256</i>
   <i name="APACO">     16.00000000</i>
  </separator>
  <separator name="symmetry" >
   <i type="int" name="ISYM">     2</i>
   <i name="SYMPREC">      0.00000010</i>
  </separator>
  <separator name="dos" >
   <i type="int" name="LORBIT">     0</i>
   <v name="RWIGS">     -1.00000000</v>
   <i type="int" name="NEDOS">   301</i>
   <i name="EMIN">     10.00000000</i>
   <i name="EMAX">    -10.00000000</i>
   <i name="EFERMI">      0.00000000</i>
  </separator>
  <separator name="writing" >
   <i type="int" name="NWRITE">     2</i>
   <i type="logical" name="LWAVE"> F  </i>
   <i type="logical" name="LDOWNSAMPLE"> F  </i>
   <i type="logical" name="LCHARG"> F  </i>
   <i type="logical" name="LPARD"> F  </i>
   <i type="logical" name="LVTOT"> F  </i>
   <i type="logical" name="LVHAR"> F  </i>
   <i type="logical" name="LELF"> F  </i>
   <i type="logical" name="LOPTICS"> F  </i>
   <v name="STM">      0.00000000      0.00000000      0.00000000      0.00000000      0.00000000      0.00000000      0.00000000</v>
  </separator>
  <separator name="performance" >
   <i type="int" name="NPAR">     1</i>
   <i type="int" name="NSIM">     4</i>
   <i type="int" name="NBLK">    -1</i>
   <i type="logical" name="LPLANE"> T  </i>
   <i type="logical" name="LSCALAPACK"> T  </i>
   <i type="logical" name="LSCAAWARE"> F  </i>
   <i type="logical" name="LSCALU"> F  </i>
   <i type="logical" name="LASYNC"> F  </i>
   <i type="logical" name="LORBITALREAL"> F  </i>
  </separator>
  <separator name="miscellaneous" >
   <i type="int" name="IDIOT">     3</i>
   <i type="int" name="ISPECIAL">     0</i>
   <i type="logical" name="LMUSIC"> F  </i>
   <v name="POMASS">    131.29400000</v>
   <v name="DARWINR">      0.00000000</v>
   <v name="DARWINV">      1.00000000</v>
   <i type="logical" name="LCORR"> T  </i>
  </separator>
  <i type="logical" name="GGA_COMPAT"> F  </i>
  <i type="logical" name="LBERRY"> F  </i>
  <i type="int" name="ICORELEVEL">     0</i>
  <i type="logical" name="LDAU"> F  </i>
  <i type="int" name="I_CONSTRAINED_M">     0</i>
  <separator name="electronic exchange-correlation" >
   <i type="string" name="GGA">PE</i>
   <i type="int" name="VOSKOWN">     0</i>
   <i type="logical" name="LHFCALC"> F  </i>
   <i type="string" name="PRECFOCK"></i>
   <i type="logical" name="LSYMGRAD"> F  </i>
   <i type="logical" name="LHFONE"> F  </i>
   <i type="logical" name="LRHFCALC"> F  </i>
   <i type="logical" name="LTHOMAS"> F  </i>
   <i type="logical" name="LMODELHF"> F  </i>
   <i name="ENCUT4O">     -1.00000000</i>
   <i type="int" name="EXXOEP">     0</i>
   <i type="int" name="FOURORBIT">     0</i>
   <i name="AEXX">      0.00000000</i>
   <i name="HFALPHA">      0.00000000</i>
   <i name="MCALPHA">      0.00000000</i>
   <i name="ALDAX">      1.00000000</i>
   <i name="AGGAX">      1.00000000</i>
   <i name="ALDAC">      1.00000000</i>
   <i name="AGGAC">      1.00000000</i>
   <i type="int" name="NKREDX">     1</i>
   <i type="int" name="NKREDY">     1</i>
   <i type="int" name="NKREDZ">     1</i>
   <i type="logical" name="SHIFTRED"> F  </i>
   <i type="logical" name="ODDONLY"> F  </i>
   <i type="logical" name="EVENONLY"> F  </i>
   <i type="int" name="LMAXFOCK">     0</i>
   <i type="int" name="NMAXFOCKAE">     0</i>
   <i type="logical" name="LFOCKAEDFT"> F  </i>
   <i name="HFSCREEN">      0.00000000</i>
   <i name="HFSCREENC">      0.00000000</i>
   <i type="int" name="NBANDSGWLOW">     0</i>
  </separator>
  <separator name="vdW DFT" >
   <i type="logical" name="LUSE_VDW"> F  </i>
   <i name="Zab_VDW">     -0.84910000</i>
   <i name="PARAM1">      0.12340000</i>
   <i name="PARAM2">      1.00000000</i>
   <i name="PARAM3">      0.00000000</i>
  </separator>
  <separator name="model GW" >
   <i type="int" name="MODEL_GW">     0</i>
   <i name="MODEL_EPS0">     36.93978283</i>
   <i name="MODEL_ALPHA">      1.00000000</i>
  </separator>
  <separator name="linear response parameters" >
   <i type="logical" name="LEPSILON"> F  </i>
   <i type="logical" name="LRPA"> F  </i>
   <i type="logical" name="LNABLA"> F  </i>
   <i type="logical" name="LVEL"> F  </i>
   <i type="int" name="KINTER">     0</i>
   <i name="CSHIFT">      0.10000000</i>
   <i name="OMEGAMAX">     -1.00000000</i>
   <i name="DEG_THRESHOLD">      0.00200000</i>
   <i name="RTIME">     -0.10000000</i>
   <i name="WPLASMAI">      0.00000000</i>
   <v name="DFIELD">      0.00000000      0.00000000      0.00000000</v>
   <v name="WPLASMA">      0.00000000      0.00000000      0.00000000      0.00000000      0.00000000      0.00000000      0.00000000      0.00000000      0.00000000</v>
  </separator>
  <separator name="orbital magnetization" >
   <i type="logical" name="NUCIND"> F  </i>
   <v name="MAGPOS">      0.00000000      0.00000000      0.00000000</v>
   <i type="logical" name="LNICSALL"> T  </i>
   <i type="logical" name="ORBITALMAG"> F  </i>
   <i type="logical" name="LMAGBLOCH"> F  </i>
   <i type="logical" name="LCHIMAG"> F  </i>
   <i type="logical" name="LGAUGE"> T  </i>
   <i type="int" name="MAGATOM">     0</i>
   <v name="MAGDIPOL">      0.00000000      0.00000000      0.00000000</v>
   <v name="AVECCONST">      0.00000000      0.00000000      0.00000000</v>
  </separator>
  <separator name="response functions" >
   <i type="logical" name="LADDER"> F  </i>
   <i type="logical" name="LRPAFORCE"> F  </i>
   <i type="logical" name="LFXC"> F  </i>
   <i type="logical" name="LHARTREE"> T  </i>
   <i type="int" name="IBSE">     0</i>
   <v type="int" name="KPOINT">    -1     0     0     0</v>
   <i type="logical" name="LTCTE"> F  </i>
   <i type="logical" name="LTETE"> F  </i>
   <i type="logical" name="LTRIPLET"> F  </i>
   <i type="logical" name="LFXCEPS"> F  </i>
   <i type="logical" name="LFXHEG"> F  </i>
   <i type="int" name="NATURALO">     2</i>
   <i type="logical" name="L2ORDER"> F  </i>
   <i type="logical" name="LMP2LT"> F  </i>
   <i type="logical" name="LUSEW"> F  </i>
   <i name="ENCUTGW">     -2.00000000</i>
   <i name="ENCUTGWSOFT">     -2.00000000</i>
   <i name="ENCUTLF">     -1.00000000</i>
   <i type="int" name="LMAXMP2">    -1</i>
   <i name="SCISSOR">      0.00000000</i>
   <i type="int" name="NOMEGA">     0</i>
   <i type="int" name="NOMEGAR">     0</i>
   <i type="int" name="NBANDSGW">    -1</i>
   <i type="int" name="NBANDSO">    -1</i>
   <i type="int" name="NBANDSV">    -1</i>
   <i type="int" name="NELM">   100</i>
   <i type="int" name="NELMHF">     1</i>
   <i type="int" name="DIM">     3</i>
   <i type="int" name="ANTIRES">     0</i>
   <i name="OMEGAMAX">    -30.00000000</i>
   <i name="OMEGAMIN">    -30.00000000</i>
   <i name="OMEGATL">   -200.00000000</i>
   <i type="int" name="OMEGAGRID">   140</i>
   <i name="CSHIFT">     -0.10000000</i>
   <i type="logical" name="SELFENERGY"> F  </i>
   <i type="logical" name="LSPECTRAL"> F  </i>
   <i type="logical" name="LSPECTRALGW"> F  </i>
   <i type="logical" name="LSINGLES"> F  </i>
   <i type="logical" name="LFERMIGW"> F  </i>
   <i type="logical" name="ODDONLYGW"> F  </i>
   <i type="logical" name="EVENONLYGW"> F  </i>
   <i type="int" name="NKREDLFX">     1</i>
   <i type="int" name="NKREDLFY">     1</i>
   <i type="int" name="NKREDLFZ">     1</i>
   <i type="int" name="MAXMEM">  2800</i>
   <i type="int" name="TELESCOPE">     0</i>
   <i type="int" name="TAUPAR">     1</i>
   <i type="int" name="OMEGAPAR">    -1</i>
   <i name="LAMBDA">      1.00000000</i>
  </separator>
  <separator name="External order field" >
   <i name="OFIELD_KAPPA">      0.00000000</i>
   <v name="OFIELD_K">      0.00000000      0.00000000      0.00000000</v>
   <i name="OFIELD_Q6_NEAR">      0.00000000</i>
   <i name="OFIELD_Q6_FAR">      0.00000000</i>
   <i name="OFIELD_A">      0.00000000</i>
  </separator>
 </parameters>
 <atominfo>
  <atoms>       1 </atoms>
  <types>       1 </types>
  <array name="atoms" >
   <dimension dim="1">ion</dimension>
   <field type="string">element</field>
   <field type="int">atomtype</field>
   <set>
    <rc><c>Xe</c><c>   1</c></rc>
   </set>
  </array>
  <array name="atomtypes" >
   <dimension dim="1">type</dimension>
   <field type="int">atomspertype</field>
   <field type="string">element</field>
   <field>mass</field>
   <field>valence</field>
   <field type="string">pseudopotential</field>
   <set>
    <rc><c>   1</c><c>Xe</c><c>    131.29400000</c><c>      8.00000000</c><c>  PAW_PBE Xe_GW 08Jan2009               </c></rc>
   </set>
  </array>
 </atominfo>
 <structure name="initialpos" >
  <crystal>
   <varray name="basis" >
    <v>       4.43220013       0.00000000       0.00000000 </v>
    <v>       2.21610006       3.83839790      -0.00000000 </v>
    <v>       2.21610006       1.27946597       3.61887625 </v>
   </varray>
   <i name="volume">     61.56630471 </i>
   <varray name="rec_basis" >
    <v>       0.22562158      -0.13026268      -0.09210962 </v>
    <v>       0.00000000       0.26052536      -0.09210962 </v>
    <v>      -0.00000000       0.00000000       0.27632887 </v>
   </varray>
  </crystal>
  <varray name="positions" >
   <v>       0.00000000       0.00000000       0.00000000 </v>
  </varray>
 </structure>
 <calculation>
  <scstep>
   <time name="dav">    0.18    0.20</time>
   <time name="total">    0.32    0.34</time>
   <energy>
    <i name="alphaZ">     21.17661221 </i>
    <i name="ewald">   -337.05282163 </i>
    <i name="hartreedc">    -68.63715467 </i>
    <i name="XCdc">    -72.82322285 </i>
    <i name="pawpsdc">    428.77605987 </i>
    <i name="pawaedc">   -340.65282128 </i>
    <i name="eentropy">      0.00150213 </i>
    <i name="bandstr">    -22.06111111 </i>
    <i name="atom">    429.51431920 </i>
    <i name="e_fr_energy">     38.24136186 </i>
    <i name="e_wo_entrp">     38.23985973 </i>
    <i name="e_0_energy">     38.24086115 </i>
   </energy>
  </scstep>
  <scstep>
   <time name="dav">    0.23    0.24</time>
   <time name="total">    0.23    0.24</time>
   <energy>
    <i name="e_fr_energy">      2.14868206 </i>
    <i name="e_wo_entrp">      2.14787967 </i>
    <i name="e_0_energy">      2.14841460 </i>
   </energy>
  </scstep>
  <scstep>
   <time name="dav">    0.21    0.24</time>
   <time name="total">    0.21    0.24</time>
   <energy>
    <i name="e_fr_energy">      0.00570654 </i>
    <i name="e_wo_entrp">      0.00344027 </i>
    <i name="e_0_energy">      0.00495112 </i>
   </energy>
  </scstep>
  <scstep>
   <time name="dav">    0.26    0.29</time>
   <time name="total">    0.27    0.30</time>
   <energy>
    <i name="e_fr_energy">     -0.00513534 </i>
    <i name="e_wo_entrp">     -0.00737536 </i>
    <i name="e_0_energy">     -0.00588201 </i>
   </energy>
  </scstep>
  <scstep>
   <time name="dav">    0.24    0.26</time>
   <time name="total">    0.34    0.37</time>
   <energy>
    <i name="e_fr_energy">     -0.00515298 </i>
    <i name="e_wo_entrp">     -0.00739294 </i>
    <i name="e_0_energy">     -0.00589963 </i>
   </energy>
  </scstep>
  <scstep>
   <time name="diag">    0.05    0.05</time>
   <time name="diis">    0.18    0.18</time>
   <time name="orth">    0.00    0.00</time>
   <time name="total">    0.45    0.45</time>
   <energy>
    <i name="e_fr_energy">     -0.00517354 </i>
    <i name="e_wo_entrp">     -0.00740898 </i>
    <i name="e_0_energy">     -0.00591869 </i>
   </energy>
  </scstep>
  <scstep>
   <time name="diag">    0.05    0.05</time>
   <time name="diis">    0.18    0.18</time>
   <time name="orth">    0.00    0.00</time>
   <time name="total">    0.45    0.46</time>
   <energy>
    <i name="e_fr_energy">     -0.00519098 </i>
    <i name="e_wo_entrp">     -0.00742215 </i>
    <i name="e_0_energy">     -0.00593471 </i>
   </energy>
  </scstep>
  <scstep>
   <time name="diag">    0.05    0.05</time>
   <time name="diis">    0.18    0.18</time>
   <time name="orth">    0.00    0.00</time>
   <time name="total">    0.45    0.45</time>
   <energy>
    <i name="e_fr_energy">     -0.00519443 </i>
    <i name="e_wo_entrp">     -0.00742522 </i>
    <i name="e_0_energy">     -0.00593802 </i>
   </energy>
  </scstep>
  <scstep>
   <time name="diag">    0.05    0.05</time>
   <time name="diis">    0.14    0.14</time>
   <time name="orth">    0.00    0.00</time>
   <time name="total">    0.41    0.43</time>
   <energy>
    <i name="e_fr_energy">     -0.00519459 </i>
    <i name="e_wo_entrp">     -0.00742526 </i>
    <i name="e_0_energy">     -0.00593815 </i>
   </energy>
  </scstep>
  <scstep>
   <time name="diag">    0.05    0.05</time>
   <time name="diis">    0.14    0.15</time>
   <time name="orth">    0.00    0.00</time>
   <time name="total">    0.31    0.34</time>
   <energy>
    <i name="alphaZ">     21.17661221 </i>
    <i name="ewald">   -337.05282163 </i>
    <i name="hartreedc">    -68.70351000 </i>
    <i name="XCdc">    -72.82228554 </i>
    <i name="pawpsdc">    428.61030643 </i>
    <i name="pawaedc">   -340.49249516 </i>
    <i name="eentropy">      0.00223069 </i>
    <i name="bandstr">    -60.23755083 </i>
    <i name="atom">    429.51431920 </i>
    <i name="e_fr_energy">     -0.00519462 </i>
    <i name="e_wo_entrp">     -0.00742532 </i>
    <i name="e_0_energy">     -0.00593819 </i>
   </energy>
  </scstep>
  <structure>
   <crystal>
    <varray name="basis" >
     <v>       4.43220013       0.00000000       0.00000000 </v>
     <v>       2.21610006       3.83839790      -0.00000000 </v>
     <v>       2.21610006       1.27946597       3.61887625 </v>
    </varray>
    <i name="volume">     61.56630471 </i>
    <varray name="rec_basis" >
     <v>       0.22562158      -0.13026268      -0.09210962 </v>
     <v>       0.00000000       0.26052536      -0.09210962 </v>
     <v>      -0.00000000       0.00000000       0.27632887 </v>
    </varray>
   </crystal>
   <varray name="positions" >
    <v>       0.00000000       0.00000000       0.00000000 </v>
   </varray>
  </structure>
  <varray name="forces" >
   <v>      -0.00000000      -0.00000000       0.00000000 </v>
  </varray>
  <varray name="stress" >
   <v>       0.11380600       0.00000000       0.00000000 </v>
   <v>       0.00000000       0.11380600      -0.00000000 </v>
   <v>       0.00000000       0.00000000       0.11380600 </v>
  </varray>
  <energy>
   <i name="e_fr_energy">     -0.17499514 </i>
   <i name="e_wo_entrp">     -0.17573871 </i>
   <i name="e_0_energy">      0.00223069 </i>
  </energy>
  <time name="totalsc">    5.84    6.21</time>
  <eigenvalues>
   <array>
    <dimension dim="1">band</dimension>
    <dimension dim="2">kpoint</dimension>
    <dimension dim="3">spin</dimension>
    <field>eigene</field>
    <field>occ</field>
    <set>
     <set comment="spin 1">
      <set comment="kpoint 1">
       <r>  -16.3352    1.0000 </r>
       <r>   -4.0234    0.6950 </r>
       <r>   -4.0234    0.6950 </r>
       <r>   -4.0234    0.6950 </r>
       <r>    2.1930    0.0000 </r>
       <r>    6.6828    0.0000 </r>
       <r>    6.6828    0.0000 </r>
       <r>    6.6828    0.0000 </r>
      </set>
      <set comment="kpoint 2">
       <r>  -16.3140    1.0000 </r>
       <r>   -4.2384    1.0019 </r>
       <r>   -4.0452    0.8450 </r>
       <r>   -4.0452    0.8450 </r>
       <r>    2.5168    0.0000 </r>
       <r>    6.3267    0.0000 </r>
       <r>    6.8036    0.0000 </r>
       <r>    6.8036    0.0000 </r>
      </set>
      <set comment="kpoint 3">
       <r>  -16.2596    1.0000 </r>
       <r>   -4.7187    1.0000 </r>
       <r>   -4.0993    1.0248 </r>
       <r>   -4.0993    1.0248 </r>
       <r>    3.2124    0.0000 </r>
       <r>    5.9440    0.0000 </r>
       <r>    6.8850    0.0000 </r>
       <r>    6.8850    0.0000 </r>
      </set>
      <set comment="kpoint 4">
       <r>  -16.1959    1.0000 </r>
       <r>   -5.1892    1.0000 </r>
       <r>   -4.1588    1.0234 </r>
       <r>   -4.1588    1.0234 </r>
       <r>    3.6574    0.0000 </r>
       <r>    6.2006    0.0000 </r>
       <r>    6.6279    0.0000 </r>
       <r>    6.6279    0.0000 </r>
      </set>
      <set comment="kpoint 5">
       <r>  -16.1534    1.0000 </r>
       <r>   -5.4666    1.0000 </r>
       <r>   -4.1966    1.0088 </r>
       <r>   -4.1966    1.0088 </r>
       <r>    3.7165    0.0000 </r>
       <r>    6.4144    0.0000 </r>
       <r>    6.4144    0.0000 </r>
       <r>    6.7640    0.0000 </r>
      </set>
      <set comment="kpoint 6">
       <r>  -16.3070    1.0000 </r>
       <r>   -4.2357    1.0021 </r>
       <r>   -4.0890    1.0104 </r>
       <r>   -4.0890    1.0104 </r>
       <r>    2.6267    0.0000 </r>
       <r>    6.1233    0.0000 </r>
       <r>    6.9226    0.0000 </r>
       <r>    6.9227    0.0000 </r>
      </set>
      <set comment="kpoint 7">
       <r>  -16.2637    1.0000 </r>
       <r>   -4.5936    1.0000 </r>
       <r>   -4.1590    1.0233 </r>
       <r>   -4.1352    1.0332 </r>
       <r>    3.2196    0.0000 </r>
       <r>    5.7238    0.0000 </r>
       <r>    6.8225    0.0000 </r>
       <r>    7.1345    0.0000 </r>
      </set>
      <set comment="kpoint 8">
       <r>  -16.2030    1.0000 </r>
       <r>   -5.0408    1.0000 </r>
       <r>   -4.2212    1.0037 </r>
       <r>   -4.2101    1.0056 </r>
       <r>    3.8132    0.0000 </r>
       <r>    5.7316    0.0000 </r>
       <r>    6.3071    0.0000 </r>
       <r>    7.0123    0.0000 </r>
      </set>
      <set comment="kpoint 9">
       <r>  -16.1531    1.0000 </r>
       <r>   -5.3611    1.0000 </r>
       <r>   -4.2940    1.0001 </r>
       <r>   -4.2482    1.0012 </r>
       <r>    3.9866    0.0000 </r>
       <r>    5.8138    0.0000 </r>
       <r>    6.5739    0.0000 </r>
       <r>    6.7376    0.0000 </r>
      </set>
      <set comment="kpoint 10">
       <r>  -16.1387    1.0000 </r>
       <r>   -5.4459    1.0000 </r>
       <r>   -4.3475    1.0000 </r>
       <r>   -4.2287    1.0028 </r>
       <r>    4.0090    0.0000 </r>
       <r>    5.7834    0.0000 </r>
       <r>    6.6030    0.0000 </r>
       <r>    6.9156    0.0000 </r>
      </set>
      <set comment="kpoint 11">
       <r>  -16.1673    1.0000 </r>
       <r>   -5.2714    1.0000 </r>
       <r>   -4.3444    1.0000 </r>
       <r>   -4.1711    1.0179 </r>
       <r>    4.0025    0.0000 </r>
       <r>    5.9783    0.0000 </r>
       <r>    6.3631    0.0000 </r>
       <r>    6.6989    0.0000 </r>
      </set>
      <set comment="kpoint 12">
       <r>  -16.2241    1.0000 </r>
       <r>   -4.8982    1.0000 </r>
       <r>   -4.2792    1.0003 </r>
       <r>   -4.1005    1.0260 </r>
       <r>    3.6803    0.0000 </r>
       <r>    5.7744    0.0000 </r>
       <r>    6.4944    0.0000 </r>
       <r>    7.0083    0.0000 </r>
      </set>
      <set comment="kpoint 13">
       <r>  -16.2818    1.0000 </r>
       <r>   -4.4828    1.0000 </r>
       <r>   -4.1617    1.0221 </r>
       <r>   -4.0499    0.8721 </r>
       <r>    2.9828    0.0000 </r>
       <r>    5.9645    0.0000 </r>
       <r>    6.8559    0.0000 </r>
       <r>    7.0002    0.0000 </r>
      </set>
      <set comment="kpoint 14">
       <r>  -16.2346    1.0000 </r>
       <r>   -4.6894    1.0000 </r>
       <r>   -4.2485    1.0012 </r>
       <r>   -4.2485    1.0012 </r>
       <r>    3.5517    0.0000 </r>
       <r>    5.2742    0.0000 </r>
       <r>    6.6204    0.0000 </r>
       <r>    7.6088    0.0000 </r>
      </set>
      <set comment="kpoint 15">
       <r>  -16.1852    1.0000 </r>
       <r>   -4.9784    1.0000 </r>
       <r>   -4.3503    1.0000 </r>
       <r>   -4.3250    1.0000 </r>
       <r>    3.9736    0.0000 </r>
       <r>    5.0591    0.0000 </r>
       <r>    6.2305    0.0000 </r>
       <r>    7.7929    0.0000 </r>
      </set>
      <set comment="kpoint 16">
       <r>  -16.1379    1.0000 </r>
       <r>   -5.2225    1.0000 </r>
       <r>   -4.5019    1.0000 </r>
       <r>   -4.3551    1.0000 </r>
       <r>    4.2350    0.0000 </r>
       <r>    5.2258    0.0000 </r>
       <r>    6.1334    0.0000 </r>
       <r>    7.5368    0.0000 </r>
      </set>
      <set comment="kpoint 17">
       <r>  -16.1158    1.0000 </r>
       <r>   -5.3075    1.0000 </r>
       <r>   -4.6464    1.0000 </r>
       <r>   -4.3265    1.0000 </r>
       <r>    4.4397    0.0000 </r>
       <r>    5.2608    0.0000 </r>
       <r>    6.5342    0.0000 </r>
       <r>    7.2670    0.0000 </r>
      </set>
      <set comment="kpoint 18">
       <r>  -16.1299    1.0000 </r>
       <r>   -5.2255    1.0000 </r>
       <r>   -4.6902    1.0000 </r>
       <r>   -4.2512    1.0011 </r>
       <r>    4.6972    0.0000 </r>
       <r>    5.3175    0.0000 </r>
       <r>    6.2088    0.0000 </r>
       <r>    7.1600    0.0000 </r>
      </set>
      <set comment="kpoint 19">
       <r>  -16.1730    1.0000 </r>
       <r>   -5.0666    1.0000 </r>
       <r>   -4.5489    1.0000 </r>
       <r>   -4.1617    1.0221 </r>
       <r>    4.4444    0.0000 </r>
       <r>    5.6801    0.0000 </r>
       <r>    5.7706    0.0000 </r>
       <r>    7.2015    0.0000 </r>
      </set>
      <set comment="kpoint 20">
       <r>  -16.1504    1.0000 </r>
       <r>   -5.1108    1.0000 </r>
       <r>   -4.4195    1.0000 </r>
       <r>   -4.4195    1.0000 </r>
       <r>    3.8200    0.0000 </r>
       <r>    4.6377    0.0000 </r>
       <r>    6.7842    0.0000 </r>
       <r>    8.6714    0.0000 </r>
      </set>
      <set comment="kpoint 21">
       <r>  -16.1147    1.0000 </r>
       <r>   -5.2454    1.0000 </r>
       <r>   -4.5521    1.0000 </r>
       <r>   -4.4636    1.0000 </r>
       <r>    3.8131    0.0000 </r>
       <r>    4.6074    0.0000 </r>
       <r>    7.0118    0.0000 </r>
       <r>    8.7218    0.0000 </r>
      </set>
      <set comment="kpoint 22">
       <r>  -16.0951    1.0000 </r>
       <r>   -5.2285    1.0000 </r>
       <r>   -4.7925    1.0000 </r>
       <r>   -4.4398    1.0000 </r>
       <r>    4.0264    0.0000 </r>
       <r>    5.0000    0.0000 </r>
       <r>    6.9037    0.0000 </r>
       <r>    8.2917    0.0000 </r>
      </set>
      <set comment="kpoint 23">
       <r>  -16.1012    1.0000 </r>
       <r>   -5.0532    1.0000 </r>
       <r>   -5.0230    1.0000 </r>
       <r>   -4.3574    1.0000 </r>
       <r>    4.4327    0.0000 </r>
       <r>    5.4167    0.0000 </r>
       <r>    6.4469    0.0000 </r>
       <r>    7.7705    0.0000 </r>
      </set>
      <set comment="kpoint 24">
       <r>  -16.0942    1.0000 </r>
       <r>   -5.3497    1.0000 </r>
       <r>   -4.5258    1.0000 </r>
       <r>   -4.5258    1.0000 </r>
       <r>    3.4977    0.0000 </r>
       <r>    4.3085    0.0000 </r>
       <r>    7.9290    0.0000 </r>
       <r>   10.0218    0.0000 </r>
      </set>
      <set comment="kpoint 25">
       <r>  -16.0864    1.0000 </r>
       <r>   -5.3376    1.0000 </r>
       <r>   -4.6331    1.0000 </r>
       <r>   -4.5167    1.0000 </r>
       <r>    3.6062    0.0000 </r>
       <r>    4.4528    0.0000 </r>
       <r>    7.8149    0.0000 </r>
       <r>    9.4362    0.0000 </r>
      </set>
      <set comment="kpoint 26">
       <r>  -16.2172    1.0000 </r>
       <r>   -4.8501    1.0000 </r>
       <r>   -4.3373    1.0000 </r>
       <r>   -4.1691    1.0188 </r>
       <r>    3.8173    0.0000 </r>
       <r>    5.4369    0.0000 </r>
       <r>    6.2714    0.0000 </r>
       <r>    7.6226    0.0000 </r>
      </set>
      <set comment="kpoint 27">
       <r>  -16.1631    1.0000 </r>
       <r>   -5.1382    1.0000 </r>
       <r>   -4.4835    1.0000 </r>
       <r>   -4.2376    1.0019 </r>
       <r>    4.3507    0.0000 </r>
       <r>    5.5065    0.0000 </r>
       <r>    5.8257    0.0000 </r>
       <r>    7.3232    0.0000 </r>
      </set>
      <set comment="kpoint 28">
       <r>  -16.1271    1.0000 </r>
       <r>   -5.3247    1.0000 </r>
       <r>   -4.5506    1.0000 </r>
       <r>   -4.2983    1.0001 </r>
       <r>    4.4863    0.0000 </r>
       <r>    5.2714    0.0000 </r>
       <r>    6.4516    0.0000 </r>
       <r>    7.0958    0.0000 </r>
      </set>
      <set comment="kpoint 29">
       <r>  -16.1424    1.0000 </r>
       <r>   -5.1374    1.0000 </r>
       <r>   -4.5241    1.0000 </r>
       <r>   -4.3806    1.0000 </r>
       <r>    4.1692    0.0000 </r>
       <r>    4.9346    0.0000 </r>
       <r>    6.1692    0.0000 </r>
       <r>    8.2823    0.0000 </r>
      </set>
      <set comment="kpoint 30">
       <r>  -16.1090    1.0000 </r>
       <r>   -5.2093    1.0000 </r>
       <r>   -4.7081    1.0000 </r>
       <r>   -4.4358    1.0000 </r>
       <r>    4.3714    0.0000 </r>
       <r>    5.1734    0.0000 </r>
       <r>    6.1335    0.0000 </r>
       <r>    7.9447    0.0000 </r>
      </set>
      <set comment="kpoint 31">
       <r>  -16.1012    1.0000 </r>
       <r>   -5.1682    1.0000 </r>
       <r>   -4.8569    1.0000 </r>
       <r>   -4.4120    1.0000 </r>
       <r>    4.6460    0.0000 </r>
       <r>    5.2719    0.0000 </r>
       <r>    6.2513    0.0000 </r>
       <r>    7.5030    0.0000 </r>
      </set>
      <set comment="kpoint 32">
       <r>  -16.1228    1.0000 </r>
       <r>   -5.1492    1.0000 </r>
       <r>   -4.7702    1.0000 </r>
       <r>   -4.3248    1.0000 </r>
       <r>    4.9931    0.0000 </r>
       <r>    5.1849    0.0000 </r>
       <r>    5.6784    0.0000 </r>
       <r>    7.6094    0.0000 </r>
      </set>
      <set comment="kpoint 33">
       <r>  -16.0929    1.0000 </r>
       <r>   -5.2790    1.0000 </r>
       <r>   -4.6397    1.0000 </r>
       <r>   -4.5407    1.0000 </r>
       <r>    3.8421    0.0000 </r>
       <r>    4.6570    0.0000 </r>
       <r>    7.1923    0.0000 </r>
       <r>    8.6947    0.0000 </r>
      </set>
      <set comment="kpoint 34">
       <r>  -16.0876    1.0000 </r>
       <r>   -5.1756    1.0000 </r>
       <r>   -4.8487    1.0000 </r>
       <r>   -4.5193    1.0000 </r>
       <r>    4.1623    0.0000 </r>
       <r>    5.1074    0.0000 </r>
       <r>    6.8156    0.0000 </r>
       <r>    7.7684    0.0000 </r>
      </set>
      <set comment="kpoint 35">
       <r>  -16.0900    1.0000 </r>
       <r>   -5.0908    1.0000 </r>
       <r>   -4.9053    1.0000 </r>
       <r>   -4.5491    1.0000 </r>
       <r>    4.5219    0.0000 </r>
       <r>    5.5897    0.0000 </r>
       <r>    5.9558    0.0000 </r>
       <r>    7.3598    0.0000 </r>
      </set>
     </set>
    </set>
   </array>
  </eigenvalues>
  <separator name="orbital magnetization" >
   <v name="MAGDIPOLOUT">      0.00000000      0.00000000      0.00000000</v>
  </separator>
 </calculation>
 <structure name="finalpos" >
  <crystal>
   <varray name="basis" >
    <v>       4.43220013       0.00000000       0.00000000 </v>
    <v>       2.21610006       3.83839790      -0.00000000 </v>
    <v>       2.21610006       1.27946597       3.61887625 </v>
   </varray>
   <i name="volume">     61.56630471 </i>
   <varray name="rec_basis" >
    <v>       0.22562158      -0.13026268      -0.09210962 </v>
    <v>       0.00000000       0.26052536      -0.09210962 </v>
    <v>      -0.00000000       0.00000000       0.27632887 </v>
   </varray>
  </crystal>
  <varray name="positions" >
   <v>       0.00000000       0.00000000       0.00000000 </v>
  </varray>
 </structure>
</modeling>
