    2    2  999    1
  0.2711448E+02  0.3418685E-09  0.3418703E-09  0.5357714E-09  0.1000000E-15
  1.000000000000000E-004
  CAR 
 Cn_HCP                                  
     24    132     34
 
  0.0000000E+00  0.0000000E+00  0.0000000E+00  0.3906250E-02
    1       -5.826095   1.000000
    2       -5.825960   1.000000
    3       -3.203356   1.000000
    4       -3.203317   1.000000
    5       -2.209429   1.000000
    6       -2.209402   1.000000
    7       -2.195968   1.000000
    8       -2.195941   1.000000
    9       -2.178819   1.000000
   10       -2.178794   1.000000
   11       -0.325080   1.000000
   12       -0.325042   1.000000
   13        0.656124   1.000000
   14        0.656147   1.000000
   15        0.859962   1.000000
   16        0.859986   1.000000
   17        0.898113   1.000000
   18        0.898142   1.000000
   19        1.026089   1.000000
   20        1.026112   1.000000
   21        1.982107   1.000000
   22        1.982148   1.000000
   23        2.562716   0.011962
   24        2.562763   0.011837
   25        3.068679  -0.000000
   26        3.068913  -0.000000
   27       13.149819   0.000000
   28       13.149830   0.000000
   29       13.341364   0.000000
   30       13.341400   0.000000
   31       15.982712   0.000000
   32       15.983969   0.000000
   33       17.749352   0.000000
   34       17.814594   0.000000
 
  0.1250000E+00  0.2102296E-16  0.1058791E-21  0.7812500E-02
    1       -5.513220   1.000000
    2       -5.513088   1.000000
    3       -2.967509   1.000000
    4       -2.967478   1.000000
    5       -2.216821   1.000000
    6       -2.216792   1.000000
    7       -2.173429   1.000000
    8       -2.173408   1.000000
    9       -2.158855   1.000000
   10       -2.158832   1.000000
   11       -0.463803   1.000000
   12       -0.463771   1.000000
   13        0.652395   1.000000
   14        0.652411   1.000000
   15        0.876595   1.000000
   16        0.876619   1.000000
   17        0.961000   1.000000
   18        0.961020   1.000000
   19        1.048586   1.000000
   20        1.048602   1.000000
   21        1.595999   1.000000
   22        1.596039   1.000000
   23        2.424754   0.914263
   24        2.424814   0.913987
   25        4.015500  -0.000000
   26        4.015652  -0.000000
   27       11.877578   0.000000
   28       11.877644   0.000000
   29       12.302936   0.000000
   30       12.302977   0.000000
   31       16.131242   0.000000
   32       16.134136   0.000000
   33       16.245135   0.000000
   34       16.463514   0.000000
 
  0.2500000E+00  0.4204592E-16  0.2117582E-21  0.7812500E-02
    1       -4.651551   1.000000
    2       -4.651429   1.000000
    3       -2.565971   1.000000
    4       -2.565961   1.000000
    5       -2.225056   1.000000
    6       -2.225020   1.000000
    7       -2.154743   1.000000
    8       -2.154726   1.000000
    9       -2.061732   1.000000
   10       -2.061713   1.000000
   11       -0.468364   1.000000
   12       -0.468342   1.000000
   13        0.636649   1.000000
   14        0.636656   1.000000
   15        0.763314   1.000000
   16        0.763324   1.000000
   17        1.088189   1.000000
   18        1.088205   1.000000
   19        1.207705   1.000000
   20        1.207730   1.000000
   21        1.499449   1.000000
   22        1.499478   1.000000
   23        2.279440   1.006998
   24        2.279490   1.007010
   25        5.463439   0.000000
   26        5.463551   0.000000
   27        9.047646   0.000000
   28        9.047748   0.000000
   29       10.453529   0.000000
   30       10.453563   0.000000
   31       13.974481   0.000000
   32       13.974574   0.000000
   33       15.783711   0.000000
   34       16.001456   0.000000
 
  0.3750000E+00 -0.2019785E-16  0.0000000E+00  0.7812500E-02
    1       -3.614047   1.000000
    2       -3.613960   1.000000
    3       -2.512878   1.000000
    4       -2.512866   1.000000
    5       -2.264759   1.000000
    6       -2.264747   1.000000
    7       -2.194260   1.000000
    8       -2.194237   1.000000
    9       -1.712204   1.000000
   10       -1.712174   1.000000
   11        0.105905   1.000000
   12        0.105931   1.000000
   13        0.353212   1.000000
   14        0.353225   1.000000
   15        0.825058   1.000000
   16        0.825075   1.000000
   17        1.275531   1.000000
   18        1.275552   1.000000
   19        1.366618   1.000000
   20        1.366631   1.000000
   21        1.899887   1.000000
   22        1.899915   1.000000
   23        2.248577   1.002212
   24        2.248608   1.002215
   25        5.851511   0.000000
   26        5.851570   0.000000
   27        6.864881   0.000000
   28        6.864924   0.000000
   29        9.156405   0.000000
   30        9.156442   0.000000
   31       11.925434   0.000000
   32       11.925565   0.000000
   33       13.646461   0.000000
   34       14.142123   0.000000
 
  0.5000000E+00  0.8409184E-16  0.4235165E-21  0.3906250E-02
    1       -3.191285   1.000000
    2       -3.191234   1.000000
    3       -2.541287   1.000000
    4       -2.541277   1.000000
    5       -2.324895   1.000000
    6       -2.324889   1.000000
    7       -2.211024   1.000000
    8       -2.210987   1.000000
    9       -1.044504   1.000000
   10       -1.044468   1.000000
   11       -0.407161   1.000000
   12       -0.407097   1.000000
   13        0.735582   1.000000
   14        0.735614   1.000000
   15        0.875614   1.000000
   16        0.875645   1.000000
   17        1.394130   1.000000
   18        1.394159   1.000000
   19        1.399889   1.000000
   20        1.399941   1.000000
   21        2.232806   1.001123
   22        2.232848   1.001125
   23        2.429991   0.888710
   24        2.430014   0.888588
   25        5.214612   0.000000
   26        5.214746   0.000000
   27        5.798029   0.000000
   28        5.798096   0.000000
   29        9.414162   0.000000
   30        9.414200   0.000000
   31       11.522884   0.000000
   32       11.523054   0.000000
   33       12.190233   0.000000
   34       12.190395   0.000000
 
 -0.2521399E-22  0.1250000E+00  0.5293956E-22  0.7812500E-02
    1       -5.513222   1.000000
    2       -5.513090   1.000000
    3       -2.967512   1.000000
    4       -2.967480   1.000000
    5       -2.216820   1.000000
    6       -2.216798   1.000000
    7       -2.173430   1.000000
    8       -2.173410   1.000000
    9       -2.158857   1.000000
   10       -2.158833   1.000000
   11       -0.463799   1.000000
   12       -0.463767   1.000000
   13        0.652401   1.000000
   14        0.652418   1.000000
   15        0.876573   1.000000
   16        0.876594   1.000000
   17        0.961007   1.000000
   18        0.961034   1.000000
   19        1.048594   1.000000
   20        1.048613   1.000000
   21        1.595992   1.000000
   22        1.596031   1.000000
   23        2.424744   0.914311
   24        2.424791   0.914094
   25        4.015520  -0.000000
   26        4.015671  -0.000000
   27       11.877564   0.000000
   28       11.877640   0.000000
   29       12.302904   0.000000
   30       12.302938   0.000000
   31       16.128520   0.000000
   32       16.134644   0.000000
   33       16.245170   0.000000
   34       16.255560   0.000000
 
  0.1250000E+00  0.1250000E+00  0.2117582E-21  0.7812500E-02
    1       -4.919337   1.000000
    2       -4.919211   1.000000
    3       -2.615780   1.000000
    4       -2.615765   1.000000
    5       -2.222824   1.000000
    6       -2.222791   1.000000
    7       -2.163304   1.000000
    8       -2.163283   1.000000
    9       -2.119884   1.000000
   10       -2.119863   1.000000
   11       -0.568865   1.000000
   12       -0.568840   1.000000
   13        0.736411   1.000000
   14        0.736427   1.000000
   15        0.756655   1.000000
   16        0.756661   1.000000
   17        1.075751   1.000000
   18        1.075768   1.000000
   19        1.165369   1.000000
   20        1.165397   1.000000
   21        1.407836   1.000000
   22        1.407880   1.000000
   23        2.313615   1.018602
   24        2.313668   1.018625
   25        5.095189  -0.000000
   26        5.095312  -0.000000
   27       10.283520   0.000000
   28       10.283613   0.000000
   29       10.445846   0.000000
   30       10.445917   0.000000
   31       14.503892   0.000000
   32       14.504103   0.000000
   33       16.390135   0.000000
   34       16.652354   0.000000
 
  0.2500000E+00  0.1250000E+00 -0.1058791E-21  0.7812500E-02
    1       -3.903269   1.000000
    2       -3.903162   1.000000
    3       -2.385099   1.000000
    4       -2.385082   1.000000
    5       -2.247412   1.000000
    6       -2.247382   1.000000
    7       -2.174985   1.000000
    8       -2.174969   1.000000
    9       -1.969759   1.000000
   10       -1.969739   1.000000
   11       -0.265798   1.000000
   12       -0.265784   1.000000
   13        0.476571   1.000000
   14        0.476574   1.000000
   15        0.875071   1.000000
   16        0.875088   1.000000
   17        1.215116   1.000000
   18        1.215156   1.000000
   19        1.339072   1.000000
   20        1.339106   1.000000
   21        1.616042   1.000000
   22        1.616069   1.000000
   23        2.204804   1.000293
   24        2.204839   1.000293
   25        6.101311   0.000000
   26        6.101351   0.000000
   27        7.779382   0.000000
   28        7.779476   0.000000
   29        9.168549   0.000000
   30        9.168598   0.000000
   31       12.402757   0.000000
   32       12.402847   0.000000
   33       14.299904   0.000000
   34       14.340251   0.000000
 
  0.3750000E+00  0.1250000E+00 -0.2117582E-21  0.7812500E-02
    1       -3.092862   1.000000
    2       -3.092805   1.000000
    3       -2.408603   1.000000
    4       -2.408586   1.000000
    5       -2.325620   1.000000
    6       -2.325607   1.000000
    7       -2.187909   1.000000
    8       -2.187879   1.000000
    9       -1.398619   1.000000
   10       -1.398580   1.000000
   11       -0.164596   1.000000
   12       -0.164556   1.000000
   13        0.609221   1.000000
   14        0.609241   1.000000
   15        0.837324   1.000000
   16        0.837345   1.000000
   17        1.226563   1.000000
   18        1.226585   1.000000
   19        1.467438   1.000000
   20        1.467471   1.000000
   21        2.014969   1.000000
   22        2.015011   1.000000
   23        2.273080   1.005630
   24        2.273099   1.005633
   25        5.498899   0.000000
   26        5.499014   0.000000
   27        6.378134   0.000000
   28        6.378183   0.000000
   29        9.600558   0.000000
   30        9.600573   0.000000
   31       10.911687   0.000000
   32       10.911825   0.000000
   33       12.435249   0.000000
   34       12.439816   0.000000
 
  0.5000000E+00  0.1250000E+00  0.2117582E-21  0.7812500E-02
    1       -3.092865   1.000000
    2       -3.092809   1.000000
    3       -2.408603   1.000000
    4       -2.408586   1.000000
    5       -2.325624   1.000000
    6       -2.325614   1.000000
    7       -2.187906   1.000000
    8       -2.187879   1.000000
    9       -1.398628   1.000000
   10       -1.398588   1.000000
   11       -0.164592   1.000000
   12       -0.164551   1.000000
   13        0.609204   1.000000
   14        0.609225   1.000000
   15        0.837347   1.000000
   16        0.837371   1.000000
   17        1.226581   1.000000
   18        1.226615   1.000000
   19        1.467443   1.000000
   20        1.467463   1.000000
   21        2.015001   1.000000
   22        2.015044   1.000000
   23        2.273103   1.005634
   24        2.273134   1.005640
   25        5.498859   0.000000
   26        5.498975   0.000000
   27        6.378075   0.000000
   28        6.378125   0.000000
   29        9.600506   0.000000
   30        9.600568   0.000000
   31       10.911697   0.000000
   32       10.911829   0.000000
   33       12.435222   0.000000
   34       12.435423   0.000000
 
 -0.3750000E+00  0.1250000E+00 -0.1058791E-21  0.7812500E-02
    1       -3.903274   1.000000
    2       -3.903168   1.000000
    3       -2.385101   1.000000
    4       -2.385085   1.000000
    5       -2.247421   1.000000
    6       -2.247396   1.000000
    7       -2.174982   1.000000
    8       -2.174968   1.000000
    9       -1.969752   1.000000
   10       -1.969732   1.000000
   11       -0.265800   1.000000
   12       -0.265780   1.000000
   13        0.476568   1.000000
   14        0.476575   1.000000
   15        0.875091   1.000000
   16        0.875110   1.000000
   17        1.215130   1.000000
   18        1.215166   1.000000
   19        1.339090   1.000000
   20        1.339124   1.000000
   21        1.616085   1.000000
   22        1.616113   1.000000
   23        2.204834   1.000293
   24        2.204865   1.000293
   25        6.101257   0.000000
   26        6.101297   0.000000
   27        7.779310   0.000000
   28        7.779400   0.000000
   29        9.168467   0.000000
   30        9.168570   0.000000
   31       12.402840   0.000000
   32       12.402960   0.000000
   33       14.303885   0.000000
   34       14.318231   0.000000
 
 -0.2500000E+00  0.1250000E+00 -0.1058791E-21  0.7812500E-02
    1       -4.919338   1.000000
    2       -4.919212   1.000000
    3       -2.615784   1.000000
    4       -2.615767   1.000000
    5       -2.222820   1.000000
    6       -2.222796   1.000000
    7       -2.163302   1.000000
    8       -2.163281   1.000000
    9       -2.119876   1.000000
   10       -2.119853   1.000000
   11       -0.568864   1.000000
   12       -0.568834   1.000000
   13        0.736423   1.000000
   14        0.736440   1.000000
   15        0.756652   1.000000
   16        0.756657   1.000000
   17        1.075738   1.000000
   18        1.075752   1.000000
   19        1.165363   1.000000
   20        1.165395   1.000000
   21        1.407887   1.000000
   22        1.407924   1.000000
   23        2.313655   1.018619
   24        2.313695   1.018637
   25        5.095137  -0.000000
   26        5.095258  -0.000000
   27       10.283412   0.000000
   28       10.283501   0.000000
   29       10.445905   0.000000
   30       10.445998   0.000000
   31       14.504011   0.000000
   32       14.504122   0.000000
   33       16.393247   0.000000
   34       16.526826   0.000000
 
 -0.1250000E+00  0.1250000E+00  0.2646978E-22  0.7812500E-02
    1       -5.513222   1.000000
    2       -5.513089   1.000000
    3       -2.967512   1.000000
    4       -2.967479   1.000000
    5       -2.216813   1.000000
    6       -2.216800   1.000000
    7       -2.173428   1.000000
    8       -2.173408   1.000000
    9       -2.158856   1.000000
   10       -2.158830   1.000000
   11       -0.463805   1.000000
   12       -0.463771   1.000000
   13        0.652394   1.000000
   14        0.652412   1.000000
   15        0.876604   1.000000
   16        0.876622   1.000000
   17        0.960988   1.000000
   18        0.961020   1.000000
   19        1.048586   1.000000
   20        1.048606   1.000000
   21        1.596006   1.000000
   22        1.596042   1.000000
   23        2.424779   0.914148
   24        2.424808   0.914015
   25        4.015487  -0.000000
   26        4.015636  -0.000000
   27       11.877538   0.000000
   28       11.877622   0.000000
   29       12.302969   0.000000
   30       12.302993   0.000000
   31       16.128659   0.000000
   32       16.129366   0.000000
   33       16.246481   0.000000
   34       16.251097   0.000000
 
 -0.5042798E-22  0.2500000E+00  0.1058791E-21  0.7812500E-02
    1       -4.651554   1.000000
    2       -4.651431   1.000000
    3       -2.565979   1.000000
    4       -2.565967   1.000000
    5       -2.225053   1.000000
    6       -2.225026   1.000000
    7       -2.154747   1.000000
    8       -2.154726   1.000000
    9       -2.061743   1.000000
   10       -2.061723   1.000000
   11       -0.468369   1.000000
   12       -0.468338   1.000000
   13        0.636607   1.000000
   14        0.636619   1.000000
   15        0.763321   1.000000
   16        0.763339   1.000000
   17        1.088151   1.000000
   18        1.088172   1.000000
   19        1.207725   1.000000
   20        1.207755   1.000000
   21        1.499462   1.000000
   22        1.499490   1.000000
   23        2.279413   1.006992
   24        2.279450   1.007001
   25        5.463487   0.000000
   26        5.463596   0.000000
   27        9.047671   0.000000
   28        9.047787   0.000000
   29       10.453446   0.000000
   30       10.453486   0.000000
   31       13.974501   0.000000
   32       13.974776   0.000000
   33       15.726718   0.000000
   34       16.883904   0.000000
 
  0.1250000E+00  0.2500000E+00  0.3176374E-21  0.7812500E-02
    1       -3.903263   1.000000
    2       -3.903156   1.000000
    3       -2.385102   1.000000
    4       -2.385087   1.000000
    5       -2.247411   1.000000
    6       -2.247385   1.000000
    7       -2.174985   1.000000
    8       -2.174966   1.000000
    9       -1.969773   1.000000
   10       -1.969755   1.000000
   11       -0.265816   1.000000
   12       -0.265800   1.000000
   13        0.476542   1.000000
   14        0.476550   1.000000
   15        0.875082   1.000000
   16        0.875097   1.000000
   17        1.215100   1.000000
   18        1.215133   1.000000
   19        1.339060   1.000000
   20        1.339095   1.000000
   21        1.616070   1.000000
   22        1.616099   1.000000
   23        2.204790   1.000292
   24        2.204821   1.000293
   25        6.101334   0.000000
   26        6.101378   0.000000
   27        7.779444   0.000000
   28        7.779552   0.000000
   29        9.168475   0.000000
   30        9.168509   0.000000
   31       12.402748   0.000000
   32       12.402845   0.000000
   33       14.299351   0.000000
   34       14.388343   0.000000
 
  0.2500000E+00  0.2500000E+00  0.4235165E-21  0.7812500E-02
    1       -2.968287   1.000000
    2       -2.968223   1.000000
    3       -2.331608   1.000000
    4       -2.331594   1.000000
    5       -2.224636   1.000000
    6       -2.224632   1.000000
    7       -2.170772   1.000000
    8       -2.170755   1.000000
    9       -1.719647   1.000000
   10       -1.719614   1.000000
   11        0.064064   1.000000
   12        0.064076   1.000000
   13        0.305365   1.000000
   14        0.305381   1.000000
   15        0.870274   1.000000
   16        0.870295   1.000000
   17        1.143723   1.000000
   18        1.143738   1.000000
   19        1.455091   1.000000
   20        1.455112   1.000000
   21        1.847915   1.000000
   22        1.847969   1.000000
   23        2.144151   1.000009
   24        2.144168   1.000009
   25        5.924125   0.000000
   26        5.924208   0.000000
   27        6.789596   0.000000
   28        6.789651   0.000000
   29        9.620485   0.000000
   30        9.620539   0.000000
   31       10.794874   0.000000
   32       10.794961   0.000000
   33       12.291480   0.000000
   34       12.293702   0.000000
 
  0.3750000E+00  0.2500000E+00  0.2117582E-21  0.7812500E-02
    1       -2.573826   1.000000
    2       -2.573799   1.000000
    3       -2.378077   1.000000
    4       -2.378068   1.000000
    5       -2.261189   1.000000
    6       -2.261184   1.000000
    7       -2.121609   1.000000
    8       -2.121588   1.000000
    9       -1.195339   1.000000
   10       -1.195305   1.000000
   11       -0.153430   1.000000
   12       -0.153395   1.000000
   13        0.517331   1.000000
   14        0.517344   1.000000
   15        0.830763   1.000000
   16        0.830785   1.000000
   17        1.000704   1.000000
   18        1.000734   1.000000
   19        1.519078   1.000000
   20        1.519093   1.000000
   21        1.741104   1.000000
   22        1.741123   1.000000
   23        2.092292   1.000000
   24        2.092325   1.000000
   25        5.514407   0.000000
   26        5.514530   0.000000
   27        6.982523   0.000000
   28        6.982556   0.000000
   29        9.734622   0.000000
   30        9.734719   0.000000
   31       10.729183   0.000000
   32       10.730279   0.000000
   33       11.352124   0.000000
   34       11.364953   0.000000
 
  0.5000000E+00  0.2500000E+00 -0.2117582E-21  0.7812500E-02
    1       -2.968325   1.000000
    2       -2.968262   1.000000
    3       -2.331619   1.000000
    4       -2.331605   1.000000
    5       -2.224636   1.000000
    6       -2.224631   1.000000
    7       -2.170773   1.000000
    8       -2.170756   1.000000
    9       -1.719623   1.000000
   10       -1.719597   1.000000
   11        0.064079   1.000000
   12        0.064090   1.000000
   13        0.305404   1.000000
   14        0.305422   1.000000
   15        0.870303   1.000000
   16        0.870324   1.000000
   17        1.143728   1.000000
   18        1.143760   1.000000
   19        1.455140   1.000000
   20        1.455162   1.000000
   21        1.847949   1.000000
   22        1.848002   1.000000
   23        2.144195   1.000009
   24        2.144229   1.000009
   25        5.923990   0.000000
   26        5.924072   0.000000
   27        6.789465   0.000000
   28        6.789521   0.000000
   29        9.620397   0.000000
   30        9.620507   0.000000
   31       10.795011   0.000000
   32       10.795103   0.000000
   33       12.291435   0.000000
   34       12.295463   0.000000
 
 -0.3750000E+00  0.2500000E+00  0.1058791E-21  0.7812500E-02
    1       -3.903285   1.000000
    2       -3.903178   1.000000
    3       -2.385102   1.000000
    4       -2.385093   1.000000
    5       -2.247415   1.000000
    6       -2.247399   1.000000
    7       -2.174985   1.000000
    8       -2.174964   1.000000
    9       -1.969744   1.000000
   10       -1.969728   1.000000
   11       -0.265798   1.000000
   12       -0.265775   1.000000
   13        0.476577   1.000000
   14        0.476588   1.000000
   15        0.875086   1.000000
   16        0.875102   1.000000
   17        1.215149   1.000000
   18        1.215167   1.000000
   19        1.339095   1.000000
   20        1.339132   1.000000
   21        1.616071   1.000000
   22        1.616103   1.000000
   23        2.204847   1.000293
   24        2.204869   1.000294
   25        6.101234   0.000000
   26        6.101283   0.000000
   27        7.779245   0.000000
   28        7.779362   0.000000
   29        9.168515   0.000000
   30        9.168605   0.000000
   31       12.402849   0.000000
   32       12.402963   0.000000
   33       14.299848   0.000000
   34       14.314729   0.000000
 
 -0.2500000E+00  0.2500000E+00  0.5293956E-22  0.7812500E-02
    1       -4.651560   1.000000
    2       -4.651438   1.000000
    3       -2.565979   1.000000
    4       -2.565966   1.000000
    5       -2.225042   1.000000
    6       -2.225033   1.000000
    7       -2.154746   1.000000
    8       -2.154722   1.000000
    9       -2.061730   1.000000
   10       -2.061708   1.000000
   11       -0.468372   1.000000
   12       -0.468333   1.000000
   13        0.636657   1.000000
   14        0.636672   1.000000
   15        0.763306   1.000000
   16        0.763328   1.000000
   17        1.088197   1.000000
   18        1.088222   1.000000
   19        1.207697   1.000000
   20        1.207730   1.000000
   21        1.499446   1.000000
   22        1.499473   1.000000
   23        2.279475   1.007007
   24        2.279490   1.007010
   25        5.463409   0.000000
   26        5.463516   0.000000
   27        9.047585   0.000000
   28        9.047713   0.000000
   29       10.453563   0.000000
   30       10.453605   0.000000
   31       13.974470   0.000000
   32       13.974592   0.000000
   33       15.774465   0.000000
   34       16.712914   0.000000
 
 -0.1250000E+00  0.2500000E+00  0.1323489E-21  0.7812500E-02
    1       -4.919342   1.000000
    2       -4.919215   1.000000
    3       -2.615786   1.000000
    4       -2.615767   1.000000
    5       -2.222812   1.000000
    6       -2.222803   1.000000
    7       -2.163304   1.000000
    8       -2.163284   1.000000
    9       -2.119884   1.000000
   10       -2.119860   1.000000
   11       -0.568870   1.000000
   12       -0.568836   1.000000
   13        0.736418   1.000000
   14        0.736434   1.000000
   15        0.756652   1.000000
   16        0.756656   1.000000
   17        1.075747   1.000000
   18        1.075759   1.000000
   19        1.165367   1.000000
   20        1.165403   1.000000
   21        1.407859   1.000000
   22        1.407888   1.000000
   23        2.313641   1.018613
   24        2.313662   1.018622
   25        5.095168  -0.000000
   26        5.095287  -0.000000
   27       10.283485   0.000000
   28       10.283569   0.000000
   29       10.445841   0.000000
   30       10.445955   0.000000
   31       14.503961   0.000000
   32       14.504015   0.000000
   33       16.388992   0.000000
   34       16.724614   0.000000
 
 -0.8887698E-22  0.3750000E+00  0.2117582E-21  0.7812500E-02
    1       -3.614024   1.000000
    2       -3.613938   1.000000
    3       -2.512887   1.000000
    4       -2.512876   1.000000
    5       -2.264760   1.000000
    6       -2.264747   1.000000
    7       -2.194246   1.000000
    8       -2.194228   1.000000
    9       -1.712245   1.000000
   10       -1.712223   1.000000
   11        0.105814   1.000000
   12        0.105844   1.000000
   13        0.353187   1.000000
   14        0.353208   1.000000
   15        0.825069   1.000000
   16        0.825088   1.000000
   17        1.275488   1.000000
   18        1.275509   1.000000
   19        1.366612   1.000000
   20        1.366637   1.000000
   21        1.899889   1.000000
   22        1.899918   1.000000
   23        2.248553   1.002210
   24        2.248581   1.002213
   25        5.851560   0.000000
   26        5.851624   0.000000
   27        6.865002   0.000000
   28        6.865072   0.000000
   29        9.156284   0.000000
   30        9.156386   0.000000
   31       11.925498   0.000000
   32       11.925625   0.000000
   33       13.646393   0.000000
   34       13.731850   0.000000
 
  0.1250000E+00  0.3750000E+00  0.0000000E+00  0.7812500E-02
    1       -3.092817   1.000000
    2       -3.092762   1.000000
    3       -2.408604   1.000000
    4       -2.408590   1.000000
    5       -2.325618   1.000000
    6       -2.325603   1.000000
    7       -2.187901   1.000000
    8       -2.187876   1.000000
    9       -1.398668   1.000000
   10       -1.398638   1.000000
   11       -0.164722   1.000000
   12       -0.164681   1.000000
   13        0.609213   1.000000
   14        0.609231   1.000000
   15        0.837344   1.000000
   16        0.837362   1.000000
   17        1.226565   1.000000
   18        1.226573   1.000000
   19        1.467390   1.000000
   20        1.467427   1.000000
   21        2.014967   1.000000
   22        2.015009   1.000000
   23        2.273084   1.005630
   24        2.273101   1.005634
   25        5.498983   0.000000
   26        5.499097   0.000000
   27        6.378187   0.000000
   28        6.378242   0.000000
   29        9.600511   0.000000
   30        9.600598   0.000000
   31       10.911717   0.000000
   32       10.911844   0.000000
   33       12.434940   0.000000
   34       12.453960   0.000000
 
  0.2500000E+00  0.3750000E+00  0.4235165E-21  0.7812500E-02
    1       -2.573784   1.000000
    2       -2.573762   1.000000
    3       -2.378077   1.000000
    4       -2.378064   1.000000
    5       -2.261192   1.000000
    6       -2.261186   1.000000
    7       -2.121606   1.000000
    8       -2.121588   1.000000
    9       -1.195355   1.000000
   10       -1.195322   1.000000
   11       -0.153535   1.000000
   12       -0.153498   1.000000
   13        0.517340   1.000000
   14        0.517361   1.000000
   15        0.830756   1.000000
   16        0.830779   1.000000
   17        1.000715   1.000000
   18        1.000744   1.000000
   19        1.519064   1.000000
   20        1.519082   1.000000
   21        1.741068   1.000000
   22        1.741095   1.000000
   23        2.092294   1.000000
   24        2.092320   1.000000
   25        5.514486   0.000000
   26        5.514608   0.000000
   27        6.982567   0.000000
   28        6.982601   0.000000
   29        9.734564   0.000000
   30        9.734664   0.000000
   31       10.729235   0.000000
   32       10.729173   0.000000
   33       11.352675   0.000000
   34       11.357601   0.000000
 
  0.3750000E+00  0.3750000E+00  0.4235165E-21  0.7812500E-02
    1       -2.573844   1.000000
    2       -2.573827   1.000000
    3       -2.378080   1.000000
    4       -2.378064   1.000000
    5       -2.261187   1.000000
    6       -2.261181   1.000000
    7       -2.121606   1.000000
    8       -2.121590   1.000000
    9       -1.195340   1.000000
   10       -1.195310   1.000000
   11       -0.153392   1.000000
   12       -0.153353   1.000000
   13        0.517319   1.000000
   14        0.517345   1.000000
   15        0.830767   1.000000
   16        0.830790   1.000000
   17        1.000693   1.000000
   18        1.000722   1.000000
   19        1.519077   1.000000
   20        1.519098   1.000000
   21        1.741109   1.000000
   22        1.741143   1.000000
   23        2.092297   1.000000
   24        2.092314   1.000000
   25        5.514380   0.000000
   26        5.514502   0.000000
   27        6.982501   0.000000
   28        6.982537   0.000000
   29        9.734656   0.000000
   30        9.734754   0.000000
   31       10.729282   0.000000
   32       10.729379   0.000000
   33       11.351872   0.000000
   34       11.354495   0.000000
 
  0.5000000E+00  0.3750000E+00  0.4235165E-21  0.7812500E-02
    1       -3.092897   1.000000
    2       -3.092844   1.000000
    3       -2.408602   1.000000