    2    2  999    1
  0.2711448E+02  0.3214149E-09  0.3214149E-09  0.6061340E-09  0.1000000E-15
  1.000000000000000E-004
  CAR 
 Cn_HCP                                  
     24    132     34
 
  0.0000000E+00  0.0000000E+00  0.0000000E+00  0.3906250E-02
    1       -5.825374   1.000000
    2       -5.825327   1.000000
    3       -3.201939   1.000000
    4       -3.201919   1.000000
    5       -2.207661   1.000000
    6       -2.207653   1.000000
    7       -2.193264   1.000000
    8       -2.193253   1.000000
    9       -2.176155   1.000000
   10       -2.176144   1.000000
   11       -0.323343   1.000000
   12       -0.323325   1.000000
   13        0.658535   1.000000
   14        0.658542   1.000000
   15        0.861546   1.000000
   16        0.861549   1.000000
   17        0.900589   1.000000
   18        0.900600   1.000000
   19        1.028010   1.000000
   20        1.028018   1.000000
   21        1.984132   1.000000
   22        1.984146   1.000000
   23        2.564078   0.010688
   24        2.564084   0.010670
   25        3.069043  -0.000000
   26        3.069110  -0.000000
   27       13.151224   0.000000
   28       13.151227   0.000000
   29       13.342225   0.000000
   30       13.342234   0.000000
   31       15.982235   0.000000
   32       15.982368   0.000000
   33       18.078409   0.000000
   34       18.090550   0.000000
 
  0.1250000E+00  0.0000000E+00  0.0000000E+00  0.7812500E-02
    1       -5.512519   1.000000
    2       -5.512473   1.000000
    3       -2.966060   1.000000
    4       -2.966044   1.000000
    5       -2.214829   1.000000
    6       -2.214823   1.000000
    7       -2.170857   1.000000
    8       -2.170848   1.000000
    9       -2.156259   1.000000
   10       -2.156249   1.000000
   11       -0.462180   1.000000
   12       -0.462165   1.000000
   13        0.654623   1.000000
   14        0.654628   1.000000
   15        0.878797   1.000000
   16        0.878805   1.000000
   17        0.962903   1.000000
   18        0.962907   1.000000
   19        1.050598   1.000000
   20        1.050603   1.000000
   21        1.597671   1.000000
   22        1.597679   1.000000
   23        2.426152   0.911826
   24        2.426162   0.911783
   25        4.016294  -0.000000
   26        4.016338  -0.000000
   27       11.878663   0.000000
   28       11.878685   0.000000
   29       12.303996   0.000000
   30       12.304008   0.000000
   31       16.128716   0.000000
   32       16.128829   0.000000
   33       16.245810   0.000000
   34       16.245846   0.000000
 
  0.2500000E+00  0.0000000E+00  0.0000000E+00  0.7812500E-02
    1       -4.650837   1.000000
    2       -4.650796   1.000000
    3       -2.564163   1.000000
    4       -2.564158   1.000000
    5       -2.223029   1.000000
    6       -2.223021   1.000000
    7       -2.152384   1.000000
    8       -2.152377   1.000000
    9       -2.059276   1.000000
   10       -2.059269   1.000000
   11       -0.466816   1.000000
   12       -0.466804   1.000000
   13        0.638393   1.000000
   14        0.638396   1.000000
   15        0.765378   1.000000
   16        0.765381   1.000000
   17        1.090045   1.000000
   18        1.090046   1.000000
   19        1.209980   1.000000
   20        1.209989   1.000000
   21        1.501390   1.000000
   22        1.501396   1.000000
   23        2.281078   1.007179
   24        2.281086   1.007181
   25        5.464440   0.000000
   26        5.464472   0.000000
   27        9.048617   0.000000
   28        9.048654   0.000000
   29       10.454484   0.000000
   30       10.454500   0.000000
   31       13.975125   0.000000
   32       13.975169   0.000000
   33       15.725974   0.000000
   34       15.726009   0.000000
 
  0.3750000E+00 -0.5551115E-16  0.0000000E+00  0.7812500E-02
    1       -3.613067   1.000000
    2       -3.613037   1.000000
    3       -2.510704   1.000000
    4       -2.510703   1.000000
    5       -2.262813   1.000000
    6       -2.262809   1.000000
    7       -2.192307   1.000000
    8       -2.192301   1.000000
    9       -1.710029   1.000000
   10       -1.710020   1.000000
   11        0.107482   1.000000
   12        0.107495   1.000000
   13        0.354743   1.000000
   14        0.354748   1.000000
   15        0.827005   1.000000
   16        0.827007   1.000000
   17        1.277463   1.000000
   18        1.277470   1.000000
   19        1.368738   1.000000
   20        1.368742   1.000000
   21        1.902203   1.000000
   22        1.902213   1.000000
   23        2.250754   1.002334
   24        2.250760   1.002334
   25        5.852664   0.000000
   26        5.852689   0.000000
   27        6.865798   0.000000
   28        6.865820   0.000000
   29        9.157008   0.000000
   30        9.157021   0.000000
   31       11.925990   0.000000
   32       11.926040   0.000000
   33       13.647026   0.000000
   34       13.647044   0.000000
 
  0.5000000E+00  0.0000000E+00  0.0000000E+00  0.3906250E-02
    1       -3.189875   1.000000
    2       -3.189858   1.000000
    3       -2.539042   1.000000
    4       -2.539041   1.000000
    5       -2.323162   1.000000
    6       -2.323158   1.000000
    7       -2.209122   1.000000
    8       -2.209114   1.000000
    9       -1.042487   1.000000
   10       -1.042478   1.000000
   11       -0.406326   1.000000
   12       -0.406301   1.000000
   13        0.737294   1.000000
   14        0.737298   1.000000
   15        0.877865   1.000000
   16        0.877877   1.000000
   17        1.396207   1.000000
   18        1.396218   1.000000
   19        1.401951   1.000000
   20        1.401962   1.000000
   21        2.235392   1.001212
   22        2.235409   1.001213
   23        2.432457   0.880388
   24        2.432466   0.880342
   25        5.215456   0.000000
   26        5.215511   0.000000
   27        5.798953   0.000000
   28        5.798985   0.000000
   29        9.414650   0.000000
   30        9.414664   0.000000
   31       11.523320   0.000000
   32       11.523371   0.000000
   33       12.190823   0.000000
   34       12.190849   0.000000
 
  0.0000000E+00  0.1250000E+00  0.0000000E+00  0.7812500E-02
    1       -5.512521   1.000000
    2       -5.512476   1.000000
    3       -2.966063   1.000000
    4       -2.966046   1.000000
    5       -2.214831   1.000000
    6       -2.214825   1.000000
    7       -2.170858   1.000000
    8       -2.170849   1.000000
    9       -2.156260   1.000000
   10       -2.156250   1.000000
   11       -0.462176   1.000000
   12       -0.462160   1.000000
   13        0.654629   1.000000
   14        0.654634   1.000000
   15        0.878776   1.000000
   16        0.878784   1.000000
   17        0.962910   1.000000
   18        0.962916   1.000000
   19        1.050605   1.000000
   20        1.050610   1.000000
   21        1.597663   1.000000
   22        1.597671   1.000000
   23        2.426139   0.911891
   24        2.426146   0.911856
   25        4.016313  -0.000000
   26        4.016356  -0.000000
   27       11.878644   0.000000
   28       11.878669   0.000000
   29       12.303966   0.000000
   30       12.303978   0.000000
   31       16.128766   0.000000
   32       16.128878   0.000000
   33       16.245851   0.000000
   34       16.245887   0.000000
 
  0.1250000E+00  0.1250000E+00  0.0000000E+00  0.7812500E-02
    1       -4.918638   1.000000
    2       -4.918594   1.000000
    3       -2.614174   1.000000
    4       -2.614165   1.000000
    5       -2.220783   1.000000
    6       -2.220775   1.000000
    7       -2.160757   1.000000
    8       -2.160749   1.000000
    9       -2.117377   1.000000
   10       -2.117369   1.000000
   11       -0.567334   1.000000
   12       -0.567321   1.000000
   13        0.738446   1.000000
   14        0.738451   1.000000
   15        0.758617   1.000000
   16        0.758619   1.000000
   17        1.077722   1.000000
   18        1.077725   1.000000
   19        1.167550   1.000000
   20        1.167558   1.000000
   21        1.409599   1.000000
   22        1.409608   1.000000
   23        2.315177   1.018903
   24        2.315185   1.018907
   25        5.096137  -0.000000
   26        5.096172  -0.000000
   27       10.284610   0.000000
   28       10.284643   0.000000
   29       10.446710   0.000000
   30       10.446736   0.000000
   31       14.504693   0.000000
   32       14.504735   0.000000
   33       16.366606   0.000000
   34       16.366642   0.000000
 
  0.2500000E+00  0.1250000E+00  0.0000000E+00  0.7812500E-02
    1       -3.902473   1.000000
    2       -3.902437   1.000000
    3       -2.383071   1.000000
    4       -2.383068   1.000000
    5       -2.245374   1.000000
    6       -2.245368   1.000000
    7       -2.172825   1.000000
    8       -2.172820   1.000000
    9       -1.967462   1.000000
   10       -1.967457   1.000000
   11       -0.264196   1.000000
   12       -0.264186   1.000000
   13        0.478115   1.000000
   14        0.478118   1.000000
   15        0.876976   1.000000
   16        0.876980   1.000000
   17        1.217076   1.000000
   18        1.217083   1.000000
   19        1.341061   1.000000
   20        1.341072   1.000000
   21        1.618288   1.000000
   22        1.618298   1.000000
   23        2.206788   1.000310
   24        2.206794   1.000310
   25        6.102462   0.000000
   26        6.102470   0.000000
   27        7.780345   0.000000
   28        7.780381   0.000000
   29        9.169183   0.000000
   30        9.169203   0.000000
   31       12.403561   0.000000
   32       12.403605   0.000000
   33       14.299892   0.000000
   34       14.299915   0.000000
 
  0.3750000E+00  0.1250000E+00  0.0000000E+00  0.7812500E-02
    1       -3.091546   1.000000
    2       -3.091528   1.000000
    3       -2.406450   1.000000
    4       -2.406447   1.000000
    5       -2.323712   1.000000
    6       -2.323709   1.000000
    7       -2.185933   1.000000
    8       -2.185926   1.000000
    9       -1.396718   1.000000
   10       -1.396707   1.000000
   11       -0.163380   1.000000
   12       -0.163363   1.000000
   13        0.611092   1.000000
   14        0.611095   1.000000
   15        0.839211   1.000000
   16        0.839218   1.000000
   17        1.228508   1.000000
   18        1.228514   1.000000
   19        1.469523   1.000000
   20        1.469530   1.000000
   21        2.017405   1.000000
   22        2.017419   1.000000
   23        2.275423   1.005925
   24        2.275429   1.005927
   25        5.499938   0.000000
   26        5.499982   0.000000
   27        6.379130   0.000000
   28        6.379154   0.000000
   29        9.601107   0.000000
   30        9.601117   0.000000
   31       10.912341   0.000000
   32       10.912388   0.000000
   33       12.435238   0.000000
   34       12.435254   0.000000
 
  0.5000000E+00  0.1250000E+00  0.0000000E+00  0.7812500E-02
    1       -3.091549   1.000000
    2       -3.091530   1.000000
    3       -2.406450   1.000000
    4       -2.406447   1.000000
    5       -2.323717   1.000000
    6       -2.323715   1.000000
    7       -2.185932   1.000000
    8       -2.185926   1.000000
    9       -1.396726   1.000000
   10       -1.396715   1.000000
   11       -0.163378   1.000000
   12       -0.163361   1.000000
   13        0.611077   1.000000
   14        0.611081   1.000000
   15        0.839234   1.000000
   16        0.839241   1.000000
   17        1.228528   1.000000
   18        1.228536   1.000000
   19        1.469522   1.000000
   20        1.469527   1.000000
   21        2.017437   1.000000
   22        2.017451   1.000000
   23        2.275452   1.005932
   24        2.275461   1.005933
   25        5.499902   0.000000
   26        5.499947   0.000000
   27        6.379071   0.000000
   28        6.379096   0.000000
   29        9.601076   0.000000
   30        9.601093   0.000000
   31       10.912352   0.000000
   32       10.912397   0.000000
   33       12.435296   0.000000
   34       12.435308   0.000000
 
 -0.3750000E+00  0.1250000E+00  0.0000000E+00  0.7812500E-02
    1       -3.902476   1.000000
    2       -3.902440   1.000000
    3       -2.383073   1.000000
    4       -2.383070   1.000000
    5       -2.245385   1.000000
    6       -2.245380   1.000000
    7       -2.172823   1.000000
    8       -2.172819   1.000000
    9       -1.967457   1.000000
   10       -1.967451   1.000000
   11       -0.264196   1.000000
   12       -0.264185   1.000000
   13        0.478116   1.000000
   14        0.478119   1.000000
   15        0.876994   1.000000
   16        0.876999   1.000000
   17        1.217087   1.000000
   18        1.217094   1.000000
   19        1.341076   1.000000
   20        1.341086   1.000000
   21        1.618332   1.000000
   22        1.618342   1.000000
   23        2.206815   1.000310
   24        2.206821   1.000310
   25        6.102411   0.000000
   26        6.102420   0.000000
   27        7.780275   0.000000
   28        7.780310   0.000000
   29        9.169127   0.000000
   30        9.169156   0.000000
   31       12.403659   0.000000
   32       12.403702   0.000000
   33       14.299923   0.000000
   34       14.299946   0.000000
 
 -0.2500000E+00  0.1250000E+00  0.0000000E+00  0.7812500E-02
    1       -4.918637   1.000000
    2       -4.918594   1.000000
    3       -2.614177   1.000000
    4       -2.614167   1.000000
    5       -2.220783   1.000000
    6       -2.220777   1.000000
    7       -2.160755   1.000000
    8       -2.160747   1.000000
    9       -2.117370   1.000000
   10       -2.117361   1.000000
   11       -0.567332   1.000000
   12       -0.567318   1.000000
   13        0.738454   1.000000
   14        0.738460   1.000000
   15        0.758618   1.000000
   16        0.758620   1.000000
   17        1.077710   1.000000
   18        1.077712   1.000000
   19        1.167545   1.000000
   20        1.167554   1.000000
   21        1.409645   1.000000
   22        1.409653   1.000000
   23        2.315208   1.018917
   24        2.315215   1.018920
   25        5.096086  -0.000000
   26        5.096121  -0.000000
   27       10.284525   0.000000
   28       10.284556   0.000000
   29       10.446762   0.000000
   30       10.446791   0.000000
   31       14.504858   0.000000
   32       14.504899   0.000000
   33       16.366457   0.000000
   34       16.366491   0.000000
 
 -0.1250000E+00  0.1250000E+00  0.0000000E+00  0.7812500E-02
    1       -5.512520   1.000000
    2       -5.512475   1.000000
    3       -2.966062   1.000000
    4       -2.966045   1.000000
    5       -2.214827   1.000000
    6       -2.214823   1.000000
    7       -2.170856   1.000000
    8       -2.170847   1.000000
    9       -2.156259   1.000000
   10       -2.156249   1.000000
   11       -0.462181   1.000000
   12       -0.462165   1.000000
   13        0.654622   1.000000
   14        0.654628   1.000000
   15        0.878805   1.000000
   16        0.878812   1.000000
   17        0.962895   1.000000
   18        0.962901   1.000000
   19        1.050599   1.000000
   20        1.050605   1.000000
   21        1.597676   1.000000
   22        1.597684   1.000000
   23        2.426165   0.911770
   24        2.426170   0.911746
   25        4.016280  -0.000000
   26        4.016323  -0.000000
   27       11.878628   0.000000
   28       11.878654   0.000000
   29       12.304023   0.000000
   30       12.304033   0.000000
   31       16.128715   0.000000
   32       16.128829   0.000000
   33       16.245815   0.000000
   34       16.245852   0.000000
 
  0.0000000E+00  0.2500000E+00  0.0000000E+00  0.7812500E-02
    1       -4.650843   1.000000
    2       -4.650801   1.000000
    3       -2.564170   1.000000
    4       -2.564163   1.000000
    5       -2.223029   1.000000
    6       -2.223023   1.000000
    7       -2.152384   1.000000
    8       -2.152377   1.000000
    9       -2.059287   1.000000
   10       -2.059280   1.000000
   11       -0.466817   1.000000
   12       -0.466802   1.000000
   13        0.638354   1.000000
   14        0.638359   1.000000
   15        0.765388   1.000000
   16        0.765393   1.000000
   17        1.090011   1.000000
   18        1.090014   1.000000
   19        1.210001   1.000000
   20        1.210010   1.000000
   21        1.501402   1.000000
   22        1.501408   1.000000
   23        2.281050   1.007172
   24        2.281056   1.007174
   25        5.464483   0.000000
   26        5.464514   0.000000
   27        9.048629   0.000000
   28        9.048668   0.000000
   29       10.454412   0.000000
   30       10.454430   0.000000
   31       13.975160   0.000000
   32       13.975204   0.000000
   33       15.726022   0.000000
   34       15.726063   0.000000
 
  0.1250000E+00  0.2500000E+00  0.0000000E+00  0.7812500E-02
    1       -3.902471   1.000000
    2       -3.902435   1.000000
    3       -2.383074   1.000000
    4       -2.383070   1.000000
    5       -2.245374   1.000000
    6       -2.245369   1.000000
    7       -2.172822   1.000000
    8       -2.172817   1.000000
    9       -1.967477   1.000000
   10       -1.967472   1.000000
   11       -0.264212   1.000000
   12       -0.264202   1.000000
   13        0.478093   1.000000
   14        0.478095   1.000000
   15        0.876985   1.000000
   16        0.876989   1.000000
   17        1.217057   1.000000
   18        1.217063   1.000000
   19        1.341052   1.000000
   20        1.341062   1.000000
   21        1.618315   1.000000
   22        1.618325   1.000000
   23        2.206774   1.000309
   24        2.206780   1.000309
   25        6.102482   0.000000
   26        6.102493   0.000000
   27        7.780394   0.000000
   28        7.780432   0.000000
   29        9.169116   0.000000
   30        9.169134   0.000000
   31       12.403559   0.000000
   32       12.403605   0.000000
   33       14.299945   0.000000
   34       14.299969   0.000000
 
  0.2500000E+00  0.2500000E+00  0.0000000E+00  0.7812500E-02
    1       -2.967155   1.000000
    2       -2.967134   1.000000
    3       -2.329760   1.000000
    4       -2.329758   1.000000
    5       -2.222817   1.000000
    6       -2.222816   1.000000
    7       -2.168239   1.000000
    8       -2.168232   1.000000
    9       -1.717741   1.000000
   10       -1.717732   1.000000
   11        0.065699   1.000000
   12        0.065704   1.000000
   13        0.306853   1.000000
   14        0.306862   1.000000
   15        0.872052   1.000000
   16        0.872060   1.000000
   17        1.145547   1.000000
   18        1.145551   1.000000
   19        1.457067   1.000000
   20        1.457071   1.000000
   21        1.850306   1.000000
   22        1.850323   1.000000
   23        2.146416   1.000010
   24        2.146422   1.000010
   25        5.925266   0.000000
   26        5.925296   0.000000
   27        6.790603   0.000000
   28        6.790630   0.000000
   29        9.621061   0.000000
   30        9.621072   0.000000
   31       10.795737   0.000000
   32       10.795777   0.000000
   33       12.292027   0.000000
   34       12.292060   0.000000
 
  0.3750000E+00  0.2500000E+00  0.0000000E+00  0.7812500E-02
    1       -2.572151   1.000000
    2       -2.572143   1.000000
    3       -2.376311   1.000000
    4       -2.376309   1.000000
    5       -2.259367   1.000000
    6       -2.259366   1.000000
    7       -2.119143   1.000000
    8       -2.119137   1.000000
    9       -1.193886   1.000000
   10       -1.193875   1.000000
   11       -0.152130   1.000000
   12       -0.152115   1.000000
   13        0.519112   1.000000
   14        0.519118   1.000000
   15        0.832633   1.000000
   16        0.832638   1.000000
   17        1.002711   1.000000
   18        1.002721   1.000000
   19        1.521214   1.000000
   20        1.521218   1.000000
   21        1.743141   1.000000
   22        1.743148   1.000000
   23        2.094443   1.000000
   24        2.094450   1.000000
   25        5.515640   0.000000
   26        5.515682   0.000000
   27        6.983706   0.000000
   28        6.983725   0.000000
   29        9.735368   0.000000
   30        9.735416   0.000000
   31       10.729924   0.000000
   32       10.729951   0.000000
   33       11.351862   0.000000
   34       11.351875   0.000000
 
  0.5000000E+00  0.2500000E+00  0.0000000E+00  0.7812500E-02
    1       -2.967185   1.000000
    2       -2.967165   1.000000
    3       -2.329772   1.000000
    4       -2.329770   1.000000
    5       -2.222817   1.000000
    6       -2.222816   1.000000
    7       -2.168241   1.000000
    8       -2.168234   1.000000
    9       -1.717720   1.000000
   10       -1.717712   1.000000
   11        0.065715   1.000000
   12        0.065721   1.000000
   13        0.306880   1.000000
   14        0.306889   1.000000
   15        0.872079   1.000000
   16        0.872087   1.000000
   17        1.145554   1.000000
   18        1.145561   1.000000
   19        1.457116   1.000000
   20        1.457121   1.000000
   21        1.850342   1.000000
   22        1.850359   1.000000
   23        2.146467   1.000010
   24        2.146476   1.000010
   25        5.925148   0.000000
   26        5.925179   0.000000
   27        6.790469   0.000000
   28        6.790498   0.000000
   29        9.620998   0.000000
   30        9.621021   0.000000
   31       10.795870   0.000000
   32       10.795908   0.000000
   33       12.292037   0.000000
   34       12.292070   0.000000
 
 -0.3750000E+00  0.2500000E+00  0.0000000E+00  0.7812500E-02
    1       -3.902486   1.000000
    2       -3.902451   1.000000
    3       -2.383076   1.000000
    4       -2.383072   1.000000
    5       -2.245383   1.000000
    6       -2.245380   1.000000
    7       -2.172825   1.000000
    8       -2.172819   1.000000
    9       -1.967450   1.000000
   10       -1.967446   1.000000
   11       -0.264193   1.000000
   12       -0.264182   1.000000
   13        0.478128   1.000000
   14        0.478130   1.000000
   15        0.876988   1.000000
   16        0.876993   1.000000
   17        1.217097   1.000000
   18        1.217102   1.000000
   19        1.341084   1.000000
   20        1.341093   1.000000
   21        1.618319   1.000000
   22        1.618330   1.000000
   23        2.206824   1.000310
   24        2.206829   1.000310
   25        6.102391   0.000000
   26        6.102403   0.000000
   27        7.780218   0.000000
   28        7.780258   0.000000
   29        9.169172   0.000000
   30        9.169199   0.000000
   31       12.403670   0.000000
   32       12.403714   0.000000
   33       14.299909   0.000000
   34       14.299933   0.000000
 
 -0.2500000E+00  0.2500000E+00  0.0000000E+00  0.7812500E-02
    1       -4.650846   1.000000
    2       -4.650804   1.000000
    3       -2.564169   1.000000
    4       -2.564162   1.000000
    5       -2.223025   1.000000
    6       -2.223022   1.000000
    7       -2.152384   1.000000
    8       -2.152376   1.000000
    9       -2.059273   1.000000
   10       -2.059266   1.000000
   11       -0.466818   1.000000
   12       -0.466802   1.000000
   13        0.638404   1.000000
   14        0.638409   1.000000
   15        0.765374   1.000000
   16        0.765381   1.000000
   17        1.090055   1.000000
   18        1.090060   1.000000
   19        1.209975   1.000000
   20        1.209986   1.000000
   21        1.501386   1.000000
   22        1.501393   1.000000
   23        2.281099   1.007184
   24        2.281102   1.007185
   25        5.464407   0.000000
   26        5.464438   0.000000
   27        9.048563   0.000000
   28        9.048605   0.000000
   29       10.454522   0.000000
   30       10.454540   0.000000
   31       13.975138   0.000000
   32       13.975182   0.000000
   33       15.725965   0.000000
   34       15.726009   0.000000
 
 -0.1250000E+00  0.2500000E+00  0.0000000E+00  0.7812500E-02
    1       -4.918642   1.000000
    2       -4.918599   1.000000
    3       -2.614178   1.000000
    4       -2.614167   1.000000
    5       -2.220780   1.000000
    6       -2.220778   1.000000
    7       -2.160758   1.000000
    8       -2.160749   1.000000
    9       -2.117376   1.000000
   10       -2.117368   1.000000
   11       -0.567335   1.000000
   12       -0.567320   1.000000
   13        0.738453   1.000000
   14        0.738459   1.000000
   15        0.758613   1.000000
   16        0.758615   1.000000
   17        1.077717   1.000000
   18        1.077719   1.000000
   19        1.167550   1.000000
   20        1.167559   1.000000
   21        1.409617   1.000000
   22        1.409622   1.000000
   23        2.315190   1.018909
   24        2.315193   1.018910
   25        5.096114  -0.000000
   26        5.096148  -0.000000
   27       10.284568   0.000000
   28       10.284599   0.000000
   29       10.446724   0.000000
   30       10.446758   0.000000
   31       14.504737   0.000000
   32       14.504778   0.000000
   33       16.366582   0.000000
   34       16.366616   0.000000
 
  0.0000000E+00  0.3750000E+00  0.0000000E+00  0.7812500E-02
    1       -3.613053   1.000000
    2       -3.613024   1.000000
    3       -2.510714   1.000000
    4       -2.510710   1.000000
    5       -2.262809   1.000000
    6       -2.262806   1.000000
    7       -2.192294   1.000000
    8       -2.192290   1.000000
    9       -1.710071   1.000000
   10       -1.710065   1.000000
   11        0.107410   1.000000
   12        0.107423   1.000000
   13        0.354717   1.000000
   14        0.354724   1.000000
   15        0.827014   1.000000
   16        0.827019   1.000000
   17        1.277423   1.000000
   18        1.277430   1.000000
   19        1.368743   1.000000
   20        1.368750   1.000000
   21        1.902203   1.000000
   22        1.902213   1.000000
   23        2.250728   1.002331
   24        2.250735   1.002332
   25        5.852698   0.000000
   26        5.852724   0.000000
   27        6.865912   0.000000
   28        6.865938   0.000000
   29        9.156921   0.000000
   30        9.156949   0.000000
   31       11.926057   0.000000
   32       11.926106   0.000000
   33       13.646973   0.000000
   34       13.646989   0.000000
 
  0.1250000E+00  0.3750000E+00  0.0000000E+00  0.7812500E-02
    1       -3.091514   1.000000
    2       -3.091496   1.000000
    3       -2.406452   1.000000
    4       -2.406448   1.000000
    5       -2.323706   1.000000
    6       -2.323703   1.000000
    7       -2.185926   1.000000
    8       -2.185920   1.000000
    9       -1.396773   1.000000
   10       -1.396764   1.000000
   11       -0.163482   1.000000
   12       -0.163466   1.000000
   13        0.611086   1.000000
   14        0.611089   1.000000
   15        0.839227   1.000000
   16        0.839234   1.000000
   17        1.228509   1.000000
   18        1.228513   1.000000
   19        1.469477   1.000000
   20        1.469485   1.000000
   21        2.017398   1.000000
   22        2.017412   1.000000
   23        2.275425   1.005926
   24        2.275432   1.005927
   25        5.499988   0.000000
   26        5.500031   0.000000
   27        6.379189   0.000000
   28        6.379215   0.000000
   29        9.601094   0.000000
   30        9.601118   0.000000
   31       10.912368   0.000000
   32       10.912412   0.000000
   33       12.435210   0.000000
   34       12.435226   0.000000
 
  0.2500000E+00  0.3750000E+00  0.0000000E+00  0.7812500E-02
    1       -2.572120   1.000000
    2       -2.572114   1.000000
    3       -2.376308   1.000000
    4       -2.376306   1.000000
    5       -2.259368   1.000000
    6       -2.259366   1.000000
    7       -2.119140   1.000000
    8       -2.119134   1.000000
    9       -1.193911   1.000000
   10       -1.193901   1.000000
   11       -0.152213   1.000000
   12       -0.152197   1.000000
   13        0.519131   1.000000
   14        0.519138   1.000000
   15        0.832627   1.000000
   16        0.832632   1.000000
   17        1.002723   1.000000
   18        1.002733   1.000000
   19        1.521190   1.000000
   20        1.521194   1.000000
   21        1.743109   1.000000
   22        1.743116   1.000000
   23        2.094443   1.000000
   24        2.094449   1.000000
   25        5.515701   0.000000
   26        5.515743   0.000000
   27        6.983754   0.000000
   28        6.983773   0.000000
   29        9.735311   0.000000
   30        9.735360   0.000000
   31       10.729949   0.000000
   32       10.729978   0.000000
   33       11.351907   0.000000
   34       11.351919   0.000000
 
  0.3750000E+00  0.3750000E+00  0.0000000E+00  0.7812500E-02
    1       -2.572173   1.000000
    2       -2.572168   1.000000
    3       -2.376311   1.000000
    4       -2.376308   1.000000
    5       -2.259364   1.000000
    6       -2.259362   1.000000
    7       -2.119142   1.000000
    8       -2.119136   1.000000
    9       -1.193890   1.000000
   10       -1.193880   1.000000
   11       -0.152088   1.000000
   12       -0.152072   1.000000
   13        0.519106   1.000000
   14        0.519114   1.000000
   15        0.832638   1.000000
   16        0.832644   1.000000
   17        1.002699   1.000000
   18        1.002709   1.000000
   19        1.521214   1.000000
   20        1.521219   1.000000
   21        1.743153   1.000000
   22        1.743161   1.000000
   23        2.094441   1.000000
   24        2.094445   1.000000
   25        5.515611   0.000000
   26        5.515653   0.000000
   27        6.983685   0.000000
   28        6.983705   0.000000
   29        9.735402   0.000000
   30        9.735450   0.000000
   31       10.729924   0.000000
   32       10.729953   0.000000
   33       11.351827   0.000000
   34       11.351836   0.000000
 
  0.5000000E+00  0.3750000E+00  0.0000000E+00  0.7812500E-02
    1       -3.091582   1.000000
    2       -3.091564   1.000000
    3       -2.406452   1.000000