 vasp.5.4.4.18Apr17-6-g9f103f2a35 (build Jul 09 2018 16:43:14) complex          
  
 executed on             LinuxIFC date 2018.11.21  22:58:54
 running on   32 total cores
 distrk:  each k-point on    8 cores,    4 groups
 distr:  one band on NCORES_PER_BAND=   4 cores,    2 groups


--------------------------------------------------------------------------------------------------------


 INCAR:
 POTCAR:    Cn-PAW, fit to 4c-PBE, JanMewes Oct18 

 ----------------------------------------------------------------------------- 
|                                                                             |
|           W    W    AA    RRRRR   N    N  II  N    N   GGGG   !!!           |
|           W    W   A  A   R    R  NN   N  II  NN   N  G    G  !!!           |
|           W    W  A    A  R    R  N N  N  II  N N  N  G       !!!           |
|           W WW W  AAAAAA  RRRRR   N  N N  II  N  N N  G  GGG   !            |
|           WW  WW  A    A  R   R   N   NN  II  N   NN  G    G                |
|           W    W  A    A  R    R  N    N  II  N    N   GGGG   !!!           |
|                                                                             |
|      You have enabled k-point parallelism (KPAR>1).                         |
|      This developmental code was originally  written by Paul Kent at ORNL,  |
|      and carefully double checked in Vienna.                                |
|      GW as well as linear response parallelism added by Martijn Marsman     |
|      and Georg Kresse.                                                      |
|      Carefully verify results versus KPAR=1.                                |
|      Report problems to Paul Kent and Vienna.                               |
|                                                                             |
 ----------------------------------------------------------------------------- 

 POTCAR:    Cn-PAW, fit to 4c-PBE, JanMewes Oct18 
   VRHFIN =Cn : 10d 2s                                                          
   LEXCH  = PE                                                                  
   EATOM  =  1021.7933 eV,   75.0997 Ry                                         
                                                                                
   TITEL  = Cn-PAW, fit to 4c-PBE, JanMewes Oct18                               
   LULTRA =        F    use ultrasoft PP ?                                      
   IUNSCR =        1    unscreen: 0-lin 1-nonlin 2-no                           
   RPACOR =    1.900    partial core radius                                     
   POMASS =    0.010; ZVAL   =   12.000    mass and valenz                      
   RCORE  =    2.700    outmost cutoff radius                                   
   RWIGS  =    2.800; RWIGS  =    1.482    wigner-seitz radius (au A)           
   ENMAX  =  273.073; ENMIN  =  204.805 eV                                      
   ICORE  =        3    local potential                                         
   LCOR   =        T    correct aug charges                                     
   LPAW   =        T    paw PP                                                  
   EAUG   =  361.025                                                            
   DEXC   =   -0.000                                                            
   RMAX   =    2.790    core radius for proj-oper                               
   RAUG   =    1.300    factor for augmentation sphere                          
   RDEP   =    2.775    radius for radial grids                                 
   RDEPT  =    2.135    core radius for aug-charge                              
   QCUT   =   -4.480; QGAM   =    8.960    optimization parameters              
                                                                                
   Atomic configuration                                                         
   21 entries                                                                   
     n  l   j            E        occ.                                          
     1  0  0.50   -193593.9187   2.0000                                         
     2  0  0.50    -39412.0693   2.0000                                         
     2  1  1.50    -29335.4582   6.0000                                         
     3  0  0.50    -10546.4577   2.0000                                         
     3  1  1.50     -7865.5022   6.0000                                         
     3  2  2.50     -6292.8271  10.0000                                         
     4  0  0.50     -3004.9901   2.0000                                         
     4  1  1.50     -2140.4665   6.0000                                         
     4  2  2.50     -1542.0671  10.0000                                         
     4  3  3.50      -986.2983  14.0000                                         
     5  0  0.50      -773.9725   2.0000                                         
     5  1  1.50      -487.4947   6.0000                                         
     5  2  2.50      -269.9971  10.0000                                         
     5  3  3.50       -71.2530  14.0000                                         
     6  0  0.50      -136.5695   2.0000                                         
     6  1  0.50       -97.1736   2.0000                                         
     6  1  1.50       -52.5109   4.0000                                         
     6  2  2.50        -7.9997  10.0000                                         
     7  0  0.50        -9.4823   2.0000                                         
     7  1  1.50        -2.1674   0.0000                                         
     6  3  3.50        -0.0014   0.0000                                         
   Description                                                                  
     l       E           TYP  RCUT    TYP  RCUT                                 
     2     -7.9996624     23  2.300                                             
     2     40.8174780     23  2.600                                             
     0     -9.4822916     23  1.900                                             
     0     68.0291300     23  2.400                                             
     1     -2.1674081     23  2.500                                             
     1     98.6422385     23  2.300                                             
     3     10.8846608      7  2.700                                             
  local pseudopotential read in
  partial core-charges read in
  partial kinetic energy density read in
  kinetic energy density of atom read in
  atomic valenz-charges read in
  non local Contribution for L=           2  read in
    real space projection operators read in
  non local Contribution for L=           2  read in
    real space projection operators read in
  non local Contribution for L=           0  read in
    real space projection operators read in
  non local Contribution for L=           0  read in
    real space projection operators read in
  non local Contribution for L=           1  read in
    real space projection operators read in
  non local Contribution for L=           1  read in
    real space projection operators read in
    PAW grid and wavefunctions read in
 
   number of l-projection  operators is LMAX  =           6
   number of lm-projection operators is LMMAX =          18
 

 ----------------------------------------------------------------------------- 
|                                                                             |
|  ADVICE TO THIS USER RUNNING 'VASP/VAMP'   (HEAR YOUR MASTER'S VOICE ...):  |
|                                                                             |
|      You enforced a specific xc-type in the INCAR file,                     |
|      a different type was found on the POTCAR file                          |
|          I HOPE YOU KNOW, WHAT YOU ARE  DOING                               |
|                                                                             |
 ----------------------------------------------------------------------------- 

  Cn-PAW, fit to 4c-PBE, JanMewes Oct18 :
 energy of atom  1       EATOM=-1021.7933
 kinetic energy error for atom=    0.0069 (will be added to EATOM!!)
 
 
 POSCAR: Cn HCP                                  
  positions in direct lattice
  velocities in cartesian coordinates
 exchange correlation table for  LEXCH =       14
   RHO(1)=    0.500       N(1)  =     2000
   RHO(2)=  100.500       N(2)  =     4000
 


--------------------------------------------------------------------------------------------------------


 ion  position               nearest neighbor table
   1  0.167  0.333  0.250-   2 3.55   2 3.55   2 3.55   2 3.55   2 3.55   2 3.55
   2  0.833  0.667  0.750-   1 3.55   1 3.55   1 3.55   1 3.55   1 3.55   1 3.55
 
  LATTYP: Found a hexagonal cell.
 ALAT       =     3.2141488252
 C/A-ratio  =     1.8858304016
  
  Lattice vectors:
  
 A1 = (   3.2141488252,   0.0000000000,   0.0000000000)
 A2 = (  -1.6070744127,   2.7835345342,   0.0000000000)
 A3 = (   0.0000000000,   0.0000000000,   6.0613395700)


Analysis of symmetry for initial positions (statically):
=====================================================================
 Subroutine PRICEL returns:
 Original cell was already a primitive cell.
 

 Routine SETGRP: Setting up the symmetry group for a 
 hexagonal supercell.


 Subroutine GETGRP returns: Found  8 space group operations
 (whereof  2 operations were pure point group operations)
 out of a pool of 24 trial point group operations.


The static configuration has the point symmetry S_2 .
 The point group associated with its full space group is D_2h.


Analysis of symmetry for dynamics (positions and initial velocities):
=====================================================================
 Subroutine PRICEL returns:
 Original cell was already a primitive cell.
 

 Routine SETGRP: Setting up the symmetry group for a 
 hexagonal supercell.


 Subroutine GETGRP returns: Found  8 space group operations
 (whereof  2 operations were pure point group operations)
 out of a pool of 24 trial point group operations.


The dynamic configuration has the point symmetry S_2 .
 The point group associated with its full space group is D_2h.


Analysis of structural, dynamic, and magnetic symmetry:
=====================================================================
 Subroutine PRICEL returns:
 Original cell was already a primitive cell.
 

 Routine SETGRP: Setting up the symmetry group for a 
 hexagonal supercell.


 Subroutine GETGRP returns: Found  2 space group operations
 (whereof  2 operations were pure point group operations)
 out of a pool of 24 trial point group operations.


The (compounded) configuration has the point symmetry S_2 .


 Subroutine INISYM returns: Found  2 space group operations
 (whereof  2 operations are pure point group operations),
 and found     1 'primitive' translations

 
 

Automatic generation of k-mesh.
 generate k-points for:    8    8    4
Space group operators:
 irot       det(A)        alpha          n_x          n_y          n_z        tau_x        tau_y        tau_z
    1     1.000000     0.000001     1.000000     0.000000     0.000000     0.000000     0.000000     0.000000
    2    -1.000000     0.000001     1.000000     0.000000     0.000000     0.000000     0.000000     0.000000
 
 Subroutine IBZKPT returns following result:
 ===========================================
 
 Found    132 irreducible k-points:
 
 Following reciprocal coordinates:
            Coordinates               Weight
  0.000000  0.000000  0.000000      1.000000
  0.125000  0.000000  0.000000      2.000000
  0.250000  0.000000  0.000000      2.000000
  0.375000 -0.000000  0.000000      2.000000
  0.500000  0.000000  0.000000      1.000000
  0.000000  0.125000  0.000000      2.000000
  0.125000  0.125000  0.000000      2.000000
  0.250000  0.125000  0.000000      2.000000
  0.375000  0.125000  0.000000      2.000000
  0.500000  0.125000  0.000000      2.000000
 -0.375000  0.125000  0.000000      2.000000
 -0.250000  0.125000  0.000000      2.000000
 -0.125000  0.125000  0.000000      2.000000
  0.000000  0.250000  0.000000      2.000000
  0.125000  0.250000  0.000000      2.000000
  0.250000  0.250000  0.000000      2.000000
  0.375000  0.250000  0.000000      2.000000
  0.500000  0.250000  0.000000      2.000000
 -0.375000  0.250000  0.000000      2.000000
 -0.250000  0.250000  0.000000      2.000000
 -0.125000  0.250000  0.000000      2.000000
  0.000000  0.375000  0.000000      2.000000
  0.125000  0.375000  0.000000      2.000000
  0.250000  0.375000  0.000000      2.000000
  0.375000  0.375000  0.000000      2.000000
  0.500000  0.375000  0.000000      2.000000
 -0.375000  0.375000  0.000000      2.000000
 -0.250000  0.375000  0.000000      2.000000
 -0.125000  0.375000  0.000000      2.000000
  0.000000  0.500000  0.000000      1.000000
  0.125000  0.500000  0.000000      2.000000
  0.250000  0.500000  0.000000      2.000000
  0.375000  0.500000  0.000000      2.000000
  0.500000  0.500000  0.000000      1.000000
  0.000000  0.000000  0.250000      2.000000
  0.125000  0.000000  0.250000      2.000000
  0.250000  0.000000  0.250000      2.000000
  0.375000 -0.000000  0.250000      2.000000
  0.500000  0.000000  0.250000      2.000000
 -0.375000  0.000000  0.250000      2.000000
 -0.250000  0.000000  0.250000      2.000000
 -0.125000  0.000000  0.250000      2.000000
  0.000000  0.125000  0.250000      2.000000
  0.125000  0.125000  0.250000      2.000000
  0.250000  0.125000  0.250000      2.000000
  0.375000  0.125000  0.250000      2.000000
  0.500000  0.125000  0.250000      2.000000
 -0.375000  0.125000  0.250000      2.000000
 -0.250000  0.125000  0.250000      2.000000
 -0.125000  0.125000  0.250000      2.000000
  0.000000  0.250000  0.250000      2.000000
  0.125000  0.250000  0.250000      2.000000
  0.250000  0.250000  0.250000      2.000000
  0.375000  0.250000  0.250000      2.000000
  0.500000  0.250000  0.250000      2.000000
 -0.375000  0.250000  0.250000      2.000000
 -0.250000  0.250000  0.250000      2.000000
 -0.125000  0.250000  0.250000      2.000000
  0.000000  0.375000  0.250000      2.000000
  0.125000  0.375000  0.250000      2.000000
  0.250000  0.375000  0.250000      2.000000
  0.375000  0.375000  0.250000      2.000000
  0.500000  0.375000  0.250000      2.000000
 -0.375000  0.375000  0.250000      2.000000
 -0.250000  0.375000  0.250000      2.000000
 -0.125000  0.375000  0.250000      2.000000
  0.000000  0.500000  0.250000      2.000000
  0.125000  0.500000  0.250000      2.000000
  0.250000  0.500000  0.250000      2.000000
  0.375000  0.500000  0.250000      2.000000
  0.500000  0.500000  0.250000      2.000000
 -0.375000  0.500000  0.250000      2.000000
 -0.250000  0.500000  0.250000      2.000000
 -0.125000  0.500000  0.250000      2.000000
  0.000000 -0.375000  0.250000      2.000000
  0.125000 -0.375000  0.250000      2.000000
  0.250000 -0.375000  0.250000      2.000000
  0.375000 -0.375000  0.250000      2.000000
  0.500000 -0.375000  0.250000      2.000000
 -0.375000 -0.375000  0.250000      2.000000
 -0.250000 -0.375000  0.250000      2.000000
 -0.125000 -0.375000  0.250000      2.000000
  0.000000 -0.250000  0.250000      2.000000
  0.125000 -0.250000  0.250000      2.000000
  0.250000 -0.250000  0.250000      2.000000
  0.375000 -0.250000  0.250000      2.000000
  0.500000 -0.250000  0.250000      2.000000
 -0.375000 -0.250000  0.250000      2.000000
 -0.250000 -0.250000  0.250000      2.000000
 -0.125000 -0.250000  0.250000      2.000000
  0.000000 -0.125000  0.250000      2.000000
  0.125000 -0.125000  0.250000      2.000000
  0.250000 -0.125000  0.250000      2.000000
  0.375000 -0.125000  0.250000      2.000000
  0.500000 -0.125000  0.250000      2.000000
 -0.375000 -0.125000  0.250000      2.000000
 -0.250000 -0.125000  0.250000      2.000000
 -0.125000 -0.125000  0.250000      2.000000
  0.000000  0.000000  0.500000      1.000000
  0.125000  0.000000  0.500000      2.000000
  0.250000  0.000000  0.500000      2.000000
  0.375000 -0.000000  0.500000      2.000000
  0.500000  0.000000  0.500000      1.000000
  0.000000  0.125000  0.500000      2.000000
  0.125000  0.125000  0.500000      2.000000
  0.250000  0.125000  0.500000      2.000000
  0.375000  0.125000  0.500000      2.000000
  0.500000  0.125000  0.500000      2.000000
 -0.375000  0.125000  0.500000      2.000000
 -0.250000  0.125000  0.500000      2.000000
 -0.125000  0.125000  0.500000      2.000000
  0.000000  0.250000  0.500000      2.000000
  0.125000  0.250000  0.500000      2.000000
  0.250000  0.250000  0.500000      2.000000
  0.375000  0.250000  0.500000      2.000000
  0.500000  0.250000  0.500000      2.000000
 -0.375000  0.250000  0.500000      2.000000
 -0.250000  0.250000  0.500000      2.000000
 -0.125000  0.250000  0.500000      2.000000
  0.000000  0.375000  0.500000      2.000000
  0.125000  0.375000  0.500000      2.000000
  0.250000  0.375000  0.500000      2.000000
  0.375000  0.375000  0.500000      2.000000
  0.500000  0.375000  0.500000      2.000000
 -0.375000  0.375000  0.500000      2.000000
 -0.250000  0.375000  0.500000      2.000000
 -0.125000  0.375000  0.500000      2.000000
  0.000000  0.500000  0.500000      1.000000
  0.125000  0.500000  0.500000      2.000000
  0.250000  0.500000  0.500000      2.000000
  0.375000  0.500000  0.500000      2.000000
  0.500000  0.500000  0.500000      1.000000
 
 Following cartesian coordinates:
            Coordinates               Weight
  0.000000  0.000000  0.000000      1.000000
  0.038891  0.022453  0.000000      2.000000
  0.077781  0.044907  0.000000      2.000000
  0.116672  0.067360  0.000000      2.000000
  0.155562  0.089814  0.000000      1.000000
  0.000000  0.044907  0.000000      2.000000
  0.038891  0.067360  0.000000      2.000000
  0.077781  0.089814  0.000000      2.000000
  0.116672  0.112267  0.000000      2.000000
  0.155562  0.134721  0.000000      2.000000
 -0.116672 -0.022453  0.000000      2.000000
 -0.077781 -0.000000  0.000000      2.000000
 -0.038891  0.022453  0.000000      2.000000
  0.000000  0.089814  0.000000      2.000000
  0.038891  0.112267  0.000000      2.000000
  0.077781  0.134721  0.000000      2.000000
  0.116672  0.157174  0.000000      2.000000
  0.155562  0.179628  0.000000      2.000000
 -0.116672  0.022453  0.000000      2.000000
 -0.077781  0.044907  0.000000      2.000000
 -0.038891  0.067360  0.000000      2.000000
  0.000000  0.134721  0.000000      2.000000
  0.038891  0.157174  0.000000      2.000000
  0.077781  0.179628  0.000000      2.000000
  0.116672  0.202081  0.000000      2.000000
  0.155562  0.224535  0.000000      2.000000
 -0.116672  0.067360  0.000000      2.000000
 -0.077781  0.089814  0.000000      2.000000
 -0.038891  0.112267  0.000000      2.000000
  0.000000  0.179628  0.000000      1.000000
  0.038891  0.202081  0.000000      2.000000
  0.077781  0.224535  0.000000      2.000000
  0.116672  0.246988  0.000000      2.000000
  0.155562  0.269442  0.000000      1.000000
  0.000000  0.000000  0.041245      2.000000
  0.038891  0.022453  0.041245      2.000000
  0.077781  0.044907  0.041245      2.000000
  0.116672  0.067360  0.041245      2.000000
  0.155562  0.089814  0.041245      2.000000
 -0.116672 -0.067360  0.041245      2.000000
 -0.077781 -0.044907  0.041245      2.000000
 -0.038891 -0.022453  0.041245      2.000000
  0.000000  0.044907  0.041245      2.000000
  0.038891  0.067360  0.041245      2.000000
  0.077781  0.089814  0.041245      2.000000
  0.116672  0.112267  0.041245      2.000000
  0.155562  0.134721  0.041245      2.000000
 -0.116672 -0.022453  0.041245      2.000000
 -0.077781 -0.000000  0.041245      2.000000
 -0.038891  0.022453  0.041245      2.000000
  0.000000  0.089814  0.041245      2.000000
  0.038891  0.112267  0.041245      2.000000
  0.077781  0.134721  0.041245      2.000000
  0.116672  0.157174  0.041245      2.000000
  0.155562  0.179628  0.041245      2.000000
 -0.116672  0.022453  0.041245      2.000000
 -0.077781  0.044907  0.041245      2.000000
 -0.038891  0.067360  0.041245      2.000000
  0.000000  0.134721  0.041245      2.000000
  0.038891  0.157174  0.041245      2.000000
  0.077781  0.179628  0.041245      2.000000
  0.116672  0.202081  0.041245      2.000000
  0.155562  0.224535  0.041245      2.000000
 -0.116672  0.067360  0.041245      2.000000
 -0.077781  0.089814  0.041245      2.000000
 -0.038891  0.112267  0.041245      2.000000
  0.000000  0.179628  0.041245      2.000000
  0.038891  0.202081  0.041245      2.000000
  0.077781  0.224535  0.041245      2.000000
  0.116672  0.246988  0.041245      2.000000
  0.155562  0.269442  0.041245      2.000000
 -0.116672  0.112267  0.041245      2.000000
 -0.077781  0.134721  0.041245      2.000000
 -0.038891  0.157174  0.041245      2.000000
  0.000000 -0.134721  0.041245      2.000000
  0.038891 -0.112267  0.041245      2.000000
  0.077781 -0.089814  0.041245      2.000000
  0.116672 -0.067360  0.041245      2.000000
  0.155562 -0.044907  0.041245      2.000000
 -0.116672 -0.202081  0.041245      2.000000
 -0.077781 -0.179628  0.041245      2.000000
 -0.038891 -0.157174  0.041245      2.000000
  0.000000 -0.089814  0.041245      2.000000
  0.038891 -0.067360  0.041245      2.000000
  0.077781 -0.044907  0.041245      2.000000
  0.116672 -0.022453  0.041245      2.000000
  0.155562  0.000000  0.041245      2.000000
 -0.116672 -0.157174  0.041245      2.000000
 -0.077781 -0.134721  0.041245      2.000000
 -0.038891 -0.112267  0.041245      2.000000
  0.000000 -0.044907  0.041245      2.000000
  0.038891 -0.022453  0.041245      2.000000
  0.077781  0.000000  0.041245      2.000000
  0.116672  0.022453  0.041245      2.000000
  0.155562  0.044907  0.041245      2.000000
 -0.116672 -0.112267  0.041245      2.000000
 -0.077781 -0.089814  0.041245      2.000000
 -0.038891 -0.067360  0.041245      2.000000
  0.000000  0.000000  0.082490      1.000000
  0.038891  0.022453  0.082490      2.000000
  0.077781  0.044907  0.082490      2.000000
  0.116672  0.067360  0.082490      2.000000
  0.155562  0.089814  0.082490      1.000000
  0.000000  0.044907  0.082490      2.000000
  0.038891  0.067360  0.082490      2.000000
  0.077781  0.089814  0.082490      2.000000
  0.116672  0.112267  0.082490      2.000000
  0.155562  0.134721  0.082490      2.000000
 -0.116672 -0.022453  0.082490      2.000000
 -0.077781 -0.000000  0.082490      2.000000
 -0.038891  0.022453  0.082490      2.000000
  0.000000  0.089814  0.082490      2.000000
  0.038891  0.112267  0.082490      2.000000
  0.077781  0.134721  0.082490      2.000000
  0.116672  0.157174  0.082490      2.000000
  0.155562  0.179628  0.082490      2.000000
 -0.116672  0.022453  0.082490      2.000000
 -0.077781  0.044907  0.082490      2.000000
 -0.038891  0.067360  0.082490      2.000000
  0.000000  0.134721  0.082490      2.000000
  0.038891  0.157174  0.082490      2.000000
  0.077781  0.179628  0.082490      2.000000
  0.116672  0.202081  0.082490      2.000000
  0.155562  0.224535  0.082490      2.000000
 -0.116672  0.067360  0.082490      2.000000
 -0.077781  0.089814  0.082490      2.000000
 -0.038891  0.112267  0.082490      2.000000
  0.000000  0.179628  0.082490      1.000000
  0.038891  0.202081  0.082490      2.000000
  0.077781  0.224535  0.082490      2.000000
  0.116672  0.246988  0.082490      2.000000
  0.155562  0.269442  0.082490      1.000000
 


--------------------------------------------------------------------------------------------------------




 Dimension of arrays:
   k-points           NKPTS =    132   k-points in BZ     NKDIM =    132   number of bands    NBANDS=     34
   number of dos      NEDOS =    301   number of ions     NIONS =      2
   non local maximal  LDIM  =      6   non local SUM 2l+1 LMDIM =     18
   total plane-waves  NPLWV =  37632
   max r-space proj   IRMAX =      1   max aug-charges    IRDMAX= 333533
   dimension x,y,z NGX =    28 NGY =   28 NGZ =   48
   dimension x,y,z NGXF=    56 NGYF=   56 NGZF=   96
   support grid    NGXF=   112 NGYF=  112 NGZF=  192
   ions per type =               2
   NGX,Y,Z   is equivalent  to a cutoff of  14.48, 14.48, 13.17 a.u.
   NGXF,Y,Z  is equivalent  to a cutoff of  28.96, 28.96, 26.33 a.u.

 SYSTEM =  Cn_HCP                                  
 POSCAR =  Cn HCP                                  

 Startparameter for this run:
   NWRITE =      2    write-flag & timer
   PREC   = accura    normal or accurate (medium, high low for compatibility)
   ISTART =      0    job   : 0-new  1-cont  2-samecut
   ICHARG =      2    charge: 1-file 2-atom 10-const
   ISPIN  =      1    spin polarized calculation?
   LNONCOLLINEAR =      T non collinear calculations
   LSORBIT =      T    spin-orbit coupling
   INIWAV =      1    electr: 0-lowe 1-rand  2-diag
   LASPH  =      F    aspherical Exc in radial PAW
   METAGGA=      F    non-selfconsistent MetaGGA calc.

 Electronic Relaxation 1
   ENCUT  =  600.0 eV  44.10 Ry    6.64 a.u.   6.42  6.42 12.11*2*pi/ulx,y,z
   ENINI  =  600.0     initial cutoff
   ENAUG  =  361.0 eV  augmentation charge cutoff
   NELM   =    100;   NELMIN=  5; NELMDL= -5     # of ELM steps 
   EDIFF  = 0.1E-06   stopping-criterion for ELM
   LREAL  =      F    real-space projection
   NLSPLINE    = F    spline interpolate recip. space projectors
   LCOMPAT=      F    compatible to vasp.4.4
   GGA_COMPAT  = F    GGA compatible to vasp.4.4-vasp.4.6
   LMAXPAW     = -100 max onsite density
   LMAXMIX     =    2 max onsite mixed and CHGCAR
   VOSKOWN=      0    Vosko Wilk Nusair interpolation
   ROPT   =    0.00000
 Ionic relaxation
   EDIFFG = 0.1E-04   stopping-criterion for IOM
   NSW    =    999    number of steps for IOM
   NBLOCK =      1;   KBLOCK =    999    inner block; outer block 
   IBRION =      1    ionic relax: 0-MD 1-quasi-New 2-CG
   NFREE  =      5    steps in history (QN), initial steepest desc. (CG)
   ISIF   =      4    stress and relaxation
   IWAVPR =     11    prediction:  0-non 1-charg 2-wave 3-comb
   ISYM   =      2    0-nonsym 1-usesym 2-fastsym
   LCORR  =      T    Harris-Foulkes like correction to forces

   POTIM  = 0.1000    time-step for ionic-motion
   TEIN   =    0.0    initial temperature
   TEBEG  =    0.0;   TEEND  =   0.0 temperature during run
   SMASS  =  -3.00    Nose mass-parameter (am)
   estimated Nose-frequenzy (Omega)   =  0.10E-29 period in steps =****** mass=  -0.236E-27a.u.
   SCALEE = 1.0000    scale energy and forces
   NPACO  =    256;   APACO  = 16.0  distance and # of slots for P.C.
   PSTRESS=    0.0 pullay stress

  Mass of Ions in am
   POMASS =   0.01
  Ionic Valenz
   ZVAL   =  12.00
  Atomic Wigner-Seitz radii
   RWIGS  =  -1.00
  virtual crystal weights 
   VCA    =   1.00
   NELECT =      24.0000    total number of electrons
   NUPDOWN=      -1.0000    fix difference up-down

 DOS related values:
   EMIN   =  10.00;   EMAX   =-10.00  energy-range for DOS
   EFERMI =   0.00
   ISMEAR =     1;   SIGMA  =   0.10  broadening in eV -4-tet -1-fermi 0-gaus

 Electronic relaxation 2 (details)
   IALGO  =     68    algorithm
   LDIAG  =      T    sub-space diagonalisation (order eigenvalues)
   LSUBROT=      F    optimize rotation matrix (better conditioning)
   TURBO    =      0    0=normal 1=particle mesh
   IRESTART =      0    0=no restart 2=restart with 2 vectors
   NREBOOT  =      0    no. of reboots
   NMIN     =      0    reboot dimension
   EREF     =   0.00    reference energy to select bands
   IMIX   =      4    mixing-type and parameters
     AMIX     =   0.40;   BMIX     =  1.00
     AMIX_MAG =   1.60;   BMIX_MAG =  1.00
     AMIN     =   0.10
     WC   =   100.;   INIMIX=   1;  MIXPRE=   1;  MAXMIX=  50

 Intra band minimization:
   WEIMIN = 0.0010     energy-eigenvalue tresh-hold
   EBREAK =  0.74E-09  absolut break condition
   DEPER  =   0.30     relativ break condition  

   TIME   =   0.40     timestep for ELM

  volume/ion in A,a.u.               =      27.11       182.98
  Fermi-wavevector in a.u.,A,eV,Ry     =   1.247579  2.357583 21.176845  1.556454
  Thomas-Fermi vector in A             =   2.381705
 
 Write flags
   LWAVE        =      F    write WAVECAR
   LDOWNSAMPLE  =      F    k-point downsampling of WAVECAR
   LCHARG       =      F    write CHGCAR
   LVTOT        =      F    write LOCPOT, total local potential
   LVHAR        =      F    write LOCPOT, Hartree potential only
   LELF         =      F    write electronic localiz. function (ELF)
   LORBIT       =      0    0 simple, 1 ext, 2 COOP (PROOUT), +10 PAW based schemes


 Dipole corrections
   LMONO  =      F    monopole corrections only (constant potential shift)
   LDIPOL =      F    correct potential (dipole corrections)
   IDIPOL =      0    1-x, 2-y, 3-z, 4-all directions 
   EPSILON=  1.0000000 bulk dielectric constant

 Exchange correlation treatment:
   GGA     =    PS    GGA type
   LEXCH   =    14    internal setting for exchange type
   VOSKOWN=      0    Vosko Wilk Nusair interpolation
   LHFCALC =     F    Hartree Fock is set to
   LHFONE  =     F    Hartree Fock one center treatment
   AEXX    =    0.0000 exact exchange contribution

 Linear response parameters
   LEPSILON=     F    determine dielectric tensor
   LRPA    =     F    only Hartree local field effects (RPA)
   LNABLA  =     F    use nabla operator in PAW spheres
   LVEL    =     F    velocity operator in full k-point grid
   LINTERFAST=   F  fast interpolation
   KINTER  =     0    interpolate to denser k-point grid
   CSHIFT  =0.1000    complex shift for real part using Kramers Kronig
   OMEGAMAX=  -1.0    maximum frequency
   DEG_THRESHOLD= 0.2000000E-02 threshold for treating states as degnerate
   RTIME   =   -0.100 relaxation time in fs
  (WPLASMAI=    0.000 imaginary part of plasma frequency in eV, 0.658/RTIME)
   DFIELD  = 0.0000000 0.0000000 0.0000000 field for delta impulse in time
 
 Orbital magnetization related:
   ORBITALMAG=     F  switch on orbital magnetization
   LCHIMAG   =     F  perturbation theory with respect to B field
   DQ        =  0.001000  dq finite difference perturbation B field
   LLRAUG    =     F  two centre corrections for induced B field



--------------------------------------------------------------------------------------------------------


 quasi-Newton-method for relaxation of ions
 charge density and potential will be updated during run
 non collinear spin polarized calculation
 RMM-DIIS sequential band-by-band and
  variant of blocked Davidson during initial phase
 perform sub-space diagonalisation
    before iterative eigenvector-optimisation
 modified Broyden-mixing scheme, WC =      100.0
 initial mixing is a Kerker type mixing with AMIX =  0.4000 and BMIX =      1.0000
 Hartree-type preconditioning will be used
 using additional bands           22
 reciprocal scheme for non local part
 use partial core corrections
 calculate Harris-corrections to forces 
   (improved forces if not selfconsistent)
 use gradient corrections 
 use of overlap-Matrix (Vanderbilt PP)
 Methfessel and Paxton  Order N= 1 SIGMA  =   0.10


--------------------------------------------------------------------------------------------------------


  energy-cutoff  :      600.00
  volume of cell :       54.23
      direct lattice vectors                 reciprocal lattice vectors
     3.214148825  0.000000000  0.000000000     0.311124361  0.179627734  0.000000000
    -1.607074413  2.783534534  0.000000000     0.000000000  0.359255467  0.000000000
     0.000000000  0.000000000  6.061339570     0.000000000  0.000000000  0.164980033

  length of vectors
     3.214148825  3.214148825  6.061339570     0.359255467  0.359255467  0.164980033


 
 k-points in units of 2pi/SCALE and weight: read from INCAR                         
   0.00000000  0.00000000  0.00000000       0.004
   0.03889055  0.02245347  0.00000000       0.008
   0.07778109  0.04490693  0.00000000       0.008
   0.11667164  0.06736040  0.00000000       0.008
   0.15556218  0.08981387  0.00000000       0.004
   0.00000000  0.04490693  0.00000000       0.008
   0.03889055  0.06736040  0.00000000       0.008
   0.07778109  0.08981387  0.00000000       0.008
   0.11667164  0.11226733  0.00000000       0.008
   0.15556218  0.13472080  0.00000000       0.008
  -0.11667164 -0.02245347  0.00000000       0.008
  -0.07778109 -0.00000000  0.00000000       0.008
  -0.03889055  0.02245347  0.00000000       0.008
   0.00000000  0.08981387  0.00000000       0.008
   0.03889055  0.11226733  0.00000000       0.008
   0.07778109  0.13472080  0.00000000       0.008
   0.11667164  0.15717427  0.00000000       0.008
   0.15556218  0.17962773  0.00000000       0.008
  -0.11667164  0.02245347  0.00000000       0.008
  -0.07778109  0.04490693  0.00000000       0.008
  -0.03889055  0.06736040  0.00000000       0.008
   0.00000000  0.13472080  0.00000000       0.008
   0.03889055  0.15717427  0.00000000       0.008
   0.07778109  0.17962773  0.00000000       0.008
   0.11667164  0.20208120  0.00000000       0.008
   0.15556218  0.22453467  0.00000000       0.008
  -0.11667164  0.06736040  0.00000000       0.008
  -0.07778109  0.08981387  0.00000000       0.008
  -0.03889055  0.11226733  0.00000000       0.008
   0.00000000  0.17962773  0.00000000       0.004
   0.03889055  0.20208120  0.00000000       0.008
   0.07778109  0.22453467  0.00000000       0.008
   0.11667164  0.24698813  0.00000000       0.008
   0.15556218  0.26944160  0.00000000       0.004
   0.00000000  0.00000000  0.04124501       0.008
   0.03889055  0.02245347  0.04124501       0.008
   0.07778109  0.04490693  0.04124501       0.008
   0.11667164  0.06736040  0.04124501       0.008
   0.15556218  0.08981387  0.04124501       0.008
  -0.11667164 -0.06736040  0.04124501       0.008
  -0.07778109 -0.04490693  0.04124501       0.008
  -0.03889055 -0.02245347  0.04124501       0.008
   0.00000000  0.04490693  0.04124501       0.008
   0.03889055  0.06736040  0.04124501       0.008
   0.07778109  0.08981387  0.04124501       0.008
   0.11667164  0.11226733  0.04124501       0.008
   0.15556218  0.13472080  0.04124501       0.008
  -0.11667164 -0.02245347  0.04124501       0.008
  -0.07778109 -0.00000000  0.04124501       0.008
  -0.03889055  0.02245347  0.04124501       0.008
   0.00000000  0.08981387  0.04124501       0.008
   0.03889055  0.11226733  0.04124501       0.008
   0.07778109  0.13472080  0.04124501       0.008
   0.11667164  0.15717427  0.04124501       0.008
   0.15556218  0.17962773  0.04124501       0.008
  -0.11667164  0.02245347  0.04124501       0.008
  -0.07778109  0.04490693  0.04124501       0.008
  -0.03889055  0.06736040  0.04124501       0.008
   0.00000000  0.13472080  0.04124501       0.008
   0.03889055  0.15717427  0.04124501       0.008
   0.07778109  0.17962773  0.04124501       0.008
   0.11667164  0.20208120  0.04124501       0.008
   0.15556218  0.22453467  0.04124501       0.008
  -0.11667164  0.06736040  0.04124501       0.008
  -0.07778109  0.08981387  0.04124501       0.008
  -0.03889055  0.11226733  0.04124501       0.008
   0.00000000  0.17962773  0.04124501       0.008
   0.03889055  0.20208120  0.04124501       0.008
   0.07778109  0.22453467  0.04124501       0.008
   0.11667164  0.24698813  0.04124501       0.008
   0.15556218  0.26944160  0.04124501       0.008
  -0.11667164  0.11226733  0.04124501       0.008
  -0.07778109  0.13472080  0.04124501       0.008
  -0.03889055  0.15717427  0.04124501       0.008
   0.00000000 -0.13472080  0.04124501       0.008
   0.03889055 -0.11226733  0.04124501       0.008
   0.07778109 -0.08981387  0.04124501       0.008
   0.11667164 -0.06736040  0.04124501       0.008
   0.15556218 -0.04490693  0.04124501       0.008
  -0.11667164 -0.20208120  0.04124501       0.008
  -0.07778109 -0.17962773  0.04124501       0.008
  -0.03889055 -0.15717427  0.04124501       0.008
   0.00000000 -0.08981387  0.04124501       0.008
   0.03889055 -0.06736040  0.04124501       0.008
   0.07778109 -0.04490693  0.04124501       0.008
   0.11667164 -0.02245347  0.04124501       0.008
   0.15556218  0.00000000  0.04124501       0.008
  -0.11667164 -0.15717427  0.04124501       0.008
  -0.07778109 -0.13472080  0.04124501       0.008
  -0.03889055 -0.11226733  0.04124501       0.008
   0.00000000 -0.04490693  0.04124501       0.008
   0.03889055 -0.02245347  0.04124501       0.008
   0.07778109  0.00000000  0.04124501       0.008
   0.11667164  0.02245347  0.04124501       0.008
   0.15556218  0.04490693  0.04124501       0.008
  -0.11667164 -0.11226733  0.04124501       0.008
  -0.07778109 -0.08981387  0.04124501       0.008
  -0.03889055 -0.06736040  0.04124501       0.008
   0.00000000  0.00000000  0.08249002       0.004
   0.03889055  0.02245347  0.08249002       0.008
   0.07778109  0.04490693  0.08249002       0.008
   0.11667164  0.06736040  0.08249002       0.008
   0.15556218  0.08981387  0.08249002       0.004
   0.00000000  0.04490693  0.08249002       0.008
   0.03889055  0.06736040  0.08249002       0.008
   0.07778109  0.08981387  0.08249002       0.008
   0.11667164  0.11226733  0.08249002       0.008
   0.15556218  0.13472080  0.08249002       0.008
  -0.11667164 -0.02245347  0.08249002       0.008
  -0.07778109 -0.00000000  0.08249002       0.008
  -0.03889055  0.02245347  0.08249002       0.008
   0.00000000  0.08981387  0.08249002       0.008
   0.03889055  0.11226733  0.08249002       0.008
   0.07778109  0.13472080  0.08249002       0.008
   0.11667164  0.15717427  0.08249002       0.008
   0.15556218  0.17962773  0.08249002       0.008
  -0.11667164  0.02245347  0.08249002       0.008
  -0.07778109  0.04490693  0.08249002       0.008
  -0.03889055  0.06736040  0.08249002       0.008
   0.00000000  0.13472080  0.08249002       0.008
   0.03889055  0.15717427  0.08249002       0.008
   0.07778109  0.17962773  0.08249002       0.008
   0.11667164  0.20208120  0.08249002       0.008
   0.15556218  0.22453467  0.08249002       0.008
  -0.11667164  0.06736040  0.08249002       0.008
  -0.07778109  0.08981387  0.08249002       0.008
  -0.03889055  0.11226733  0.08249002       0.008
   0.00000000  0.17962773  0.08249002       0.004
   0.03889055  0.20208120  0.08249002       0.008
   0.07778109  0.22453467  0.08249002       0.008
   0.11667164  0.24698813  0.08249002       0.008
   0.15556218  0.26944160  0.08249002       0.004
 
 k-points in reciprocal lattice and weights: read from INCAR                         
   0.00000000  0.00000000  0.00000000       0.004
   0.12500000  0.00000000  0.00000000       0.008
   0.25000000  0.00000000  0.00000000       0.008
   0.37500000 -0.00000000  0.00000000       0.008
   0.50000000  0.00000000  0.00000000       0.004
   0.00000000  0.12500000  0.00000000       0.008
   0.12500000  0.12500000  0.00000000       0.008
   0.25000000  0.12500000  0.00000000       0.008
   0.37500000  0.12500000  0.00000000       0.008
   0.50000000  0.12500000  0.00000000       0.008
  -0.37500000  0.12500000  0.00000000       0.008
  -0.25000000  0.12500000  0.00000000       0.008
  -0.12500000  0.12500000  0.00000000       0.008
   0.00000000  0.25000000  0.00000000       0.008
   0.12500000  0.25000000  0.00000000       0.008
   0.25000000  0.25000000  0.00000000       0.008
   0.37500000  0.25000000  0.00000000       0.008
   0.50000000  0.25000000  0.00000000       0.008
  -0.37500000  0.25000000  0.00000000       0.008
  -0.25000000  0.25000000  0.00000000       0.008
  -0.12500000  0.25000000  0.00000000       0.008
   0.00000000  0.37500000  0.00000000       0.008
   0.12500000  0.37500000  0.00000000       0.008
   0.25000000  0.37500000  0.00000000       0.008
   0.37500000  0.37500000  0.00000000       0.008
   0.50000000  0.37500000  0.00000000       0.008
  -0.37500000  0.37500000  0.00000000       0.008
  -0.25000000  0.37500000  0.00000000       0.008
  -0.12500000  0.37500000  0.00000000       0.008
   0.00000000  0.50000000  0.00000000       0.004
   0.12500000  0.50000000  0.00000000       0.008
   0.25000000  0.50000000  0.00000000       0.008
   0.37500000  0.50000000  0.00000000       0.008
   0.50000000  0.50000000  0.00000000       0.004
   0.00000000  0.00000000  0.25000000       0.008
   0.12500000  0.00000000  0.25000000       0.008
   0.25000000  0.00000000  0.25000000       0.008
   0.37500000 -0.00000000  0.25000000       0.008
   0.50000000  0.00000000  0.25000000       0.008
  -0.37500000  0.00000000  0.25000000       0.008
  -0.25000000  0.00000000  0.25000000       0.008
  -0.12500000  0.00000000  0.25000000       0.008
   0.00000000  0.12500000  0.25000000       0.008
   0.12500000  0.12500000  0.25000000       0.008
   0.25000000  0.12500000  0.25000000       0.008
   0.37500000  0.12500000  0.25000000       0.008
   0.50000000  0.12500000  0.25000000       0.008
  -0.37500000  0.12500000  0.25000000       0.008
  -0.25000000  0.12500000  0.25000000       0.008
  -0.12500000  0.12500000  0.25000000       0.008
   0.00000000  0.25000000  0.25000000       0.008
   0.12500000  0.25000000  0.25000000       0.008
   0.25000000  0.25000000  0.25000000       0.008
   0.37500000  0.25000000  0.25000000       0.008
   0.50000000  0.25000000  0.25000000       0.008
  -0.37500000  0.25000000  0.25000000       0.008
  -0.25000000  0.25000000  0.25000000       0.008
  -0.12500000  0.25000000  0.25000000       0.008
   0.00000000  0.37500000  0.25000000       0.008
   0.12500000  0.37500000  0.25000000       0.008
   0.25000000  0.37500000  0.25000000       0.008
   0.37500000  0.37500000  0.25000000       0.008
   0.50000000  0.37500000  0.25000000       0.008
  -0.37500000  0.37500000  0.25000000       0.008
  -0.25000000  0.37500000  0.25000000       0.008
  -0.12500000  0.37500000  0.25000000       0.008
   0.00000000  0.50000000  0.25000000       0.008
   0.12500000  0.50000000  0.25000000       0.008
   0.25000000  0.50000000  0.25000000       0.008
   0.37500000  0.50000000  0.25000000       0.008
   0.50000000  0.50000000  0.25000000       0.008
  -0.37500000  0.50000000  0.25000000       0.008
  -0.25000000  0.50000000  0.25000000       0.008
  -0.12500000  0.50000000  0.25000000       0.008
   0.00000000 -0.37500000  0.25000000       0.008
   0.12500000 -0.37500000  0.25000000       0.008
   0.25000000 -0.37500000  0.25000000       0.008
   0.37500000 -0.37500000  0.25000000       0.008
   0.50000000 -0.37500000  0.25000000       0.008
  -0.37500000 -0.37500000  0.25000000       0.008
  -0.25000000 -0.37500000  0.25000000       0.008
  -0.12500000 -0.37500000  0.25000000       0.008
   0.00000000 -0.25000000  0.25000000       0.008
   0.12500000 -0.25000000  0.25000000       0.008
   0.25000000 -0.25000000  0.25000000       0.008
   0.37500000 -0.25000000  0.25000000       0.008
   0.50000000 -0.25000000  0.25000000       0.008
  -0.37500000 -0.25000000  0.25000000       0.008
  -0.25000000 -0.25000000  0.25000000       0.008
  -0.12500000 -0.25000000  0.25000000       0.008
   0.00000000 -0.12500000  0.25000000       0.008
   0.12500000 -0.12500000  0.25000000       0.008
   0.25000000 -0.12500000  0.25000000       0.008
   0.37500000 -0.12500000  0.25000000       0.008
   0.50000000 -0.12500000  0.25000000       0.008
  -0.37500000 -0.12500000  0.25000000       0.008
  -0.25000000 -0.12500000  0.25000000       0.008
  -0.12500000 -0.12500000  0.25000000       0.008
   0.00000000  0.00000000  0.50000000       0.004
   0.12500000  0.00000000  0.50000000       0.008
   0.25000000  0.00000000  0.50000000       0.008
   0.37500000 -0.00000000  0.50000000       0.008
   0.50000000  0.00000000  0.50000000       0.004
   0.00000000  0.12500000  0.50000000       0.008
   0.12500000  0.12500000  0.50000000       0.008
   0.25000000  0.12500000  0.50000000       0.008
   0.37500000  0.12500000  0.50000000       0.008
   0.50000000  0.12500000  0.50000000       0.008
  -0.37500000  0.12500000  0.50000000       0.008
  -0.25000000  0.12500000  0.50000000       0.008
  -0.12500000  0.12500000  0.50000000       0.008
   0.00000000  0.25000000  0.50000000       0.008
   0.12500000  0.25000000  0.50000000       0.008
   0.25000000  0.25000000  0.50000000       0.008
   0.37500000  0.25000000  0.50000000       0.008
   0.50000000  0.25000000  0.50000000       0.008
  -0.37500000  0.25000000  0.50000000       0.008
  -0.25000000  0.25000000  0.50000000       0.008
  -0.12500000  0.25000000  0.50000000       0.008
   0.00000000  0.37500000  0.50000000       0.008
   0.12500000  0.37500000  0.50000000       0.008
   0.25000000  0.37500000  0.50000000       0.008
   0.37500000  0.37500000  0.50000000       0.008
   0.50000000  0.37500000  0.50000000       0.008
  -0.37500000  0.37500000  0.50000000       0.008
  -0.25000000  0.37500000  0.50000000       0.008
  -0.12500000  0.37500000  0.50000000       0.008
   0.00000000  0.50000000  0.50000000       0.004
   0.12500000  0.50000000  0.50000000       0.008
   0.25000000  0.50000000  0.50000000       0.008
   0.37500000  0.50000000  0.50000000       0.008
   0.50000000  0.50000000  0.50000000       0.004
 
 position of ions in fractional coordinates (direct lattice) 
   0.16666999  0.33333001  0.25000000
   0.83333004  0.66666996  0.75000000
 
 position of ions in cartesian coordinates  (Angst):
   0.00001605  0.92783558  1.51533489
   1.60705851  1.85569887  4.54600468
 
 Euler angles ALPHA=     0.0000000  BETA=     0.0000000

 transformation matrix from SAXIS to cartesian coordinates
 ---------------------------------------------------------
     1.0000000 m_x     0.0000000 m_y     0.0000000 m_z
     0.0000000 m_x     1.0000000 m_y     0.0000000 m_z
     0.0000000 m_x     0.0000000 m_y     1.0000000 m_z

 transformation matrix from cartesian coordinates to SAXIS
 ---------------------------------------------------------
     1.0000000 m_x     0.0000000 m_y     0.0000000 m_z
     0.0000000 m_x     1.0000000 m_y     0.0000000 m_z
     0.0000000 m_x     0.0000000 m_y     1.0000000 m_z




--------------------------------------------------------------------------------------------------------


 k-point  1 :   0.0000 0.0000 0.0000  plane waves:    3602
 k-point  2 :   0.1250 0.0000 0.0000  plane waves:    3634
 k-point  3 :   0.2500 0.0000 0.0000  plane waves:    3650
 k-point  4 :   0.3750-0.0000 0.0000  plane waves:    3614
 k-point  5 :   0.5000 0.0000 0.0000  plane waves:    3628
 k-point  6 :   0.0000 0.1250 0.0000  plane waves:    3634
 k-point  7 :   0.1250 0.1250 0.0000  plane waves:    3634
 k-point  8 :   0.2500 0.1250 0.0000  plane waves:    3604
 k-point  9 :   0.3750 0.1250 0.0000  plane waves:    3596
 k-point 10 :   0.5000 0.1250 0.0000  plane waves:    3596
 k-point 11 :  -0.3750 0.1250 0.0000  plane waves:    3604
 k-point 12 :  -0.2500 0.1250 0.0000  plane waves:    3634
 k-point 13 :  -0.1250 0.1250 0.0000  plane waves:    3634
 k-point 14 :   0.0000 0.2500 0.0000  plane waves:    3650
 k-point 15 :   0.1250 0.2500 0.0000  plane waves:    3604
 k-point 16 :   0.2500 0.2500 0.0000  plane waves:    3612
 k-point 17 :   0.3750 0.2500 0.0000  plane waves:    3612
 k-point 18 :   0.5000 0.2500 0.0000  plane waves:    3612
 k-point 19 :  -0.3750 0.2500 0.0000  plane waves:    3604
 k-point 20 :  -0.2500 0.2500 0.0000  plane waves:    3650
 k-point 21 :  -0.1250 0.2500 0.0000  plane waves:    3634
 k-point 22 :   0.0000 0.3750 0.0000  plane waves:    3614
 k-point 23 :   0.1250 0.3750 0.0000  plane waves:    3596
 k-point 24 :   0.2500 0.3750 0.0000  plane waves:    3612
 k-point 25 :   0.3750 0.3750 0.0000  plane waves:    3612
 k-point 26 :   0.5000 0.3750 0.0000  plane waves:    3596
 k-point 27 :  -0.3750 0.3750 0.0000  plane waves:    3614
 k-point 28 :  -0.2500 0.3750 0.0000  plane waves:    3604
 k-point 29 :  -0.1250 0.3750 0.0000  plane waves:    3604
 k-point 30 :   0.0000 0.5000 0.0000  plane waves:    3628
 k-point 31 :   0.1250 0.5000 0.0000  plane waves:    3596
 k-point 32 :   0.2500 0.5000 0.0000  plane waves:    3612
 k-point 33 :   0.3750 0.5000 0.0000  plane waves:    3596
 k-point 34 :   0.5000 0.5000 0.0000  plane waves:    3628
 k-point 35 :   0.0000 0.0000 0.2500  plane waves:    3600
 k-point 36 :   0.1250 0.0000 0.2500  plane waves:    3656
 k-point 37 :   0.2500 0.0000 0.2500  plane waves:    3654
 k-point 38 :   0.3750-0.0000 0.2500  plane waves:    3620
 k-point 39 :   0.5000 0.0000 0.2500  plane waves:    3608
 k-point 40 :  -0.3750 0.0000 0.2500  plane waves:    3620
 k-point 41 :  -0.2500 0.0000 0.2500  plane waves:    3654
 k-point 42 :  -0.1250 0.0000 0.2500  plane waves:    3656
 k-point 43 :   0.0000 0.1250 0.2500  plane waves:    3656
 k-point 44 :   0.1250 0.1250 0.2500  plane waves:    3654
 k-point 45 :   0.2500 0.1250 0.2500  plane waves:    3622
 k-point 46 :   0.3750 0.1250 0.2500  plane waves:    3592
 k-point 47 :   0.5000 0.1250 0.2500  plane waves:    3592
 k-point 48 :  -0.3750 0.1250 0.2500  plane waves:    3622
 k-point 49 :  -0.2500 0.1250 0.2500  plane waves:    3654
 k-point 50 :  -0.1250 0.1250 0.2500  plane waves:    3656
 k-point 51 :   0.0000 0.2500 0.2500  plane waves:    3654
 k-point 52 :   0.1250 0.2500 0.2500  plane waves:    3622
 k-point 53 :   0.2500 0.2500 0.2500  plane waves:    3602
 k-point 54 :   0.3750 0.2500 0.2500  plane waves:    3606
 k-point 55 :   0.5000 0.2500 0.2500  plane waves:    3602
 k-point 56 :  -0.3750 0.2500 0.2500  plane waves:    3622
 k-point 57 :  -0.2500 0.2500 0.2500  plane waves:    3654
 k-point 58 :  -0.1250 0.2500 0.2500  plane waves:    3654
 k-point 59 :   0.0000 0.3750 0.2500  plane waves:    3620
 k-point 60 :   0.1250 0.3750 0.2500  plane waves:    3592
 k-point 61 :   0.2500 0.3750 0.2500  plane waves:    3606
 k-point 62 :   0.3750 0.3750 0.2500  plane waves:    3606
 k-point 63 :   0.5000 0.3750 0.2500  plane waves:    3592
 k-point 64 :  -0.3750 0.3750 0.2500  plane waves:    3620
 k-point 65 :  -0.2500 0.3750 0.2500  plane waves:    3622
 k-point 66 :  -0.1250 0.3750 0.2500  plane waves:    3622
 k-point 67 :   0.0000 0.5000 0.2500  plane waves:    3608
 k-point 68 :   0.1250 0.5000 0.2500  plane waves:    3592
 k-point 69 :   0.2500 0.5000 0.2500  plane waves:    3602
 k-point 70 :   0.3750 0.5000 0.2500  plane waves:    3592
 k-point 71 :   0.5000 0.5000 0.2500  plane waves:    3608
 k-point 72 :  -0.3750 0.5000 0.2500  plane waves:    3592
 k-point 73 :  -0.2500 0.5000 0.2500  plane waves:    3602
 k-point 74 :  -0.1250 0.5000 0.2500  plane waves:    3592
 k-point 75 :   0.0000-0.3750 0.2500  plane waves:    3620
 k-point 76 :   0.1250-0.3750 0.2500  plane waves:    3622
 k-point 77 :   0.2500-0.3750 0.2500  plane waves:    3622
 k-point 78 :   0.3750-0.3750 0.2500  plane waves:    3620
 k-point 79 :   0.5000-0.3750 0.2500  plane waves:    3592
 k-point 80 :  -0.3750-0.3750 0.2500  plane waves:    3606
 k-point 81 :  -0.2500-0.3750 0.2500  plane waves:    3606
 k-point 82 :  -0.1250-0.3750 0.2500  plane waves:    3592
 k-point 83 :   0.0000-0.2500 0.2500  plane waves:    3654
 k-point 84 :   0.1250-0.2500 0.2500  plane waves:    3654
 k-point 85 :   0.2500-0.2500 0.2500  plane waves:    3654
 k-point 86 :   0.3750-0.2500 0.2500  plane waves:    3622
 k-point 87 :   0.5000-0.2500 0.2500  plane waves:    3602
 k-point 88 :  -0.3750-0.2500 0.2500  plane waves:    3606
 k-point 89 :  -0.2500-0.2500 0.2500  plane waves:    3602
 k-point 90 :  -0.1250-0.2500 0.2500  plane waves:    3622
 k-point 91 :   0.0000-0.1250 0.2500  plane waves:    3656
 k-point 92 :   0.1250-0.1250 0.2500  plane waves:    3656
 k-point 93 :   0.2500-0.1250 0.2500  plane waves:    3654
 k-point 94 :   0.3750-0.1250 0.2500  plane waves:    3622
 k-point 95 :   0.5000-0.1250 0.2500  plane waves:    3592
 k-point 96 :  -0.3750-0.1250 0.2500  plane waves:    3592
 k-point 97 :  -0.2500-0.1250 0.2500  plane waves:    3622
 k-point 98 :  -0.1250-0.1250 0.2500  plane waves:    3654
 k-point 99 :   0.0000 0.0000 0.5000  plane waves:    3624
 k-point ** :   0.1250 0.0000 0.5000  plane waves:    3648
 k-point ** :   0.2500 0.0000 0.5000  plane waves:    3648
 k-point ** :   0.3750-0.0000 0.5000  plane waves:    3600
 k-point ** :   0.5000 0.0000 0.5000  plane waves:    3600
 k-point ** :   0.0000 0.1250 0.5000  plane waves:    3648
 k-point ** :   0.1250 0.1250 0.5000  plane waves:    3632
 k-point ** :   0.2500 0.1250 0.5000  plane waves:    3640
 k-point ** :   0.3750 0.1250 0.5000  plane waves:    3620
 k-point ** :   0.5000 0.1250 0.5000  plane waves:    3620
 k-point ** :  -0.3750 0.1250 0.5000  plane waves:    3640
 k-point ** :  -0.2500 0.1250 0.5000  plane waves:    3632
 k-point ** :  -0.1250 0.1250 0.5000  plane waves:    3648
 k-point ** :   0.0000 0.2500 0.5000  plane waves:    3648
 k-point ** :   0.1250 0.2500 0.5000  plane waves:    3640
 k-point ** :   0.2500 0.2500 0.5000  plane waves:    3600
 k-point ** :   0.3750 0.2500 0.5000  plane waves:    3592
 k-point ** :   0.5000 0.2500 0.5000  plane waves:    3600
 k-point ** :  -0.3750 0.2500 0.5000  plane waves:    3640
 k-point ** :  -0.2500 0.2500 0.5000  plane waves:    3648
 k-point ** :  -0.1250 0.2500 0.5000  plane waves:    3632
 k-point ** :   0.0000 0.3750 0.5000  plane waves:    3600
 k-point ** :   0.1250 0.3750 0.5000  plane waves:    3620
 k-point ** :   0.2500 0.3750 0.5000  plane waves:    3592
 k-point ** :   0.3750 0.3750 0.5000  plane waves:    3592
 k-point ** :   0.5000 0.3750 0.5000  plane waves:    3620
 k-point ** :  -0.3750 0.3750 0.5000  plane waves:    3600
 k-point ** :  -0.2500 0.3750 0.5000  plane waves:    3640
 k-point ** :  -0.1250 0.3750 0.5000  plane waves:    3640
 k-point ** :   0.0000 0.5000 0.5000  plane waves:    3600
 k-point ** :   0.1250 0.5000 0.5000  plane waves:    3620
 k-point ** :   0.2500 0.5000 0.5000  plane waves:    3600
 k-point ** :   0.3750 0.5000 0.5000  plane waves:    3620
 k-point ** :   0.5000 0.5000 0.5000  plane waves:    3600

 maximum and minimum number of plane-waves per node :       940      870

 maximum number of plane-waves:      3656
 maximum index in each direction: 
   IXMAX=    6   IYMAX=    6   IZMAX=   12
   IXMIN=   -6   IYMIN=   -6   IZMIN=  -12


 parallel 3D FFT for wavefunctions:
    minimum data exchange during FFTs selected (reduces bandwidth)
 parallel 3D FFT for charge:
    minimum data exchange during FFTs selected (reduces bandwidth)


 total amount of memory used by VASP MPI-rank0    93864. kBytes
=======================================================================

   base      :      30000. kBytes
   nonl-proj :       8720. kBytes
   fftplans  :      11269. kBytes
   grid      :       9633. kBytes
   one-center:         62. kBytes
   wavefun   :      34180. kBytes
 
     INWAV:  cpu time    0.0000: real time    0.0000
 Broyden mixing: mesh for mixing (old mesh)
   NGX = 13   NGY = 13   NGZ = 25
  (NGX  = 56   NGY  = 56   NGZ  = 96)
  gives a total of   4225 points

 initial charge density was supplied:
 charge density of overlapping atoms calculated
 number of electron      24.0000000 magnetization       2.0000000      2.0000000      2.0000000
 keeping initial charge density in first step


--------------------------------------------------------------------------------------------------------


 Maximum index for augmentation-charges        40528 (set IRDMAX)


--------------------------------------------------------------------------------------------------------


 First call to EWALD:  gamma=   0.468
 Maximum number of real-space cells 4x 4x 2
 Maximum number of reciprocal cells 2x 2x 4

    FEWALD:  cpu time    0.0021: real time    0.0021


--------------------------------------- Iteration      1(   1)  ---------------------------------------


    POTLOK:  cpu time    0.0860: real time    0.0869
    SETDIJ:  cpu time    0.1722: real time    0.1723
     EDDAV:  cpu time    1.3496: real time    1.3497
       DOS:  cpu time    0.0021: real time    0.0021
    --------------------------------------------
      LOOP:  cpu time    1.6099: real time    1.6109

 eigenvalue-minimisations  :  8976
 total energy-change (2. order) : 0.3180138E+03  (-0.1191763E+04)
 number of electron      24.0000000 magnetization       2.0000000      2.0000000      2.0000000
 augmentation part       24.0000000 magnetization       2.0000000      2.0000000      2.0000000

 Free energy of the ion-electron system (eV)
  ---------------------------------------------------
  alpha Z        PSCENC =       165.99778541
  Ewald energy   TEWEN  =     -1986.76960569
  -Hartree energ DENC   =      -283.27954492
  -exchange      EXHF   =         0.00000000
  -V(xc)+E(xc)   XCENC  =      -214.06503990
  PAW double counting   =      2116.55855324    -1844.98179328
  entropy T*S    EENTRO =        -0.00044429
  eigenvalues    EBANDS =       319.06002228
  atomic energy  EATOM  =      2045.49387584
  Solvation  Ediel_sol  =         0.00000000
  ---------------------------------------------------
  free energy    TOTEN  =       318.01380867 eV

  energy without entropy =      318.01425296  energy(sigma->0) =      318.01395677


--------------------------------------------------------------------------------------------------------




--------------------------------------- Iteration      1(   2)  ---------------------------------------


     EDDAV:  cpu time    1.4124: real time    1.4124
       DOS:  cpu time    0.0021: real time    0.0021
    --------------------------------------------
      LOOP:  cpu time    1.4144: real time    1.4145

 eigenvalue-minimisations  :  9714
 total energy-change (2. order) :-0.2730963E+03  (-0.2330096E+03)
 number of electron      24.0000000 magnetization       2.0000000      2.0000000      2.0000000
 augmentation part       24.0000000 magnetization       2.0000000      2.0000000      2.0000000

 Free energy of the ion-electron system (eV)
  ---------------------------------------------------
  alpha Z        PSCENC =       165.99778541
  Ewald energy   TEWEN  =     -1986.76960569
  -Hartree energ DENC   =      -283.27954492
  -exchange      EXHF   =         0.00000000
  -V(xc)+E(xc)   XCENC  =      -214.06503990
  PAW double counting   =      2116.55855324    -1844.98179328
  entropy T*S    EENTRO =         0.00049424
  eigenvalues    EBANDS =        45.96276851
  atomic energy  EATOM  =      2045.49387584
  Solvation  Ediel_sol  =         0.00000000
  ---------------------------------------------------
  free energy    TOTEN  =        44.91749343 eV

  energy without entropy =       44.91699919  energy(sigma->0) =       44.91732869


--------------------------------------------------------------------------------------------------------




--------------------------------------- Iteration      1(   3)  ---------------------------------------


     EDDAV:  cpu time    1.9826: real time    1.9829
       DOS:  cpu time    0.0026: real time    0.0026
    --------------------------------------------
      LOOP:  cpu time    1.9852: real time    1.9855

 eigenvalue-minimisations  : 15488
 total energy-change (2. order) :-0.4488845E+02  (-0.3705882E+02)
 number of electron      24.0000000 magnetization       2.0000000      2.0000000      2.0000000
 augmentation part       24.0000000 magnetization       2.0000000      2.0000000      2.0000000

 Free energy of the ion-electron system (eV)
  ---------------------------------------------------
  alpha Z        PSCENC =       165.99778541
  Ewald energy   TEWEN  =     -1986.76960569
  -Hartree energ DENC   =      -283.27954492
  -exchange      EXHF   =         0.00000000
  -V(xc)+E(xc)   XCENC  =      -214.06503990
  PAW double counting   =      2116.55855324    -1844.98179328
  entropy T*S    EENTRO =        -0.00019918
  eigenvalues    EBANDS =         1.07501589
  atomic energy  EATOM  =      2045.49387584
  Solvation  Ediel_sol  =         0.00000000
  ---------------------------------------------------
  free energy    TOTEN  =         0.02904740 eV

  energy without entropy =        0.02924658  energy(sigma->0) =        0.02911379


--------------------------------------------------------------------------------------------------------




--------------------------------------- Iteration      1(   4)  ---------------------------------------


     EDDAV:  cpu time    1.7338: real time    1.7341
       DOS:  cpu time    0.0023: real time    0.0023
    --------------------------------------------
      LOOP:  cpu time    1.7361: real time    1.7363

 eigenvalue-minimisations  : 12968
 total energy-change (2. order) :-0.2288227E+01  (-0.2210578E+01)
 number of electron      24.0000000 magnetization       2.0000000      2.0000000      2.0000000
 augmentation part       24.0000000 magnetization       2.0000000      2.0000000      2.0000000

 Free energy of the ion-electron system (eV)
  ---------------------------------------------------
  alpha Z        PSCENC =       165.99778541
  Ewald energy   TEWEN  =     -1986.76960569
  -Hartree energ DENC   =      -283.27954492
  -exchange      EXHF   =         0.00000000
  -V(xc)+E(xc)   XCENC  =      -214.06503990
  PAW double counting   =      2116.55855324    -1844.98179328
  entropy T*S    EENTRO =        -0.00129170
  eigenvalues    EBANDS =        -1.21211902
  atomic energy  EATOM  =      2045.49387584
  Solvation  Ediel_sol  =         0.00000000
  ---------------------------------------------------
  free energy    TOTEN  =        -2.25918004 eV

  energy without entropy =       -2.25788833  energy(sigma->0) =       -2.25874947


--------------------------------------------------------------------------------------------------------




--------------------------------------- Iteration      1(   5)  ---------------------------------------


     EDDAV:  cpu time    1.8852: real time    1.8855
       DOS:  cpu time    0.0024: real time    0.0024
    CHARGE:  cpu time    0.3441: real time    0.3443
    MIXING:  cpu time    0.0100: real time    0.0101
    --------------------------------------------
      LOOP:  cpu time    2.2418: real time    2.2423

 eigenvalue-minimisations  : 14480
 total energy-change (2. order) :-0.6898504E-01  (-0.6880705E-01)
 number of electron      24.0000000 magnetization       0.3913170      0.3913450      0.4073092
 augmentation part        3.1170774 magnetization       0.3367236      0.3367461      0.3368077

 Broyden mixing:
  rms(total) = 0.76679E+00    rms(broyden)= 0.76678E+00
  rms(prec ) = 0.82774E+00
  weight for this iteration     100.00

 Free energy of the ion-electron system (eV)
  ---------------------------------------------------
  alpha Z        PSCENC =       165.99778541
  Ewald energy   TEWEN  =     -1986.76960569
  -Hartree energ DENC   =      -283.27954492
  -exchange      EXHF   =         0.00000000
  -V(xc)+E(xc)   XCENC  =      -214.06503990
  PAW double counting   =      2116.55855324    -1844.98179328
  entropy T*S    EENTRO =        -0.00127714
  eigenvalues    EBANDS =        -1.28111862
  atomic energy  EATOM  =      2045.49387584
  Solvation  Ediel_sol  =         0.00000000
  ---------------------------------------------------
  free energy    TOTEN  =        -2.32816508 eV

  energy without entropy =       -2.32688794  energy(sigma->0) =       -2.32773936


--------------------------------------------------------------------------------------------------------




--------------------------------------- Iteration      1(   6)  ---------------------------------------


    POTLOK:  cpu time    0.0787: real time    0.0792
    SETDIJ:  cpu time    0.1710: real time    0.1710
    EDDIAG:  cpu time    0.3410: real time    0.3411
  RMM-DIIS:  cpu time    1.2502: real time    1.2502
    ORTHCH:  cpu time    0.0222: real time    0.0222
       DOS:  cpu time    0.0026: real time    0.0026
    CHARGE:  cpu time    0.3202: real time    0.3202
    MIXING:  cpu time    0.0066: real time    0.0066
    --------------------------------------------
      LOOP:  cpu time    2.1924: real time    2.1930

 eigenvalue-minimisations  :  9007
 total energy-change (2. order) :-0.3805253E+00  (-0.6326089E-01)
 number of electron      24.0000000 magnetization       0.0969962      0.0970251      0.0977954
 augmentation part        3.2016186 magnetization       0.0524019      0.0524257      0.0579193

 Broyden mixing:
  rms(total) = 0.18143E+00    rms(broyden)= 0.18143E+00
  rms(prec ) = 0.20358E+00
  weight for this iteration     100.00

 eigenvalues of (default mixing * dielectric matrix)
  average eigenvalue GAMMA=   0.8643
  0.8643

 Free energy of the ion-electron system (eV)
  ---------------------------------------------------
  alpha Z        PSCENC =       165.99778541
  Ewald energy   TEWEN  =     -1986.76960569
  -Hartree energ DENC   =      -275.93437266
  -exchange      EXHF   =         0.00000000
  -V(xc)+E(xc)   XCENC  =      -214.52595081
  PAW double counting   =      2102.95565434    -1832.09240950
  entropy T*S    EENTRO =         0.00012106
  eigenvalues    EBANDS =        -7.83378833
  atomic energy  EATOM  =      2045.49387584
  Solvation  Ediel_sol  =         0.00000000
  ---------------------------------------------------
  free energy    TOTEN  =        -2.70869035 eV

  energy without entropy =       -2.70881141  energy(sigma->0) =       -2.70873070


--------------------------------------------------------------------------------------------------------




--------------------------------------- Iteration      1(   7)  ---------------------------------------


    POTLOK:  cpu time    0.0769: real time    0.0770
    SETDIJ:  cpu time    0.1720: real time    0.1720
    EDDIAG:  cpu time    0.3401: real time    0.3401
  RMM-DIIS:  cpu time    1.2924: real time    1.2924
    ORTHCH:  cpu time    0.0221: real time    0.0221
       DOS:  cpu time    0.0022: real time    0.0022
    CHARGE:  cpu time    0.3118: real time    0.3118
    MIXING:  cpu time    0.0063: real time    0.0063
    --------------------------------------------
      LOOP:  cpu time    2.2239: real time    2.2240

 eigenvalue-minimisations  :  9159
 total energy-change (2. order) :-0.1920292E+00  (-0.1291616E-01)
 number of electron      24.0000000 magnetization       0.0004471      0.0004471     -0.0004442
 augmentation part        3.2288066 magnetization      -0.0086051     -0.0085908     -0.0092205

 Broyden mixing:
  rms(total) = 0.49336E-01    rms(broyden)= 0.49336E-01
  rms(prec ) = 0.64634E-01
  weight for this iteration     100.00

 eigenvalues of (default mixing * dielectric matrix)
  average eigenvalue GAMMA=   0.9689
  1.0962  0.8415

 Free energy of the ion-electron system (eV)
  ---------------------------------------------------
  alpha Z        PSCENC =       165.99778541
  Ewald energy   TEWEN  =     -1986.76960569
  -Hartree energ DENC   =      -274.00780906
  -exchange      EXHF   =         0.00000000
  -V(xc)+E(xc)   XCENC  =      -214.70304241
  PAW double counting   =      2104.19446768    -1833.52324593
  entropy T*S    EENTRO =         0.00001508
  eigenvalues    EBANDS =        -9.58316050
  atomic energy  EATOM  =      2045.49387584
  Solvation  Ediel_sol  =         0.00000000
  ---------------------------------------------------
  free energy    TOTEN  =        -2.90071959 eV

  energy without entropy =       -2.90073467  energy(sigma->0) =       -2.90072462


--------------------------------------------------------------------------------------------------------




--------------------------------------- Iteration      1(   8)  ---------------------------------------


    POTLOK:  cpu time    0.0771: real time    0.0773
    SETDIJ:  cpu time    0.1717: real time    0.1717
    EDDIAG:  cpu time    0.3403: real time    0.3403
  RMM-DIIS:  cpu time    1.5604: real time    1.5604
    ORTHCH:  cpu time    0.0221: real time    0.0221
       DOS:  cpu time    0.0023: real time    0.0023
    CHARGE:  cpu time    0.3036: real time    0.3036
    MIXING:  cpu time    0.0065: real time    0.0065
    --------------------------------------------
      LOOP:  cpu time    2.4839: real time    2.4842

 eigenvalue-minimisations  : 11485
 total energy-change (2. order) :-0.9099934E-02  (-0.4735143E-02)
 number of electron      24.0000000 magnetization      -0.0027227     -0.0027255     -0.0031382
 augmentation part        3.2368715 magnetization      -0.0054297     -0.0054287     -0.0054296

 Broyden mixing:
  rms(total) = 0.27116E-01    rms(broyden)= 0.27116E-01
  rms(prec ) = 0.33080E-01
  weight for this iteration     100.00

 eigenvalues of (default mixing * dielectric matrix)
  average eigenvalue GAMMA=   0.9465
  1.2540  0.9422  0.6435

 Free energy of the ion-electron system (eV)
  ---------------------------------------------------
  alpha Z        PSCENC =       165.99778541
  Ewald energy   TEWEN  =     -1986.76960569
  -Hartree energ DENC   =      -273.15949307
  -exchange      EXHF   =         0.00000000
  -V(xc)+E(xc)   XCENC  =      -214.77208510
  PAW double counting   =      2105.88951611    -1835.29710295
  entropy T*S    EENTRO =         0.00001449
  eigenvalues    EBANDS =       -10.29272456
  atomic energy  EATOM  =      2045.49387584
  Solvation  Ediel_sol  =         0.00000000
  ---------------------------------------------------
  free energy    TOTEN  =        -2.90981953 eV

  energy without entropy =       -2.90983402  energy(sigma->0) =       -2.90982436


--------------------------------------------------------------------------------------------------------




--------------------------------------- Iteration      1(   9)  ---------------------------------------


    POTLOK:  cpu time    0.0773: real time    0.0774
    SETDIJ:  cpu time    0.1717: real time    0.1717
    EDDIAG:  cpu time    0.3398: real time    0.3398
  RMM-DIIS:  cpu time    1.5008: real time    1.5010
    ORTHCH:  cpu time    0.0224: real time    0.0224
       DOS:  cpu time    0.0026: real time    0.0026
    CHARGE:  cpu time    0.3042: real time    0.3042
    MIXING:  cpu time    0.0068: real time    0.0068
    --------------------------------------------
      LOOP:  cpu time    2.4256: real time    2.4259

 eigenvalue-minimisations  : 11073
 total energy-change (2. order) : 0.1038090E-03  (-0.3403522E-03)
 number of electron      24.0000000 magnetization       0.0015956      0.0015908      0.0015527
 augmentation part        3.2377742 magnetization       0.0011788      0.0011789      0.0014216

 Broyden mixing:
  rms(total) = 0.12190E-01    rms(broyden)= 0.12190E-01
  rms(prec ) = 0.16864E-01
  weight for this iteration     100.00

 eigenvalues of (default mixing * dielectric matrix)
  average eigenvalue GAMMA=   1.1497
  1.8725  1.2192  0.8735  0.6336

 Free energy of the ion-electron system (eV)
  ---------------------------------------------------
  alpha Z        PSCENC =       165.99778541
  Ewald energy   TEWEN  =     -1986.76960569
  -Hartree energ DENC   =      -273.02229765
  -exchange      EXHF   =         0.00000000
  -V(xc)+E(xc)   XCENC  =      -214.80152147
  PAW double counting   =      2108.15707068    -1837.58592765
  entropy T*S    EENTRO =         0.00001439
  eigenvalues    EBANDS =       -10.37910956
  atomic energy  EATOM  =      2045.49387584
  Solvation  Ediel_sol  =         0.00000000
  ---------------------------------------------------
  free energy    TOTEN  =        -2.90971572 eV

  energy without entropy =       -2.90973010  energy(sigma->0) =       -2.90972051


--------------------------------------------------------------------------------------------------------




--------------------------------------- Iteration      1(  10)  ---------------------------------------


    POTLOK:  cpu time    0.0788: real time    0.0794
    SETDIJ:  cpu time    0.1712: real time    0.1712
    EDDIAG:  cpu time    0.3405: real time    0.3405
  RMM-DIIS:  cpu time    1.3584: real time    1.3584
    ORTHCH:  cpu time    0.0222: real time    0.0222
       DOS:  cpu time    0.0023: real time    0.0023
    CHARGE:  cpu time    0.3030: real time    0.3030
    MIXING:  cpu time    0.0068: real time    0.0068
    --------------------------------------------
      LOOP:  cpu time    2.2831: real time    2.2838

 eigenvalue-minimisations  :  9947
 total energy-change (2. order) : 0.1170768E-03  (-0.6865096E-04)
 number of electron      24.0000000 magnetization      -0.0001818     -0.0001837     -0.0001245
 augmentation part        3.2358152 magnetization       0.0000502      0.0000481     -0.0000237

 Broyden mixing:
  rms(total) = 0.39729E-02    rms(broyden)= 0.39728E-02
  rms(prec ) = 0.46071E-02
  weight for this iteration     100.00

 eigenvalues of (default mixing * dielectric matrix)
  average eigenvalue GAMMA=   1.2103
  2.4655  1.2344  0.9911  0.7118  0.6484

 Free energy of the ion-electron system (eV)
  ---------------------------------------------------
  alpha Z        PSCENC =       165.99778541
  Ewald energy   TEWEN  =     -1986.76960569
  -Hartree energ DENC   =      -272.93456010
  -exchange      EXHF   =         0.00000000
  -V(xc)+E(xc)   XCENC  =      -214.83900150
  PAW double counting   =      2111.35156063    -1840.80315037
  entropy T*S    EENTRO =         0.00001421
  eigenvalues    EBANDS =       -10.40651707
  atomic energy  EATOM  =      2045.49387584
  Solvation  Ediel_sol  =         0.00000000
  ---------------------------------------------------
  free energy    TOTEN  =        -2.90959864 eV

  energy without entropy =       -2.90961285  energy(sigma->0) =       -2.90960338


--------------------------------------------------------------------------------------------------------




--------------------------------------- Iteration      1(  11)  ---------------------------------------


    POTLOK:  cpu time    0.0774: real time    0.0776
    SETDIJ:  cpu time    0.1732: real time    0.1732
    EDDIAG:  cpu time    0.3391: real time    0.3391
  RMM-DIIS:  cpu time    1.4610: real time    1.4610
    ORTHCH:  cpu time    0.0222: real time    0.0222
       DOS:  cpu time    0.0024: real time    0.0024
    CHARGE:  cpu time    0.2995: real time    0.2996
    MIXING:  cpu time    0.0066: real time    0.0066
    --------------------------------------------
      LOOP:  cpu time    2.3816: real time    2.3818

 eigenvalue-minimisations  : 10579
 total energy-change (2. order) :-0.2877151E-04  (-0.7868733E-05)
 number of electron      24.0000000 magnetization      -0.0003236     -0.0003250     -0.0002685
 augmentation part        3.2358514 magnetization      -0.0002214     -0.0002226     -0.0002336

 Broyden mixing:
  rms(total) = 0.10511E-02    rms(broyden)= 0.10510E-02
  rms(prec ) = 0.15831E-02
  weight for this iteration     100.00

 eigenvalues of (default mixing * dielectric matrix)
  average eigenvalue GAMMA=   1.1395
  2.4900  1.2223  1.0473  0.7232  0.7232  0.6311

 Free energy of the ion-electron system (eV)
  ---------------------------------------------------
  alpha Z        PSCENC =       165.99778541
  Ewald energy   TEWEN  =     -1986.76960569
  -Hartree energ DENC   =      -272.88155025
  -exchange      EXHF   =         0.00000000
  -V(xc)+E(xc)   XCENC  =      -214.84427198
  PAW double counting   =      2111.71932552    -1841.17803243
  entropy T*S    EENTRO =         0.00001418
  eigenvalues    EBANDS =       -10.44716800
  atomic energy  EATOM  =      2045.49387584
  Solvation  Ediel_sol  =         0.00000000
  ---------------------------------------------------
  free energy    TOTEN  =        -2.90962741 eV

  energy without entropy =       -2.90964160  energy(sigma->0) =       -2.90963214


--------------------------------------------------------------------------------------------------------




--------------------------------------- Iteration      1(  12)  ---------------------------------------


    POTLOK:  cpu time    0.0774: real time    0.0774
    SETDIJ:  cpu time    0.1725: real time    0.1725
    EDDIAG:  cpu time    0.3397: real time    0.3398
  RMM-DIIS:  cpu time    1.4477: real time    1.4477
    ORTHCH:  cpu time    0.0221: real time    0.0222
       DOS:  cpu time    0.0022: real time    0.0022
    CHARGE:  cpu time    0.3002: real time    0.3002
    MIXING:  cpu time    0.0097: real time    0.0097
    --------------------------------------------
      LOOP:  cpu time    2.3716: real time    2.3716

 eigenvalue-minimisations  : 10633
 total energy-change (2. order) :-0.2111481E-05  (-0.1113007E-05)
 number of electron      24.0000000 magnetization       0.0000231      0.0000240     -0.0000222
 augmentation part        3.2360400 magnetization       0.0001035      0.0001045      0.0000372

 Broyden mixing:
  rms(total) = 0.64488E-03    rms(broyden)= 0.64487E-03
  rms(prec ) = 0.93414E-03
  weight for this iteration     100.00

 eigenvalues of (default mixing * dielectric matrix)
  average eigenvalue GAMMA=   1.2769
  2.5793  2.0279  1.2406  1.0249  0.7253  0.7090  0.6310

 Free energy of the ion-electron system (eV)
  ---------------------------------------------------
  alpha Z        PSCENC =       165.99778541
  Ewald energy   TEWEN  =     -1986.76960569
  -Hartree energ DENC   =      -272.86270193
  -exchange      EXHF   =         0.00000000
  -V(xc)+E(xc)   XCENC  =      -214.84478421
  PAW double counting   =      2111.74643031    -1841.20695171
  entropy T*S    EENTRO =         0.00001417
  eigenvalues    EBANDS =       -10.46369171
  atomic energy  EATOM  =      2045.49387584
  Solvation  Ediel_sol  =         0.00000000
  ---------------------------------------------------
  free energy    TOTEN  =        -2.90962952 eV

  energy without entropy =       -2.90964369  energy(sigma->0) =       -2.90963425


--------------------------------------------------------------------------------------------------------




--------------------------------------- Iteration      1(  13)  ---------------------------------------


    POTLOK:  cpu time    0.0776: real time    0.0777
    SETDIJ:  cpu time    0.1728: real time    0.1728
    EDDIAG:  cpu time    0.3388: real time    0.3388
  RMM-DIIS:  cpu time    1.2628: real time    1.2628
    ORTHCH:  cpu time    0.0222: real time    0.0222
       DOS:  cpu time    0.0022: real time    0.0022
    CHARGE:  cpu time    0.2995: real time    0.2995
    MIXING:  cpu time    0.0101: real time    0.0101
    --------------------------------------------
      LOOP:  cpu time    2.1859: real time    2.1861

 eigenvalue-minimisations  :  9057
 total energy-change (2. order) :-0.1816140E-05  (-0.1072002E-05)
 number of electron      24.0000000 magnetization       0.0000457      0.0000461      0.0000273
 augmentation part        3.2365237 magnetization       0.0000265      0.0000266      0.0000257

 Broyden mixing:
  rms(total) = 0.40110E-03    rms(broyden)= 0.40110E-03
  rms(prec ) = 0.64401E-03
  weight for this iteration     100.00

 eigenvalues of (default mixing * dielectric matrix)
  average eigenvalue GAMMA=   1.2044
  2.6690  1.9668  1.2264  1.0357  0.7365  0.7365  0.6322  0.6322

 Free energy of the ion-electron system (eV)
  ---------------------------------------------------
  alpha Z        PSCENC =       165.99778541
  Ewald energy   TEWEN  =     -1986.76960569
  -Hartree energ DENC   =      -272.82400675
  -exchange      EXHF   =         0.00000000
  -V(xc)+E(xc)   XCENC  =      -214.84586127
  PAW double counting   =      2111.88359674    -1841.34785858
  entropy T*S    EENTRO =         0.00001416
  eigenvalues    EBANDS =       -10.49757120
  atomic energy  EATOM  =      2045.49387584
  Solvation  Ediel_sol  =         0.00000000
  ---------------------------------------------------
  free energy    TOTEN  =        -2.90963134 eV

  energy without entropy =       -2.90964550  energy(sigma->0) =       -2.90963606


--------------------------------------------------------------------------------------------------------




--------------------------------------- Iteration      1(  14)  ---------------------------------------


[...]
  0.000   0.000   0.000   0.610   0.000   0.000 -10.110   0.000   0.000   0.000  -0.000   0.000  -0.000  -0.612  -0.000   0.000
 -0.000   1.219  -0.000   0.000  -0.000   0.000   0.000   0.000 -10.108   0.000   0.000  -1.223   0.000   0.000   0.000   0.000
 -0.002   0.000  -0.000   0.000   0.000   0.000  -0.000   0.000   0.000   1.223  17.940   0.000   0.000   0.000  -0.000   0.000
 -0.000   0.000   0.004   0.000  -0.000   0.000  -0.000   0.612   0.000   0.000   0.000   0.000  17.936   0.000   0.000   0.000
  0.000   0.000  -0.000   0.000   0.007   0.000  -0.000   0.000   0.000   0.000  -0.000   0.000   0.000   0.000  17.935   0.000
 -0.000   0.000  -0.000  -0.612  -0.000   0.000   0.004   0.000  -0.000   0.000   0.000   0.000   0.000   0.614   0.000   0.000
  0.000  -1.223   0.000   0.000   0.000   0.000  -0.000   0.000  -0.002   0.000   0.000   1.227  -0.000   0.000  -0.000   0.000
 -0.000   0.000  -0.000   0.000   0.002   0.000  -0.000   0.000  -0.000   0.000  -0.000   0.000  -0.000   0.000   0.002   0.000
 -0.000   0.000  -0.000   0.000  -0.001   0.000   0.000   0.000   0.000   0.000   0.000   0.000   0.000   0.000  -0.003   0.000
  0.000   0.000   0.000   0.000  -0.000   0.000  -0.000   0.000   0.000   0.000  -0.000   0.000  -0.000   0.000   0.000   0.000
 -0.000   0.000   0.000   0.000   0.000   0.000   0.000   0.000   0.000   0.000  -0.000   0.000  -0.000   0.000  -0.000   0.000
  0.000   0.000  -0.000   0.000  -0.000   0.000   0.000   0.000   0.000   0.000   0.000   0.000  -0.000   0.000   0.000   0.000
 -0.000   0.000  -0.000   0.000   0.000   0.000   0.000   0.000  -0.000   0.000   0.000   0.000  -0.000   0.000   0.000   0.000
  0.000   0.000  -0.000   0.000  -0.000   0.000  -0.000   0.000  -0.000   0.000   0.000   0.000  -0.000   0.000  -0.000   0.000
 -0.000   0.000   0.000   0.000   0.000   0.000  -0.000   0.000  -0.000   0.000  -0.001   0.000   0.000   0.000  -0.000   0.000
 total augmentation occupancy for first ion, spin component:           1
  1.954   0.000  -0.000   0.000   0.000  -0.011   0.000  -0.000  -0.000   0.000  -0.000   0.000   0.000   0.000  -0.006   0.000
  0.000   1.950   0.000  -0.000   0.000   0.000  -0.010   0.000   0.000  -0.000   0.000   0.000   0.000  -0.000   0.000  -0.000
 -0.000   0.000   1.946   0.000   0.000  -0.000   0.000  -0.010  -0.000  -0.000  -0.007   0.000   0.000   0.000  -0.000   0.000
  0.000  -0.000   0.000   1.950   0.000  -0.000   0.000  -0.000  -0.010   0.000   0.000   0.000   0.000   0.000   0.000   0.000
  0.000   0.000   0.000   0.000   1.954   0.000  -0.000  -0.000   0.000  -0.011   0.000   0.000  -0.006   0.000   0.000   0.001
 -0.011   0.000  -0.000  -0.000   0.000   0.007  -0.000   0.000   0.000  -0.000  -0.000   0.000   0.000  -0.000   0.002   0.000
  0.000  -0.010   0.000   0.000  -0.000  -0.000   0.007  -0.000   0.000   0.000  -0.000  -0.000   0.000  -0.000  -0.000   0.000
 -0.000   0.000  -0.010  -0.000  -0.000   0.000  -0.000   0.008  -0.000  -0.000   0.000   0.000  -0.000   0.000   0.000  -0.000
 -0.000   0.000  -0.000  -0.010   0.000   0.000   0.000  -0.000   0.007  -0.000  -0.000  -0.000  -0.000   0.000   0.000   0.000
  0.000  -0.000  -0.000   0.000  -0.011  -0.000   0.000  -0.000  -0.000   0.007  -0.000  -0.000   0.002  -0.000   0.000  -0.000
 -0.000   0.000  -0.007   0.000   0.000  -0.000  -0.000   0.000  -0.000  -0.000   1.956  -0.013   0.000   0.000   0.000  -0.000
  0.000   0.000   0.000   0.000   0.000   0.000  -0.000   0.000  -0.000  -0.000  -0.013   0.001  -0.000   0.000   0.000   0.000
  0.000   0.000   0.000   0.000  -0.006   0.000   0.000  -0.000  -0.000   0.002   0.000  -0.000   0.089  -0.000   0.000  -0.008
  0.000  -0.000   0.000   0.000   0.000  -0.000  -0.000   0.000   0.000  -0.000   0.000   0.000  -0.000   0.100  -0.000   0.000
 -0.006   0.000  -0.000   0.000   0.000   0.002  -0.000   0.000   0.000   0.000   0.000   0.000   0.000  -0.000   0.089  -0.000
  0.000  -0.000   0.000   0.000   0.001   0.000   0.000  -0.000   0.000  -0.000  -0.000   0.000  -0.008   0.000  -0.000   0.003
  0.000  -0.000  -0.000   0.000  -0.000   0.000   0.000   0.000   0.000   0.000  -0.000   0.000   0.000  -0.009   0.000   0.000
  0.001   0.000  -0.000  -0.000   0.000  -0.000   0.000  -0.000   0.000   0.000  -0.000  -0.000  -0.000   0.000  -0.008  -0.000
 total augmentation occupancy for first ion, spin component:           2
 -0.000   0.000  -0.000   0.000  -0.000   0.000  -0.000   0.000  -0.000   0.000  -0.000  -0.000  -0.000   0.000  -0.000  -0.000
  0.000  -0.000   0.000   0.000  -0.000   0.000   0.000  -0.000   0.000   0.000   0.000  -0.000  -0.000   0.000   0.000   0.000
 -0.000   0.000  -0.000   0.000  -0.000   0.000  -0.000   0.000   0.000  -0.000   0.000  -0.000  -0.000  -0.000   0.000  -0.000
  0.000   0.000   0.000  -0.000   0.000  -0.000  -0.000  -0.000   0.000   0.000   0.000  -0.000   0.000   0.000  -0.000  -0.000
 -0.000  -0.000  -0.000   0.000  -0.000  -0.000   0.000  -0.000  -0.000   0.000  -0.000  -0.000  -0.000  -0.000   0.000   0.000
  0.000   0.000   0.000  -0.000  -0.000   0.000   0.000  -0.000   0.000  -0.000  -0.000   0.000   0.000   0.000  -0.000  -0.000
 -0.000   0.000  -0.000  -0.000   0.000   0.000   0.000  -0.000   0.000   0.000  -0.000  -0.000   0.000   0.000  -0.000   0.000
  0.000  -0.000   0.000  -0.000  -0.000  -0.000  -0.000   0.000   0.000  -0.000  -0.000  -0.000  -0.000  -0.000  -0.000  -0.000
 -0.000   0.000   0.000   0.000  -0.000   0.000   0.000   0.000   0.000   0.000   0.000   0.000   0.000   0.000   0.000   0.000
  0.000   0.000  -0.000   0.000   0.000  -0.000   0.000  -0.000   0.000   0.000   0.000   0.000  -0.000   0.000   0.000   0.000
 -0.000   0.000   0.000   0.000  -0.000  -0.000  -0.000  -0.000   0.000   0.000  -0.000   0.000   0.000  -0.000  -0.000  -0.000
 -0.000  -0.000  -0.000  -0.000  -0.000   0.000  -0.000  -0.000   0.000   0.000   0.000  -0.000  -0.000   0.000   0.000   0.000
 -0.000  -0.000  -0.000   0.000  -0.000   0.000   0.000  -0.000   0.000  -0.000   0.000  -0.000   0.000  -0.000  -0.000  -0.000
  0.000   0.000  -0.000   0.000  -0.000   0.000   0.000  -0.000   0.000   0.000  -0.000   0.000  -0.000   0.000  -0.000   0.000
 -0.000   0.000   0.000  -0.000   0.000  -0.000  -0.000  -0.000   0.000   0.000  -0.000   0.000  -0.000  -0.000   0.000   0.000
 -0.000   0.000  -0.000  -0.000   0.000  -0.000   0.000  -0.000   0.000   0.000  -0.000   0.000  -0.000   0.000   0.000   0.000
 -0.000  -0.000   0.000  -0.000  -0.000  -0.000  -0.000   0.000   0.000  -0.000  -0.000  -0.000  -0.000  -0.000   0.000  -0.000
 -0.000  -0.000   0.000   0.000  -0.000   0.000   0.000   0.000   0.000  -0.000   0.000  -0.000  -0.000  -0.000  -0.000  -0.000
 total augmentation occupancy for first ion, spin component:           3
 -0.000   0.000  -0.000   0.000   0.000   0.000  -0.000   0.000  -0.000  -0.000   0.000  -0.000   0.000  -0.000  -0.000  -0.000
  0.000  -0.000   0.000   0.000  -0.000  -0.000   0.000  -0.000  -0.000  -0.000   0.000   0.000  -0.000  -0.000  -0.000   0.000
 -0.000   0.000  -0.000   0.000   0.000   0.000   0.000   0.000   0.000  -0.000   0.000  -0.000   0.000  -0.000  -0.000   0.000
  0.000   0.000   0.000  -0.000   0.000   0.000   0.000   0.000   0.000   0.000   0.000   0.000  -0.000   0.000  -0.000   0.000
  0.000  -0.000   0.000   0.000  -0.000   0.000   0.000  -0.000   0.000   0.000   0.000   0.000   0.000   0.000  -0.000  -0.000
  0.000  -0.000   0.000   0.000   0.000   0.000  -0.000  -0.000   0.000  -0.000  -0.000   0.000   0.000   0.000  -0.000   0.000
 -0.000   0.000   0.000   0.000   0.000  -0.000   0.000   0.000   0.000  -0.000   0.000   0.000   0.000  -0.000   0.000   0.000
  0.000  -0.000   0.000   0.000  -0.000  -0.000   0.000   0.000  -0.000   0.000  -0.000  -0.000  -0.000   0.000   0.000  -0.000
 -0.000  -0.000   0.000   0.000   0.000   0.000   0.000  -0.000   0.000  -0.000   0.000  -0.000  -0.000   0.000   0.000   0.000
 -0.000  -0.000  -0.000   0.000   0.000  -0.000  -0.000   0.000  -0.000   0.000   0.000  -0.000  -0.000   0.000   0.000  -0.000
  0.000   0.000   0.000   0.000   0.000  -0.000   0.000  -0.000   0.000   0.000  -0.000   0.000  -0.000  -0.000   0.000   0.000
 -0.000   0.000  -0.000   0.000   0.000   0.000   0.000  -0.000  -0.000  -0.000   0.000  -0.000   0.000   0.000  -0.000  -0.000
  0.000  -0.000   0.000  -0.000   0.000   0.000   0.000  -0.000  -0.000  -0.000  -0.000   0.000   0.000  -0.000  -0.000  -0.000
 -0.000  -0.000  -0.000   0.000   0.000   0.000  -0.000   0.000   0.000   0.000  -0.000   0.000  -0.000   0.000  -0.000  -0.000
 -0.000  -0.000  -0.000  -0.000  -0.000  -0.000   0.000   0.000   0.000   0.000   0.000  -0.000  -0.000  -0.000   0.000  -0.000
 -0.000   0.000   0.000   0.000  -0.000   0.000   0.000  -0.000   0.000  -0.000   0.000  -0.000  -0.000  -0.000  -0.000  -0.000
  0.000   0.000  -0.000  -0.000  -0.000   0.000   0.000  -0.000   0.000  -0.000   0.000  -0.000   0.000  -0.000  -0.000  -0.000
  0.000  -0.000  -0.000  -0.000  -0.000   0.000   0.000   0.000  -0.000  -0.000  -0.000   0.000   0.000   0.000  -0.000  -0.000
 total augmentation occupancy for first ion, spin component:           4
 -0.000   0.000  -0.000   0.000  -0.000   0.000   0.000   0.000   0.000   0.000   0.000  -0.000   0.000   0.000  -0.000   0.000
  0.000  -0.000   0.000   0.000  -0.000  -0.000   0.000   0.000  -0.000   0.000   0.000  -0.000  -0.000   0.000  -0.000  -0.000
 -0.000   0.000  -0.000   0.000  -0.000   0.000  -0.000   0.000  -0.000  -0.000   0.000  -0.000  -0.000  -0.000  -0.000  -0.000
  0.000   0.000   0.000  -0.000   0.000  -0.000  -0.000   0.000   0.000  -0.000   0.000  -0.000  -0.000  -0.000  -0.000  -0.000
 -0.000  -0.000  -0.000   0.000  -0.000   0.000  -0.000  -0.000   0.000   0.000   0.000   0.000  -0.000   0.000   0.000   0.000
  0.000  -0.000   0.000  -0.000   0.000   0.000   0.000   0.000   0.000   0.000  -0.000  -0.000  -0.000  -0.000  -0.000   0.000
  0.000   0.000  -0.000  -0.000  -0.000   0.000   0.000   0.000  -0.000  -0.000  -0.000  -0.000   0.000  -0.000  -0.000   0.000
  0.000   0.000   0.000   0.000  -0.000   0.000   0.000   0.000  -0.000   0.000  -0.000  -0.000   0.000   0.000   0.000   0.000
  0.000  -0.000  -0.000   0.000   0.000   0.000  -0.000  -0.000   0.000   0.000   0.000  -0.000  -0.000  -0.000   0.000   0.000
  0.000   0.000  -0.000  -0.000   0.000   0.000  -0.000   0.000   0.000   0.000   0.000  -0.000  -0.000   0.000  -0.000   0.000
  0.000   0.000   0.000   0.000   0.000  -0.000  -0.000  -0.000   0.000   0.000  -0.000   0.000   0.000  -0.000  -0.000  -0.000
 -0.000  -0.000  -0.000  -0.000   0.000  -0.000  -0.000  -0.000  -0.000  -0.000   0.000  -0.000   0.000   0.000  -0.000   0.000
  0.000  -0.000  -0.000  -0.000  -0.000  -0.000   0.000   0.000  -0.000  -0.000   0.000   0.000   0.000  -0.000  -0.000  -0.000
  0.000   0.000  -0.000  -0.000   0.000  -0.000  -0.000   0.000  -0.000   0.000  -0.000   0.000  -0.000   0.000  -0.000   0.000
 -0.000  -0.000  -0.000  -0.000   0.000  -0.000  -0.000   0.000   0.000  -0.000  -0.000  -0.000  -0.000  -0.000   0.000   0.000
  0.000  -0.000  -0.000  -0.000   0.000   0.000   0.000   0.000   0.000   0.000  -0.000   0.000  -0.000   0.000   0.000   0.000
  0.000  -0.000  -0.000   0.000  -0.000  -0.000   0.000  -0.000   0.000  -0.000   0.000  -0.000  -0.000  -0.000  -0.000  -0.000
  0.000   0.000  -0.000   0.000   0.000   0.000  -0.000   0.000   0.000   0.000   0.000  -0.000   0.000   0.000  -0.000   0.000


------------------------ aborting loop because EDIFF is reached ----------------------------------------


    CHARGE:  cpu time    0.3066: real time    0.3066
    FORLOC:  cpu time    0.0016: real time    0.0016
    FORNL :  cpu time    1.1318: real time    1.1318
    STRESS:  cpu time    3.4373: real time    3.4373
    FORCOR:  cpu time    0.0771: real time    0.0773
    FORHAR:  cpu time    0.0075: real time    0.0075
    MIXING:  cpu time    0.0240: real time    0.0240
    OFIELD:  cpu time    0.0001: real time    0.0001

  FORCE on cell =-STRESS in cart. coord.  units (eV):
  Direction    XX          YY          ZZ          XY          YZ          ZX
  --------------------------------------------------------------------------------------
  Alpha Z   165.99779   165.99779   165.99779
  Ewald    -675.44947  -675.44513  -642.07787     0.00147    -0.00035    -0.00040
  Hartree    83.88510    83.88668    99.47617     0.00075    -0.00015    -0.00017
  E(xc)    -142.00001  -142.00000  -141.87905     0.00001    -0.00000    -0.00000
  Local     101.95016   101.94466    54.27103    -0.00219     0.00049     0.00056
  n-local   -97.22279   -97.22277   -97.13871     0.00001    -0.00001    -0.00001
  augment    41.62873    41.62871    41.48629     0.00000     0.00000     0.00000
  Kinetic   520.83337   520.83326   519.47651    -0.00002     0.00002     0.00002
  Fock        0.00000     0.00000     0.00000     0.00000     0.00000     0.00000
  -------------------------------------------------------------------------------------
  Total      -0.37713    -0.37680    -0.38785     0.00003     0.00001     0.00001
  in kB     -11.14218   -11.13254   -11.45889     0.00088     0.00033     0.00024
  external pressure =      -11.24 kB  Pullay stress =        0.00 kB


 VOLUME and BASIS-vectors are now :
 -----------------------------------------------------------------------------
  energy-cutoff  :      600.00
  volume of cell :       54.23
      direct lattice vectors                 reciprocal lattice vectors
     3.418685135 -0.000001395  0.000003029     0.292510189  0.168879816 -0.000000492
    -1.709343772  2.960688147  0.000000718     0.000000138  0.337759394 -0.000000335
     0.000005950  0.000005310  5.357714219    -0.000000165 -0.000000141  0.186646760

  length of vectors
     3.418685135  3.418703034  5.357714219     0.337761163  0.337759394  0.186646760


 FORCES acting on ions
    electron-ion (+dipol)            ewald-force                    non-local-force                 convergence-correction
 -----------------------------------------------------------------------------------------------
   0.132E-02 0.342E-02 0.637E-01   -.498E-03 0.920E-03 0.869E-02   -.402E-03 -.615E-03 -.388E-02   -.564E-03 -.364E-02 -.677E-01
   -.143E-02 -.336E-02 -.637E-01   0.498E-03 -.920E-03 -.869E-02   0.402E-03 0.615E-03 0.388E-02   0.564E-03 0.364E-02 0.677E-01
 -----------------------------------------------------------------------------------------------
   -.110E-03 0.637E-04 -.689E-10   -.877E-14 0.699E-14 -.278E-16   0.000E+00 0.108E-18 0.000E+00   0.258E-07 -.149E-07 -.105E-12
 
 
 POSITION                                       TOTAL-FORCE (eV/Angst)
 -----------------------------------------------------------------------------------
      0.00001      0.98687      1.33942        -0.000092      0.000055      0.000784
      1.70934      1.97382      4.01830         0.000092     -0.000055     -0.000784
 -----------------------------------------------------------------------------------
    total drift:                               -0.000110      0.000064     -0.000000


--------------------------------------------------------------------------------------------------------



  FREE ENERGIE OF THE ION-ELECTRON SYSTEM (eV)
  ---------------------------------------------------
  free  energy   TOTEN  =        -2.95595583 eV

  energy  without entropy=       -2.95867643  energy(sigma->0) =       -2.95686270
 
 d Force = 0.2536699E-07[ 0.234E-07, 0.273E-07]  d Energy = 0.1431478E-05-0.141E-05
 d Force = 0.4443973E-06[ 0.251E-06, 0.637E-06]  d Ewald  =-0.2367452E+00 0.237E+00


--------------------------------------------------------------------------------------------------------


    POTLOK:  cpu time    0.2485: real time    0.2485


--------------------------------------------------------------------------------------------------------


 Quasi-Newton relaxation of ions (Broydens 2nd method)
  g(Force)  = 0.121E-07   g(Stress)= 0.381E-06

 retain information from N=  1 steps
 eigenvalues of (default step * inverse Hessian matrix)
  average eigenvalue of G= 273.1325
 eigenvalue spectrum of G is273.1325


--------------------------------------------------------------------------------------------------------


  
 reached required accuracy - stopping structural energy minimisation
     LOOP+:  cpu time  120.1651: real time  120.2517
    4ORBIT:  cpu time    0.0000: real time    0.0000

 Spin-Orbit-Coupling matrix elements

 Ion:    1  E_soc:     -2.7202896
 l=   1
     0.0000000    -0.1260587    -0.1220320
    -0.1260587     0.0000000    -0.1260584
    -0.1220320    -0.1260584     0.0000000
 l=   2
     0.0000000    -0.0654691     0.0000000    -0.0654685    -0.2597386
    -0.0654691     0.0000000    -0.1995838    -0.0652152    -0.0654688
     0.0000000    -0.1995838     0.0000000    -0.1995826     0.0000000
    -0.0654685    -0.0652152    -0.1995826     0.0000000    -0.0654690
    -0.2597386    -0.0654688     0.0000000    -0.0654690     0.0000000
 l=   3
     0.0000000     0.0000000     0.0000000     0.0000000     0.0000000     0.0000000     0.0000000
     0.0000000     0.0000000     0.0000000     0.0000000     0.0000000     0.0000000     0.0000000
     0.0000000     0.0000000     0.0000000     0.0000000     0.0000000     0.0000000     0.0000000
     0.0000000     0.0000000     0.0000000     0.0000000     0.0000000     0.0000000     0.0000000
     0.0000000     0.0000000     0.0000000     0.0000000     0.0000000     0.0000000     0.0000000
     0.0000000     0.0000000     0.0000000     0.0000000     0.0000000     0.0000000     0.0000000
     0.0000000     0.0000000     0.0000000     0.0000000     0.0000000     0.0000000     0.0000000

 Ion:    2  E_soc:     -2.7202896
 l=   1
     0.0000000    -0.1260587    -0.1220320
    -0.1260587     0.0000000    -0.1260584
    -0.1220320    -0.1260584     0.0000000
 l=   2
     0.0000000    -0.0654691     0.0000000    -0.0654685    -0.2597386
    -0.0654691     0.0000000    -0.1995838    -0.0652152    -0.0654688
     0.0000000    -0.1995838     0.0000000    -0.1995826     0.0000000
    -0.0654685    -0.0652152    -0.1995826     0.0000000    -0.0654690
    -0.2597386    -0.0654688     0.0000000    -0.0654690     0.0000000
 l=   3
     0.0000000     0.0000000     0.0000000     0.0000000     0.0000000     0.0000000     0.0000000
     0.0000000     0.0000000     0.0000000     0.0000000     0.0000000     0.0000000     0.0000000
     0.0000000     0.0000000     0.0000000     0.0000000     0.0000000     0.0000000     0.0000000
     0.0000000     0.0000000     0.0000000     0.0000000     0.0000000     0.0000000     0.0000000
     0.0000000     0.0000000     0.0000000     0.0000000     0.0000000     0.0000000     0.0000000
     0.0000000     0.0000000     0.0000000     0.0000000     0.0000000     0.0000000     0.0000000
     0.0000000     0.0000000     0.0000000     0.0000000     0.0000000     0.0000000     0.0000000

 total amount of memory used by VASP MPI-rank0    93864. kBytes
=======================================================================

   base      :      30000. kBytes
   nonl-proj :       8720. kBytes
   fftplans  :      11269. kBytes
   grid      :       9633. kBytes
   one-center:         62. kBytes
   wavefun   :      34180. kBytes
 
  
  
 General timing and accounting informations for this job:
 ========================================================
  
                  Total CPU time used (sec):      340.227
                            User time (sec):      327.711
                          System time (sec):       12.516
                         Elapsed time (sec):      340.866
  
                   Maximum memory used (kb):      156276.
                   Average memory used (kb):           0.
  
                          Minor page faults:      2761429
                          Major page faults:            0
                 Voluntary context switches:         2569
