 vasp.5.4.4.18Apr17-6-g9f103f2a35 (build Nov 03 2018 10:20:46) complex          
  
 executed on             LinuxIFC date 2018.12.22  09:59:25
 running on   32 total cores
 distrk:  each k-point on    8 cores,    4 groups
 distr:  one band on NCORES_PER_BAND=   4 cores,    2 groups


--------------------------------------------------------------------------------------------------------


 INCAR:
 POTCAR:    Cn-PAW, fit to 4c-PBE, JanMewes Oct18 

 ----------------------------------------------------------------------------- 
|                                                                             |
|           W    W    AA    RRRRR   N    N  II  N    N   GGGG   !!!           |
|           W    W   A  A   R    R  NN   N  II  NN   N  G    G  !!!           |
|           W    W  A    A  R    R  N N  N  II  N N  N  G       !!!           |
|           W WW W  AAAAAA  RRRRR   N  N N  II  N  N N  G  GGG   !            |
|           WW  WW  A    A  R   R   N   NN  II  N   NN  G    G                |
|           W    W  A    A  R    R  N    N  II  N    N   GGGG   !!!           |
|                                                                             |
|      You have enabled k-point parallelism (KPAR>1).                         |
|      This developmental code was originally  written by Paul Kent at ORNL,  |
|      and carefully double checked in Vienna.                                |
|      GW as well as linear response parallelism added by Martijn Marsman     |
|      and Georg Kresse.                                                      |
|      Carefully verify results versus KPAR=1.                                |
|      Report problems to Paul Kent and Vienna.                               |
|                                                                             |
 ----------------------------------------------------------------------------- 

 POTCAR:    Cn-PAW, fit to 4c-PBE, JanMewes Oct18 
   VRHFIN =Cn : 10d 2s                                                          
   LEXCH  = PE                                                                  
   EATOM  =  1021.7933 eV,   75.0997 Ry                                         
                                                                                
   TITEL  = Cn-PAW, fit to 4c-PBE, JanMewes Oct18                               
   LULTRA =        F    use ultrasoft PP ?                                      
   IUNSCR =        1    unscreen: 0-lin 1-nonlin 2-no                           
   RPACOR =    1.900    partial core radius                                     
   POMASS =    0.010; ZVAL   =   12.000    mass and valenz                      
   RCORE  =    2.700    outmost cutoff radius                                   
   RWIGS  =    2.800; RWIGS  =    1.482    wigner-seitz radius (au A)           
   ENMAX  =  273.073; ENMIN  =  204.805 eV                                      
   ICORE  =        3    local potential                                         
   LCOR   =        T    correct aug charges                                     
   LPAW   =        T    paw PP                                                  
   EAUG   =  361.025                                                            
   DEXC   =   -0.000                                                            
   RMAX   =    2.790    core radius for proj-oper                               
   RAUG   =    1.300    factor for augmentation sphere                          
   RDEP   =    2.775    radius for radial grids                                 
   RDEPT  =    2.135    core radius for aug-charge                              
   QCUT   =   -4.480; QGAM   =    8.960    optimization parameters              
                                                                                
   Atomic configuration                                                         
   21 entries                                                                   
     n  l   j            E        occ.                                          
     1  0  0.50   -193593.9187   2.0000                                         
     2  0  0.50    -39412.0693   2.0000                                         
     2  1  1.50    -29335.4582   6.0000                                         
     3  0  0.50    -10546.4577   2.0000                                         
     3  1  1.50     -7865.5022   6.0000                                         
     3  2  2.50     -6292.8271  10.0000                                         
     4  0  0.50     -3004.9901   2.0000                                         
     4  1  1.50     -2140.4665   6.0000                                         
     4  2  2.50     -1542.0671  10.0000                                         
     4  3  3.50      -986.2983  14.0000                                         
     5  0  0.50      -773.9725   2.0000                                         
     5  1  1.50      -487.4947   6.0000                                         
     5  2  2.50      -269.9971  10.0000                                         
     5  3  3.50       -71.2530  14.0000                                         
     6  0  0.50      -136.5695   2.0000                                         
     6  1  0.50       -97.1736   2.0000                                         
     6  1  1.50       -52.5109   4.0000                                         
     6  2  2.50        -7.9997  10.0000                                         
     7  0  0.50        -9.4823   2.0000                                         
     7  1  1.50        -2.1674   0.0000                                         
     6  3  3.50        -0.0014   0.0000                                         
   Description                                                                  
     l       E           TYP  RCUT    TYP  RCUT                                 
     2     -7.9996624     23  2.300                                             
     2     40.8174780     23  2.600                                             
     0     -9.4822916     23  1.900                                             
     0     68.0291300     23  2.400                                             
     1     -2.1674081     23  2.500                                             
     1     98.6422385     23  2.300                                             
     3     10.8846608      7  2.700                                             
  local pseudopotential read in
  partial core-charges read in
  partial kinetic energy density read in
  kinetic energy density of atom read in
  atomic valenz-charges read in
  non local Contribution for L=           2  read in
    real space projection operators read in
  non local Contribution for L=           2  read in
    real space projection operators read in
  non local Contribution for L=           0  read in
    real space projection operators read in
  non local Contribution for L=           0  read in
    real space projection operators read in
  non local Contribution for L=           1  read in
    real space projection operators read in
  non local Contribution for L=           1  read in
    real space projection operators read in
    PAW grid and wavefunctions read in
 
   number of l-projection  operators is LMAX  =           6
   number of lm-projection operators is LMMAX =          18
 

 ----------------------------------------------------------------------------- 
|                                                                             |
|  ADVICE TO THIS USER RUNNING 'VASP/VAMP'   (HEAR YOUR MASTER'S VOICE ...):  |
|                                                                             |
|      You enforced a specific xc-type in the INCAR file,                     |
|      a different type was found on the POTCAR file                          |
|          I HOPE YOU KNOW, WHAT YOU ARE  DOING                               |
|                                                                             |
 ----------------------------------------------------------------------------- 

  Cn-PAW, fit to 4c-PBE, JanMewes Oct18 :
 energy of atom  1       EATOM=-1021.7933
 kinetic energy error for atom=    0.0069 (will be added to EATOM!!)
 
 
 POSCAR: Cn HCP                                  
  positions in direct lattice
  velocities in cartesian coordinates
 exchange correlation table for  LEXCH =       14
   RHO(1)=    0.500       N(1)  =     2000
   RHO(2)=  100.500       N(2)  =     4000
 


--------------------------------------------------------------------------------------------------------


 ion  position               nearest neighbor table
   1  0.167  0.333  0.250-   2 3.33   2 3.33   2 3.33   2 3.33   2 3.33   2 3.33
   2  0.833  0.667  0.750-   1 3.33   1 3.33   1 3.33   1 3.33   1 3.33   1 3.33
 
  LATTYP: Found a triclinic cell.
 ALAT       =     3.4187006211
 B/A-ratio  =     0.9999954701
 C/A-ratio  =     1.5671785314
 COS(alpha) =     0.0000019965
 COS(beta)  =     0.0000025096
 COS(gamma) =     0.4999970294
  
  Lattice vectors:
  
 A1 = (  -1.7093413627,  -2.9606867518,  -0.0000037468)
 A2 = (  -3.4186851347,   0.0000013948,  -0.0000030290)
 A3 = (  -0.0000059499,  -0.0000053103,  -5.3577142187)


Analysis of symmetry for initial positions (statically):
=====================================================================
 Subroutine PRICEL returns:
 Original cell was already a primitive cell.
 

 Routine SETGRP: Setting up the symmetry group for a 
 triclinic supercell.


 Subroutine GETGRP returns: Found  2 space group operations
 (whereof  1 operations were pure point group operations)
 out of a pool of  2 trial point group operations.


The static configuration has the point symmetry C_1 .
 The point group associated with its full space group is S_2 .


Analysis of symmetry for dynamics (positions and initial velocities):
=====================================================================
 Subroutine PRICEL returns:
 Original cell was already a primitive cell.
 

 Routine SETGRP: Setting up the symmetry group for a 
 triclinic supercell.


 Subroutine GETGRP returns: Found  2 space group operations
 (whereof  1 operations were pure point group operations)
 out of a pool of  2 trial point group operations.


The dynamic configuration has the point symmetry C_1 .
 The point group associated with its full space group is S_2 .


Analysis of structural, dynamic, and magnetic symmetry:
=====================================================================
 Subroutine PRICEL returns:
 Original cell was already a primitive cell.
 

 Routine SETGRP: Setting up the symmetry group for a 
 triclinic supercell.


 Subroutine GETGRP returns: Found  2 space group operations
 (whereof  1 operations were pure point group operations)
 out of a pool of  2 trial point group operations.


The (compounded) configuration has the point symmetry C_1 .
 The point group associated with its full space group is S_2 .


 Subroutine INISYM returns: Found  2 space group operations
 (whereof  1 operations are pure point group operations),
 and found     1 'primitive' translations

 
 

Automatic generation of k-mesh.
 generate k-points for:    8    8    4
Space group operators:
 irot       det(A)        alpha          n_x          n_y          n_z        tau_x        tau_y        tau_z
    1     1.000000     0.000000     1.000000     0.000000     0.000000     0.000000     0.000000     0.000000
    2    -1.000000     0.000000     1.000000     0.000000     0.000000    -1.000000    -0.000000    -0.000000
 
 Subroutine IBZKPT returns following result:
 ===========================================
 
 Found    132 irreducible k-points:
 
 Following reciprocal coordinates:
            Coordinates               Weight
  0.000000  0.000000  0.000000      1.000000
  0.125000  0.000000  0.000000      2.000000
  0.250000  0.000000  0.000000      2.000000
  0.375000 -0.000000  0.000000      2.000000
  0.500000  0.000000  0.000000      1.000000
 -0.000000  0.125000  0.000000      2.000000
  0.125000  0.125000  0.000000      2.000000
  0.250000  0.125000 -0.000000      2.000000
  0.375000  0.125000 -0.000000      2.000000
  0.500000  0.125000  0.000000      2.000000
 -0.375000  0.125000 -0.000000      2.000000
 -0.250000  0.125000 -0.000000      2.000000
 -0.125000  0.125000  0.000000      2.000000
 -0.000000  0.250000  0.000000      2.000000
  0.125000  0.250000  0.000000      2.000000
  0.250000  0.250000  0.000000      2.000000
  0.375000  0.250000  0.000000      2.000000
  0.500000  0.250000 -0.000000      2.000000
 -0.375000  0.250000  0.000000      2.000000
 -0.250000  0.250000  0.000000      2.000000
 -0.125000  0.250000  0.000000      2.000000
 -0.000000  0.375000  0.000000      2.000000
  0.125000  0.375000  0.000000      2.000000
  0.250000  0.375000  0.000000      2.000000
  0.375000  0.375000  0.000000      2.000000
  0.500000  0.375000  0.000000      2.000000
 -0.375000  0.375000  0.000000      2.000000
 -0.250000  0.375000  0.000000      2.000000
 -0.125000  0.375000  0.000000      2.000000
 -0.000000  0.500000  0.000000      1.000000
  0.125000  0.500000  0.000000      2.000000
  0.250000  0.500000  0.000000      2.000000
  0.375000  0.500000  0.000000      2.000000
  0.500000  0.500000  0.000000      1.000000
 -0.000000 -0.000000  0.250000      2.000000
  0.125000  0.000000  0.250000      2.000000
  0.250000 -0.000000  0.250000      2.000000
  0.375000 -0.000000  0.250000      2.000000
  0.500000  0.000000  0.250000      2.000000
 -0.375000 -0.000000  0.250000      2.000000
 -0.250000 -0.000000  0.250000      2.000000
 -0.125000  0.000000  0.250000      2.000000
  0.000000  0.125000  0.250000      2.000000
  0.125000  0.125000  0.250000      2.000000
  0.250000  0.125000  0.250000      2.000000
  0.375000  0.125000  0.250000      2.000000
  0.500000  0.125000  0.250000      2.000000
 -0.375000  0.125000  0.250000      2.000000
 -0.250000  0.125000  0.250000      2.000000
 -0.125000  0.125000  0.250000      2.000000
  0.000000  0.250000  0.250000      2.000000
  0.125000  0.250000  0.250000      2.000000
  0.250000  0.250000  0.250000      2.000000
  0.375000  0.250000  0.250000      2.000000
  0.500000  0.250000  0.250000      2.000000
 -0.375000  0.250000  0.250000      2.000000
 -0.250000  0.250000  0.250000      2.000000
 -0.125000  0.250000  0.250000      2.000000
 -0.000000  0.375000  0.250000      2.000000
  0.125000  0.375000  0.250000      2.000000
  0.250000  0.375000  0.250000      2.000000
  0.375000  0.375000  0.250000      2.000000
  0.500000  0.375000  0.250000      2.000000
 -0.375000  0.375000  0.250000      2.000000
 -0.250000  0.375000  0.250000      2.000000
 -0.125000  0.375000  0.250000      2.000000
 -0.000000  0.500000  0.250000      2.000000
  0.125000  0.500000  0.250000      2.000000
  0.250000  0.500000  0.250000      2.000000
  0.375000  0.500000  0.250000      2.000000
  0.500000  0.500000  0.250000      2.000000
 -0.375000  0.500000  0.250000      2.000000
 -0.250000  0.500000  0.250000      2.000000
 -0.125000  0.500000  0.250000      2.000000
  0.000000 -0.375000  0.250000      2.000000
  0.125000 -0.375000  0.250000      2.000000
  0.250000 -0.375000  0.250000      2.000000
  0.375000 -0.375000  0.250000      2.000000
  0.500000 -0.375000  0.250000      2.000000
 -0.375000 -0.375000  0.250000      2.000000
 -0.250000 -0.375000  0.250000      2.000000
 -0.125000 -0.375000  0.250000      2.000000
  0.000000 -0.250000  0.250000      2.000000
  0.125000 -0.250000  0.250000      2.000000
  0.250000 -0.250000  0.250000      2.000000
  0.375000 -0.250000  0.250000      2.000000
  0.500000 -0.250000  0.250000      2.000000
 -0.375000 -0.250000  0.250000      2.000000
 -0.250000 -0.250000  0.250000      2.000000
 -0.125000 -0.250000  0.250000      2.000000
  0.000000 -0.125000  0.250000      2.000000
  0.125000 -0.125000  0.250000      2.000000
  0.250000 -0.125000  0.250000      2.000000
  0.375000 -0.125000  0.250000      2.000000
  0.500000 -0.125000  0.250000      2.000000
 -0.375000 -0.125000  0.250000      2.000000
 -0.250000 -0.125000  0.250000      2.000000
 -0.125000 -0.125000  0.250000      2.000000
 -0.000000 -0.000000  0.500000      1.000000
  0.125000  0.000000  0.500000      2.000000
  0.250000  0.000000  0.500000      2.000000
  0.375000 -0.000000  0.500000      2.000000
  0.500000 -0.000000  0.500000      1.000000
  0.000000  0.125000  0.500000      2.000000
  0.125000  0.125000  0.500000      2.000000
  0.250000  0.125000  0.500000      2.000000
  0.375000  0.125000  0.500000      2.000000
  0.500000  0.125000  0.500000      2.000000
 -0.375000  0.125000  0.500000      2.000000
 -0.250000  0.125000  0.500000      2.000000
 -0.125000  0.125000  0.500000      2.000000
  0.000000  0.250000  0.500000      2.000000
  0.125000  0.250000  0.500000      2.000000
  0.250000  0.250000  0.500000      2.000000
  0.375000  0.250000  0.500000      2.000000
  0.500000  0.250000  0.500000      2.000000
 -0.375000  0.250000  0.500000      2.000000
 -0.250000  0.250000  0.500000      2.000000
 -0.125000  0.250000  0.500000      2.000000
  0.000000  0.375000  0.500000      2.000000
  0.125000  0.375000  0.500000      2.000000
  0.250000  0.375000  0.500000      2.000000
  0.375000  0.375000  0.500000      2.000000
  0.500000  0.375000  0.500000      2.000000
 -0.375000  0.375000  0.500000      2.000000
 -0.250000  0.375000  0.500000      2.000000
 -0.125000  0.375000  0.500000      2.000000
  0.000000  0.500000  0.500000      1.000000
  0.125000  0.500000  0.500000      2.000000
  0.250000  0.500000  0.500000      2.000000
  0.375000  0.500000  0.500000      2.000000
  0.500000  0.500000  0.500000      1.000000
 
 Following cartesian coordinates:
            Coordinates               Weight
  0.000000  0.000000  0.000000      1.000000
  0.036564  0.021110 -0.000000      2.000000
  0.073128  0.042220 -0.000000      2.000000
  0.109691  0.063330 -0.000000      2.000000
  0.146255  0.084440 -0.000000      1.000000
  0.000000  0.042220 -0.000000      2.000000
  0.036564  0.063330 -0.000000      2.000000
  0.073128  0.084440 -0.000000      2.000000
  0.109691  0.105550 -0.000000      2.000000
  0.146255  0.126660 -0.000000      2.000000
 -0.109691 -0.021110  0.000000      2.000000
 -0.073128 -0.000000  0.000000      2.000000
 -0.036564  0.021110  0.000000      2.000000
  0.000000  0.084440 -0.000000      2.000000
  0.036564  0.105550 -0.000000      2.000000
  0.073128  0.126660 -0.000000      2.000000
  0.109691  0.147770 -0.000000      2.000000
  0.146255  0.168880 -0.000000      2.000000
 -0.109691  0.021110  0.000000      2.000000
 -0.073128  0.042220  0.000000      2.000000
 -0.036564  0.063330 -0.000000      2.000000
  0.000000  0.126660 -0.000000      2.000000
  0.036564  0.147770 -0.000000      2.000000
  0.073128  0.168880 -0.000000      2.000000
  0.109691  0.189990 -0.000000      2.000000
  0.146255  0.211100 -0.000000      2.000000
 -0.109691  0.063330  0.000000      2.000000
 -0.073127  0.084440 -0.000000      2.000000
 -0.036564  0.105550 -0.000000      2.000000
  0.000000  0.168880 -0.000000      1.000000
  0.036564  0.189990 -0.000000      2.000000
  0.073128  0.211100 -0.000000      2.000000
  0.109691  0.232210 -0.000000      2.000000
  0.146255  0.253320 -0.000000      1.000000
 -0.000000 -0.000000  0.046662      2.000000
  0.036564  0.021110  0.046662      2.000000
  0.073128  0.042220  0.046662      2.000000
  0.109691  0.063330  0.046662      2.000000
  0.146255  0.084440  0.046661      2.000000
 -0.109691 -0.063330  0.046662      2.000000
 -0.073128 -0.042220  0.046662      2.000000
 -0.036564 -0.021110  0.046662      2.000000
 -0.000000  0.042220  0.046662      2.000000
  0.036564  0.063330  0.046662      2.000000
  0.073128  0.084440  0.046662      2.000000
  0.109691  0.105550  0.046661      2.000000
  0.146255  0.126660  0.046661      2.000000
 -0.109691 -0.021110  0.046662      2.000000
 -0.073128 -0.000000  0.046662      2.000000
 -0.036564  0.021110  0.046662      2.000000
 -0.000000  0.084440  0.046662      2.000000
  0.036564  0.105550  0.046662      2.000000
  0.073128  0.126660  0.046661      2.000000
  0.109691  0.147770  0.046661      2.000000
  0.146255  0.168880  0.046661      2.000000
 -0.109691  0.021110  0.046662      2.000000
 -0.073128  0.042220  0.046662      2.000000
 -0.036564  0.063330  0.046662      2.000000
  0.000000  0.126660  0.046662      2.000000
  0.036564  0.147770  0.046662      2.000000
  0.073128  0.168880  0.046661      2.000000
  0.109691  0.189990  0.046661      2.000000
  0.146255  0.211100  0.046661      2.000000
 -0.109691  0.063330  0.046662      2.000000
 -0.073128  0.084440  0.046662      2.000000
 -0.036564  0.105550  0.046662      2.000000
  0.000000  0.168880  0.046662      2.000000
  0.036564  0.189990  0.046661      2.000000
  0.073128  0.211100  0.046661      2.000000
  0.109691  0.232210  0.046661      2.000000
  0.146255  0.253320  0.046661      2.000000
 -0.109691  0.105550  0.046662      2.000000
 -0.073128  0.126660  0.046662      2.000000
 -0.036564  0.147770  0.046662      2.000000
 -0.000000 -0.126660  0.046662      2.000000
  0.036564 -0.105550  0.046662      2.000000
  0.073127 -0.084440  0.046662      2.000000
  0.109691 -0.063330  0.046662      2.000000
  0.146255 -0.042220  0.046662      2.000000
 -0.109691 -0.189990  0.046662      2.000000
 -0.073128 -0.168880  0.046662      2.000000
 -0.036564 -0.147770  0.046662      2.000000
 -0.000000 -0.084440  0.046662      2.000000
  0.036564 -0.063330  0.046662      2.000000
  0.073127 -0.042220  0.046662      2.000000
  0.109691 -0.021110  0.046662      2.000000
  0.146255  0.000000  0.046662      2.000000
 -0.109691 -0.147770  0.046662      2.000000
 -0.073128 -0.126660  0.046662      2.000000
 -0.036564 -0.105550  0.046662      2.000000
 -0.000000 -0.042220  0.046662      2.000000
  0.036564 -0.021110  0.046662      2.000000
  0.073127 -0.000000  0.046662      2.000000
  0.109691  0.021110  0.046662      2.000000
  0.146255  0.042220  0.046661      2.000000
 -0.109691 -0.105550  0.046662      2.000000
 -0.073128 -0.084440  0.046662      2.000000
 -0.036564 -0.063330  0.046662      2.000000
 -0.000000 -0.000000  0.093323      1.000000
  0.036564  0.021110  0.093323      2.000000
  0.073127  0.042220  0.093323      2.000000
  0.109691  0.063330  0.093323      2.000000
  0.146255  0.084440  0.093323      1.000000
 -0.000000  0.042220  0.093323      2.000000
  0.036564  0.063330  0.093323      2.000000
  0.073127  0.084440  0.093323      2.000000
  0.109691  0.105550  0.093323      2.000000
  0.146255  0.126660  0.093323      2.000000
 -0.109691 -0.021110  0.093324      2.000000
 -0.073128 -0.000000  0.093323      2.000000
 -0.036564  0.021110  0.093323      2.000000
 -0.000000  0.084440  0.093323      2.000000
  0.036564  0.105550  0.093323      2.000000
  0.073127  0.126660  0.093323      2.000000
  0.109691  0.147770  0.093323      2.000000
  0.146255  0.168880  0.093323      2.000000
 -0.109691  0.021110  0.093323      2.000000
 -0.073128  0.042220  0.093323      2.000000
 -0.036564  0.063330  0.093323      2.000000
 -0.000000  0.126660  0.093323      2.000000
  0.036564  0.147770  0.093323      2.000000
  0.073128  0.168880  0.093323      2.000000
  0.109691  0.189990  0.093323      2.000000
  0.146255  0.211100  0.093323      2.000000
 -0.109691  0.063330  0.093323      2.000000
 -0.073128  0.084440  0.093323      2.000000
 -0.036564  0.105550  0.093323      2.000000
 -0.000000  0.168880  0.093323      1.000000
  0.036564  0.189990  0.093323      2.000000
  0.073128  0.211100  0.093323      2.000000
  0.109691  0.232210  0.093323      2.000000
  0.146255  0.253320  0.093323      1.000000
 


--------------------------------------------------------------------------------------------------------




 Dimension of arrays:
   k-points           NKPTS =    132   k-points in BZ     NKDIM =    132   number of bands    NBANDS=     34
   number of dos      NEDOS =    301   number of ions     NIONS =      2
   non local maximal  LDIM  =      6   non local SUM 2l+1 LMDIM =     18
   total plane-waves  NPLWV =  37632
   max r-space proj   IRMAX =      1   max aug-charges    IRDMAX= 333533
   dimension x,y,z NGX =    28 NGY =   28 NGZ =   48
   dimension x,y,z NGXF=    56 NGYF=   56 NGZF=   96
   support grid    NGXF=   112 NGYF=  112 NGZF=  192
   ions per type =               2
   NGX,Y,Z   is equivalent  to a cutoff of  13.62, 13.62, 14.89 a.u.
   NGXF,Y,Z  is equivalent  to a cutoff of  27.23, 27.23, 29.79 a.u.

 SYSTEM =  Cn_HCP                                  
 POSCAR =  Cn HCP                                  

 Startparameter for this run:
   NWRITE =      2    write-flag & timer
   PREC   = accura    normal or accurate (medium, high low for compatibility)
   ISTART =      0    job   : 0-new  1-cont  2-samecut
   ICHARG =      2    charge: 1-file 2-atom 10-const
   ISPIN  =      1    spin polarized calculation?
   LNONCOLLINEAR =      T non collinear calculations
   LSORBIT =      T    spin-orbit coupling
   INIWAV =      1    electr: 0-lowe 1-rand  2-diag
   LASPH  =      F    aspherical Exc in radial PAW
   METAGGA=      F    non-selfconsistent MetaGGA calc.

 Electronic Relaxation 1
   ENCUT  =  600.0 eV  44.10 Ry    6.64 a.u.   6.83  6.83 10.70*2*pi/ulx,y,z
   ENINI  =  600.0     initial cutoff
   ENAUG  =  361.0 eV  augmentation charge cutoff
   NELM   =    100;   NELMIN=  5; NELMDL= -5     # of ELM steps 
   EDIFF  = 0.1E-06   stopping-criterion for ELM
   LREAL  =      F    real-space projection
   NLSPLINE    = F    spline interpolate recip. space projectors
   LCOMPAT=      F    compatible to vasp.4.4
   GGA_COMPAT  = F    GGA compatible to vasp.4.4-vasp.4.6
   LMAXPAW     = -100 max onsite density
   LMAXMIX     =    2 max onsite mixed and CHGCAR
   VOSKOWN=      0    Vosko Wilk Nusair interpolation
   ROPT   =    0.00000
 Ionic relaxation
   EDIFFG = 0.1E-04   stopping-criterion for IOM
   NSW    =    999    number of steps for IOM
   NBLOCK =      1;   KBLOCK =    999    inner block; outer block 
   IBRION =      1    ionic relax: 0-MD 1-quasi-New 2-CG
   NFREE  =      5    steps in history (QN), initial steepest desc. (CG)
   ISIF   =      4    stress and relaxation
   IWAVPR =     11    prediction:  0-non 1-charg 2-wave 3-comb
   ISYM   =      2    0-nonsym 1-usesym 2-fastsym
   LCORR  =      T    Harris-Foulkes like correction to forces

   POTIM  = 0.1000    time-step for ionic-motion
   TEIN   =    0.0    initial temperature
   TEBEG  =    0.0;   TEEND  =   0.0 temperature during run
   SMASS  =  -3.00    Nose mass-parameter (am)
   estimated Nose-frequenzy (Omega)   =  0.10E-29 period in steps =****** mass=  -0.267E-27a.u.
   SCALEE = 1.0000    scale energy and forces
   NPACO  =    256;   APACO  = 16.0  distance and # of slots for P.C.
   PSTRESS=    0.0 pullay stress

  Mass of Ions in am
   POMASS =   0.01
  Ionic Valenz
   ZVAL   =  12.00
  Atomic Wigner-Seitz radii
   RWIGS  =  -1.00
  virtual crystal weights 
   VCA    =   1.00
   NELECT =      24.0000    total number of electrons
   NUPDOWN=      -1.0000    fix difference up-down

 DOS related values:
   EMIN   =  10.00;   EMAX   =-10.00  energy-range for DOS
   EFERMI =   0.00
   ISMEAR =     1;   SIGMA  =   0.10  broadening in eV -4-tet -1-fermi 0-gaus

 Electronic relaxation 2 (details)
   IALGO  =     68    algorithm
   LDIAG  =      T    sub-space diagonalisation (order eigenvalues)
   LSUBROT=      F    optimize rotation matrix (better conditioning)
   TURBO    =      0    0=normal 1=particle mesh
   IRESTART =      0    0=no restart 2=restart with 2 vectors
   NREBOOT  =      0    no. of reboots
   NMIN     =      0    reboot dimension
   EREF     =   0.00    reference energy to select bands
   IMIX   =      4    mixing-type and parameters
     AMIX     =   0.40;   BMIX     =  1.00
     AMIX_MAG =   1.60;   BMIX_MAG =  1.00
     AMIN     =   0.10
     WC   =   100.;   INIMIX=   1;  MIXPRE=   1;  MAXMIX=  50

 Intra band minimization:
   WEIMIN = 0.0010     energy-eigenvalue tresh-hold
   EBREAK =  0.74E-09  absolut break condition
   DEPER  =   0.30     relativ break condition  

   TIME   =   0.40     timestep for ELM

  volume/ion in A,a.u.               =      27.11       182.98
  Fermi-wavevector in a.u.,A,eV,Ry     =   1.247579  2.357583 21.176845  1.556454
  Thomas-Fermi vector in A             =   2.381705
 
 Write flags
   LWAVE        =      F    write WAVECAR
   LDOWNSAMPLE  =      F    k-point downsampling of WAVECAR
   LCHARG       =      F    write CHGCAR
   LVTOT        =      F    write LOCPOT, total local potential
   LVHAR        =      F    write LOCPOT, Hartree potential only
   LELF         =      F    write electronic localiz. function (ELF)
   LORBIT       =      0    0 simple, 1 ext, 2 COOP (PROOUT), +10 PAW based schemes


 Dipole corrections
   LMONO  =      F    monopole corrections only (constant potential shift)
   LDIPOL =      F    correct potential (dipole corrections)
   IDIPOL =      0    1-x, 2-y, 3-z, 4-all directions 
   EPSILON=  1.0000000 bulk dielectric constant

 Exchange correlation treatment:
   GGA     =    PS    GGA type
   LEXCH   =    14    internal setting for exchange type
   VOSKOWN=      0    Vosko Wilk Nusair interpolation
   LHFCALC =     F    Hartree Fock is set to
   LHFONE  =     F    Hartree Fock one center treatment
   AEXX    =    0.0000 exact exchange contribution

 Linear response parameters
   LEPSILON=     F    determine dielectric tensor
   LRPA    =     F    only Hartree local field effects (RPA)
   LNABLA  =     F    use nabla operator in PAW spheres
   LVEL    =     F    velocity operator in full k-point grid
   LINTERFAST=   F  fast interpolation
   KINTER  =     0    interpolate to denser k-point grid
   CSHIFT  =0.1000    complex shift for real part using Kramers Kronig
   OMEGAMAX=  -1.0    maximum frequency
   DEG_THRESHOLD= 0.2000000E-02 threshold for treating states as degnerate
   RTIME   =   -0.100 relaxation time in fs
  (WPLASMAI=    0.000 imaginary part of plasma frequency in eV, 0.658/RTIME)
   DFIELD  = 0.0000000 0.0000000 0.0000000 field for delta impulse in time
 
 Orbital magnetization related:
   ORBITALMAG=     F  switch on orbital magnetization
   LCHIMAG   =     F  perturbation theory with respect to B field
   DQ        =  0.001000  dq finite difference perturbation B field
   LLRAUG    =     F  two centre corrections for induced B field



--------------------------------------------------------------------------------------------------------


 quasi-Newton-method for relaxation of ions
 charge density and potential will be updated during run
 non collinear spin polarized calculation
 RMM-DIIS sequential band-by-band and
  variant of blocked Davidson during initial phase
 perform sub-space diagonalisation
    before iterative eigenvector-optimisation
 modified Broyden-mixing scheme, WC =      100.0
 initial mixing is a Kerker type mixing with AMIX =  0.4000 and BMIX =      1.0000
 Hartree-type preconditioning will be used
 using additional bands           22
 reciprocal scheme for non local part
 use partial core corrections
 calculate Harris-corrections to forces 
   (improved forces if not selfconsistent)
 use gradient corrections 
 use of overlap-Matrix (Vanderbilt PP)
 Methfessel and Paxton  Order N= 1 SIGMA  =   0.10


--------------------------------------------------------------------------------------------------------


  energy-cutoff  :      600.00
  volume of cell :       54.23
      direct lattice vectors                 reciprocal lattice vectors
     3.418685135 -0.000001395  0.000003029     0.292510189  0.168879816 -0.000000492
    -1.709343772  2.960688147  0.000000718     0.000000138  0.337759394 -0.000000335
     0.000005950  0.000005310  5.357714219    -0.000000165 -0.000000141  0.186646760

  length of vectors
     3.418685135  3.418703034  5.357714219     0.337761163  0.337759394  0.186646760


 
 k-points in units of 2pi/SCALE and weight: read from INCAR                         
   0.00000000  0.00000000  0.00000000       0.004
   0.03656377  0.02110998 -0.00000006       0.008
   0.07312755  0.04221995 -0.00000012       0.008
   0.10969132  0.06332993 -0.00000018       0.008
   0.14625509  0.08443991 -0.00000025       0.004
   0.00000002  0.04221992 -0.00000004       0.008
   0.03656379  0.06332990 -0.00000010       0.008
   0.07312756  0.08443988 -0.00000016       0.008
   0.10969134  0.10554986 -0.00000023       0.008
   0.14625511  0.12665983 -0.00000029       0.008
  -0.10969130 -0.02111001  0.00000014       0.008
  -0.07312753 -0.00000003  0.00000008       0.008
  -0.03656376  0.02110995  0.00000002       0.008
   0.00000003  0.08443985 -0.00000008       0.008
   0.03656381  0.10554983 -0.00000015       0.008
   0.07312758  0.12665980 -0.00000021       0.008
   0.10969136  0.14776978 -0.00000027       0.008
   0.14625513  0.16887976 -0.00000033       0.008
  -0.10969129  0.02110992  0.00000010       0.008
  -0.07312751  0.04221989  0.00000004       0.008
  -0.03656374  0.06332987 -0.00000002       0.008
   0.00000005  0.12665977 -0.00000013       0.008
   0.03656383  0.14776975 -0.00000019       0.008
   0.07312760  0.16887973 -0.00000025       0.008
   0.10969137  0.18998970 -0.00000031       0.008
   0.14625515  0.21109968 -0.00000037       0.008
  -0.10969127  0.06332984  0.00000006       0.008
  -0.07312750  0.08443982 -0.00000000       0.008
  -0.03656372  0.10554980 -0.00000006       0.008
   0.00000007  0.16887970 -0.00000017       0.004
   0.03656384  0.18998967 -0.00000023       0.008
   0.07312762  0.21109965 -0.00000029       0.008
   0.10969139  0.23220963 -0.00000035       0.008
   0.14625516  0.25331961 -0.00000041       0.004
  -0.00000004 -0.00000004  0.04666169       0.008
   0.03656373  0.02110994  0.04666163       0.008
   0.07312751  0.04221992  0.04666157       0.008
   0.10969128  0.06332990  0.04666151       0.008
   0.14625505  0.08443987  0.04666144       0.008
  -0.10969136 -0.06332997  0.04666187       0.008
  -0.07312759 -0.04221999  0.04666181       0.008
  -0.03656381 -0.02111001  0.04666175       0.008
  -0.00000002  0.04221989  0.04666165       0.008
   0.03656375  0.06332987  0.04666159       0.008
   0.07312752  0.08443984  0.04666153       0.008
   0.10969130  0.10554982  0.04666146       0.008
   0.14625507  0.12665980  0.04666140       0.008
  -0.10969135 -0.02111004  0.04666183       0.008
  -0.07312757 -0.00000006  0.04666177       0.008
  -0.03656380  0.02110991  0.04666171       0.008
  -0.00000001  0.08443981  0.04666161       0.008
   0.03656377  0.10554979  0.04666154       0.008
   0.07312754  0.12665977  0.04666148       0.008
   0.10969131  0.14776974  0.04666142       0.008
   0.14625509  0.16887972  0.04666136       0.008
  -0.10969133  0.02110988  0.04666179       0.008
  -0.07312755  0.04221986  0.04666173       0.008
  -0.03656378  0.06332984  0.04666167       0.008
   0.00000001  0.12665974  0.04666156       0.008
   0.03656378  0.14776971  0.04666150       0.008
   0.07312756  0.16887969  0.04666144       0.008
   0.10969133  0.18998967  0.04666138       0.008
   0.14625510  0.21109965  0.04666132       0.008
  -0.10969131  0.06332981  0.04666175       0.008
  -0.07312754  0.08443978  0.04666169       0.008
  -0.03656376  0.10554976  0.04666163       0.008
   0.00000003  0.16887966  0.04666152       0.008
   0.03656380  0.18998964  0.04666146       0.008
   0.07312757  0.21109962  0.04666140       0.008
   0.10969135  0.23220959  0.04666134       0.008
   0.14625512  0.25331957  0.04666128       0.008
  -0.10969129  0.10554973  0.04666171       0.008
  -0.07312752  0.12665971  0.04666165       0.008
  -0.03656375  0.14776969  0.04666158       0.008
  -0.00000009 -0.12665981  0.04666182       0.008
   0.03656368 -0.10554983  0.04666175       0.008
   0.07312745 -0.08443985  0.04666169       0.008
   0.10969123 -0.06332988  0.04666163       0.008
   0.14625500 -0.04221990  0.04666157       0.008
  -0.10969141 -0.18998974  0.04666200       0.008
  -0.07312764 -0.16887976  0.04666194       0.008
  -0.03656387 -0.14776979  0.04666188       0.008
  -0.00000008 -0.08443988  0.04666177       0.008
   0.03656370 -0.06332991  0.04666171       0.008
   0.07312747 -0.04221993  0.04666165       0.008
   0.10969125 -0.02110995  0.04666159       0.008
   0.14625502  0.00000002  0.04666153       0.008
  -0.10969140 -0.14776981  0.04666196       0.008
  -0.07312762 -0.12665984  0.04666190       0.008
  -0.03656385 -0.10554986  0.04666184       0.008
  -0.00000006 -0.04221996  0.04666173       0.008
   0.03656372 -0.02110998  0.04666167       0.008
   0.07312749 -0.00000001  0.04666161       0.008
   0.10969126  0.02110997  0.04666155       0.008
   0.14625504  0.04221995  0.04666149       0.008
  -0.10969138 -0.10554989  0.04666192       0.008
  -0.07312761 -0.08443991  0.04666185       0.008
  -0.03656383 -0.06332994  0.04666179       0.008
  -0.00000008 -0.00000007  0.09332338       0.004
   0.03656369  0.02110991  0.09332332       0.008
   0.07312746  0.04221988  0.09332326       0.008
   0.10969124  0.06332986  0.09332320       0.008
   0.14625501  0.08443984  0.09332313       0.004
  -0.00000007  0.04221985  0.09332334       0.008
   0.03656371  0.06332983  0.09332328       0.008
   0.07312748  0.08443981  0.09332322       0.008
   0.10969126  0.10554979  0.09332315       0.008
   0.14625503  0.12665976  0.09332309       0.008
  -0.10969139 -0.02111008  0.09332352       0.008
  -0.07312761 -0.00000010  0.09332346       0.008
  -0.03656384  0.02110988  0.09332340       0.008
  -0.00000005  0.08443978  0.09332330       0.008
   0.03656373  0.10554976  0.09332323       0.008
   0.07312750  0.12665973  0.09332317       0.008
   0.10969127  0.14776971  0.09332311       0.008
   0.14625505  0.16887969  0.09332305       0.008
  -0.10969137  0.02110985  0.09332348       0.008
  -0.07312760  0.04221982  0.09332342       0.008
  -0.03656382  0.06332980  0.09332336       0.008
  -0.00000003  0.12665970  0.09332325       0.008
   0.03656374  0.14776968  0.09332319       0.008
   0.07312752  0.16887966  0.09332313       0.008
   0.10969129  0.18998963  0.09332307       0.008
   0.14625506  0.21109961  0.09332301       0.008
  -0.10969135  0.06332977  0.09332344       0.008
  -0.07312758  0.08443975  0.09332338       0.008
  -0.03656380  0.10554973  0.09332332       0.008
  -0.00000001  0.16887963  0.09332321       0.004
   0.03656376  0.18998960  0.09332315       0.008
   0.07312753  0.21109958  0.09332309       0.008
   0.10969131  0.23220956  0.09332303       0.008
   0.14625508  0.25331953  0.09332297       0.004
 
 k-points in reciprocal lattice and weights: read from INCAR                         
   0.00000000  0.00000000  0.00000000       0.004
   0.12500000  0.00000000  0.00000000       0.008
   0.25000000  0.00000000  0.00000000       0.008
   0.37500000 -0.00000000  0.00000000       0.008
   0.50000000  0.00000000  0.00000000       0.004
  -0.00000000  0.12500000  0.00000000       0.008
   0.12500000  0.12500000  0.00000000       0.008
   0.25000000  0.12500000 -0.00000000       0.008
   0.37500000  0.12500000 -0.00000000       0.008
   0.50000000  0.12500000  0.00000000       0.008
  -0.37500000  0.12500000 -0.00000000       0.008
  -0.25000000  0.12500000 -0.00000000       0.008
  -0.12500000  0.12500000  0.00000000       0.008
  -0.00000000  0.25000000  0.00000000       0.008
   0.12500000  0.25000000  0.00000000       0.008
   0.25000000  0.25000000  0.00000000       0.008
   0.37500000  0.25000000  0.00000000       0.008
   0.50000000  0.25000000 -0.00000000       0.008
  -0.37500000  0.25000000  0.00000000       0.008
  -0.25000000  0.25000000  0.00000000       0.008
  -0.12500000  0.25000000  0.00000000       0.008
  -0.00000000  0.37500000  0.00000000       0.008
   0.12500000  0.37500000  0.00000000       0.008
   0.25000000  0.37500000  0.00000000       0.008
   0.37500000  0.37500000  0.00000000       0.008
   0.50000000  0.37500000  0.00000000       0.008
  -0.37500000  0.37500000  0.00000000       0.008
  -0.25000000  0.37500000  0.00000000       0.008
  -0.12500000  0.37500000  0.00000000       0.008
  -0.00000000  0.50000000  0.00000000       0.004
   0.12500000  0.50000000  0.00000000       0.008
   0.25000000  0.50000000  0.00000000       0.008
   0.37500000  0.50000000  0.00000000       0.008
   0.50000000  0.50000000  0.00000000       0.004
  -0.00000000 -0.00000000  0.25000000       0.008
   0.12500000  0.00000000  0.25000000       0.008
   0.25000000 -0.00000000  0.25000000       0.008
   0.37500000 -0.00000000  0.25000000       0.008
   0.50000000  0.00000000  0.25000000       0.008
  -0.37500000 -0.00000000  0.25000000       0.008
  -0.25000000 -0.00000000  0.25000000       0.008
  -0.12500000  0.00000000  0.25000000       0.008
   0.00000000  0.12500000  0.25000000       0.008
   0.12500000  0.12500000  0.25000000       0.008
   0.25000000  0.12500000  0.25000000       0.008
   0.37500000  0.12500000  0.25000000       0.008
   0.50000000  0.12500000  0.25000000       0.008
  -0.37500000  0.12500000  0.25000000       0.008
  -0.25000000  0.12500000  0.25000000       0.008
  -0.12500000  0.12500000  0.25000000       0.008
   0.00000000  0.25000000  0.25000000       0.008
   0.12500000  0.25000000  0.25000000       0.008
   0.25000000  0.25000000  0.25000000       0.008
   0.37500000  0.25000000  0.25000000       0.008
   0.50000000  0.25000000  0.25000000       0.008
  -0.37500000  0.25000000  0.25000000       0.008
  -0.25000000  0.25000000  0.25000000       0.008
  -0.12500000  0.25000000  0.25000000       0.008
  -0.00000000  0.37500000  0.25000000       0.008
   0.12500000  0.37500000  0.25000000       0.008
   0.25000000  0.37500000  0.25000000       0.008
   0.37500000  0.37500000  0.25000000       0.008
   0.50000000  0.37500000  0.25000000       0.008
  -0.37500000  0.37500000  0.25000000       0.008
  -0.25000000  0.37500000  0.25000000       0.008
  -0.12500000  0.37500000  0.25000000       0.008
  -0.00000000  0.50000000  0.25000000       0.008
   0.12500000  0.50000000  0.25000000       0.008
   0.25000000  0.50000000  0.25000000       0.008
   0.37500000  0.50000000  0.25000000       0.008
   0.50000000  0.50000000  0.25000000       0.008
  -0.37500000  0.50000000  0.25000000       0.008
  -0.25000000  0.50000000  0.25000000       0.008
  -0.12500000  0.50000000  0.25000000       0.008
   0.00000000 -0.37500000  0.25000000       0.008
   0.12500000 -0.37500000  0.25000000       0.008
   0.25000000 -0.37500000  0.25000000       0.008
   0.37500000 -0.37500000  0.25000000       0.008
   0.50000000 -0.37500000  0.25000000       0.008
  -0.37500000 -0.37500000  0.25000000       0.008
  -0.25000000 -0.37500000  0.25000000       0.008
  -0.12500000 -0.37500000  0.25000000       0.008
   0.00000000 -0.25000000  0.25000000       0.008
   0.12500000 -0.25000000  0.25000000       0.008
   0.25000000 -0.25000000  0.25000000       0.008
   0.37500000 -0.25000000  0.25000000       0.008
   0.50000000 -0.25000000  0.25000000       0.008
  -0.37500000 -0.25000000  0.25000000       0.008
  -0.25000000 -0.25000000  0.25000000       0.008
  -0.12500000 -0.25000000  0.25000000       0.008
   0.00000000 -0.12500000  0.25000000       0.008
   0.12500000 -0.12500000  0.25000000       0.008
   0.25000000 -0.12500000  0.25000000       0.008
   0.37500000 -0.12500000  0.25000000       0.008
   0.50000000 -0.12500000  0.25000000       0.008
  -0.37500000 -0.12500000  0.25000000       0.008
  -0.25000000 -0.12500000  0.25000000       0.008
  -0.12500000 -0.12500000  0.25000000       0.008
  -0.00000000 -0.00000000  0.50000000       0.004
   0.12500000  0.00000000  0.50000000       0.008
   0.25000000  0.00000000  0.50000000       0.008
   0.37500000 -0.00000000  0.50000000       0.008
   0.50000000 -0.00000000  0.50000000       0.004
   0.00000000  0.12500000  0.50000000       0.008
   0.12500000  0.12500000  0.50000000       0.008
   0.25000000  0.12500000  0.50000000       0.008
   0.37500000  0.12500000  0.50000000       0.008
   0.50000000  0.12500000  0.50000000       0.008
  -0.37500000  0.12500000  0.50000000       0.008
  -0.25000000  0.12500000  0.50000000       0.008
  -0.12500000  0.12500000  0.50000000       0.008
   0.00000000  0.25000000  0.50000000       0.008
   0.12500000  0.25000000  0.50000000       0.008
   0.25000000  0.25000000  0.50000000       0.008
   0.37500000  0.25000000  0.50000000       0.008
   0.50000000  0.25000000  0.50000000       0.008
  -0.37500000  0.25000000  0.50000000       0.008
  -0.25000000  0.25000000  0.50000000       0.008
  -0.12500000  0.25000000  0.50000000       0.008
   0.00000000  0.37500000  0.50000000       0.008
   0.12500000  0.37500000  0.50000000       0.008
   0.25000000  0.37500000  0.50000000       0.008
   0.37500000  0.37500000  0.50000000       0.008
   0.50000000  0.37500000  0.50000000       0.008
  -0.37500000  0.37500000  0.50000000       0.008
  -0.25000000  0.37500000  0.50000000       0.008
  -0.12500000  0.37500000  0.50000000       0.008
   0.00000000  0.50000000  0.50000000       0.004
   0.12500000  0.50000000  0.50000000       0.008
   0.25000000  0.50000000  0.50000000       0.008
   0.37500000  0.50000000  0.50000000       0.008
   0.50000000  0.50000000  0.50000000       0.004
 
 position of ions in fractional coordinates (direct lattice) 
   0.16666460  0.33332434  0.24999810
   0.83333543  0.66667563  0.75000190
 
 position of ions in cartesian coordinates  (Angst):
   0.00000940  0.98687051  1.33941913
   1.70933807  1.97382146  4.01829884
 
 Euler angles ALPHA=     0.0000000  BETA=     0.0000000

 transformation matrix from SAXIS to cartesian coordinates
 ---------------------------------------------------------
     1.0000000 m_x     0.0000000 m_y     0.0000000 m_z
     0.0000000 m_x     1.0000000 m_y     0.0000000 m_z
     0.0000000 m_x     0.0000000 m_y     1.0000000 m_z

 transformation matrix from cartesian coordinates to SAXIS
 ---------------------------------------------------------
     1.0000000 m_x     0.0000000 m_y     0.0000000 m_z
     0.0000000 m_x     1.0000000 m_y     0.0000000 m_z
     0.0000000 m_x     0.0000000 m_y     1.0000000 m_z




--------------------------------------------------------------------------------------------------------


 k-point  1 :   0.0000 0.0000 0.0000  plane waves:    3594
 k-point  2 :   0.1250 0.0000 0.0000  plane waves:    3612
 k-point  3 :   0.2500 0.0000 0.0000  plane waves:    3644
 k-point  4 :   0.3750-0.0000 0.0000  plane waves:    3632
 k-point  5 :   0.5000 0.0000 0.0000  plane waves:    3636
 k-point  6 :  -0.0000 0.1250 0.0000  plane waves:    3612
 k-point  7 :   0.1250 0.1250 0.0000  plane waves:    3630
 k-point  8 :   0.2500 0.1250-0.0000  plane waves:    3610
 k-point  9 :   0.3750 0.1250-0.0000  plane waves:    3640
 k-point 10 :   0.5000 0.1250 0.0000  plane waves:    3640
 k-point 11 :  -0.3750 0.1250-0.0000  plane waves:    3610
 k-point 12 :  -0.2500 0.1250-0.0000  plane waves:    3630
 k-point 13 :  -0.1250 0.1250 0.0000  plane waves:    3612
 k-point 14 :  -0.0000 0.2500 0.0000  plane waves:    3644
 k-point 15 :   0.1250 0.2500 0.0000  plane waves:    3610
 k-point 16 :   0.2500 0.2500 0.0000  plane waves:    3606
 k-point 17 :   0.3750 0.2500 0.0000  plane waves:    3614
 k-point 18 :   0.5000 0.2500-0.0000  plane waves:    3606
 k-point 19 :  -0.3750 0.2500 0.0000  plane waves:    3610
 k-point 20 :  -0.2500 0.2500 0.0000  plane waves:    3644
 k-point 21 :  -0.1250 0.2500 0.0000  plane waves:    3630
 k-point 22 :  -0.0000 0.3750 0.0000  plane waves:    3632
 k-point 23 :   0.1250 0.3750 0.0000  plane waves:    3640
 k-point 24 :   0.2500 0.3750 0.0000  plane waves:    3614
 k-point 25 :   0.3750 0.3750 0.0000  plane waves:    3614
 k-point 26 :   0.5000 0.3750 0.0000  plane waves:    3640
 k-point 27 :  -0.3750 0.3750 0.0000  plane waves:    3632
 k-point 28 :  -0.2500 0.3750 0.0000  plane waves:    3610
 k-point 29 :  -0.1250 0.3750 0.0000  plane waves:    3610
 k-point 30 :  -0.0000 0.5000 0.0000  plane waves:    3636
 k-point 31 :   0.1250 0.5000 0.0000  plane waves:    3640
 k-point 32 :   0.2500 0.5000 0.0000  plane waves:    3606
 k-point 33 :   0.3750 0.5000 0.0000  plane waves:    3640
 k-point 34 :   0.5000 0.5000 0.0000  plane waves:    3636
 k-point 35 :  -0.0000-0.0000 0.2500  plane waves:    3582
 k-point 36 :   0.1250 0.0000 0.2500  plane waves:    3596
 k-point 37 :   0.2500-0.0000 0.2500  plane waves:    3620
 k-point 38 :   0.3750-0.0000 0.2500  plane waves:    3630
 k-point 39 :   0.5000 0.0000 0.2500  plane waves:    3636
 k-point 40 :  -0.3750-0.0000 0.2500  plane waves:    3630
 k-point 41 :  -0.2500-0.0000 0.2500  plane waves:    3620
 k-point 42 :  -0.1250 0.0000 0.2500  plane waves:    3596
 k-point 43 :   0.0000 0.1250 0.2500  plane waves:    3596
 k-point 44 :   0.1250 0.1250 0.2500  plane waves:    3616
 k-point 45 :   0.2500 0.1250 0.2500  plane waves:    3632
 k-point 46 :   0.3750 0.1250 0.2500  plane waves:    3626
 k-point 47 :   0.5000 0.1250 0.2500  plane waves:    3626
 k-point 48 :  -0.3750 0.1250 0.2500  plane waves:    3632
 k-point 49 :  -0.2500 0.1250 0.2500  plane waves:    3620
 k-point 50 :  -0.1250 0.1250 0.2500  plane waves:    3596
 k-point 51 :   0.0000 0.2500 0.2500  plane waves:    3620
 k-point 52 :   0.1250 0.2500 0.2500  plane waves:    3632
 k-point 53 :   0.2500 0.2500 0.2500  plane waves:    3620
 k-point 54 :   0.3750 0.2500 0.2500  plane waves:    3616
 k-point 55 :   0.5000 0.2500 0.2500  plane waves:    3620
 k-point 56 :  -0.3750 0.2500 0.2500  plane waves:    3632
 k-point 57 :  -0.2500 0.2500 0.2500  plane waves:    3620
 k-point 58 :  -0.1250 0.2500 0.2500  plane waves:    3616
 k-point 59 :  -0.0000 0.3750 0.2500  plane waves:    3630
 k-point 60 :   0.1250 0.3750 0.2500  plane waves:    3626
 k-point 61 :   0.2500 0.3750 0.2500  plane waves:    3618
 k-point 62 :   0.3750 0.3750 0.2500  plane waves:    3616
 k-point 63 :   0.5000 0.3750 0.2500  plane waves:    3626
 k-point 64 :  -0.3750 0.3750 0.2500  plane waves:    3630
 k-point 65 :  -0.2500 0.3750 0.2500  plane waves:    3632
 k-point 66 :  -0.1250 0.3750 0.2500  plane waves:    3632
 k-point 67 :  -0.0000 0.5000 0.2500  plane waves:    3636
 k-point 68 :   0.1250 0.5000 0.2500  plane waves:    3626
 k-point 69 :   0.2500 0.5000 0.2500  plane waves:    3620
 k-point 70 :   0.3750 0.5000 0.2500  plane waves:    3626
 k-point 71 :   0.5000 0.5000 0.2500  plane waves:    3636
 k-point 72 :  -0.3750 0.5000 0.2500  plane waves:    3626
 k-point 73 :  -0.2500 0.5000 0.2500  plane waves:    3620
 k-point 74 :  -0.1250 0.5000 0.2500  plane waves:    3626
 k-point 75 :   0.0000-0.3750 0.2500  plane waves:    3630
 k-point 76 :   0.1250-0.3750 0.2500  plane waves:    3632
 k-point 77 :   0.2500-0.3750 0.2500  plane waves:    3632
 k-point 78 :   0.3750-0.3750 0.2500  plane waves:    3630
 k-point 79 :   0.5000-0.3750 0.2500  plane waves:    3626
 k-point 80 :  -0.3750-0.3750 0.2500  plane waves:    3616
 k-point 81 :  -0.2500-0.3750 0.2500  plane waves:    3616
 k-point 82 :  -0.1250-0.3750 0.2500  plane waves:    3626
 k-point 83 :   0.0000-0.2500 0.2500  plane waves:    3620
 k-point 84 :   0.1250-0.2500 0.2500  plane waves:    3616
 k-point 85 :   0.2500-0.2500 0.2500  plane waves:    3620
 k-point 86 :   0.3750-0.2500 0.2500  plane waves:    3632
 k-point 87 :   0.5000-0.2500 0.2500  plane waves:    3620
 k-point 88 :  -0.3750-0.2500 0.2500  plane waves:    3614
 k-point 89 :  -0.2500-0.2500 0.2500  plane waves:    3620
 k-point 90 :  -0.1250-0.2500 0.2500  plane waves:    3632
 k-point 91 :   0.0000-0.1250 0.2500  plane waves:    3596
 k-point 92 :   0.1250-0.1250 0.2500  plane waves:    3596
 k-point 93 :   0.2500-0.1250 0.2500  plane waves:    3620
 k-point 94 :   0.3750-0.1250 0.2500  plane waves:    3632
 k-point 95 :   0.5000-0.1250 0.2500  plane waves:    3626
 k-point 96 :  -0.3750-0.1250 0.2500  plane waves:    3626
 k-point 97 :  -0.2500-0.1250 0.2500  plane waves:    3632
 k-point 98 :  -0.1250-0.1250 0.2500  plane waves:    3616
 k-point 99 :  -0.0000-0.0000 0.5000  plane waves:    3644
 k-point ** :   0.1250 0.0000 0.5000  plane waves:    3604
 k-point ** :   0.2500 0.0000 0.5000  plane waves:    3616
 k-point ** :   0.3750-0.0000 0.5000  plane waves:    3624
 k-point ** :   0.5000-0.0000 0.5000  plane waves:    3592
 k-point ** :   0.0000 0.1250 0.5000  plane waves:    3604
 k-point ** :   0.1250 0.1250 0.5000  plane waves:    3584
 k-point ** :   0.2500 0.1250 0.5000  plane waves:    3612
 k-point ** :   0.3750 0.1250 0.5000  plane waves:    3624
 k-point ** :   0.5000 0.1250 0.5000  plane waves:    3624
 k-point ** :  -0.3750 0.1250 0.5000  plane waves:    3612
 k-point ** :  -0.2500 0.1250 0.5000  plane waves:    3584
 k-point ** :  -0.1250 0.1250 0.5000  plane waves:    3604
 k-point ** :   0.0000 0.2500 0.5000  plane waves:    3616
 k-point ** :   0.1250 0.2500 0.5000  plane waves:    3612
 k-point ** :   0.2500 0.2500 0.5000  plane waves:    3628
 k-point ** :   0.3750 0.2500 0.5000  plane waves:    3648
 k-point ** :   0.5000 0.2500 0.5000  plane waves:    3628
 k-point ** :  -0.3750 0.2500 0.5000  plane waves:    3612
 k-point ** :  -0.2500 0.2500 0.5000  plane waves:    3616
 k-point ** :  -0.1250 0.2500 0.5000  plane waves:    3584
 k-point ** :   0.0000 0.3750 0.5000  plane waves:    3624
 k-point ** :   0.1250 0.3750 0.5000  plane waves:    3624
 k-point ** :   0.2500 0.3750 0.5000  plane waves:    3648
 k-point ** :   0.3750 0.3750 0.5000  plane waves:    3648
 k-point ** :   0.5000 0.3750 0.5000  plane waves:    3624
 k-point ** :  -0.3750 0.3750 0.5000  plane waves:    3624
 k-point ** :  -0.2500 0.3750 0.5000  plane waves:    3612
 k-point ** :  -0.1250 0.3750 0.5000  plane waves:    3612
 k-point ** :   0.0000 0.5000 0.5000  plane waves:    3592
 k-point ** :   0.1250 0.5000 0.5000  plane waves:    3624
 k-point ** :   0.2500 0.5000 0.5000  plane waves:    3628
 k-point ** :   0.3750 0.5000 0.5000  plane waves:    3624
 k-point ** :   0.5000 0.5000 0.5000  plane waves:    3592

 maximum and minimum number of plane-waves per node :       948      878

 maximum number of plane-waves:      3648
 maximum index in each direction: 
   IXMAX=    7   IYMAX=    7   IZMAX=   10
   IXMIN=   -7   IYMIN=   -7   IZMIN=  -11


 parallel 3D FFT for wavefunctions:
    minimum data exchange during FFTs selected (reduces bandwidth)
 parallel 3D FFT for charge:
    minimum data exchange during FFTs selected (reduces bandwidth)


 total amount of memory used by VASP MPI-rank0    93863. kBytes
=======================================================================

   base      :      30000. kBytes
   nonl-proj :       8720. kBytes
   fftplans  :      11268. kBytes
   grid      :       9633. kBytes
   one-center:         62. kBytes
   wavefun   :      34180. kBytes
 
     INWAV:  cpu time    0.0004: real time    0.0000
 Broyden mixing: mesh for mixing (old mesh)
   NGX = 13   NGY = 13   NGZ = 21
  (NGX  = 56   NGY  = 56   NGZ  = 96)
  gives a total of   3549 points

 initial charge density was supplied:
 charge density of overlapping atoms calculated
 number of electron      24.0000000 magnetization       2.0000000      2.0000000      2.0000000
 keeping initial charge density in first step


--------------------------------------------------------------------------------------------------------


 Maximum index for augmentation-charges        40366 (set IRDMAX)


--------------------------------------------------------------------------------------------------------


 First call to EWALD:  gamma=   0.468
 Maximum number of real-space cells 3x 3x 2
 Maximum number of reciprocal cells 3x 3x 4

    FEWALD:  cpu time    0.0030: real time    0.0030


--------------------------------------- Iteration      1(   1)  ---------------------------------------


    POTLOK:  cpu time    0.1736: real time    0.1755
    SETDIJ:  cpu time    0.4940: real time    0.4946
     EDDAV:  cpu time    2.9799: real time    2.9850
       DOS:  cpu time    0.0028: real time    0.0028
    --------------------------------------------
      LOOP:  cpu time    3.6503: real time    3.6579

 eigenvalue-minimisations  :  8976
 total energy-change (2. order) : 0.3173804E+03  (-0.1188808E+04)
 number of electron      24.0000000 magnetization       2.0000000      2.0000000      2.0000000
 augmentation part       24.0000000 magnetization       2.0000000      2.0000000      2.0000000

 Free energy of the ion-electron system (eV)
  ---------------------------------------------------
  alpha Z        PSCENC =       165.99778541
  Ewald energy   TEWEN  =     -1992.97108334
  -Hartree energ DENC   =      -277.46448420
  -exchange      EXHF   =         0.00000000
  -V(xc)+E(xc)   XCENC  =      -214.13620461
  PAW double counting   =      2116.55855324    -1844.98179328
  entropy T*S    EENTRO =         0.00012677
  eigenvalues    EBANDS =       318.88359521
  atomic energy  EATOM  =      2045.49387584
  Solvation  Ediel_sol  =         0.00000000
  ---------------------------------------------------
  free energy    TOTEN  =       317.38037103 eV

  energy without entropy =      317.38024425  energy(sigma->0) =      317.38032877


--------------------------------------------------------------------------------------------------------




--------------------------------------- Iteration      1(   2)  ---------------------------------------


     EDDAV:  cpu time    3.0212: real time    3.0290
       DOS:  cpu time    0.0029: real time    0.0029
    --------------------------------------------
      LOOP:  cpu time    3.0241: real time    3.0320

 eigenvalue-minimisations  :  9846
 total energy-change (2. order) :-0.2730075E+03  (-0.2317275E+03)
 number of electron      24.0000000 magnetization       2.0000000      2.0000000      2.0000000
 augmentation part       24.0000000 magnetization       2.0000000      2.0000000      2.0000000

 Free energy of the ion-electron system (eV)
  ---------------------------------------------------
  alpha Z        PSCENC =       165.99778541
  Ewald energy   TEWEN  =     -1992.97108334
  -Hartree energ DENC   =      -277.46448420
  -exchange      EXHF   =         0.00000000
  -V(xc)+E(xc)   XCENC  =      -214.13620461
  PAW double counting   =      2116.55855324    -1844.98179328
  entropy T*S    EENTRO =        -0.00021647
  eigenvalues    EBANDS =        45.87639063
  atomic energy  EATOM  =      2045.49387584
  Solvation  Ediel_sol  =         0.00000000
  ---------------------------------------------------
  free energy    TOTEN  =        44.37282320 eV

  energy without entropy =       44.37303968  energy(sigma->0) =       44.37289536


--------------------------------------------------------------------------------------------------------




--------------------------------------- Iteration      1(   3)  ---------------------------------------


     EDDAV:  cpu time    4.2012: real time    4.2082
       DOS:  cpu time    0.0028: real time    0.0028
    --------------------------------------------
      LOOP:  cpu time    4.2040: real time    4.2109

 eigenvalue-minimisations  : 15424
 total energy-change (2. order) :-0.4445146E+02  (-0.3659141E+02)
 number of electron      24.0000000 magnetization       2.0000000      2.0000000      2.0000000
 augmentation part       24.0000000 magnetization       2.0000000      2.0000000      2.0000000

 Free energy of the ion-electron system (eV)
  ---------------------------------------------------
  alpha Z        PSCENC =       165.99778541
  Ewald energy   TEWEN  =     -1992.97108334
  -Hartree energ DENC   =      -277.46448420
  -exchange      EXHF   =         0.00000000
  -V(xc)+E(xc)   XCENC  =      -214.13620461
  PAW double counting   =      2116.55855324    -1844.98179328
  entropy T*S    EENTRO =         0.00031693
  eigenvalues    EBANDS =         1.42439690
  atomic energy  EATOM  =      2045.49387584
  Solvation  Ediel_sol  =         0.00000000
  ---------------------------------------------------
  free energy    TOTEN  =        -0.07863712 eV

  energy without entropy =       -0.07895405  energy(sigma->0) =       -0.07874277


--------------------------------------------------------------------------------------------------------




--------------------------------------- Iteration      1(   4)  ---------------------------------------


     EDDAV:  cpu time    3.7020: real time    3.7083
       DOS:  cpu time    0.0028: real time    0.0028
    --------------------------------------------
      LOOP:  cpu time    3.7049: real time    3.7111

 eigenvalue-minimisations  : 12936
 total energy-change (2. order) :-0.2216045E+01  (-0.2153714E+01)
 number of electron      24.0000000 magnetization       2.0000000      2.0000000      2.0000000
 augmentation part       24.0000000 magnetization       2.0000000      2.0000000      2.0000000

 Free energy of the ion-electron system (eV)
  ---------------------------------------------------
  alpha Z        PSCENC =       165.99778541
  Ewald energy   TEWEN  =     -1992.97108334
  -Hartree energ DENC   =      -277.46448420
  -exchange      EXHF   =         0.00000000
  -V(xc)+E(xc)   XCENC  =      -214.13620461
  PAW double counting   =      2116.55855324    -1844.98179328
  entropy T*S    EENTRO =         0.00126026
  eigenvalues    EBANDS =        -0.79259159
  atomic energy  EATOM  =      2045.49387584
  Solvation  Ediel_sol  =         0.00000000
  ---------------------------------------------------
  free energy    TOTEN  =        -2.29468228 eV

  energy without entropy =       -2.29594255  energy(sigma->0) =       -2.29510237


--------------------------------------------------------------------------------------------------------




--------------------------------------- Iteration      1(   5)  ---------------------------------------


     EDDAV:  cpu time    3.9857: real time    3.9925
       DOS:  cpu time    0.0029: real time    0.0029
    CHARGE:  cpu time    0.7938: real time    0.7948
    MIXING:  cpu time    0.0109: real time    0.0109
    --------------------------------------------
      LOOP:  cpu time    4.7932: real time    4.8010

 eigenvalue-minimisations  : 14442
 total energy-change (2. order) :-0.6994471E-01  (-0.6978735E-01)
 number of electron      24.0000000 magnetization       0.1716768      0.1716646      0.1692836
 augmentation part        3.1251794 magnetization       0.1474211      0.1473901      0.1471742

 Broyden mixing:
  rms(total) = 0.77466E+00    rms(broyden)= 0.77465E+00
  rms(prec ) = 0.84248E+00
  weight for this iteration     100.00

 Free energy of the ion-electron system (eV)
  ---------------------------------------------------
  alpha Z        PSCENC =       165.99778541
  Ewald energy   TEWEN  =     -1992.97108334
  -Hartree energ DENC   =      -277.46448420
  -exchange      EXHF   =         0.00000000
  -V(xc)+E(xc)   XCENC  =      -214.13620461
  PAW double counting   =      2116.55855324    -1844.98179328
  entropy T*S    EENTRO =         0.00127777
  eigenvalues    EBANDS =        -0.86255382
  atomic energy  EATOM  =      2045.49387584
  Solvation  Ediel_sol  =         0.00000000
  ---------------------------------------------------
  free energy    TOTEN  =        -2.36462700 eV

  energy without entropy =       -2.36590477  energy(sigma->0) =       -2.36505292


--------------------------------------------------------------------------------------------------------




--------------------------------------- Iteration      1(   6)  ---------------------------------------


    POTLOK:  cpu time    0.1772: real time    0.1777
    SETDIJ:  cpu time    0.4973: real time    0.4979
    EDDIAG:  cpu time    0.6134: real time    0.6144
  RMM-DIIS:  cpu time    2.8817: real time    2.8864
    ORTHCH:  cpu time    0.0331: real time    0.0331
       DOS:  cpu time    0.0059: real time    0.0058
    CHARGE:  cpu time    0.7891: real time    0.7903
    MIXING:  cpu time    0.0108: real time    0.0108
    --------------------------------------------
      LOOP:  cpu time    5.0084: real time    5.0165

 eigenvalue-minimisations  :  9000
 total energy-change (2. order) :-0.4723273E+00  (-0.5043311E-01)
 number of electron      24.0000000 magnetization       0.0320361      0.0320211      0.0329346
 augmentation part        3.2009713 magnetization       0.0001190      0.0001095     -0.0007632

 Broyden mixing:
  rms(total) = 0.17895E+00    rms(broyden)= 0.17895E+00
  rms(prec ) = 0.21126E+00
  weight for this iteration     100.00

 eigenvalues of (default mixing * dielectric matrix)
  average eigenvalue GAMMA=   0.8413
  0.8413

 Free energy of the ion-electron system (eV)
  ---------------------------------------------------
  alpha Z        PSCENC =       165.99778541
  Ewald energy   TEWEN  =     -1992.97108334
  -Hartree energ DENC   =      -270.56366157
  -exchange      EXHF   =         0.00000000
  -V(xc)+E(xc)   XCENC  =      -214.62762164
  PAW double counting   =      2102.26478927    -1831.31849234
  entropy T*S    EENTRO =         0.00254596
  eigenvalues    EBANDS =        -7.11509187
  atomic energy  EATOM  =      2045.49387584
  Solvation  Ediel_sol  =         0.00000000
  ---------------------------------------------------
  free energy    TOTEN  =        -2.83695430 eV

  energy without entropy =       -2.83950026  energy(sigma->0) =       -2.83780295


--------------------------------------------------------------------------------------------------------




--------------------------------------- Iteration      1(   7)  ---------------------------------------


    POTLOK:  cpu time    0.1696: real time    0.1756
    SETDIJ:  cpu time    0.4930: real time    0.4987
    EDDIAG:  cpu time    0.6156: real time    0.6166
  RMM-DIIS:  cpu time    2.9852: real time    2.9902
    ORTHCH:  cpu time    0.0335: real time    0.0336
       DOS:  cpu time    0.0033: real time    0.0032
    CHARGE:  cpu time    0.7814: real time    0.7824
    MIXING:  cpu time    0.0121: real time    0.0121
    --------------------------------------------
      LOOP:  cpu time    5.0937: real time    5.1122

 eigenvalue-minimisations  :  9268
 total energy-change (2. order) :-0.1167761E+00  (-0.1139210E-01)
 number of electron      24.0000000 magnetization      -0.0038139     -0.0038141     -0.0035852
 augmentation part        3.2291494 magnetization      -0.0079378     -0.0079444     -0.0078518

 Broyden mixing:
  rms(total) = 0.43467E-01    rms(broyden)= 0.43466E-01
  rms(prec ) = 0.66270E-01
  weight for this iteration     100.00

 eigenvalues of (default mixing * dielectric matrix)
  average eigenvalue GAMMA=   0.9144
  0.9903  0.8384

 Free energy of the ion-electron system (eV)
  ---------------------------------------------------
  alpha Z        PSCENC =       165.99778541
  Ewald energy   TEWEN  =     -1992.97108334
  -Hartree energ DENC   =      -268.53815864
  -exchange      EXHF   =         0.00000000
  -V(xc)+E(xc)   XCENC  =      -214.77415891
  PAW double counting   =      2101.59051177    -1830.81354727
  entropy T*S    EENTRO =         0.00257634
  eigenvalues    EBANDS =        -8.94153160
  atomic energy  EATOM  =      2045.49387584
  Solvation  Ediel_sol  =         0.00000000
  ---------------------------------------------------
  free energy    TOTEN  =        -2.95373041 eV

  energy without entropy =       -2.95630675  energy(sigma->0) =       -2.95458919


--------------------------------------------------------------------------------------------------------




--------------------------------------- Iteration      1(   8)  ---------------------------------------


    POTLOK:  cpu time    0.1749: real time    0.1770
    SETDIJ:  cpu time    0.4889: real time    0.4958
    EDDIAG:  cpu time    0.6168: real time    0.6177
  RMM-DIIS:  cpu time    3.5982: real time    3.6045
    ORTHCH:  cpu time    0.0328: real time    0.0328
       DOS:  cpu time    0.0031: real time    0.0031
    CHARGE:  cpu time    0.7834: real time    0.7844
    MIXING:  cpu time    0.0097: real time    0.0097
    --------------------------------------------
      LOOP:  cpu time    5.7078: real time    5.7250

 eigenvalue-minimisations  : 11530
 total energy-change (2. order) :-0.2489625E-02  (-0.3413253E-02)
 number of electron      24.0000000 magnetization      -0.0012318     -0.0012344     -0.0012653
 augmentation part        3.2389127 magnetization      -0.0027912     -0.0027955     -0.0027866

 Broyden mixing:
  rms(total) = 0.25882E-01    rms(broyden)= 0.25882E-01
  rms(prec ) = 0.34094E-01
  weight for this iteration     100.00

 eigenvalues of (default mixing * dielectric matrix)
  average eigenvalue GAMMA=   0.9080
  1.1517  0.9192  0.6530

 Free energy of the ion-electron system (eV)
  ---------------------------------------------------
  alpha Z        PSCENC =       165.99778541
  Ewald energy   TEWEN  =     -1992.97108334
  -Hartree energ DENC   =      -267.61141050
  -exchange      EXHF   =         0.00000000
  -V(xc)+E(xc)   XCENC  =      -214.84366970
  PAW double counting   =      2102.20065155    -1831.48925999
  entropy T*S    EENTRO =         0.00261262
  eigenvalues    EBANDS =        -9.73572192
  atomic energy  EATOM  =      2045.49387584
  Solvation  Ediel_sol  =         0.00000000
  ---------------------------------------------------
  free energy    TOTEN  =        -2.95622004 eV

  energy without entropy =       -2.95883265  energy(sigma->0) =       -2.95709091


--------------------------------------------------------------------------------------------------------




--------------------------------------- Iteration      1(   9)  ---------------------------------------


    POTLOK:  cpu time    0.1703: real time    0.1707
    SETDIJ:  cpu time    0.5029: real time    0.5046
    EDDIAG:  cpu time    0.6219: real time    0.6229
  RMM-DIIS:  cpu time    3.4737: real time    3.4797
    ORTHCH:  cpu time    0.0322: real time    0.0322
       DOS:  cpu time    0.0036: real time    0.0036
    CHARGE:  cpu time    0.7819: real time    0.7830
    MIXING:  cpu time    0.0104: real time    0.0104
    --------------------------------------------
      LOOP:  cpu time    5.5969: real time    5.6072

 eigenvalue-minimisations  : 11063
 total energy-change (2. order) : 0.2473744E-03  (-0.2231173E-03)
 number of electron      24.0000000 magnetization       0.0019455      0.0019453      0.0019374
 augmentation part        3.2398233 magnetization       0.0017790      0.0017816      0.0017284

 Broyden mixing:
  rms(total) = 0.12717E-01    rms(broyden)= 0.12717E-01
  rms(prec ) = 0.18424E-01
  weight for this iteration     100.00

 eigenvalues of (default mixing * dielectric matrix)
  average eigenvalue GAMMA=   1.1706
  2.0815  1.1037  0.8632  0.6340

 Free energy of the ion-electron system (eV)
  ---------------------------------------------------
  alpha Z        PSCENC =       165.99778541
  Ewald energy   TEWEN  =     -1992.97108334
  -Hartree energ DENC   =      -267.46164898
  -exchange      EXHF   =         0.00000000
  -V(xc)+E(xc)   XCENC  =      -214.87551136
  PAW double counting   =      2104.19965768    -1833.50144250
  entropy T*S    EENTRO =         0.00264531
  eigenvalues    EBANDS =        -9.84025073
  atomic energy  EATOM  =      2045.49387584
  Solvation  Ediel_sol  =         0.00000000
  ---------------------------------------------------
  free energy    TOTEN  =        -2.95597267 eV

  energy without entropy =       -2.95861798  energy(sigma->0) =       -2.95685444


--------------------------------------------------------------------------------------------------------




--------------------------------------- Iteration      1(  10)  ---------------------------------------


    POTLOK:  cpu time    0.1713: real time    0.1717
    SETDIJ:  cpu time    0.5023: real time    0.5045
    EDDIAG:  cpu time    0.6149: real time    0.6159
  RMM-DIIS:  cpu time    3.0288: real time    3.0340
    ORTHCH:  cpu time    0.0326: real time    0.0326
       DOS:  cpu time    0.0033: real time    0.0033
    CHARGE:  cpu time    0.7789: real time    0.7798
    MIXING:  cpu time    0.0119: real time    0.0119
    --------------------------------------------
      LOOP:  cpu time    5.1439: real time    5.1537

 eigenvalue-minimisations  :  9550
 total energy-change (2. order) : 0.1338354E-03  (-0.4436508E-04)
 number of electron      24.0000000 magnetization       0.0000743      0.0000740      0.0000617
 augmentation part        3.2378875 magnetization       0.0001217      0.0001250      0.0001267

 Broyden mixing:
  rms(total) = 0.30547E-02    rms(broyden)= 0.30546E-02
  rms(prec ) = 0.42978E-02
  weight for this iteration     100.00

 eigenvalues of (default mixing * dielectric matrix)
  average eigenvalue GAMMA=   1.2051
  2.5144  1.1294  0.9913  0.7492  0.6414

 Free energy of the ion-electron system (eV)
  ---------------------------------------------------
  alpha Z        PSCENC =       165.99778541
  Ewald energy   TEWEN  =     -1992.97108334
  -Hartree energ DENC   =      -267.38577807
  -exchange      EXHF   =         0.00000000
  -V(xc)+E(xc)   XCENC  =      -214.91105784
  PAW double counting   =      2106.78918753    -1836.10120471
  entropy T*S    EENTRO =         0.00268432
  eigenvalues    EBANDS =        -9.87024796
  atomic energy  EATOM  =      2045.49387584
  Solvation  Ediel_sol  =         0.00000000
  ---------------------------------------------------
  free energy    TOTEN  =        -2.95583883 eV

  energy without entropy =       -2.95852315  energy(sigma->0) =       -2.95673360


--------------------------------------------------------------------------------------------------------




--------------------------------------- Iteration      1(  11)  ---------------------------------------


    POTLOK:  cpu time    0.1750: real time    0.1755
    SETDIJ:  cpu time    0.4968: real time    0.4999
    EDDIAG:  cpu time    0.6167: real time    0.6177
  RMM-DIIS:  cpu time    3.4054: real time    3.4111
    ORTHCH:  cpu time    0.0329: real time    0.0329
       DOS:  cpu time    0.0034: real time    0.0034
    CHARGE:  cpu time    0.7778: real time    0.7788
    MIXING:  cpu time    0.0117: real time    0.0117
    --------------------------------------------
      LOOP:  cpu time    5.5197: real time    5.5311

 eigenvalue-minimisations  : 10878
 total energy-change (2. order) :-0.1813632E-04  (-0.7576769E-05)
 number of electron      24.0000000 magnetization      -0.0000455     -0.0000457     -0.0000539
 augmentation part        3.2378738 magnetization      -0.0000337     -0.0000328     -0.0000406

 Broyden mixing:
  rms(total) = 0.80887E-03    rms(broyden)= 0.80876E-03
  rms(prec ) = 0.13731E-02
  weight for this iteration     100.00

 eigenvalues of (default mixing * dielectric matrix)
  average eigenvalue GAMMA=   1.1288
  2.5112  1.1059  1.0602  0.7320  0.7320  0.6314

 Free energy of the ion-electron system (eV)
  ---------------------------------------------------
  alpha Z        PSCENC =       165.99778541
  Ewald energy   TEWEN  =     -1992.97108334
  -Hartree energ DENC   =      -267.32242392
  -exchange      EXHF   =         0.00000000
  -V(xc)+E(xc)   XCENC  =      -214.91940562
  PAW double counting   =      2107.30846196    -1836.62782519
  entropy T*S    EENTRO =         0.00268713
  eigenvalues    EBANDS =        -9.91792923
  atomic energy  EATOM  =      2045.49387584
  Solvation  Ediel_sol  =         0.00000000
  ---------------------------------------------------
  free energy    TOTEN  =        -2.95585697 eV

  energy without entropy =       -2.95854409  energy(sigma->0) =       -2.95675268


--------------------------------------------------------------------------------------------------------




--------------------------------------- Iteration      1(  12)  ---------------------------------------


    POTLOK:  cpu time    0.1729: real time    0.1734
    SETDIJ:  cpu time    0.4870: real time    0.4972
    EDDIAG:  cpu time    0.6152: real time    0.6161
  RMM-DIIS:  cpu time    3.4234: real time    3.4292
    ORTHCH:  cpu time    0.0326: real time    0.0326
       DOS:  cpu time    0.0037: real time    0.0038
    CHARGE:  cpu time    0.7764: real time    0.7780
    MIXING:  cpu time    0.0133: real time    0.0132
    --------------------------------------------
      LOOP:  cpu time    5.5245: real time    5.5436

 eigenvalue-minimisations  : 10948
 total energy-change (2. order) :-0.1878723E-05  (-0.1020960E-05)
 number of electron      24.0000000 magnetization      -0.0000237     -0.0000234     -0.0000140
 augmentation part        3.2380336 magnetization      -0.0000020     -0.0000012      0.0000082

 Broyden mixing:
  rms(total) = 0.51077E-03    rms(broyden)= 0.51074E-03
  rms(prec ) = 0.78609E-03
  weight for this iteration     100.00

 eigenvalues of (default mixing * dielectric matrix)
  average eigenvalue GAMMA=   1.2788
  2.4212  2.2514  1.1460  1.0360  0.7741  0.6894  0.6334

 Free energy of the ion-electron system (eV)
  ---------------------------------------------------
  alpha Z        PSCENC =       165.99778541
  Ewald energy   TEWEN  =     -1992.97108334
  -Hartree energ DENC   =      -267.30516808
  -exchange      EXHF   =         0.00000000
  -V(xc)+E(xc)   XCENC  =      -214.91984941
  PAW double counting   =      2107.34630155    -1836.66754725
  entropy T*S    EENTRO =         0.00268414
  eigenvalues    EBANDS =        -9.93285769
  atomic energy  EATOM  =      2045.49387584
  Solvation  Ediel_sol  =         0.00000000
  ---------------------------------------------------
  free energy    TOTEN  =        -2.95585884 eV

  energy without entropy =       -2.95854298  energy(sigma->0) =       -2.95675356


--------------------------------------------------------------------------------------------------------




--------------------------------------- Iteration      1(  13)  ---------------------------------------


    POTLOK:  cpu time    0.1740: real time    0.1776
    SETDIJ:  cpu time    0.4886: real time    0.4973
    EDDIAG:  cpu time    0.6137: real time    0.6147
  RMM-DIIS:  cpu time    2.8877: real time    2.8924
    ORTHCH:  cpu time    0.0335: real time    0.0335
       DOS:  cpu time    0.0036: real time    0.0036
    CHARGE:  cpu time    0.7769: real time    0.7779
    MIXING:  cpu time    0.0122: real time    0.0122
    --------------------------------------------
      LOOP:  cpu time    4.9902: real time    5.0092

 eigenvalue-minimisations  :  9085
 total energy-change (2. order) :-0.1368315E-05  (-0.7176172E-06)
 number of electron      24.0000000 magnetization       0.0000025      0.0000026      0.0000086
 augmentation part        3.2384484 magnetization      -0.0000085     -0.0000082     -0.0000070

 Broyden mixing:
  rms(total) = 0.36518E-03    rms(broyden)= 0.36518E-03
  rms(prec ) = 0.69044E-03
  weight for this iteration     100.00

 eigenvalues of (default mixing * dielectric matrix)
  average eigenvalue GAMMA=   1.2737
  2.8948  2.4226  1.1133  1.0479  0.7335  0.7335  0.6219  0.6219

 Free energy of the ion-electron system (eV)
  ---------------------------------------------------
  alpha Z        PSCENC =       165.99778541
  Ewald energy   TEWEN  =     -1992.97108334
  -Hartree energ DENC   =      -267.27374757
  -exchange      EXHF   =         0.00000000
  -V(xc)+E(xc)   XCENC  =      -214.92045857
  PAW double counting   =      2107.51965965    -1836.84495019
  entropy T*S    EENTRO =         0.00267514
  eigenvalues    EBANDS =        -9.95961658
  atomic energy  EATOM  =      2045.49387584
  Solvation  Ediel_sol  =         0.00000000
  ---------------------------------------------------
  free energy    TOTEN  =        -2.95586021 eV

  energy without entropy =       -2.95853536  energy(sigma->0) =       -2.95675193


[...]
-10.109   0.000  -0.000   0.000  -0.000   0.000  -0.000   0.000   0.000  -1.219  -0.000   0.000   0.000   0.000   0.000   0.000
 -0.000   0.000 -10.111   0.000  -0.000   0.000   0.000  -0.610   0.000   0.000   0.000   0.000   0.005   0.000   0.000   0.000
 -0.000   0.000  -0.000   0.000 -10.111   0.000  -0.000   0.000   0.000   0.000   0.000   0.000   0.000   0.000   0.007   0.000
 -0.000   0.000   0.000   0.610  -0.000   0.000 -10.111   0.000  -0.000   0.000   0.000   0.000  -0.000  -0.612   0.000   0.000
  0.000   1.219   0.000   0.000   0.000   0.000  -0.000   0.000 -10.109   0.000  -0.000  -1.223  -0.000   0.000   0.000   0.000
 -0.000   0.000   0.000   0.000   0.000   0.000   0.000   0.000  -0.000   1.223  17.939   0.000  -0.000   0.000  -0.000   0.000
  0.000   0.000   0.005   0.000   0.000   0.000  -0.000   0.612  -0.000   0.000  -0.000   0.000  17.936   0.000  -0.000   0.000
  0.000   0.000   0.000   0.000   0.007   0.000   0.000   0.000   0.000   0.000  -0.000   0.000  -0.000   0.000  17.934   0.000
  0.000   0.000  -0.000  -0.612   0.000   0.000   0.005   0.000   0.000   0.000  -0.000   0.000   0.000   0.614   0.000   0.000
 -0.000  -1.223  -0.000   0.000   0.000   0.000   0.000   0.000  -0.000   0.000   0.000   1.227   0.000   0.000  -0.000   0.000
 -0.000   0.000   0.000   0.000   0.002   0.000   0.000   0.000  -0.000   0.000  -0.000   0.000   0.000   0.000   0.002   0.000
 -0.000   0.000   0.000   0.000  -0.001   0.000   0.000   0.000   0.000   0.000   0.000   0.000  -0.000   0.000  -0.003   0.000
  0.000   0.000  -0.000   0.000   0.000   0.000  -0.000   0.000   0.000   0.000   0.000   0.000  -0.000   0.000  -0.000   0.000
 -0.000   0.000  -0.000   0.000  -0.000   0.000   0.000   0.000  -0.000   0.000  -0.000   0.000  -0.000   0.000  -0.000   0.000
  0.000   0.000  -0.000   0.000  -0.000   0.000  -0.000   0.000   0.000   0.000   0.000   0.000  -0.000   0.000   0.000   0.000
 -0.000   0.000   0.000   0.000  -0.000   0.000   0.000   0.000  -0.000   0.000  -0.000   0.000   0.000   0.000   0.000   0.000
  0.000   0.000   0.000   0.000   0.000   0.000  -0.000   0.000   0.000   0.000   0.000   0.000   0.000   0.000   0.000   0.000
 -0.000   0.000   0.000   0.000   0.000   0.000   0.000   0.000  -0.000   0.000  -0.001   0.000   0.000   0.000   0.000   0.000
 total augmentation occupancy for first ion, spin component:           1
  1.954   0.000  -0.000   0.000   0.000  -0.011  -0.000   0.000  -0.000   0.000  -0.000   0.000  -0.000   0.000  -0.006  -0.000
  0.000   1.950   0.000  -0.000   0.000   0.000  -0.010  -0.000   0.000  -0.000   0.000   0.000   0.000   0.000   0.000   0.000
 -0.000   0.000   1.946   0.000   0.000   0.000  -0.000  -0.010  -0.000  -0.000  -0.007   0.000   0.000  -0.000  -0.000  -0.000
  0.000  -0.000   0.000   1.950   0.000  -0.000   0.000  -0.000  -0.010   0.000   0.000   0.000  -0.000  -0.000   0.000   0.000
  0.000   0.000   0.000   0.000   1.954   0.000  -0.000  -0.000  -0.000  -0.011   0.000  -0.000  -0.006  -0.000   0.000   0.001
 -0.011   0.000   0.000  -0.000   0.000   0.007  -0.000   0.000  -0.000  -0.000  -0.000   0.000   0.000  -0.000   0.002   0.000
 -0.000  -0.010  -0.000   0.000  -0.000  -0.000   0.007  -0.000   0.000  -0.000  -0.000  -0.000  -0.000  -0.000  -0.000   0.000
  0.000  -0.000  -0.010  -0.000  -0.000   0.000  -0.000   0.008  -0.000  -0.000   0.000   0.000  -0.000  -0.000   0.000   0.000
 -0.000   0.000  -0.000  -0.010  -0.000  -0.000   0.000  -0.000   0.007  -0.000  -0.000  -0.000  -0.000   0.000  -0.000   0.000
  0.000  -0.000  -0.000   0.000  -0.011  -0.000  -0.000  -0.000  -0.000   0.007   0.000  -0.000   0.002  -0.000   0.000  -0.000
 -0.000   0.000  -0.007   0.000   0.000  -0.000  -0.000   0.000  -0.000   0.000   1.956  -0.013   0.000   0.000  -0.000  -0.000
  0.000   0.000   0.000   0.000  -0.000   0.000  -0.000   0.000  -0.000  -0.000  -0.013   0.001  -0.000  -0.000   0.000   0.000
 -0.000   0.000   0.000  -0.000  -0.006   0.000  -0.000  -0.000  -0.000   0.002   0.000  -0.000   0.089  -0.000   0.000  -0.008
  0.000   0.000  -0.000  -0.000  -0.000  -0.000  -0.000  -0.000   0.000  -0.000   0.000  -0.000  -0.000   0.100  -0.000  -0.000
 -0.006   0.000  -0.000   0.000   0.000   0.002  -0.000   0.000  -0.000   0.000  -0.000   0.000   0.000  -0.000   0.089   0.000
 -0.000   0.000  -0.000   0.000   0.001   0.000   0.000   0.000   0.000  -0.000  -0.000   0.000  -0.008  -0.000   0.000   0.003
  0.000  -0.000  -0.000  -0.000   0.000  -0.000   0.000   0.000  -0.000  -0.000  -0.000   0.000   0.000  -0.009  -0.000  -0.000
  0.001  -0.000   0.000  -0.000   0.000  -0.000  -0.000   0.000   0.000  -0.000   0.000  -0.000   0.000   0.000  -0.008  -0.000
 total augmentation occupancy for first ion, spin component:           2
 -0.000   0.000  -0.000  -0.000  -0.000   0.000  -0.000   0.000  -0.000   0.000  -0.000  -0.000  -0.000  -0.000   0.000  -0.000
  0.000  -0.000   0.000   0.000  -0.000   0.000   0.000  -0.000   0.000   0.000   0.000  -0.000   0.000  -0.000   0.000  -0.000
 -0.000   0.000  -0.000   0.000  -0.000  -0.000  -0.000   0.000   0.000  -0.000  -0.000   0.000  -0.000  -0.000   0.000  -0.000
 -0.000   0.000   0.000  -0.000   0.000   0.000  -0.000  -0.000   0.000   0.000   0.000  -0.000  -0.000  -0.000  -0.000  -0.000
 -0.000  -0.000  -0.000   0.000  -0.000  -0.000   0.000  -0.000  -0.000   0.000  -0.000  -0.000  -0.000  -0.000   0.000  -0.000
  0.000   0.000  -0.000   0.000  -0.000   0.000  -0.000   0.000  -0.000  -0.000  -0.000   0.000   0.000  -0.000   0.000  -0.000
 -0.000   0.000  -0.000  -0.000   0.000  -0.000   0.000  -0.000   0.000  -0.000  -0.000  -0.000   0.000   0.000   0.000   0.000
  0.000  -0.000   0.000  -0.000  -0.000   0.000  -0.000   0.000   0.000  -0.000  -0.000  -0.000   0.000  -0.000   0.000   0.000
 -0.000   0.000   0.000   0.000  -0.000  -0.000   0.000   0.000   0.000   0.000   0.000  -0.000   0.000  -0.000   0.000   0.000
  0.000   0.000  -0.000   0.000   0.000  -0.000  -0.000  -0.000   0.000   0.000   0.000   0.000   0.000  -0.000  -0.000   0.000
 -0.000   0.000  -0.000   0.000  -0.000  -0.000  -0.000  -0.000   0.000   0.000  -0.000   0.000  -0.000  -0.000  -0.000  -0.000
 -0.000  -0.000   0.000  -0.000  -0.000   0.000  -0.000  -0.000  -0.000   0.000   0.000   0.000   0.000   0.000   0.000   0.000
 -0.000   0.000  -0.000  -0.000  -0.000   0.000   0.000   0.000   0.000   0.000  -0.000   0.000   0.000  -0.000  -0.000  -0.000
 -0.000  -0.000  -0.000  -0.000  -0.000  -0.000   0.000  -0.000  -0.000  -0.000  -0.000   0.000  -0.000   0.000   0.000  -0.000
  0.000   0.000   0.000  -0.000   0.000   0.000   0.000   0.000   0.000  -0.000  -0.000   0.000  -0.000   0.000   0.000   0.000
 -0.000  -0.000  -0.000  -0.000  -0.000  -0.000   0.000   0.000   0.000   0.000  -0.000   0.000  -0.000  -0.000   0.000   0.000
  0.000   0.000  -0.000   0.000  -0.000  -0.000   0.000   0.000  -0.000  -0.000  -0.000   0.000  -0.000  -0.000   0.000  -0.000
 -0.000   0.000   0.000  -0.000   0.000  -0.000  -0.000  -0.000   0.000  -0.000   0.000   0.000  -0.000  -0.000  -0.000  -0.000
 total augmentation occupancy for first ion, spin component:           3
 -0.000  -0.000  -0.000   0.000  -0.000   0.000   0.000  -0.000  -0.000  -0.000  -0.000  -0.000   0.000  -0.000  -0.000  -0.000
 -0.000  -0.000   0.000   0.000  -0.000  -0.000   0.000  -0.000  -0.000  -0.000   0.000  -0.000   0.000   0.000   0.000   0.000
 -0.000   0.000  -0.000   0.000   0.000  -0.000   0.000   0.000  -0.000   0.000  -0.000   0.000  -0.000  -0.000  -0.000  -0.000
  0.000   0.000   0.000  -0.000   0.000   0.000   0.000  -0.000   0.000  -0.000   0.000  -0.000   0.000   0.000  -0.000   0.000
 -0.000  -0.000   0.000   0.000  -0.000   0.000   0.000   0.000  -0.000   0.000   0.000   0.000   0.000  -0.000   0.000  -0.000
  0.000  -0.000  -0.000   0.000   0.000   0.000  -0.000   0.000   0.000   0.000  -0.000   0.000   0.000  -0.000   0.000   0.000
  0.000   0.000   0.000   0.000   0.000  -0.000   0.000   0.000   0.000   0.000   0.000  -0.000   0.000  -0.000   0.000   0.000
 -0.000  -0.000   0.000  -0.000   0.000   0.000   0.000   0.000  -0.000   0.000  -0.000   0.000  -0.000  -0.000   0.000   0.000
 -0.000  -0.000  -0.000   0.000  -0.000   0.000   0.000  -0.000   0.000   0.000  -0.000   0.000  -0.000   0.000   0.000  -0.000
 -0.000  -0.000   0.000  -0.000   0.000   0.000   0.000   0.000   0.000   0.000  -0.000  -0.000   0.000  -0.000   0.000  -0.000
 -0.000   0.000  -0.000   0.000   0.000  -0.000   0.000  -0.000  -0.000  -0.000  -0.000   0.000  -0.000  -0.000   0.000   0.000
 -0.000  -0.000   0.000  -0.000   0.000   0.000  -0.000   0.000   0.000  -0.000   0.000   0.000   0.000   0.000  -0.000  -0.000
  0.000   0.000  -0.000   0.000   0.000   0.000   0.000  -0.000  -0.000   0.000  -0.000   0.000   0.000   0.000  -0.000  -0.000
 -0.000   0.000  -0.000   0.000  -0.000  -0.000  -0.000  -0.000   0.000  -0.000  -0.000   0.000   0.000   0.000  -0.000  -0.000
 -0.000   0.000  -0.000  -0.000   0.000   0.000   0.000   0.000   0.000   0.000   0.000  -0.000  -0.000  -0.000   0.000  -0.000
 -0.000   0.000  -0.000   0.000  -0.000   0.000   0.000   0.000  -0.000  -0.000   0.000  -0.000  -0.000  -0.000  -0.000  -0.000
  0.000   0.000  -0.000   0.000  -0.000   0.000  -0.000  -0.000   0.000   0.000  -0.000   0.000   0.000  -0.000  -0.000  -0.000
 -0.000   0.000  -0.000  -0.000  -0.000  -0.000   0.000   0.000   0.000   0.000   0.000  -0.000   0.000  -0.000  -0.000  -0.000
 total augmentation occupancy for first ion, spin component:           4
 -0.000  -0.000   0.000  -0.000  -0.000   0.000   0.000  -0.000   0.000   0.000   0.000  -0.000  -0.000   0.000   0.000   0.000
 -0.000  -0.000  -0.000   0.000   0.000  -0.000   0.000   0.000   0.000   0.000  -0.000  -0.000   0.000   0.000   0.000   0.000
  0.000  -0.000  -0.000  -0.000   0.000  -0.000  -0.000   0.000  -0.000  -0.000  -0.000   0.000  -0.000   0.000  -0.000  -0.000
 -0.000   0.000  -0.000  -0.000  -0.000  -0.000   0.000   0.000   0.000  -0.000  -0.000  -0.000  -0.000   0.000   0.000   0.000
 -0.000   0.000   0.000  -0.000  -0.000   0.000  -0.000  -0.000   0.000   0.000  -0.000   0.000   0.000   0.000   0.000  -0.000
  0.000  -0.000  -0.000  -0.000   0.000   0.000  -0.000  -0.000  -0.000   0.000   0.000   0.000  -0.000   0.000   0.000   0.000
  0.000   0.000  -0.000   0.000  -0.000  -0.000   0.000  -0.000  -0.000   0.000  -0.000   0.000   0.000  -0.000  -0.000  -0.000
 -0.000   0.000   0.000   0.000  -0.000  -0.000  -0.000   0.000  -0.000   0.000  -0.000   0.000   0.000   0.000   0.000   0.000
  0.000   0.000  -0.000   0.000   0.000  -0.000  -0.000  -0.000   0.000  -0.000  -0.000   0.000  -0.000  -0.000   0.000   0.000
  0.000   0.000  -0.000  -0.000   0.000   0.000   0.000   0.000  -0.000   0.000  -0.000   0.000   0.000   0.000  -0.000  -0.000
  0.000  -0.000  -0.000  -0.000  -0.000   0.000  -0.000  -0.000  -0.000  -0.000  -0.000   0.000   0.000  -0.000  -0.000   0.000
 -0.000  -0.000   0.000  -0.000   0.000   0.000   0.000   0.000   0.000   0.000   0.000  -0.000   0.000   0.000  -0.000  -0.000
 -0.000   0.000  -0.000  -0.000   0.000  -0.000   0.000   0.000  -0.000   0.000   0.000   0.000   0.000  -0.000  -0.000  -0.000
  0.000   0.000   0.000   0.000   0.000   0.000  -0.000   0.000  -0.000   0.000  -0.000   0.000  -0.000   0.000  -0.000   0.000
  0.000   0.000  -0.000   0.000   0.000   0.000  -0.000   0.000   0.000  -0.000  -0.000  -0.000  -0.000  -0.000   0.000  -0.000
  0.000   0.000  -0.000   0.000  -0.000   0.000  -0.000   0.000   0.000  -0.000   0.000  -0.000  -0.000   0.000  -0.000   0.000
 -0.000  -0.000   0.000   0.000  -0.000  -0.000  -0.000  -0.000  -0.000   0.000   0.000  -0.000  -0.000  -0.000  -0.000  -0.000
 -0.000   0.000  -0.000   0.000  -0.000  -0.000  -0.000   0.000   0.000  -0.000   0.000   0.000  -0.000   0.000  -0.000  -0.000


------------------------ aborting loop because EDIFF is reached ----------------------------------------


    CHARGE:  cpu time    0.7829: real time    0.7839
    FORLOC:  cpu time    0.0050: real time    0.0050
    FORNL :  cpu time    3.1812: real time    3.2136
    STRESS:  cpu time    9.7357: real time    9.7748
    FORCOR:  cpu time    0.1582: real time    0.1585
    FORHAR:  cpu time    0.0142: real time    0.0142
    MIXING:  cpu time    0.0158: real time    0.0158
    OFIELD:  cpu time    0.0001: real time    0.0001

  FORCE on cell =-STRESS in cart. coord.  units (eV):
  Direction    XX          YY          ZZ          XY          YZ          ZX
  --------------------------------------------------------------------------------------
  Alpha Z   165.99779   165.99779   165.99779
  Ewald    -675.44947  -675.44513  -642.07787     0.00147    -0.00035    -0.00040
  Hartree    83.90308    83.90525    99.49320     0.00071    -0.00014    -0.00017
  E(xc)    -141.99544  -141.99543  -141.87050     0.00000    -0.00000    -0.00000
  Local     101.97400   101.96762    54.29384    -0.00214     0.00048     0.00055
  n-local   -97.26159   -97.26157   -97.17296     0.00001    -0.00000    -0.00000
  augment    41.63774    41.63772    41.49595    -0.00001     0.00000     0.00000
  Kinetic   520.85176   520.85165   519.50583    -0.00004     0.00001     0.00002
  Fock        0.00000     0.00000     0.00000     0.00000     0.00000     0.00000
  -------------------------------------------------------------------------------------
  Total      -0.34213    -0.34211    -0.33472     0.00001    -0.00000    -0.00000
  in kB     -10.10815   -10.10754    -9.88927     0.00040    -0.00014    -0.00010
  external pressure =      -10.03 kB  Pullay stress =        0.00 kB


 VOLUME and BASIS-vectors are now :
 -----------------------------------------------------------------------------
  energy-cutoff  :      600.00
  volume of cell :       54.23
      direct lattice vectors                 reciprocal lattice vectors
     3.418685135 -0.000001395  0.000003029     0.292510189  0.168879816 -0.000000492
    -1.709343772  2.960688147  0.000000718     0.000000138  0.337759394 -0.000000335
     0.000005950  0.000005310  5.357714219    -0.000000165 -0.000000141  0.186646760

  length of vectors
     3.418685135  3.418703034  5.357714219     0.337761163  0.337759394  0.186646760


 FORCES acting on ions
    electron-ion (+dipol)            ewald-force                    non-local-force                 convergence-correction
 -----------------------------------------------------------------------------------------------
   0.468E-03 -.874E-03 -.848E-02   -.498E-03 0.920E-03 0.869E-02   0.157E-04 -.384E-04 -.897E-04   0.100E-04 -.375E-06 -.918E-04
   -.468E-03 0.874E-03 0.848E-02   0.498E-03 -.920E-03 -.869E-02   -.157E-04 0.384E-04 0.897E-04   -.100E-04 0.375E-06 0.918E-04
 -----------------------------------------------------------------------------------------------
   0.228E-10 -.132E-10 -.549E-10   -.877E-14 -.120E-15 -.173E-16   0.000E+00 0.000E+00 0.000E+00   -.169E-13 0.634E-14 -.361E-14
 
 
 POSITION                                       TOTAL-FORCE (eV/Angst)
 -----------------------------------------------------------------------------------
      0.00001      0.98687      1.33942        -0.000005      0.000007      0.000027
      1.70934      1.97382      4.01830         0.000005     -0.000007     -0.000027
 -----------------------------------------------------------------------------------
    total drift:                                0.000000     -0.000000     -0.000000


--------------------------------------------------------------------------------------------------------



  FREE ENERGIE OF THE ION-ELECTRON SYSTEM (eV)
  ---------------------------------------------------
  free  energy   TOTEN  =        -2.95586023 eV

  energy  without entropy=       -2.95853655  energy(sigma->0) =       -2.95675234
 


--------------------------------------------------------------------------------------------------------


    POTLOK:  cpu time    0.6648: real time    0.6737


--------------------------------------------------------------------------------------------------------


 Quasi-Newton relaxation of ions (Broydens 2nd method)
  g(Force)  = 0.158E-10   g(Stress)= 0.176E-06

 Reset! Starting new Quasi-Newton update for ions 


--------------------------------------------------------------------------------------------------------


  
 reached required accuracy - stopping structural energy minimisation
     LOOP+:  cpu time   81.2671: real time   81.5194
    4ORBIT:  cpu time    0.0000: real time    0.0000

 Spin-Orbit-Coupling matrix elements

 Ion:    1  E_soc:     -2.7197661
 l=   1
     0.0000000    -0.1260116    -0.1219841
    -0.1260116     0.0000000    -0.1260113
    -0.1219841    -0.1260113     0.0000000
 l=   2
     0.0000000    -0.0654631     0.0000000    -0.0654626    -0.2597143
    -0.0654631     0.0000000    -0.1995506    -0.0652105    -0.0654629
     0.0000000    -0.1995506     0.0000000    -0.1995492     0.0000000
    -0.0654626    -0.0652105    -0.1995492     0.0000000    -0.0654630
    -0.2597143    -0.0654629     0.0000000    -0.0654630     0.0000000
 l=   3
     0.0000000     0.0000000     0.0000000     0.0000000     0.0000000     0.0000000     0.0000000
     0.0000000     0.0000000     0.0000000     0.0000000     0.0000000     0.0000000     0.0000000
     0.0000000     0.0000000     0.0000000     0.0000000     0.0000000     0.0000000     0.0000000
     0.0000000     0.0000000     0.0000000     0.0000000     0.0000000     0.0000000     0.0000000
     0.0000000     0.0000000     0.0000000     0.0000000     0.0000000     0.0000000     0.0000000
     0.0000000     0.0000000     0.0000000     0.0000000     0.0000000     0.0000000     0.0000000
     0.0000000     0.0000000     0.0000000     0.0000000     0.0000000     0.0000000     0.0000000

 Ion:    2  E_soc:     -2.7197661
 l=   1
     0.0000000    -0.1260116    -0.1219841
    -0.1260116     0.0000000    -0.1260113
    -0.1219841    -0.1260113     0.0000000
 l=   2
     0.0000000    -0.0654631     0.0000000    -0.0654626    -0.2597143
    -0.0654631     0.0000000    -0.1995506    -0.0652105    -0.0654629
     0.0000000    -0.1995506     0.0000000    -0.1995492     0.0000000
    -0.0654626    -0.0652105    -0.1995492     0.0000000    -0.0654630
    -0.2597143    -0.0654629     0.0000000    -0.0654630     0.0000000
 l=   3
     0.0000000     0.0000000     0.0000000     0.0000000     0.0000000     0.0000000     0.0000000
     0.0000000     0.0000000     0.0000000     0.0000000     0.0000000     0.0000000     0.0000000
     0.0000000     0.0000000     0.0000000     0.0000000     0.0000000     0.0000000     0.0000000
     0.0000000     0.0000000     0.0000000     0.0000000     0.0000000     0.0000000     0.0000000
     0.0000000     0.0000000     0.0000000     0.0000000     0.0000000     0.0000000     0.0000000
     0.0000000     0.0000000     0.0000000     0.0000000     0.0000000     0.0000000     0.0000000
     0.0000000     0.0000000     0.0000000     0.0000000     0.0000000     0.0000000     0.0000000

 total amount of memory used by VASP MPI-rank0    93863. kBytes
=======================================================================

   base      :      30000. kBytes
   nonl-proj :       8720. kBytes
   fftplans  :      11268. kBytes
   grid      :       9633. kBytes
   one-center:         62. kBytes
   wavefun   :      34180. kBytes
 
  
  
 General timing and accounting informations for this job:
 ========================================================
  
                  Total CPU time used (sec):       87.187
                            User time (sec):       81.414
                          System time (sec):        5.772
                         Elapsed time (sec):       85.114
  
                   Maximum memory used (kb):      200104.
                   Average memory used (kb):           0.
  
                          Minor page faults:       142267
                          Major page faults:            0
                 Voluntary context switches:         7974
