Cn_HCP                                  
           1
     3.203477    0.000000    0.000000
    -1.601738    2.774292    0.000000
     0.000000    0.000000    6.041214
   Cn
   2
Direct configuration=     1
   0.16666999  0.33333001  0.25000000
   0.83333004  0.66666996  0.75000000
Cn_HCP                                  
           1
     3.205639    0.000000    0.000000
    -1.602819    2.776165    0.000000
     0.000000    0.000000    6.045291
   Cn
   2
Direct configuration=     2
   0.16666999  0.33333001  0.25000000
   0.83333004  0.66666996  0.75000000
Cn_HCP                                  
           1
     3.212223    0.000000    0.000000
    -1.606111    2.781866    0.000000
     0.000000    0.000000    6.057707
   Cn
   2
Direct configuration=     3
   0.16666999  0.33333001  0.25000000
   0.83333004  0.66666996  0.75000000
Cn_HCP                                  
           1
     3.214839    0.000000    0.000000
    -1.607420    2.784133    0.000000
     0.000000    0.000000    6.062642
   Cn
   2
Direct configuration=     4
   0.16666999  0.33333001  0.25000000
   0.83333004  0.66666996  0.75000000
Cn_HCP                                  
           1
     3.214149    0.000000    0.000000
    -1.607074    2.783535    0.000000
     0.000000    0.000000    6.061340
   Cn
   2
Direct configuration=     5
   0.16666999  0.33333001  0.25000000
   0.83333004  0.66666996  0.75000000
