Cn_HCP                                  
           1
     3.418685   -0.000001    0.000003
    -1.709344    2.960688    0.000001
     0.000006    0.000005    5.357714
   Cn
   2
Cn_HCP                                  
           1
     3.418685   -0.000001    0.000003
    -1.709344    2.960688    0.000001
     0.000006    0.000005    5.357714
   Cn
   2
Direct configuration=     1
   0.16666460  0.33332434  0.24999810
   0.83333543  0.66667563  0.75000190
