Cn_HCP                                  
           1
     3.214149    0.000000    0.000000
    -1.607074    2.783535    0.000000
     0.000000    0.000000    6.061340
   Cn
   2
Cn_HCP                                  
           1
     3.214149    0.000000    0.000000
    -1.607074    2.783535    0.000000
     0.000000    0.000000    6.061340
   Cn
   2
Direct configuration=     1
   0.16666999  0.33333001  0.25000000
   0.83333004  0.66666996  0.75000000
Cn_HCP                                  
           1
     3.219372    0.000000    0.000000
    -1.609686    2.788058    0.000000
     0.000000    0.000000    6.041687
   Cn
   2
Direct configuration=     2
   0.16667006  0.33333008  0.25000004
   0.83332997  0.66666989  0.74999996
Cn_HCP                                  
           1
     3.314650    0.000001    0.000001
    -1.657324    2.870572    0.000001
     0.000003    0.000003    5.699347
   Cn
   2
Direct configuration=     3
   0.16666804  0.33332777  0.24999750
   0.83333199  0.66667220  0.75000250
Cn_HCP                                  
           1
     3.365800    0.000001    0.000002
    -1.682900    2.914870    0.000001
     0.000004    0.000004    5.527435
   Cn
   2
Direct configuration=     4
   0.16666665  0.33332612  0.24999597
   0.83333338  0.66667385  0.75000403
Cn_HCP                                  
           1
     3.391798    0.000000    0.000003
    -1.695899    2.937384    0.000001
     0.000005    0.000005    5.443028
   Cn
   2
Direct configuration=     5
   0.16666632  0.33332570  0.24999413
   0.83333371  0.66667427  0.75000587
Cn_HCP                                  
           1
     3.404713    0.000001    0.000003
    -1.702356    2.948568    0.000001
     0.000005    0.000005    5.401812
   Cn
   2
Direct configuration=     6
   0.16666687  0.33332638  0.24999533
   0.83333316  0.66667359  0.75000467
Cn_HCP                                  
           1
     3.418685   -0.000001    0.000003
    -1.709344    2.960688    0.000001
     0.000006    0.000005    5.357714
   Cn
   2
Direct configuration=     7
   0.16666460  0.33332434  0.24999810
   0.83333543  0.66667563  0.75000190
