Cn_HCP                                  
           1
     2.978900    0.000000    0.000000
    -1.489450    2.579803    0.000000
     0.000000    0.000000    5.617700
   Cn
   2
Direct configuration=     1
   0.16666999  0.33333001  0.25000000
   0.83333004  0.66666996  0.75000000
Cn_HCP                                  
           1
     3.048793    0.000000    0.000000
    -1.524396    2.640332    0.000000
     0.000000    0.000000    5.749506
   Cn
   2
Direct configuration=     2
   0.16666999  0.33333001  0.25000000
   0.83333004  0.66666996  0.75000000
Cn_HCP                                  
           1
     3.152281    0.000000    0.000000
    -1.576141    2.729956    0.000000
     0.000000    0.000000    5.944668
   Cn
   2
Direct configuration=     3
   0.16666999  0.33333001  0.25000000
   0.83333004  0.66666996  0.75000000
Cn_HCP                                  
           1
     3.188331    0.000000    0.000000
    -1.594166    2.761176    0.000000
     0.000000    0.000000    6.012652
   Cn
   2
Direct configuration=     4
   0.16666999  0.33333001  0.25000000
   0.83333004  0.66666996  0.75000000
Cn_HCP                                  
           1
     3.201918    0.000000    0.000000
    -1.600959    2.772943    0.000000
     0.000000    0.000000    6.038275
   Cn
   2
Direct configuration=     5
   0.16666999  0.33333001  0.25000000
   0.83333004  0.66666996  0.75000000
Cn_HCP                                  
           1
     3.203477    0.000000    0.000000
    -1.601738    2.774292    0.000000
     0.000000    0.000000    6.041214
   Cn
   2
Direct configuration=     6
   0.16666999  0.33333001  0.25000000
   0.83333004  0.66666996  0.75000000
