   1   1   0   0
  0.6008441E+02  0.4396350E-09  0.4396350E-09  0.4396350E-09  0.1000000E-15
  1.000000000000000E-004
  CAR 
 Og_FCC                                  
     17.21111720    -33.27033988  301      3.28664862      1.00000000
    -33.270  0.0000E+00  0.0000E+00
    -33.102  0.0000E+00  0.0000E+00
    -32.934  0.0000E+00  0.0000E+00
    -32.766  0.0000E+00  0.0000E+00
    -32.597  0.0000E+00  0.0000E+00
    -32.429  0.0000E+00  0.0000E+00
    -32.261  0.0000E+00  0.0000E+00
    -32.092  0.0000E+00  0.0000E+00
    -31.924  0.0000E+00  0.0000E+00
    -31.756  0.0000E+00  0.0000E+00
    -31.588  0.0000E+00  0.0000E+00
    -31.419  0.0000E+00  0.0000E+00
    -31.251  0.0000E+00  0.0000E+00
    -31.083  0.0000E+00  0.0000E+00
    -30.915  0.0000E+00  0.4000E+01
    -30.746  0.0000E+00  0.4000E+01
    -30.578  0.0000E+00  0.4000E+01
    -30.410  0.0000E+00  0.4000E+01
    -30.241  0.0000E+00  0.4000E+01
    -30.073  0.0000E+00  0.4000E+01
    -29.905  0.0000E+00  0.4000E+01
    -29.737  0.0000E+00  0.4000E+01
    -29.568  0.0000E+00  0.4000E+01
    -29.400  0.0000E+00  0.4000E+01
    -29.232  0.0000E+00  0.4000E+01
    -29.064  0.0000E+00  0.4000E+01
    -28.895  0.0000E+00  0.4000E+01
    -28.727  0.0000E+00  0.4000E+01
    -28.559  0.0000E+00  0.4000E+01
    -28.390  0.0000E+00  0.4000E+01
    -28.222  0.0000E+00  0.4000E+01
    -28.054  0.0000E+00  0.4000E+01
    -27.886  0.0000E+00  0.4000E+01
    -27.717  0.0000E+00  0.4000E+01
    -27.549  0.0000E+00  0.4000E+01
    -27.381  0.0000E+00  0.4000E+01
    -27.213  0.0000E+00  0.4000E+01
    -27.044  0.0000E+00  0.4000E+01
    -26.876  0.0000E+00  0.4000E+01
    -26.708  0.0000E+00  0.4000E+01
    -26.539  0.0000E+00  0.4000E+01
    -26.371  0.0000E+00  0.4000E+01
    -26.203  0.0000E+00  0.4000E+01
    -26.035  0.0000E+00  0.4000E+01
    -25.866  0.0000E+00  0.4000E+01
    -25.698  0.0000E+00  0.4000E+01
    -25.530  0.0000E+00  0.4000E+01
    -25.362  0.0000E+00  0.4000E+01
    -25.193  0.0000E+00  0.4000E+01
    -25.025  0.0000E+00  0.4000E+01
    -24.857  0.0000E+00  0.4000E+01
    -24.688  0.0000E+00  0.4000E+01
    -24.520  0.0000E+00  0.4000E+01
    -24.352  0.0000E+00  0.4000E+01
    -24.184  0.0000E+00  0.1000E+02
    -24.015  0.0000E+00  0.1000E+02
    -23.847  0.0000E+00  0.1000E+02
    -23.679  0.0000E+00  0.1000E+02
    -23.511  0.0000E+00  0.1000E+02
    -23.342  0.0000E+00  0.1000E+02
    -23.174  0.0000E+00  0.1000E+02
    -23.006  0.0000E+00  0.1000E+02
    -22.838  0.0000E+00  0.1000E+02
    -22.669  0.0000E+00  0.1000E+02
    -22.501  0.0000E+00  0.1000E+02
    -22.333  0.0000E+00  0.1000E+02
    -22.164  0.0000E+00  0.1000E+02
    -21.996  0.0000E+00  0.1000E+02
    -21.828  0.0000E+00  0.1000E+02
    -21.660  0.0000E+00  0.1000E+02
    -21.491  0.0000E+00  0.1000E+02
    -21.323  0.0000E+00  0.1000E+02
    -21.155  0.0000E+00  0.1000E+02
    -20.987  0.0000E+00  0.1000E+02
    -20.818  0.0000E+00  0.1000E+02
    -20.650  0.0000E+00  0.1000E+02
    -20.482  0.0000E+00  0.1131E+02
    -20.313  0.0000E+00  0.1200E+02
    -20.145  0.0000E+00  0.1200E+02
    -19.977  0.0000E+00  0.1200E+02
    -19.809  0.0000E+00  0.1200E+02
    -19.640  0.0000E+00  0.1200E+02
    -19.472  0.0000E+00  0.1200E+02
    -19.304  0.0000E+00  0.1200E+02
    -19.136  0.0000E+00  0.1200E+02
    -18.967  0.0000E+00  0.1200E+02
    -18.799  0.0000E+00  0.1200E+02
    -18.631  0.0000E+00  0.1200E+02
    -18.462  0.0000E+00  0.1200E+02
    -18.294  0.0000E+00  0.1200E+02
    -18.126  0.0000E+00  0.1200E+02
    -17.958  0.0000E+00  0.1200E+02
    -17.789  0.0000E+00  0.1200E+02
    -17.621  0.0000E+00  0.1200E+02
    -17.453  0.0000E+00  0.1200E+02
    -17.285  0.0000E+00  0.1200E+02
    -17.116  0.0000E+00  0.1200E+02
    -16.948  0.0000E+00  0.1200E+02
    -16.780  0.0000E+00  0.1200E+02
    -16.611  0.0000E+00  0.1200E+02
    -16.443  0.0000E+00  0.1200E+02
    -16.275  0.0000E+00  0.1200E+02
    -16.107  0.0000E+00  0.1200E+02
    -15.938  0.0000E+00  0.1200E+02
    -15.770  0.0000E+00  0.1200E+02
    -15.602  0.0000E+00  0.1200E+02
    -15.434  0.0000E+00  0.1200E+02
    -15.265  0.0000E+00  0.1200E+02
    -15.097  0.0000E+00  0.1200E+02
    -14.929  0.0000E+00  0.1200E+02
    -14.760  0.0000E+00  0.1200E+02
    -14.592  0.0000E+00  0.1200E+02
    -14.424  0.0000E+00  0.1200E+02
    -14.256  0.0000E+00  0.1200E+02
    -14.087  0.0000E+00  0.1200E+02
    -13.919  0.0000E+00  0.1200E+02
    -13.751  0.0000E+00  0.1200E+02
    -13.583  0.0000E+00  0.1200E+02
    -13.414  0.0000E+00  0.1200E+02
    -13.246  0.0000E+00  0.1200E+02
    -13.078  0.0000E+00  0.1200E+02
    -12.909  0.0000E+00  0.1200E+02
    -12.741  0.0000E+00  0.1200E+02
    -12.573  0.0000E+00  0.1200E+02
    -12.405  0.0000E+00  0.1200E+02
    -12.236  0.0000E+00  0.1200E+02
    -12.068  0.0000E+00  0.1200E+02
    -11.900  0.0000E+00  0.1200E+02
    -11.732  0.0000E+00  0.1200E+02
    -11.563  0.0000E+00  0.1200E+02
    -11.395  0.0000E+00  0.1200E+02
    -11.227  0.0000E+00  0.1200E+02
    -11.058  0.0000E+00  0.1200E+02
    -10.890  0.0000E+00  0.1200E+02
    -10.722  0.0000E+00  0.1200E+02
    -10.554  0.0000E+00  0.1200E+02
    -10.385  0.0000E+00  0.1200E+02
    -10.217  0.0000E+00  0.1200E+02
    -10.049  0.0000E+00  0.1200E+02
     -9.881  0.0000E+00  0.1200E+02
     -9.712  0.0000E+00  0.1200E+02
     -9.544  0.0000E+00  0.1200E+02
     -9.376  0.0000E+00  0.1200E+02
     -9.208  0.0000E+00  0.1200E+02
     -9.039  0.0000E+00  0.1200E+02
     -8.871  0.0000E+00  0.1200E+02
     -8.703  0.0000E+00  0.1200E+02
     -8.534  0.0000E+00  0.1200E+02
     -8.366  0.0000E+00  0.1200E+02
     -8.198  0.0000E+00  0.1200E+02
     -8.030  0.0000E+00  0.1200E+02
     -7.861  0.0000E+00  0.1200E+02
     -7.693  0.0000E+00  0.1200E+02
     -7.525  0.0000E+00  0.1200E+02
     -7.357  0.0000E+00  0.1269E+02
     -7.188  0.0000E+00  0.1375E+02
     -7.020  0.0000E+00  0.1399E+02
     -6.852  0.0000E+00  0.1400E+02
     -6.683  0.0000E+00  0.1400E+02
     -6.515  0.0000E+00  0.1400E+02
     -6.347  0.0000E+00  0.1400E+02
     -6.179  0.0000E+00  0.1400E+02
     -6.010  0.0000E+00  0.1400E+02
     -5.842  0.0000E+00  0.1400E+02
     -5.674  0.0000E+00  0.1400E+02
     -5.506  0.0000E+00  0.1400E+02
     -5.337  0.0000E+00  0.1400E+02
     -5.169  0.0000E+00  0.1400E+02
     -5.001  0.0000E+00  0.1400E+02
     -4.832  0.0000E+00  0.1400E+02
     -4.664  0.0000E+00  0.1400E+02
     -4.496  0.0000E+00  0.1400E+02
     -4.328  0.0000E+00  0.1400E+02
     -4.159  0.0000E+00  0.1400E+02
     -3.991  0.0000E+00  0.1400E+02
     -3.823  0.0000E+00  0.1400E+02
     -3.655  0.0000E+00  0.1400E+02
     -3.486  0.0000E+00  0.1400E+02
     -3.318  0.0000E+00  0.1400E+02
     -3.150  0.0000E+00  0.1400E+02
     -2.981  0.0000E+00  0.1400E+02
     -2.813  0.0000E+00  0.1400E+02
     -2.645  0.0000E+00  0.1400E+02
     -2.477  0.0000E+00  0.1400E+02
     -2.308  0.0000E+00  0.1400E+02
     -2.140  0.0000E+00  0.1400E+02
     -1.972  0.0000E+00  0.1400E+02
     -1.804  0.0000E+00  0.1400E+02
     -1.635  0.0000E+00  0.1400E+02
     -1.467  0.0000E+00  0.1400E+02
     -1.299  0.0000E+00  0.1400E+02
     -1.130  0.0000E+00  0.1400E+02
     -0.962  0.0000E+00  0.1400E+02
     -0.794  0.0000E+00  0.1400E+02
     -0.626  0.0000E+00  0.1400E+02
     -0.457  0.0000E+00  0.1400E+02
     -0.289  0.0000E+00  0.1400E+02
     -0.121  0.0000E+00  0.1400E+02
      0.047  0.0000E+00  0.1400E+02
      0.216  0.0000E+00  0.1406E+02
      0.384  0.1320E+01  0.1540E+02
      0.552  0.0000E+00  0.1553E+02
      0.721  0.0000E+00  0.1575E+02
      0.889  0.0000E+00  0.1575E+02
      1.057  0.0000E+00  0.1586E+02
      1.225  0.0000E+00  0.1597E+02
      1.394  0.0000E+00  0.1619E+02
      1.562  0.0000E+00  0.1658E+02
      1.730  0.0000E+00  0.1691E+02
      1.898  0.0000E+00  0.1691E+02
      2.067  0.0000E+00  0.1719E+02
      2.235  0.0000E+00  0.1741E+02
      2.403  0.0000E+00  0.1763E+02
      2.571  0.0000E+00  0.1774E+02
      2.740  0.0000E+00  0.1783E+02
      2.908  0.0000E+00  0.1791E+02
      3.076  0.0000E+00  0.1798E+02
      3.245  0.0000E+00  0.1800E+02
      3.413  0.0000E+00  0.1800E+02
      3.581  0.0000E+00  0.1801E+02
      3.749  0.0000E+00  0.1801E+02
      3.918  0.0000E+00  0.1801E+02
      4.086  0.0000E+00  0.1801E+02
      4.254  0.0000E+00  0.1801E+02
      4.422  0.0000E+00  0.1801E+02
      4.591  0.0000E+00  0.1801E+02
      4.759  0.0000E+00  0.1801E+02
      4.927  0.0000E+00  0.1801E+02
      5.096  0.0000E+00  0.1808E+02
      5.264  0.0000E+00  0.1808E+02
      5.432  0.0000E+00  0.1808E+02
      5.600  0.0000E+00  0.1814E+02
      5.769  0.0000E+00  0.1814E+02
      5.937  0.0000E+00  0.1821E+02
      6.105  0.0000E+00  0.1828E+02
      6.273  0.0000E+00  0.1839E+02
      6.442  0.0000E+00  0.1839E+02
      6.610  0.0000E+00  0.1867E+02
      6.778  0.0000E+00  0.1889E+02
      6.947  0.0000E+00  0.1933E+02
      7.115  0.0000E+00  0.1944E+02
      7.283  0.0000E+00  0.1956E+02
      7.451  0.0000E+00  0.1978E+02
      7.620  0.0000E+00  0.2003E+02
      7.788  0.0000E+00  0.2003E+02
      7.956  0.0000E+00  0.2008E+02
      8.124  0.0000E+00  0.2008E+02
      8.293  0.0000E+00  0.2031E+02
      8.461  0.1321E+01  0.2053E+02
      8.629  0.6603E+00  0.2097E+02
      8.798  0.0000E+00  0.2119E+02
      8.966  0.0000E+00  0.2164E+02
      9.134  0.0000E+00  0.2169E+02
      9.302  0.0000E+00  0.2203E+02
      9.471  0.0000E+00  0.2225E+02
      9.639  0.0000E+00  0.2232E+02
      9.807  0.0000E+00  0.2238E+02
      9.975  0.0000E+00  0.2249E+02
     10.144  0.0000E+00  0.2294E+02
     10.312  0.2022E-02  0.2323E+02
     10.480  0.0000E+00  0.2358E+02
     10.649  0.0000E+00  0.2382E+02
     10.817  0.0000E+00  0.2400E+02
     10.985  0.0000E+00  0.2422E+02
     11.153  0.4616E+00  0.2478E+02
     11.322  0.0000E+00  0.2500E+02
     11.490  0.0000E+00  0.2556E+02
     11.658  0.0000E+00  0.2567E+02
     11.826  0.0000E+00  0.2594E+02
     11.995  0.0000E+00  0.2598E+02
     12.163  0.0000E+00  0.2606E+02
     12.331  0.0000E+00  0.2617E+02
     12.500  0.0000E+00  0.2644E+02
     12.668  0.0000E+00  0.2689E+02
     12.836  0.0000E+00  0.2733E+02
     13.004  0.0000E+00  0.2733E+02
     13.173  0.0000E+00  0.2756E+02
     13.341  0.0000E+00  0.2756E+02
     13.509  0.0000E+00  0.2756E+02
     13.677  0.0000E+00  0.2761E+02
     13.846  0.0000E+00  0.2794E+02
     14.014  0.0000E+00  0.2794E+02
     14.182  0.0000E+00  0.2794E+02
     14.351  0.0000E+00  0.2794E+02
     14.519  0.0000E+00  0.2794E+02
     14.687  0.0000E+00  0.2794E+02
     14.855  0.0000E+00  0.2797E+02
     15.024  0.0000E+00  0.2800E+02
     15.192  0.0000E+00  0.2800E+02
     15.360  0.0000E+00  0.2800E+02
     15.528  0.0000E+00  0.2800E+02
     15.697  0.0000E+00  0.2800E+02
     15.865  0.0000E+00  0.2800E+02
     16.033  0.0000E+00  0.2800E+02
     16.201  0.0000E+00  0.2800E+02
     16.370  0.0000E+00  0.2800E+02
     16.538  0.0000E+00  0.2800E+02
     16.706  0.0000E+00  0.2800E+02
     16.875  0.0000E+00  0.2800E+02
     17.043  0.0000E+00  0.2800E+02
     17.211  0.0000E+00  0.2800E+02
