   1   1   0   0
  0.6156630E+02  0.4432200E-09  0.4432200E-09  0.4432200E-09  0.1000000E-15
  1.000000000000000E-004
  CAR 
 Og_FCC                                  
     55.84275189    -19.76496248  301     -3.50930389      1.00000000
    -19.765  0.0000E+00  0.0000E+00
    -19.513  0.0000E+00  0.0000E+00
    -19.261  0.0000E+00  0.0000E+00
    -19.009  0.0000E+00  0.0000E+00
    -18.757  0.0000E+00  0.0000E+00
    -18.505  0.0000E+00  0.0000E+00
    -18.253  0.0000E+00  0.0000E+00
    -18.001  0.0000E+00  0.0000E+00
    -17.749  0.0000E+00  0.0000E+00
    -17.497  0.0000E+00  0.0000E+00
    -17.245  0.0000E+00  0.0000E+00
    -16.993  0.0000E+00  0.0000E+00
    -16.741  0.0000E+00  0.0000E+00
    -16.489  0.0000E+00  0.0000E+00
    -16.237  0.0000E+00  0.1574E+00
    -15.985  0.0000E+00  0.2000E+01
    -15.733  0.0000E+00  0.2000E+01
    -15.481  0.0000E+00  0.2000E+01
    -15.228  0.0000E+00  0.2000E+01
    -14.976  0.0000E+00  0.2000E+01
    -14.724  0.0000E+00  0.2000E+01
    -14.472  0.0000E+00  0.2000E+01
    -14.220  0.0000E+00  0.2000E+01
    -13.968  0.0000E+00  0.2000E+01
    -13.716  0.0000E+00  0.2000E+01
    -13.464  0.0000E+00  0.2000E+01
    -13.212  0.0000E+00  0.2000E+01
    -12.960  0.0000E+00  0.2000E+01
    -12.708  0.0000E+00  0.2000E+01
    -12.456  0.0000E+00  0.2000E+01
    -12.204  0.0000E+00  0.2000E+01
    -11.952  0.0000E+00  0.2000E+01
    -11.700  0.0000E+00  0.2000E+01
    -11.448  0.0000E+00  0.2000E+01
    -11.196  0.0000E+00  0.2000E+01
    -10.944  0.0000E+00  0.2000E+01
    -10.692  0.0000E+00  0.2000E+01
    -10.440  0.0000E+00  0.2000E+01
    -10.188  0.0000E+00  0.2000E+01
     -9.936  0.0000E+00  0.2000E+01
     -9.684  0.0000E+00  0.2000E+01
     -9.432  0.0000E+00  0.2000E+01
     -9.180  0.0000E+00  0.2000E+01
     -8.928  0.0000E+00  0.2000E+01
     -8.676  0.0000E+00  0.2000E+01
     -8.424  0.0000E+00  0.2000E+01
     -8.172  0.0000E+00  0.2000E+01
     -7.920  0.0000E+00  0.2000E+01
     -7.668  0.0000E+00  0.2000E+01
     -7.416  0.0000E+00  0.2000E+01
     -7.164  0.0000E+00  0.2000E+01
     -6.912  0.0000E+00  0.2000E+01
     -6.660  0.0000E+00  0.2000E+01
     -6.408  0.0000E+00  0.2000E+01
     -6.156  0.0000E+00  0.2000E+01
     -5.904  0.0000E+00  0.2000E+01
     -5.652  0.0000E+00  0.2991E+01
     -5.399  0.0000E+00  0.3703E+01
     -5.147  0.0000E+00  0.3913E+01
     -4.895  0.0000E+00  0.4000E+01
     -4.643  0.9212E-02  0.4282E+01
     -4.391  0.9076E-02  0.5437E+01
     -4.139  0.5553E+00  0.6332E+01
     -3.887  0.0000E+00  0.7382E+01
     -3.635  0.1706E+00  0.7985E+01
     -3.383  0.0000E+00  0.8000E+01
     -3.131  0.0000E+00  0.8000E+01
     -2.879  0.0000E+00  0.8000E+01
     -2.627  0.0000E+00  0.8000E+01
     -2.375  0.0000E+00  0.8000E+01
     -2.123  0.0000E+00  0.8000E+01
     -1.871  0.0000E+00  0.8000E+01
     -1.619  0.0000E+00  0.8000E+01
     -1.367  0.0000E+00  0.8000E+01
     -1.115  0.0000E+00  0.8000E+01
     -0.863  0.0000E+00  0.8000E+01
     -0.611  0.0000E+00  0.8000E+01
     -0.359  0.0000E+00  0.8000E+01
     -0.107  0.0000E+00  0.8000E+01
      0.145  0.0000E+00  0.8000E+01
      0.397  0.0000E+00  0.8000E+01
      0.649  0.0000E+00  0.8000E+01
      0.901  0.0000E+00  0.8000E+01
      1.153  0.0000E+00  0.8000E+01
      1.405  0.0000E+00  0.8000E+01
      1.657  0.0000E+00  0.8000E+01
      1.909  0.0000E+00  0.8000E+01
      2.161  0.0000E+00  0.8000E+01
      2.413  0.0000E+00  0.8006E+01
      2.665  0.0000E+00  0.8006E+01
      2.917  0.0000E+00  0.8087E+01
      3.169  0.0000E+00  0.8087E+01
      3.421  0.0000E+00  0.8157E+01
      3.673  0.0000E+00  0.8379E+01
      3.925  0.0000E+00  0.8531E+01
      4.177  0.5552E+00  0.9230E+01
      4.430  0.0000E+00  0.9545E+01
      4.682  0.0000E+00  0.9755E+01
      4.934  0.0000E+00  0.1042E+02
      5.186  0.0000E+00  0.1070E+02
      5.438  0.3251E+00  0.1113E+02
      5.690  0.0000E+00  0.1161E+02
      5.942  0.0000E+00  0.1199E+02
      6.194  0.0000E+00  0.1258E+02
      6.446  0.0000E+00  0.1304E+02
      6.698  0.1539E-02  0.1363E+02
      6.950  0.0000E+00  0.1429E+02
      7.202  0.8809E-02  0.1450E+02
      7.454  0.0000E+00  0.1495E+02
      7.706  0.0000E+00  0.1537E+02
      7.958  0.0000E+00  0.1569E+02
      8.210  0.0000E+00  0.1586E+02
      8.462  0.0000E+00  0.1655E+02
      8.714  0.0000E+00  0.1666E+02
      8.966  0.0000E+00  0.1672E+02
      9.218  0.0000E+00  0.1690E+02
      9.470  0.0000E+00  0.1779E+02
      9.722  0.0000E+00  0.1787E+02
      9.974  0.0000E+00  0.1836E+02
     10.226  0.1086E+00  0.1895E+02
     10.478  0.3998E-06  0.1924E+02
     10.730  0.3675E+00  0.2045E+02
     10.982  0.0000E+00  0.2060E+02
     11.234  0.2429E+00  0.2092E+02
     11.486  0.0000E+00  0.2094E+02
     11.738  0.0000E+00  0.2122E+02
     11.990  0.0000E+00  0.2171E+02
     12.242  0.0000E+00  0.2217E+02
     12.494  0.1851E+00  0.2324E+02
     12.746  0.1851E+00  0.2371E+02
     12.998  0.0000E+00  0.2450E+02
     13.250  0.0000E+00  0.2500E+02
     13.502  0.2397E-14  0.2546E+02
     13.754  0.0000E+00  0.2584E+02
     14.006  0.0000E+00  0.2627E+02
     14.259  0.0000E+00  0.2648E+02
     14.511  0.1851E+00  0.2696E+02
     14.763  0.0000E+00  0.2759E+02
     15.015  0.0000E+00  0.2804E+02
     15.267  0.0000E+00  0.2896E+02
     15.519  0.0000E+00  0.2970E+02
     15.771  0.0000E+00  0.3054E+02
     16.023  0.5553E+00  0.3135E+02
     16.275  0.0000E+00  0.3170E+02
     16.527  0.0000E+00  0.3233E+02
     16.779  0.0000E+00  0.3299E+02
     17.031  0.0000E+00  0.3417E+02
     17.283  0.0000E+00  0.3501E+02
     17.535  0.1596E-01  0.3509E+02
     17.787  0.0000E+00  0.3539E+02
     18.039  0.0000E+00  0.3620E+02
     18.291  0.2776E+00  0.3655E+02
     18.543  0.0000E+00  0.3739E+02
     18.795  0.0000E+00  0.3846E+02
     19.047  0.0000E+00  0.3917E+02
     19.299  0.8014E-15  0.3949E+02
     19.551  0.0000E+00  0.4023E+02
     19.803  0.0000E+00  0.4044E+02
     20.055  0.1086E-02  0.4163E+02
     20.307  0.0000E+00  0.4246E+02
     20.559  0.0000E+00  0.4328E+02
     20.811  0.6934E-04  0.4332E+02
     21.063  0.0000E+00  0.4429E+02
     21.315  0.0000E+00  0.4496E+02
     21.567  0.4407E-06  0.4599E+02
     21.819  0.0000E+00  0.4663E+02
     22.071  0.1309E+00  0.4715E+02
     22.323  0.0000E+00  0.4763E+02
     22.575  0.2314E-01  0.4828E+02
     22.827  0.0000E+00  0.4847E+02
     23.079  0.0000E+00  0.4949E+02
     23.331  0.0000E+00  0.4978E+02
     23.583  0.5553E+00  0.5077E+02
     23.835  0.0000E+00  0.5149E+02
     24.088  0.0000E+00  0.5215E+02
     24.340  0.0000E+00  0.5230E+02
     24.592  0.3296E-05  0.5278E+02
     24.844  0.0000E+00  0.5354E+02
     25.096  0.1658E+00  0.5457E+02
     25.348  0.5751E-12  0.5500E+02
     25.600  0.5545E+00  0.5666E+02
     25.852  0.5830E-01  0.5778E+02
     26.104  0.0000E+00  0.5868E+02
     26.356  0.0000E+00  0.5907E+02
     26.608  0.0000E+00  0.5932E+02
     26.860  0.0000E+00  0.5951E+02
     27.112  0.2776E+00  0.5994E+02
     27.364  0.0000E+00  0.6078E+02
     27.616  0.0000E+00  0.6156E+02
     27.868  0.0000E+00  0.6159E+02
     28.120  0.0000E+00  0.6252E+02
     28.372  0.0000E+00  0.6291E+02
     28.624  0.0000E+00  0.6357E+02
     28.876  0.1057E+00  0.6437E+02
     29.128  0.0000E+00  0.6516E+02
     29.380  0.1851E+00  0.6615E+02
     29.632  0.4349E+00  0.6672E+02
     29.884  0.7706E-08  0.6692E+02
     30.136  0.0000E+00  0.6755E+02
     30.388  0.0000E+00  0.6872E+02
     30.640  0.5553E+00  0.7014E+02
     30.892  0.0000E+00  0.7049E+02
     31.144  0.3803E-01  0.7133E+02
     31.396  0.0000E+00  0.7178E+02
     31.648  0.0000E+00  0.7234E+02
     31.900  0.0000E+00  0.7268E+02
     32.152  0.7323E-13  0.7364E+02
     32.404  0.0000E+00  0.7487E+02
     32.656  0.0000E+00  0.7522E+02
     32.908  0.0000E+00  0.7583E+02
     33.160  0.0000E+00  0.7679E+02
     33.412  0.0000E+00  0.7708E+02
     33.664  0.2776E+00  0.7785E+02
     33.917  0.0000E+00  0.7816E+02
     34.169  0.0000E+00  0.7872E+02
     34.421  0.0000E+00  0.7913E+02
     34.673  0.0000E+00  0.7948E+02
     34.925  0.0000E+00  0.8003E+02
     35.177  0.0000E+00  0.8049E+02
     35.429  0.1233E-15  0.8142E+02
     35.681  0.0000E+00  0.8258E+02
     35.933  0.1388E+00  0.8373E+02
     36.185  0.0000E+00  0.8455E+02
     36.437  0.0000E+00  0.8506E+02
     36.689  0.0000E+00  0.8584E+02
     36.941  0.0000E+00  0.8673E+02
     37.193  0.0000E+00  0.8790E+02
     37.445  0.4498E-03  0.8825E+02
     37.697  0.1437E-10  0.8882E+02
     37.949  0.6837E-01  0.9011E+02
     38.201  0.0000E+00  0.9065E+02
     38.453  0.5553E+00  0.9114E+02
     38.705  0.0000E+00  0.9149E+02
     38.957  0.0000E+00  0.9251E+02
     39.209  0.0000E+00  0.9299E+02
     39.461  0.0000E+00  0.9306E+02
     39.713  0.3068E-14  0.9439E+02
     39.965  0.0000E+00  0.9486E+02
     40.217  0.2776E+00  0.9605E+02
     40.469  0.0000E+00  0.9751E+02
     40.721  0.0000E+00  0.9793E+02
     40.973  0.4627E-01  0.9851E+02
     41.225  0.0000E+00  0.9922E+02
     41.477  0.0000E+00  0.9977E+02
     41.729  0.0000E+00  0.1003E+03
     41.981  0.0000E+00  0.1012E+03
     42.233  0.0000E+00  0.1020E+03
     42.485  0.0000E+00  0.1028E+03
     42.737  0.2776E+00  0.1034E+03
     42.989  0.0000E+00  0.1044E+03
     43.241  0.1110E+00  0.1048E+03
     43.493  0.0000E+00  0.1059E+03
     43.746  0.2776E+00  0.1064E+03
     43.998  0.0000E+00  0.1073E+03
     44.250  0.2776E+00  0.1075E+03
     44.502  0.5550E+00  0.1082E+03
     44.754  0.0000E+00  0.1088E+03
     45.006  0.0000E+00  0.1092E+03
     45.258  0.0000E+00  0.1098E+03
     45.510  0.1851E+00  0.1106E+03
     45.762  0.4947E-04  0.1110E+03
     46.014  0.0000E+00  0.1122E+03
     46.266  0.2776E+00  0.1134E+03
     46.518  0.2888E-14  0.1139E+03
     46.770  0.0000E+00  0.1158E+03
     47.022  0.0000E+00  0.1164E+03
     47.274  0.0000E+00  0.1167E+03
     47.526  0.0000E+00  0.1172E+03
     47.778  0.1328E-01  0.1182E+03
     48.030  0.0000E+00  0.1189E+03
     48.282  0.0000E+00  0.1198E+03
     48.534  0.0000E+00  0.1208E+03
     48.786  0.0000E+00  0.1215E+03
     49.038  0.0000E+00  0.1222E+03
     49.290  0.5553E+00  0.1229E+03
     49.542  0.0000E+00  0.1234E+03
     49.794  0.5553E+00  0.1244E+03
     50.046  0.4108E-06  0.1256E+03
     50.298  0.0000E+00  0.1260E+03
     50.550  0.0000E+00  0.1266E+03
     50.802  0.0000E+00  0.1268E+03
     51.054  0.0000E+00  0.1270E+03
     51.306  0.0000E+00  0.1275E+03
     51.558  0.0000E+00  0.1277E+03
     51.810  0.0000E+00  0.1278E+03
     52.062  0.0000E+00  0.1280E+03
     52.314  0.0000E+00  0.1280E+03
     52.566  0.0000E+00  0.1280E+03
     52.818  0.0000E+00  0.1280E+03
     53.070  0.0000E+00  0.1280E+03
     53.322  0.0000E+00  0.1280E+03
     53.575  0.0000E+00  0.1280E+03
     53.827  0.0000E+00  0.1280E+03
     54.079  0.0000E+00  0.1280E+03
     54.331  0.0000E+00  0.1280E+03
     54.583  0.0000E+00  0.1280E+03
     54.835  0.0000E+00  0.1280E+03
     55.087  0.0000E+00  0.1280E+03
     55.339  0.0000E+00  0.1280E+03
     55.591  0.0000E+00  0.1280E+03
     55.843  0.0000E+00  0.1280E+03
