    1    1    1    1
  0.6156630E+02  0.4432200E-09  0.4432200E-09  0.4432200E-09  0.1000000E-15
  1.000000000000000E-004
  CAR 
 Og_FCC                                  
      8    343    128
 
  0.0000000E+00  0.0000000E+00  0.0000000E+00  0.2915452E-02
    1      -16.328248   1.000000
    2      -16.328248   1.000000
    3       -4.936020   1.000000
    4       -4.936020   1.000000
    5       -3.598489   1.000000
    6       -3.598489   1.000000
    7       -3.598489   1.000000
    8       -3.598489   1.000000
    9        2.189724   0.000000
   10        2.189725   0.000000
   11        6.660484   0.000000
   12        6.660485   0.000000
   13        6.660485   0.000000
   14        6.660485   0.000000
   15        6.715088   0.000000
   16        6.715088   0.000000
   17        8.796918   0.000000
   18        8.796918   0.000000
   19        8.796918   0.000000
   20        8.796918   0.000000
   21        9.382709   0.000000
   22        9.382709   0.000000
   23       11.412322   0.000000
   24       11.412322   0.000000
   25       11.452481   0.000000
   26       11.452482   0.000000
   27       11.452482   0.000000
   28       11.452482   0.000000
   29       13.881730   0.000000
   30       13.881734   0.000000
   31       18.637881   0.000000
   32       18.637881   0.000000
   33       18.649121   0.000000
   34       18.649121   0.000000
   35       18.649121   0.000000
   36       18.649121   0.000000
   37       20.813121   0.000000
   38       20.813121   0.000000
   39       21.321198   0.000000
   40       21.321198   0.000000
   41       21.321198   0.000000
   42       21.321198   0.000000
   43       22.572446   0.000000
   44       22.572446   0.000000
   45       22.672962   0.000000
   46       22.672962   0.000000
   47       22.672962   0.000000
   48       22.672962   0.000000
   49       22.807111   0.000000
   50       22.807111   0.000000
   51       23.915473   0.000000
   52       23.915473   0.000000
   53       24.235983   0.000000
   54       24.235983   0.000000
   55       24.235983   0.000000
   56       24.235984   0.000000
   57       24.594253   0.000000
   58       24.594253   0.000000
   59       24.594253   0.000000
   60       24.594253   0.000000
   61       27.471610   0.000000
   62       27.471612   0.000000
   63       31.942049   0.000000
   64       31.942049   0.000000
   65       31.954988   0.000000
   66       31.954988   0.000000
   67       31.954988   0.000000
   68       31.954988   0.000000
   69       33.248993   0.000000
   70       33.248993   0.000000
   71       33.248993   0.000000
   72       33.248993   0.000000
   73       35.329872   0.000000
   74       35.329872   0.000000
   75       35.329872   0.000000
   76       35.329872   0.000000
   77       35.354128   0.000000
   78       35.354129   0.000000
   79       35.400813   0.000000
   80       35.400813   0.000000
   81       35.796873   0.000000
   82       35.796873   0.000000
   83       35.796874   0.000000
   84       35.796874   0.000000
   85       36.640943   0.000000
   86       36.640943   0.000000
   87       36.640943   0.000000
   88       36.640944   0.000000
   89       36.640944   0.000000
   90       36.640944   0.000000
   91       39.145329   0.000000
   92       39.145329   0.000000
   93       39.145329   0.000000
   94       39.145330   0.000000
   95       39.147645   0.000000
   96       39.147645   0.000000
   97       39.718273   0.000000
   98       39.718278   0.000000
   99       39.867167   0.000000
  100       39.867167   0.000000
  101       39.867167   0.000000
  102       39.867167   0.000000
  103       40.962540   0.000000
  104       40.962540   0.000000
  105       40.970451   0.000000
  106       40.970451   0.000000
  107       40.970451   0.000000
  108       40.970452   0.000000
  109       41.108769   0.000000
  110       41.108769   0.000000
  111       41.108769   0.000000
  112       41.108770   0.000000
  113       41.122294   0.000000
  114       41.122294   0.000000
  115       42.125111   0.000000
  116       42.125111   0.000000
  117       42.495567   0.000000
  118       42.495568   0.000000
  119       43.138933   0.000000
  120       43.138934   0.000000
  121       43.138934   0.000000
  122       43.138934   0.000000
  123       43.142945   0.000000
  124       43.142946   0.000000
  125       44.133180   0.000000
  126       44.133180   0.000000
  127       44.133181   0.000000
  128       44.133182   0.000000
 
  0.1428571E+00 -0.1256194E-16  0.0000000E+00  0.2915452E-02
    1      -16.293949   1.000000
    2      -16.293949   1.000000
    3       -5.061905   1.000000
    4       -5.061905   1.000000
    5       -3.846336   1.000000
    6       -3.846336   1.000000
    7       -3.636319   1.000000
    8       -3.636319   1.000000
    9        2.700740   0.000000
   10        2.700741   0.000000
   11        6.175148   0.000000
   12        6.175148   0.000000
   13        6.829346   0.000000
   14        6.829346   0.000000
   15        6.879271   0.000000
   16        6.879271   0.000000
   17        8.373801   0.000000
   18        8.373801   0.000000
   19        8.397656   0.000000
   20        8.397656   0.000000
   21       10.144474   0.000000
   22       10.144475   0.000000
   23       10.995031   0.000000
   24       10.995032   0.000000
   25       12.465718   0.000000
   26       12.465718   0.000000
   27       12.487572   0.000000
   28       12.487573   0.000000
   29       15.276156   0.000000
   30       15.276159   0.000000
   31       17.623227   0.000000
   32       17.623227   0.000000
   33       17.665326   0.000000
   34       17.665326   0.000000
   35       18.685539   0.000000
   36       18.685539   0.000000
   37       18.701312   0.000000
   38       18.701312   0.000000
   39       20.448282   0.000000
   40       20.448282   0.000000
   41       20.727117   0.000000
   42       20.727117   0.000000
   43       22.396516   0.000000
   44       22.396516   0.000000
   45       22.907557   0.000000
   46       22.907557   0.000000
   47       22.935248   0.000000
   48       22.935248   0.000000
   49       23.005081   0.000000
   50       23.005081   0.000000
   51       23.661080   0.000000
   52       23.661080   0.000000
   53       23.684979   0.000000
   54       23.684979   0.000000
   55       24.929555   0.000000
   56       24.929556   0.000000
   57       25.810211   0.000000
   58       25.810211   0.000000
   59       25.989682   0.000000
   60       25.989682   0.000000
   61       28.948172   0.000000
   62       28.948174   0.000000
   63       31.086746   0.000000
   64       31.086746   0.000000
   65       31.144813   0.000000
   66       31.144813   0.000000
   67       31.676774   0.000000
   68       31.676774   0.000000
   69       31.869998   0.000000
   70       31.869999   0.000000
   71       32.944883   0.000000
   72       32.944883   0.000000
   73       32.981041   0.000000
   74       32.981041   0.000000
   75       34.304343   0.000000
   76       34.304343   0.000000
   77       34.328937   0.000000
   78       34.328937   0.000000
   79       35.615056   0.000000
   80       35.615056   0.000000
   81       35.623462   0.000000
   82       35.623462   0.000000
   83       36.104176   0.000000
   84       36.104176   0.000000
   85       36.618843   0.000000
   86       36.618845   0.000000
   87       36.722675   0.000000
   88       36.722675   0.000000
   89       36.753851   0.000000
   90       36.753851   0.000000
   91       37.027272   0.000000
   92       37.027273   0.000000
   93       37.787912   0.000000
   94       37.787912   0.000000
   95       37.937448   0.000000
   96       37.937448   0.000000
   97       39.053670   0.000000
   98       39.053671   0.000000
   99       40.567934   0.000000
  100       40.567934   0.000000
  101       40.572793   0.000000
  102       40.572793   0.000000
  103       40.936579   0.000000
  104       40.936582   0.000000
  105       42.016602   0.000000
  106       42.016603   0.000000
  107       42.029660   0.000000
  108       42.029660   0.000000
  109       42.318923   0.000000
  110       42.318923   0.000000
  111       42.404509   0.000000
  112       42.404510   0.000000
  113       42.778735   0.000000
  114       42.778736   0.000000
  115       43.215990   0.000000
  116       43.215990   0.000000
  117       43.241288   0.000000
  118       43.241288   0.000000
  119       44.646709   0.000000
  120       44.646709   0.000000
  121       44.652373   0.000000
  122       44.652373   0.000000
  123       44.962880   0.000000
  124       44.962880   0.000000
  125       45.764172   0.000000
  126       45.764172   0.000000
  127       45.767977   0.000000
  128       45.767977   0.000000
 
  0.2857143E+00  0.2631704E-17 -0.1387779E-16  0.2915452E-02
    1      -16.215564   1.000000
    2      -16.215564   1.000000
    3       -5.410709   1.000000
    4       -5.410709   1.000000
    5       -4.213071   1.000000
    6       -4.213071   1.000000
    7       -3.718382   1.000000
    8       -3.718382   1.000000
    9        3.527866   0.000000
   10        3.527867   0.000000
   11        5.995969   0.000000
   12        5.995969   0.000000
   13        6.720194   0.000000
   14        6.720194   0.000000
   15        6.782589   0.000000
   16        6.782589   0.000000
   17        8.703591   0.000000
   18        8.703591   0.000000
   19        8.754806   0.000000
   20        8.754806   0.000000
   21        9.501775   0.000000
   22        9.501777   0.000000
   23       13.075612   0.000000
   24       13.075613   0.000000
   25       14.496289   0.000000
   26       14.496289   0.000000
   27       14.507471   0.000000
   28       14.507471   0.000000
   29       15.179088   0.000000
   30       15.179088   0.000000
   31       15.337768   0.000000
   32       15.337768   0.000000
   33       15.467983   0.000000
   34       15.467983   0.000000
   35       17.895874   0.000000
   36       17.895876   0.000000
   37       18.780257   0.000000
   38       18.780257   0.000000
   39       20.317368   0.000000
   40       20.317368   0.000000
   41       20.547517   0.000000
   42       20.547517   0.000000
   43       21.590821   0.000000
   44       21.590821   0.000000
   45       22.181817   0.000000
   46       22.181818   0.000000
   47       22.239620   0.000000
   48       22.239620   0.000000
   49       23.094989   0.000000
   50       23.094989   0.000000
   51       23.881156   0.000000
   52       23.881156   0.000000
   53       23.969538   0.000000
   54       23.969538   0.000000
   55       25.186021   0.000000
   56       25.186022   0.000000
   57       26.464833   0.000000
   58       26.464833   0.000000
   59       26.630292   0.000000
   60       26.630292   0.000000
   61       27.891059   0.000000
   62       27.891060   0.000000
   63       29.373403   0.000000
   64       29.373403   0.000000
   65       29.415069   0.000000
   66       29.415069   0.000000
   67       31.049742   0.000000
   68       31.049743   0.000000
   69       31.934346   0.000000
   70       31.934346   0.000000
   71       31.970117   0.000000
   72       31.970118   0.000000
   73       32.005204   0.000000
   74       32.005204   0.000000
   75       32.770586   0.000000
   76       32.770587   0.000000
   77       33.717168   0.000000
   78       33.717168   0.000000
   79       33.770801   0.000000
   80       33.770801   0.000000
   81       35.444319   0.000000
   82       35.444319   0.000000
   83       35.717052   0.000000
   84       35.717052   0.000000
   85       35.734094   0.000000
   86       35.734094   0.000000
   87       36.241767   0.000000
   88       36.241767   0.000000
   89       36.339468   0.000000
   90       36.339468   0.000000
   91       36.598083   0.000000
   92       36.598084   0.000000
   93       38.832621   0.000000
   94       38.832621   0.000000
   95       38.884420   0.000000
   96       38.884420   0.000000
   97       38.933776   0.000000
   98       38.933776   0.000000
   99       40.804188   0.000000
  100       40.804190   0.000000
  101       41.260533   0.000000
  102       41.260533   0.000000
  103       41.306958   0.000000
  104       41.306958   0.000000
  105       42.885149   0.000000
  106       42.885150   0.000000
  107       44.368297   0.000000
  108       44.368297   0.000000
  109       44.405568   0.000000
  110       44.405568   0.000000
  111       45.484807   0.000000
  112       45.484807   0.000000
  113       45.503736   0.000000
  114       45.503737   0.000000
  115       45.535328   0.000000
  116       45.535328   0.000000
  117       45.822069   0.000000
  118       45.822070   0.000000
  119       48.353255   0.000000
  120       48.353257   0.000000
  121       48.443799   0.000000
  122       48.443799   0.000000
  123       48.461177   0.000000
  124       48.461177   0.000000
  125       48.866396   0.000000
  126       48.866397   0.000000
  127       49.376088   0.000000
  128       49.376088   0.000000
 
  0.4285714E+00  0.3947555E-17  0.0000000E+00  0.2915452E-02
    1      -16.150175   1.000000
    2      -16.150175   1.000000
    3       -5.729423   1.000000
    4       -5.729423   1.000000
    5       -4.389904   1.000000
    6       -4.389904   1.000000
    7       -3.781431   1.000000
    8       -3.781431   1.000000
    9        3.712926   0.000000
   10        3.712926   0.000000
   11        6.401156   0.000000
   12        6.401156   0.000000
   13        6.457826   0.000000
   14        6.457826   0.000000
   15        6.699430   0.000000
   16        6.699432   0.000000
   17        9.347482   0.000000
   18        9.347483   0.000000
   19       10.095057   0.000000
   20       10.095057   0.000000
   21       10.146911   0.000000
   22       10.146911   0.000000
   23       12.740316   0.000000
   24       12.740317   0.000000
   25       12.887660   0.000000
   26       12.887660   0.000000
   27       12.929563   0.000000
   28       12.929563   0.000000
   29       15.917410   0.000000
   30       15.917410   0.000000
   31       16.716662   0.000000
   32       16.716662   0.000000
   33       16.738697   0.000000
   34       16.738697   0.000000
   35       18.863554   0.000000
   36       18.863554   0.000000
   37       19.432685   0.000000
   38       19.432685   0.000000
   39       20.174482   0.000000
   40       20.174483   0.000000
   41       20.180134   0.000000
   42       20.180134   0.000000
   43       20.496821   0.000000
   44       20.496823   0.000000
   45       20.910440   0.000000
   46       20.910440   0.000000
   47       21.195274   0.000000
   48       21.195274   0.000000
   49       23.565820   0.000000
   50       23.565821   0.000000
   51       24.520929   0.000000
   52       24.520930   0.000000
   53       24.549206   0.000000
   54       24.549206   0.000000
   55       24.603656   0.000000
   56       24.603656   0.000000
   57       25.542494   0.000000
   58       25.542494   0.000000
   59       25.557301   0.000000
   60       25.557301   0.000000
   61       26.917251   0.000000
   62       26.917252   0.000000
   63       28.051661   0.000000
   64       28.051662   0.000000
   65       29.426267   0.000000
   66       29.426267   0.000000
   67       29.486012   0.000000
   68       29.486012   0.000000
   69       30.355757   0.000000
   70       30.355757   0.000000
   71       30.428982   0.000000
   72       30.428982   0.000000
   73       30.578583   0.000000
   74       30.578584   0.000000
   75       33.434862   0.000000
   76       33.434862   0.000000
   77       33.461170   0.000000
   78       33.461170   0.000000
   79       33.504113   0.000000
   80       33.504115   0.000000
   81       35.188843   0.000000
   82       35.188844   0.000000
   83       35.322358   0.000000
   84       35.322358   0.000000
   85       35.366194   0.000000
   86       35.366194   0.000000
   87       37.576292   0.000000
   88       37.576292   0.000000
   89       37.740183   0.000000
   90       37.740183   0.000000
   91       37.782619   0.000000
   92       37.782619   0.000000
   93       40.280120   0.000000
   94       40.280120   0.000000
   95       40.333399   0.000000
   96       40.333399   0.000000
   97       40.561659   0.000000
   98       40.561659   0.000000
   99       40.791082   0.000000
  100       40.791084   0.000000
  101       43.074840   0.000000
  102       43.074840   0.000000
  103       43.088217   0.000000
  104       43.088217   0.000000
  105       43.357598   0.000000
  106       43.357599   0.000000
  107       45.712824   0.000000
  108       45.712824   0.000000
  109       45.813615   0.000000
  110       45.813615   0.000000
  111       46.523169   0.000000
  112       46.523170   0.000000
  113       46.867672   0.000000
  114       46.867672   0.000000
  115       46.869714   0.000000
  116       46.869714   0.000000
  117       48.188653   0.000000
  118       48.188655   0.000000
  119       49.340380   0.000000
  120       49.340380   0.000000
  121       49.366216   0.000000
  122       49.366217   0.000000
  123       49.386805   0.000000
  124       49.386805   0.000000
  125       49.496844   0.000000
  126       49.496844   0.000000
  127       49.509896   0.000000
  128       49.509896   0.000000
 
 -0.4285714E+00 -0.3947555E-17  0.0000000E+00  0.2915452E-02
    1      -16.150175   1.000000
    2      -16.150175   1.000000
    3       -5.729423   1.000000
    4       -5.729423   1.000000
    5       -4.389904   1.000000
    6       -4.389904   1.000000
    7       -3.781431   1.000000
    8       -3.781431   1.000000
    9        3.712926   0.000000
   10        3.712926   0.000000
   11        6.401156   0.000000
   12        6.401156   0.000000
   13        6.457826   0.000000
   14        6.457826   0.000000
   15        6.699430   0.000000
   16        6.699432   0.000000
   17        9.347482   0.000000
   18        9.347483   0.000000
   19       10.095057   0.000000
   20       10.095057   0.000000
   21       10.146911   0.000000
   22       10.146911   0.000000
   23       12.740316   0.000000
   24       12.740317   0.000000
   25       12.887660   0.000000
   26       12.887660   0.000000
   27       12.929563   0.000000
   28       12.929563   0.000000
   29       15.917410   0.000000
   30       15.917410   0.000000
   31       16.716662   0.000000
   32       16.716662   0.000000
   33       16.738697   0.000000
   34       16.738697   0.000000
   35       18.863554   0.000000
   36       18.863554   0.000000
   37       19.432685   0.000000
   38       19.432685   0.000000
   39       20.174482   0.000000
   40       20.174483   0.000000
   41       20.180134   0.000000
   42       20.180134   0.000000
   43       20.496821   0.000000
   44       20.496823   0.000000
   45       20.910440   0.000000
   46       20.910440   0.000000
   47       21.195274   0.000000
   48       21.195274   0.000000
   49       23.565820   0.000000
   50       23.565821   0.000000
   51       24.520929   0.000000
   52       24.520930   0.000000
   53       24.549206   0.000000
   54       24.549206   0.000000
   55       24.603656   0.000000
   56       24.603656   0.000000
   57       25.542494   0.000000
   58       25.542494   0.000000
   59       25.557301   0.000000
   60       25.557301   0.000000
   61       26.917251   0.000000
   62       26.917252   0.000000
   63       28.051661   0.000000
   64       28.051662   0.000000
   65       29.426267   0.000000
   66       29.426267   0.000000
   67       29.486012   0.000000
   68       29.486012   0.000000
   69       30.355757   0.000000
   70       30.355757   0.000000
   71       30.428982   0.000000
   72       30.428982   0.000000
   73       30.578583   0.000000
   74       30.578584   0.000000
   75       33.434862   0.000000
   76       33.434862   0.000000
   77       33.461170   0.000000
   78       33.461170   0.000000
   79       33.504113   0.000000
   80       33.504115   0.000000
   81       35.188843   0.000000
   82       35.188844   0.000000
   83       35.322358   0.000000
   84       35.322358   0.000000
   85       35.366194   0.000000
   86       35.366194   0.000000
   87       37.576292   0.000000
   88       37.576292   0.000000
   89       37.740183   0.000000
   90       37.740183   0.000000
   91       37.782619   0.000000
   92       37.782619   0.000000
   93       40.280120   0.000000
   94       40.280120   0.000000
   95       40.333399   0.000000
   96       40.333399   0.000000
   97       40.561659   0.000000
   98       40.561659   0.000000
   99       40.791082   0.000000
  100       40.791084   0.000000
  101       43.074840   0.000000
  102       43.074840   0.000000
  103       43.088217   0.000000
  104       43.088217   0.000000
  105       43.357598   0.000000
  106       43.357599   0.000000
  107       45.712824   0.000000
  108       45.712824   0.000000
  109       45.813615   0.000000
  110       45.813615   0.000000
  111       46.523169   0.000000
  112       46.523170   0.000000
  113       46.867672   0.000000
  114       46.867672   0.000000
  115       46.869714   0.000000
  116       46.869714   0.000000
  117       48.188653   0.000000
  118       48.188655   0.000000
  119       49.340380   0.000000
  120       49.340380   0.000000
  121       49.366216   0.000000
  122       49.366217   0.000000
  123       49.386805   0.000000
  124       49.386805   0.000000
  125       49.496844   0.000000
  126       49.496844   0.000000
  127       49.509896   0.000000
  128       49.509896   0.000000
 
 -0.2857143E+00 -0.2631704E-17  0.1387779E-16  0.2915452E-02
    1      -16.215564   1.000000
    2      -16.215564   1.000000
    3       -5.410709   1.000000
    4       -5.410709   1.000000
    5       -4.213071   1.000000
    6       -4.213071   1.000000
    7       -3.718382   1.000000
    8       -3.718382   1.000000
    9        3.527866   0.000000
   10        3.527867   0.000000
   11        5.995969   0.000000
   12        5.995969   0.000000
   13        6.720194   0.000000
   14        6.720194   0.000000
   15        6.782589   0.000000
   16        6.782589   0.000000
   17        8.703591   0.000000
   18        8.703591   0.000000
   19        8.754806   0.000000
   20        8.754806   0.000000
   21        9.501775   0.000000
   22        9.501777   0.000000
   23       13.075612   0.000000
   24       13.075613   0.000000
   25       14.496289   0.000000
   26       14.496289   0.000000
   27       14.507471   0.000000
   28       14.507471   0.000000
   29       15.179088   0.000000
   30       15.179088   0.000000
   31       15.337768   0.000000
   32       15.337768   0.000000
   33       15.467983   0.000000
   34       15.467983   0.000000
   35       17.895874   0.000000
   36       17.895876   0.000000
   37       18.780257   0.000000
   38       18.780257   0.000000
   39       20.317368   0.000000
   40       20.317368   0.000000
   41       20.547517   0.000000
   42       20.547517   0.000000
   43       21.590821   0.000000
   44       21.590821   0.000000
   45       22.181817   0.000000
   46       22.181818   0.000000
   47       22.239620   0.000000
   48       22.239620   0.000000
   49       23.094989   0.000000
   50       23.094989   0.000000
   51       23.881156   0.000000
   52       23.881156   0.000000
   53       23.969538   0.000000
   54       23.969538   0.000000
   55       25.186021   0.000000
   56       25.186022   0.000000
   57       26.464833   0.000000
   58       26.464833   0.000000
   59       26.630292   0.000000
   60       26.630292   0.000000
   61       27.891059   0.000000
   62       27.891060   0.000000
   63       29.373403   0.000000
   64       29.373403   0.000000
   65       29.415069   0.000000
   66       29.415069   0.000000
   67       31.049742   0.000000
   68       31.049743   0.000000
   69       31.934346   0.000000
   70       31.934346   0.000000
   71       31.970117   0.000000
   72       31.970118   0.000000
   73       32.005204   0.000000
   74       32.005204   0.000000
   75       32.770586   0.000000
   76       32.770587   0.000000
   77       33.717168   0.000000
   78       33.717168   0.000000
   79       33.770801   0.000000
   80       33.770801   0.000000
   81       35.444319   0.000000
   82       35.444319   0.000000
   83       35.717052   0.000000
   84       35.717052   0.000000
   85       35.734094   0.000000
   86       35.734094   0.000000
   87       36.241767   0.000000
   88       36.241767   0.000000
   89       36.339468   0.000000
   90       36.339468   0.000000
   91       36.598083   0.000000
   92       36.598084   0.000000
   93       38.832621   0.000000
   94       38.832621   0.000000
   95       38.884420   0.000000
   96       38.884420   0.000000
   97       38.933776   0.000000
   98       38.933776   0.000000
   99       40.804188   0.000000
  100       40.804190   0.000000
  101       41.260533   0.000000
  102       41.260533   0.000000
  103       41.306958   0.000000
  104       41.306958   0.000000
  105       42.885149   0.000000
  106       42.885150   0.000000
  107       44.368297   0.000000
  108       44.368297   0.000000
  109       44.405568   0.000000
  110       44.405568   0.000000
  111       45.484807   0.000000
  112       45.484807   0.000000
  113       45.503736   0.000000
  114       45.503737   0.000000
  115       45.535328   0.000000
  116       45.535328   0.000000
  117       45.822069   0.000000
  118       45.822070   0.000000
  119       48.353255   0.000000
  120       48.353257   0.000000
  121       48.443799   0.000000
  122       48.443799   0.000000
  123       48.461177   0.000000
  124       48.461177   0.000000
  125       48.866396   0.000000
  126       48.866397   0.000000
  127       49.376088   0.000000
  128       49.376088   0.000000
 
 -0.1428571E+00  0.1256194E-16  0.0000000E+00  0.2915452E-02
    1      -16.293949   1.000000
    2      -16.293949   1.000000
    3       -5.061905   1.000000
    4       -5.061905   1.000000
    5       -3.846336   1.000000
    6       -3.846336   1.000000
    7       -3.636319   1.000000
    8       -3.636319   1.000000
    9        2.700740   0.000000
   10        2.700741   0.000000
   11        6.175148   0.000000
   12        6.175148   0.000000
   13        6.829346   0.000000
   14        6.829346   0.000000
   15        6.879271   0.000000
   16        6.879271   0.000000
   17        8.373801   0.000000
   18        8.373801   0.000000
   19        8.397656   0.000000
   20        8.397656   0.000000
   21       10.144474   0.000000
   22       10.144475   0.000000
   23       10.995031   0.000000
   24       10.995032   0.000000
   25       12.465718   0.000000
   26       12.465718   0.000000
   27       12.487572   0.000000
   28       12.487573   0.000000
   29       15.276156   0.000000
   30       15.276159   0.000000
   31       17.623227   0.000000
   32       17.623227   0.000000
   33       17.665326   0.000000
   34       17.665326   0.000000
   35       18.685539   0.000000
   36       18.685539   0.000000
   37       18.701312   0.000000
   38       18.701312   0.000000
   39       20.448282   0.000000
   40       20.448282   0.000000
   41       20.727117   0.000000
   42       20.727117   0.000000
   43       22.396516   0.000000
   44       22.396516   0.000000
   45       22.907557   0.000000
   46       22.907557   0.000000
   47       22.935248   0.000000
   48       22.935248   0.000000
   49       23.005081   0.000000
   50       23.005081   0.000000
   51       23.661080   0.000000
   52       23.661080   0.000000
   53       23.684979   0.000000
   54       23.684979   0.000000
   55       24.929555   0.000000
   56       24.929556   0.000000
   57       25.810211   0.000000
   58       25.810211   0.000000
   59       25.989682   0.000000
   60       25.989682   0.000000
   61       28.948172   0.000000
   62       28.948174   0.000000
   63       31.086746   0.000000
   64       31.086746   0.000000
   65       31.144813   0.000000
   66       31.144813   0.000000
   67       31.676774   0.000000
   68       31.676774   0.000000
   69       31.869998   0.000000
   70       31.869999   0.000000
   71       32.944883   0.000000
   72       32.944883   0.000000
   73       32.981041   0.000000
   74       32.981041   0.000000
   75       34.304343   0.000000
   76       34.304343   0.000000
   77       34.328937   0.000000
   78       34.328937   0.000000
   79       35.615056   0.000000
   80       35.615056   0.000000
   81       35.623462   0.000000
   82       35.623462   0.000000
   83       36.104176   0.000000
   84       36.104176   0.000000
   85       36.618843   0.000000
   86       36.618845   0.000000
   87       36.722675   0.000000
   88       36.722675   0.000000
   89       36.753851   0.000000
   90       36.753851   0.000000
   91       37.027272   0.000000
   92       37.027273   0.000000
   93       37.787912   0.000000
   94       37.787912   0.000000
   95       37.937448   0.000000
   96       37.937448   0.000000
   97       39.053670   0.000000
   98       39.053671   0.000000
   99       40.567934   0.000000
  100       40.567934   0.000000
  101       40.572793   0.000000
  102       40.572793   0.000000
  103       40.936579   0.000000
  104       40.936582   0.000000
  105       42.016602   0.000000
  106       42.016603   0.000000
  107       42.029660   0.000000
  108       42.029660   0.000000
  109       42.318923   0.000000
  110       42.318923   0.000000
  111       42.404509   0.000000
  112       42.404510   0.000000
  113       42.778735   0.000000
  114       42.778736   0.000000
  115       43.215990   0.000000
  116       43.215990   0.000000
  117       43.241288   0.000000
  118       43.241288   0.000000
  119       44.646709   0.000000
  120       44.646709   0.000000
  121       44.652373   0.000000