    1    1    1    1
  0.5925390E+02  0.4376000E-09  0.4376000E-09  0.4376000E-09  0.1000000E-15
  1.000000000000000E-004
  CAR 
 Og_FCC                                  
     18    365     28
 
  0.0000000E+00  0.0000000E+00  0.0000000E+00  0.1371742E-02
    1      -30.792697   1.000000
    2      -30.792697   1.000000
    3      -30.792696   1.000000
    4      -30.792695   1.000000
    5      -24.104601   1.000000
    6      -24.104600   1.000000
    7      -24.101018   1.000000
    8      -24.101017   1.000000
    9      -24.101017   1.000000
   10      -24.101017   1.000000
   11      -20.522323   1.000000
   12      -20.522323   1.000000
   13       -7.292922   1.000000
   14       -7.292920   1.000000
   15        3.321996   1.000873
   16        3.322010   1.000873
   17        3.572246   0.550499
   18        3.572247   0.550489
   19        3.572248   0.550485
   20        3.572248   0.550483
   21       10.463844   0.000000
   22       10.463846   0.000000
   23       10.463847   0.000000
   24       10.463848   0.000000
   25       10.729962   0.000000
   26       10.729964   0.000000
   27       10.875660   0.000000
   28       10.875661   0.000000
 
  0.1111111E+00  0.1041767E-17  0.0000000E+00  0.2743484E-02
    1      -30.792618   1.000000
    2      -30.792618   1.000000
    3      -30.792391   1.000000
    4      -30.792391   1.000000
    5      -24.103890   1.000000
    6      -24.103890   1.000000
    7      -24.101121   1.000000
    8      -24.101121   1.000000
    9      -24.100192   1.000000
   10      -24.100192   1.000000
   11      -20.510647   1.000000
   12      -20.510647   1.000000
   13       -7.332507   1.000000
   14       -7.332505   1.000000
   15        2.332660   1.000000
   16        2.332665   1.000000
   17        3.500096   0.985104
   18        3.500097   0.985102
   19        4.606207  -0.000000
   20        4.606214  -0.000000
   21        9.641883   0.000000
   22        9.641884   0.000000
   23       10.583944   0.000000
   24       10.583950   0.000000
   25       10.865425   0.000000
   26       10.865481   0.000000
   27       11.901912   0.000000
   28       12.173496   0.000000
 
  0.2222222E+00  0.2983911E-16 -0.1387779E-16  0.2743484E-02
    1      -30.792441   1.000000
    2      -30.792441   1.000000
    3      -30.791565   1.000000
    4      -30.791565   1.000000
    5      -24.102821   1.000000
    6      -24.102821   1.000000
    7      -24.100640   1.000000
    8      -24.100639   1.000000
    9      -24.098092   1.000000
   10      -24.098092   1.000000
   11      -20.480857   1.000000
   12      -20.480857   1.000000
   13       -7.432995   1.000000
   14       -7.432993   1.000000
   15        1.423942   1.000000
   16        1.423945   1.000000
   17        3.328962   1.001197
   18        3.328963   1.001197
   19        5.485051  -0.000000
   20        5.485058  -0.000000
   21        9.393895   0.000000
   22        9.393899   0.000000
   23       10.560012   0.000000
   24       10.560013   0.000000
   25       10.916619   0.000000
   26       10.916662   0.000000
   27       11.365273   0.000000
   28       11.367209   0.000000
 
  0.3333333E+00  0.3125301E-17 -0.1387779E-16  0.2743484E-02
    1      -30.792233   1.000000
    2      -30.792233   1.000000
    3      -30.790669   1.000000
    4      -30.790669   1.000000
    5      -24.103041   1.000000
    6      -24.103041   1.000000
    7      -24.098672   1.000000
    8      -24.098672   1.000000
    9      -24.095702   1.000000
   10      -24.095702   1.000000
   11      -20.446625   1.000000
   12      -20.446624   1.000000
   13       -7.547770   1.000000
   14       -7.547768   1.000000
   15        0.784998   1.000000
   16        0.785001   1.000000
   17        3.151076   1.000000
   18        3.151077   1.000000
   19        5.806931  -0.000000
   20        5.806935  -0.000000
   21        9.929995   0.000000
   22        9.930015   0.000000
   23       10.196917   0.000000
   24       10.196918   0.000000
   25       10.613086   0.000000
   26       10.613089   0.000000
   27       10.871431   0.000000
   28       10.871446   0.000000
 
  0.4444444E+00  0.5967822E-16 -0.2775558E-16  0.2743484E-02
    1      -30.792075   1.000000
    2      -30.792075   1.000000
    3      -30.790030   1.000000
    4      -30.790029   1.000000
    5      -24.103392   1.000000
    6      -24.103392   1.000000
    7      -24.097183   1.000000
    8      -24.097182   1.000000
    9      -24.094135   1.000000
   10      -24.094135   1.000000
   11      -20.423910   1.000000
   12      -20.423910   1.000000
   13       -7.622833   1.000000
   14       -7.622831   1.000000
   15        0.457140   1.000000
   16        0.457142   1.000000
   17        3.042865   1.000000
   18        3.042866   1.000000
   19        5.823479  -0.000000
   20        5.823482  -0.000000
   21        9.943890   0.000000
   22        9.943891   0.000000
   23       10.097869   0.000000
   24       10.097910   0.000000
   25       10.337285   0.000000
   26       10.337286   0.000000
   27       11.433524   0.000000
   28       11.433526   0.000000
 
 -0.1925930E-33  0.1111111E+00  0.6938894E-17  0.2743484E-02
    1      -30.792619   1.000000
    2      -30.792618   1.000000
    3      -30.792391   1.000000
    4      -30.792391   1.000000
    5      -24.103890   1.000000
    6      -24.103890   1.000000
    7      -24.101121   1.000000
    8      -24.101121   1.000000
    9      -24.100192   1.000000
   10      -24.100192   1.000000
   11      -20.510647   1.000000
   12      -20.510647   1.000000
   13       -7.332507   1.000000
   14       -7.332505   1.000000
   15        2.332660   1.000000
   16        2.332665   1.000000
   17        3.500096   0.985104
   18        3.500097   0.985102
   19        4.606207  -0.000000
   20        4.606214  -0.000000
   21        9.641883   0.000000
   22        9.641884   0.000000
   23       10.583943   0.000000
   24       10.583945   0.000000
   25       10.865423   0.000000
   26       10.865441   0.000000
   27       11.898035   0.000000
   28       12.097382   0.000000
 
  0.1111111E+00  0.1111111E+00  0.1387779E-16  0.2743484E-02
    1      -30.792505   1.000000
    2      -30.792505   1.000000
    3      -30.792354   1.000000
    4      -30.792354   1.000000
    5      -24.103760   1.000000
    6      -24.103760   1.000000
    7      -24.100643   1.000000
    8      -24.100643   1.000000
    9      -24.100318   1.000000
   10      -24.100317   1.000000
   11      -20.506749   1.000000
   12      -20.506748   1.000000
   13       -7.345206   1.000000
   14       -7.345204   1.000000
   15        2.227377   1.000000
   16        2.227382   1.000000
   17        3.327957   1.001144
   18        3.327958   1.001144
   19        4.896106  -0.000000
   20        4.896113  -0.000000
   21        9.353314   0.000000
   22        9.353315   0.000000
   23       10.601168   0.000000
   24       10.601170   0.000000
   25       11.170025   0.000000
   26       11.170151   0.000000
   27       11.245524   0.000000
   28       11.245619   0.000000
 
  0.2222222E+00  0.1111111E+00  0.0000000E+00  0.2743484E-02
    1      -30.792338   1.000000
    2      -30.792338   1.000000
    3      -30.791744   1.000000
    4      -30.791744   1.000000
    5      -24.102791   1.000000
    6      -24.102791   1.000000
    7      -24.100590   1.000000
    8      -24.100590   1.000000
    9      -24.098424   1.000000
   10      -24.098424   1.000000
   11      -20.483044   1.000000
   12      -20.483044   1.000000
   13       -7.424129   1.000000
   14       -7.424127   1.000000
   15        1.554423   1.000000
   16        1.554427   1.000000
   17        3.113746   1.000000
   18        3.113747   1.000000
   19        5.704843  -0.000000
   20        5.704852  -0.000000
   21        8.973026   0.000000
   22        8.973027   0.000000
   23       10.095733   0.000000
   24       10.095747   0.000000
   25       11.015816   0.000000
   26       11.015818   0.000000
   27       11.677238   0.000000
   28       11.677373   0.000000
 
  0.3333333E+00  0.1111111E+00 -0.2775558E-16  0.2743484E-02
    1      -30.792115   1.000000
    2      -30.792115   1.000000
    3      -30.790885   1.000000
    4      -30.790885   1.000000
    5      -24.102410   1.000000
    6      -24.102410   1.000000
    7      -24.099342   1.000000
    8      -24.099342   1.000000
    9      -24.096077   1.000000
   10      -24.096077   1.000000
   11      -20.450268   1.000000
   12      -20.450268   1.000000
   13       -7.532253   1.000000
   14       -7.532251   1.000000
   15        0.927999   1.000000
   16        0.928002   1.000000
   17        2.881431   1.000000
   18        2.881432   1.000000
   19        6.212100  -0.000000
   20        6.212107  -0.000000
   21        9.239807   0.000000
   22        9.239820   0.000000
   23        9.520003   0.000000
   24        9.520012   0.000000
   25       10.899668   0.000000
   26       10.899672   0.000000
   27       12.181956   0.000000
   28       12.304037   0.000000
 
  0.4444444E+00  0.1111111E+00 -0.2775558E-16  0.2743484E-02
    1      -30.791933   1.000000
    2      -30.791933   1.000000
    3      -30.790185   1.000000
    4      -30.790185   1.000000
    5      -24.102656   1.000000
    6      -24.102656   1.000000
    7      -24.097485   1.000000
    8      -24.097485   1.000000
    9      -24.094510   1.000000
   10      -24.094510   1.000000
   11      -20.423691   1.000000
   12      -20.423691   1.000000
   13       -7.618887   1.000000
   14       -7.618885   1.000000
   15        0.537470   1.000000
   16        0.537472   1.000000
   17        2.702643   1.000000
   18        2.702643   1.000000
   19        6.321024   0.000000
   20        6.321028   0.000000
   21        8.978346   0.000000
   22        8.978369   0.000000
   23       10.249002   0.000000
   24       10.249006   0.000000
   25       10.769455   0.000000
   26       10.769458   0.000000
   27       11.911663   0.000000
   28       11.911825   0.000000
 
 -0.4444444E+00  0.1111111E+00  0.2775558E-16  0.2743484E-02
    1      -30.791883   1.000000
    2      -30.791883   1.000000
    3      -30.790004   1.000000
    4      -30.790004   1.000000
    5      -24.102727   1.000000
    6      -24.102727   1.000000
    7      -24.096811   1.000000
    8      -24.096811   1.000000
    9      -24.094223   1.000000
   10      -24.094223   1.000000
   11      -20.416120   1.000000
   12      -20.416120   1.000000
   13       -7.643505   1.000000
   14       -7.643503   1.000000
   15        0.435993   1.000000
   16        0.435995   1.000000
   17        2.650756   1.000000
   18        2.650757   1.000000
   19        6.340649   0.000000
   20        6.340651   0.000000
   21        8.906929   0.000000
   22        8.906953   0.000000
   23       10.281179   0.000000
   24       10.281179   0.000000
   25       11.089687   0.000000
   26       11.089699   0.000000
   27       12.058188   0.000000
   28       12.058327   0.000000
 
 -0.3333333E+00  0.1111111E+00  0.1387779E-16  0.2743484E-02
    1      -30.791982   1.000000
    2      -30.791982   1.000000
    3      -30.790375   1.000000
    4      -30.790375   1.000000
    5      -24.102466   1.000000
    6      -24.102466   1.000000
    7      -24.098024   1.000000
    8      -24.098023   1.000000
    9      -24.095060   1.000000
   10      -24.095059   1.000000
   11      -20.431210   1.000000
   12      -20.431209   1.000000
   13       -7.594650   1.000000
   14       -7.594648   1.000000
   15        0.633563   1.000000
   16        0.633565   1.000000
   17        2.749928   1.000000
   18        2.749929   1.000000
   19        6.344013   0.000000
   20        6.344016   0.000000
   21        9.132161   0.000000
   22        9.132183   0.000000
   23       10.172700   0.000000
   24       10.172708   0.000000
   25       10.523087   0.000000
   26       10.523089   0.000000
   27       12.149928   0.000000
   28       12.182598   0.000000
 
 -0.2222222E+00  0.1111111E+00  0.1387779E-16  0.2743484E-02
    1      -30.792206   1.000000
    2      -30.792206   1.000000
    3      -30.791157   1.000000
    4      -30.791157   1.000000
    5      -24.102099   1.000000
    6      -24.102099   1.000000
    7      -24.100237   1.000000
    8      -24.100237   1.000000
    9      -24.096871   1.000000
   10      -24.096871   1.000000
   11      -20.461648   1.000000
   12      -20.461647   1.000000
   13       -7.495294   1.000000
   14       -7.495292   1.000000
   15        1.104665   1.000000
   16        1.104668   1.000000
   17        2.977974   1.000000
   18        2.977975   1.000000
   19        6.105501  -0.000000
   20        6.105507  -0.000000
   21        9.220949   0.000000
   22        9.220953   0.000000
   23        9.874378   0.000000
   24        9.874396   0.000000
   25       10.748645   0.000000
   26       10.748648   0.000000
   27       11.681992   0.000000
   28       11.682192   0.000000
 
 -0.1111111E+00  0.1111111E+00 -0.4278722E-17  0.2743484E-02
    1      -30.792456   1.000000
    2      -30.792456   1.000000
    3      -30.791950   1.000000
    4      -30.791949   1.000000
    5      -24.102904   1.000000
    6      -24.102903   1.000000
    7      -24.101131   1.000000
    8      -24.101131   1.000000
    9      -24.098982   1.000000
   10      -24.098982   1.000000
   11      -20.492938   1.000000
   12      -20.492938   1.000000
   13       -7.391815   1.000000
   14       -7.391813   1.000000
   15        1.760933   1.000000
   16        1.760937   1.000000
   17        3.274058   1.000074
   18        3.274059   1.000074
   19        5.360760  -0.000000
   20        5.360768  -0.000000
   21        9.237695   0.000000
   22        9.237696   0.000000
   23       10.466449   0.000000
   24       10.466457   0.000000
   25       10.963486   0.000000
   26       10.963511   0.000000
   27       11.509015   0.000000
   28       11.516738   0.000000
 
  0.3851860E-33  0.2222222E+00  0.1387779E-16  0.2743484E-02
    1      -30.792441   1.000000
    2      -30.792441   1.000000
    3      -30.791565   1.000000
    4      -30.791565   1.000000
    5      -24.102821   1.000000
    6      -24.102821   1.000000
    7      -24.100640   1.000000
    8      -24.100639   1.000000
    9      -24.098092   1.000000
   10      -24.098091   1.000000
   11      -20.480857   1.000000
   12      -20.480857   1.000000
   13       -7.432995   1.000000
   14       -7.432993   1.000000
   15        1.423941   1.000000
   16        1.423945   1.000000
   17        3.328962   1.001197
   18        3.328963   1.001197
   19        5.485051  -0.000000
   20        5.485058  -0.000000
   21        9.393895   0.000000
   22        9.393899   0.000000
   23       10.560011   0.000000
   24       10.560011   0.000000
   25       10.916604   0.000000
   26       10.916668   0.000000
   27       11.366023   0.000000
   28       11.370640   0.000000
 
  0.1111111E+00  0.2222222E+00 -0.1387779E-16  0.2743484E-02
    1      -30.792338   1.000000
    2      -30.792338   1.000000
    3      -30.791744   1.000000
    4      -30.791743   1.000000
    5      -24.102791   1.000000
    6      -24.102791   1.000000
    7      -24.100590   1.000000
    8      -24.100590   1.000000
    9      -24.098424   1.000000
   10      -24.098424   1.000000
   11      -20.483044   1.000000
   12      -20.483044   1.000000
   13       -7.424129   1.000000
   14       -7.424127   1.000000
   15        1.554423   1.000000
   16        1.554427   1.000000
   17        3.113746   1.000000
   18        3.113747   1.000000
   19        5.704843  -0.000000
   20        5.704852  -0.000000
   21        8.973026   0.000000
   22        8.973027   0.000000
   23       10.095733   0.000000
   24       10.095747   0.000000
   25       11.015815   0.000000
   26       11.015818   0.000000
   27       11.677233   0.000000
   28       11.677330   0.000000
 
  0.2222222E+00  0.2222222E+00  0.2775558E-16  0.2743484E-02
    1      -30.792084   1.000000
    2      -30.792084   1.000000
    3      -30.791490   1.000000
    4      -30.791490   1.000000
    5      -24.102794   1.000000
    6      -24.102793   1.000000
    7      -24.099701   1.000000
    8      -24.099701   1.000000
    9      -24.097359   1.000000
   10      -24.097359   1.000000
   11      -20.467224   1.000000
   12      -20.467223   1.000000
   13       -7.473946   1.000000
   14       -7.473944   1.000000
   15        1.331785   1.000000
   16        1.331788   1.000000
   17        2.798765   1.000000
   18        2.798765   1.000000
   19        6.225734  -0.000000
   20        6.225746  -0.000000
   21        8.380790   0.000000
   22        8.380791   0.000000
   23        9.547077   0.000000
   24        9.547091   0.000000
   25       11.264622   0.000000
   26       11.264623   0.000000
   27       12.194873   0.000000
   28       12.194874   0.000000
 
  0.3333333E+00  0.2222222E+00 -0.2775558E-16  0.2743484E-02
    1      -30.791811   1.000000
    2      -30.791811   1.000000
    3      -30.790864   1.000000
    4      -30.790864   1.000000
    5      -24.102235   1.000000
    6      -24.102234   1.000000
    7      -24.099199   1.000000
    8      -24.099199   1.000000
    9      -24.095182   1.000000
   10      -24.095181   1.000000
   11      -20.440543   1.000000
   12      -20.440543   1.000000
   13       -7.558368   1.000000
   14       -7.558366   1.000000
   15        0.935723   1.000000
   16        0.935725   1.000000
   17        2.504164   1.000000
   18        2.504165   1.000000
   19        6.623819   0.000000
   20        6.623835   0.000000
   21        8.256469   0.000000
   22        8.256470   0.000000
   23        9.188849   0.000000
   24        9.188859   0.000000
   25       11.561216   0.000000
   26       11.561217   0.000000
   27       12.724398   0.000000
   28       12.724416   0.000000
 
  0.4444444E+00  0.2222222E+00 -0.5551115E-16  0.2743484E-02
    1      -30.791551   1.000000
    2      -30.791551   1.000000
    3      -30.790268   1.000000
    4      -30.790268   1.000000
    5      -24.101671   1.000000
    6      -24.101671   1.000000
    7      -24.098051   1.000000
    8      -24.098051   1.000000
    9      -24.093874   1.000000
   10      -24.093874   1.000000
   11      -20.415403   1.000000
   12      -20.415403   1.000000
   13       -7.636730   1.000000
   14       -7.636728   1.000000
   15        0.622110   1.000000
   16        0.622111   1.000000
   17        2.201422   1.000000
   18        2.201422   1.000000
   19        6.827620   0.000000
   20        6.827634   0.000000
   21        8.393054   0.000000
   22        8.393067   0.000000
   23        9.467199   0.000000
   24        9.467201   0.000000
   25       11.382683   0.000000
   26       11.382685   0.000000
   27       13.026390   0.000000
   28       13.027855   0.000000
 
 -0.4444444E+00  0.2222222E+00  0.2775558E-16  0.2743484E-02
    1      -30.791412   1.000000
    2      -30.791412   1.000000
    3      -30.790010   1.000000
    4      -30.790010   1.000000
    5      -24.101386   1.000000
    6      -24.101386   1.000000
    7      -24.096595   1.000000
    8      -24.096595   1.000000
    9      -24.094238   1.000000
   10      -24.094238   1.000000
   11      -20.403759   1.000000
   12      -20.403759   1.000000
   13       -7.672590   1.000000
   14       -7.672588   1.000000
   15        0.484897   1.000000
   16        0.484898   1.000000
   17        2.038846   1.000000
   18        2.038847   1.000000
   19        7.011559   0.000000
   20        7.011569   0.000000
   21        8.308427   0.000000
   22        8.308447   0.000000
   23       10.442731   0.000000
   24       10.442735   0.000000
   25       11.210614   0.000000
   26       11.210616   0.000000
   27       12.419990   0.000000
   28       12.420001   0.000000
 
 -0.3333333E+00  0.2222222E+00  0.1387779E-16  0.2743484E-02
    1      -30.791515   1.000000
    2      -30.791515   1.000000
    3      -30.790191   1.000000
    4      -30.790191   1.000000
    5      -24.101137   1.000000
    6      -24.101137   1.000000
    7      -24.096873   1.000000
    8      -24.096873   1.000000
    9      -24.095111   1.000000
   10      -24.095111   1.000000
   11      -20.411277   1.000000
   12      -20.411277   1.000000
   13       -7.650455   1.000000
   14       -7.650453   1.000000
   15        0.542536   1.000000
   16        0.542538   1.000000
   17        2.122533   1.000000
   18        2.122534   1.000000
   19        7.208865   0.000000
   20        7.208869   0.000000
   21        8.324673   0.000000
   22        8.324698   0.000000
   23       10.227560   0.000000
   24       10.227567   0.000000
   25       11.185078   0.000000
   26       11.185087   0.000000
   27       12.604577   0.000000
   28       12.757222   0.000000
 
 -0.2222222E+00  0.2222222E+00  0.6500959E-17  0.2743484E-02
    1      -30.791820   1.000000
    2      -30.791820   1.000000
    3      -30.790644   1.000000
    4      -30.790644   1.000000
    5      -24.101043   1.000000
    6      -24.101043   1.000000
    7      -24.099242   1.000000
    8      -24.099241   1.000000
    9      -24.095595   1.000000
   10      -24.095595   1.000000
   11      -20.434204   1.000000
   12      -20.434204   1.000000
   13       -7.580879   1.000000
   14       -7.580877   1.000000
   15        0.772292   1.000000
   16        0.772294   1.000000
   17        2.464861   1.000000
   18        2.464861   1.000000
   19        6.957730   0.000000
   20        6.957735   0.000000
   21        8.690370   0.000000
   22        8.690389   0.000000
   23        9.603444   0.000000
   24        9.603454   0.000000
   25       10.968691   0.000000
   26       10.968697   0.000000
   27       11.752460   0.000000
   28       11.752466   0.000000
 
 -0.1111111E+00  0.2222222E+00  0.0000000E+00  0.2743484E-02
    1      -30.792206   1.000000
    2      -30.792206   1.000000
    3      -30.791157   1.000000
    4      -30.791157   1.000000
    5      -24.102099   1.000000
    6      -24.102099   1.000000
    7      -24.100237   1.000000
    8      -24.100236   1.000000
    9      -24.096871   1.000000
   10      -24.096871   1.000000
   11      -20.461648   1.000000
   12      -20.461647   1.000000
   13       -7.495294   1.000000
   14       -7.495292   1.000000
   15        1.104665   1.000000
   16        1.104668   1.000000
   17        2.977974   1.000000
   18        2.977975   1.000000
   19        6.105500  -0.000000
   20        6.105507  -0.000000
   21        9.220949   0.000000
   22        9.220953   0.000000
   23        9.874378   0.000000
   24        9.874396   0.000000
   25       10.748645   0.000000
   26       10.748648   0.000000
   27       11.682009   0.000000
   28       11.682431   0.000000
 
 -0.3851860E-33  0.3333333E+00  0.0000000E+00  0.2743484E-02
    1      -30.792234   1.000000
    2      -30.792233   1.000000
    3      -30.790669   1.000000
    4      -30.790669   1.000000
    5      -24.103042   1.000000
    6      -24.103041   1.000000
    7      -24.098672   1.000000
    8      -24.098671   1.000000
    9      -24.095702   1.000000
   10      -24.095702   1.000000
   11      -20.446625   1.000000
   12      -20.446624   1.000000
   13       -7.547770   1.000000
   14       -7.547768   1.000000
   15        0.784998   1.000000
   16        0.785001   1.000000
   17        3.151076   1.000000
   18        3.151077   1.000000
   19        5.806931  -0.000000
   20        5.806935  -0.000000
   21        9.929995   0.000000
   22        9.930015   0.000000
   23       10.196917   0.000000
   24       10.196918   0.000000
   25       10.613086   0.000000
   26       10.613090   0.000000
   27       10.871431   0.000000
   28       10.871447   0.000000
 
  0.1111111E+00  0.3333333E+00  0.0000000E+00  0.2743484E-02
    1      -30.792116   1.000000
    2      -30.792116   1.000000
    3      -30.790885   1.000000
    4      -30.790885   1.000000
    5      -24.102410   1.000000
    6      -24.102410   1.000000
    7      -24.099342   1.000000
    8      -24.099341   1.000000
    9      -24.096077   1.000000
   10      -24.096077   1.000000
   11      -20.450268   1.000000
   12      -20.450268   1.000000
   13       -7.532253   1.000000
   14       -7.532251   1.000000
   15        0.927999   1.000000
   16        0.928002   1.000000
   17        2.881431   1.000000
   18        2.881432   1.000000
   19        6.212100  -0.000000
   20        6.212107  -0.000000
   21        9.239807   0.000000
   22        9.239820   0.000000
   23        9.520003   0.000000
   24        9.520011   0.000000
   25       10.899666   0.000000
   26       10.899671   0.000000
   27       12.180330   0.000000
   28       12.402714   0.000000
 
  0.2222222E+00  0.3333333E+00  0.0000000E+00  0.2743484E-02
    1      -30.791812   1.000000
    2      -30.791811   1.000000
    3      -30.790864   1.000000
    4      -30.790864   1.000000
    5      -24.102235   1.000000
    6      -24.102234   1.000000
    7      -24.099199   1.000000
    8      -24.099199   1.000000
    9      -24.095182   1.000000
   10      -24.095181   1.000000
   11      -20.440543   1.000000
   12      -20.440543   1.000000
   13       -7.558368   1.000000
   14       -7.558366   1.000000
   15        0.935723   1.000000
   16        0.935725   1.000000
   17        2.504164   1.000000
   18        2.504165   1.000000
   19        6.623819   0.000000
   20        6.623835   0.000000
   21        8.256469   0.000000
   22        8.256471   0.000000
   23        9.188848   0.000000
   24        9.188859   0.000000
   25       11.561216   0.000000
   26       11.561217   0.000000
   27       12.724392   0.000000
   28       12.724405   0.000000
 
  0.3333333E+00  0.3333333E+00 -0.5551115E-16  0.2743484E-02
    1      -30.791560   1.000000
    2      -30.791560   1.000000
    3      -30.790480   1.000000
    4      -30.790480   1.000000
    5      -24.102451   1.000000
    6      -24.102451   1.000000
    7      -24.098662   1.000000
    8      -24.098662   1.000000
    9      -24.093224   1.000000
   10      -24.093224   1.000000
   11      -20.421806   1.000000
   12      -20.421806   1.000000
   13       -7.614061   1.000000
   14       -7.614059   1.000000
   15        0.761046   1.000000
   16        0.761047   1.000000
   17        2.299972   1.000000
   18        2.299973   1.000000
   19        6.445515   0.000000
   20        6.445539   0.000000
   21        7.729337   0.000000
   22        7.729337   0.000000
   23        9.518949   0.000000
   24        9.518954   0.000000
   25       12.290493   0.000000
   26       12.290494   0.000000
   27       13.382078   0.000000
   28       13.382219   0.000000
 
  0.4444444E+00  0.3333333E+00  0.5551115E-16  0.2743484E-02
    1      -30.791320   1.000000
    2      -30.791320   1.000000
    3      -30.790105   1.000000
    4      -30.790105   1.000000
    5      -24.101949   1.000000
    6      -24.101948   1.000000
    7      -24.098178   1.000000
    8      -24.098178   1.000000
    9      -24.091935   1.000000
   10      -24.091935   1.000000
   11      -20.402890   1.000000
   12      -20.402890   1.000000
   13       -7.670630   1.000000
   14       -7.670628   1.000000
   15        0.590059   1.000000
   16        0.590060   1.000000
   17        2.022508   1.000000
   18        2.022508   1.000000
   19        6.421914   0.000000
   20        6.421941   0.000000
   21        7.767758   0.000000
   22        7.767758   0.000000
   23        9.778323   0.000000
   24        9.778327   0.000000
   25       12.505239   0.000000
   26       12.505241   0.000000
   27       13.753943   0.000000
   28       13.754110   0.000000
 
 -0.4444444E+00  0.3333333E+00  0.2081668E-16  0.2743484E-02
    1      -30.791087   1.000000
    2      -30.791087   1.000000
    3      -30.789966   1.000000
    4      -30.789966   1.000000
    5      -24.101046   1.000000
    6      -24.101045   1.000000
    7      -24.097383   1.000000
    8      -24.097383   1.000000
    9      -24.092411   1.000000
   10      -24.092411   1.000000
   11      -20.392635   1.000000
   12      -20.392635   1.000000
   13       -7.700368   1.000000
   14       -7.700366   1.000000
   15        0.530353   1.000000
   16        0.530353   1.000000
   17        1.726543   1.000000
   18        1.726544   1.000000
   19        6.677959   0.000000
   20        6.677982   0.000000
   21        8.238499   0.000000
   22        8.238505   0.000000
   23       10.083744   0.000000
   24       10.083745   0.000000
   25       11.949315   0.000000
   26       11.949320   0.000000
   27       13.031066   0.000000
   28       13.031436   0.000000
 
 -0.3333333E+00  0.3333333E+00  0.3664530E-16  0.2743484E-02
    1      -30.791106   1.000000
    2      -30.791106   1.000000
    3      -30.790037   1.000000
    4      -30.790037   1.000000
    5      -24.100602   1.000000
    6      -24.100602   1.000000
    7      -24.096228   1.000000
    8      -24.096228   1.000000
    9      -24.094423   1.000000
   10      -24.094423   1.000000
   11      -20.395958   1.000000
   12      -20.395958   1.000000
   13       -7.691584   1.000000
   14       -7.691582   1.000000
   15        0.525257   1.000000
   16        0.525257   1.000000
   17        1.722053   1.000000
   18        1.722055   1.000000
   19        7.089972   0.000000
   20        7.089989   0.000000
   21        8.414031   0.000000
   22        8.414044   0.000000
   23       10.905048   0.000000
   24       10.905057   0.000000
   25       11.106262   0.000000
   26       11.106262   0.000000
   27       12.075755   0.000000
   28       12.076124   0.000000
 
 -0.2222222E+00  0.3333333E+00  0.1387779E-16  0.2743484E-02
    1      -30.791516   1.000000
    2      -30.791515   1.000000
    3      -30.790191   1.000000
    4      -30.790191   1.000000