   1   1   0   0
  0.5764366E+02  0.4335996E-09  0.4335996E-09  0.4335996E-09  0.1000000E-15
  1.000000000000000E-004
  CAR 
 Og_FCC                                  
     59.01102747    -19.70583400  301     -3.10969571      1.00000000
    -19.706  0.0000E+00  0.0000E+00
    -19.443  0.0000E+00  0.0000E+00
    -19.181  0.0000E+00  0.0000E+00
    -18.919  0.0000E+00  0.0000E+00
    -18.656  0.0000E+00  0.0000E+00
    -18.394  0.0000E+00  0.0000E+00
    -18.131  0.0000E+00  0.0000E+00
    -17.869  0.0000E+00  0.0000E+00
    -17.607  0.0000E+00  0.0000E+00
    -17.344  0.0000E+00  0.0000E+00
    -17.082  0.0000E+00  0.0000E+00
    -16.820  0.0000E+00  0.0000E+00
    -16.557  0.0000E+00  0.0000E+00
    -16.295  0.0000E+00  0.0000E+00
    -16.032  0.0000E+00  0.1389E+00
    -15.770  0.0000E+00  0.2000E+01
    -15.508  0.0000E+00  0.2000E+01
    -15.245  0.0000E+00  0.2000E+01
    -14.983  0.0000E+00  0.2000E+01
    -14.720  0.0000E+00  0.2000E+01
    -14.458  0.0000E+00  0.2000E+01
    -14.196  0.0000E+00  0.2000E+01
    -13.933  0.0000E+00  0.2000E+01
    -13.671  0.0000E+00  0.2000E+01
    -13.408  0.0000E+00  0.2000E+01
    -13.146  0.0000E+00  0.2000E+01
    -12.884  0.0000E+00  0.2000E+01
    -12.621  0.0000E+00  0.2000E+01
    -12.359  0.0000E+00  0.2000E+01
    -12.097  0.0000E+00  0.2000E+01
    -11.834  0.0000E+00  0.2000E+01
    -11.572  0.0000E+00  0.2000E+01
    -11.309  0.0000E+00  0.2000E+01
    -11.047  0.0000E+00  0.2000E+01
    -10.785  0.0000E+00  0.2000E+01
    -10.522  0.0000E+00  0.2000E+01
    -10.260  0.0000E+00  0.2000E+01
     -9.997  0.0000E+00  0.2000E+01
     -9.735  0.0000E+00  0.2000E+01
     -9.473  0.0000E+00  0.2000E+01
     -9.210  0.0000E+00  0.2000E+01
     -8.948  0.0000E+00  0.2000E+01
     -8.685  0.0000E+00  0.2000E+01
     -8.423  0.0000E+00  0.2000E+01
     -8.161  0.0000E+00  0.2000E+01
     -7.898  0.0000E+00  0.2000E+01
     -7.636  0.0000E+00  0.2000E+01
     -7.374  0.0000E+00  0.2000E+01
     -7.111  0.0000E+00  0.2000E+01
     -6.849  0.0000E+00  0.2000E+01
     -6.586  0.0000E+00  0.2000E+01
     -6.324  0.0000E+00  0.2000E+01
     -6.062  0.0000E+00  0.2000E+01
     -5.799  0.0000E+00  0.2000E+01
     -5.537  0.0000E+00  0.2065E+01
     -5.274  0.0000E+00  0.3528E+01
     -5.012  0.0000E+00  0.3861E+01
     -4.750  0.0000E+00  0.3991E+01
     -4.487  0.0000E+00  0.4111E+01
     -4.225  0.0000E+00  0.5361E+01
     -3.962  0.0000E+00  0.5861E+01
     -3.700  0.0000E+00  0.6833E+01
     -3.438  0.0000E+00  0.7778E+01
     -3.175  0.0000E+00  0.8000E+01
     -2.913  0.0000E+00  0.8000E+01
     -2.651  0.0000E+00  0.8000E+01
     -2.388  0.0000E+00  0.8000E+01
     -2.126  0.0000E+00  0.8000E+01
     -1.863  0.0000E+00  0.8000E+01
     -1.601  0.0000E+00  0.8000E+01
     -1.339  0.0000E+00  0.8000E+01
     -1.076  0.0000E+00  0.8000E+01
     -0.814  0.0000E+00  0.8000E+01
     -0.551  0.0000E+00  0.8000E+01
     -0.289  0.0000E+00  0.8000E+01
     -0.027  0.0000E+00  0.8000E+01
      0.236  0.0000E+00  0.8000E+01
      0.498  0.0000E+00  0.8000E+01
      0.761  0.0000E+00  0.8000E+01
      1.023  0.0000E+00  0.8000E+01
      1.285  0.0000E+00  0.8000E+01
      1.548  0.0000E+00  0.8000E+01
      1.810  0.0000E+00  0.8000E+01
      2.072  0.0000E+00  0.8000E+01
      2.335  0.0000E+00  0.8000E+01
      2.597  0.0000E+00  0.8009E+01
      2.860  0.0000E+00  0.8009E+01
      3.122  0.0000E+00  0.8009E+01
      3.384  0.0000E+00  0.8083E+01
      3.647  0.0000E+00  0.8167E+01
      3.909  0.0000E+00  0.8167E+01
      4.172  0.0000E+00  0.8667E+01
      4.434  0.0000E+00  0.9000E+01
      4.696  0.0000E+00  0.9361E+01
      4.959  0.0000E+00  0.9861E+01
      5.221  0.0000E+00  0.1031E+02
      5.484  0.0000E+00  0.1042E+02
      5.746  0.0000E+00  0.1108E+02
      6.008  0.4235E+00  0.1181E+02
      6.271  0.0000E+00  0.1203E+02
      6.533  0.0000E+00  0.1232E+02
      6.796  0.0000E+00  0.1303E+02
      7.058  0.6026E-02  0.1331E+02
      7.320  0.4032E-09  0.1391E+02
      7.583  0.0000E+00  0.1461E+02
      7.845  0.0000E+00  0.1517E+02
      8.107  0.0000E+00  0.1539E+02
      8.370  0.0000E+00  0.1561E+02
      8.632  0.0000E+00  0.1583E+02
      8.895  0.8956E-02  0.1601E+02
      9.157  0.0000E+00  0.1651E+02
      9.419  0.0000E+00  0.1703E+02
      9.682  0.0000E+00  0.1723E+02
      9.944  0.0000E+00  0.1780E+02
     10.207  0.0000E+00  0.1791E+02
     10.469  0.0000E+00  0.1857E+02
     10.731  0.0000E+00  0.1870E+02
     10.994  0.0000E+00  0.1870E+02
     11.256  0.8469E+00  0.1928E+02
     11.519  0.8469E+00  0.2031E+02
     11.781  0.0000E+00  0.2066E+02
     12.043  0.0000E+00  0.2141E+02
     12.306  0.0000E+00  0.2185E+02
     12.568  0.8469E+00  0.2263E+02
     12.830  0.0000E+00  0.2283E+02
     13.093  0.0000E+00  0.2331E+02
     13.355  0.0000E+00  0.2394E+02
     13.618  0.0000E+00  0.2394E+02
     13.880  0.8387E-01  0.2452E+02
     14.142  0.0000E+00  0.2497E+02
     14.405  0.1142E-11  0.2525E+02
     14.667  0.0000E+00  0.2547E+02
     14.930  0.0000E+00  0.2642E+02
     15.192  0.0000E+00  0.2723E+02
     15.454  0.1244E-04  0.2779E+02
     15.717  0.0000E+00  0.2875E+02
     15.979  0.0000E+00  0.2921E+02
     16.242  0.0000E+00  0.2990E+02
     16.504  0.0000E+00  0.3042E+02
     16.766  0.0000E+00  0.3142E+02
     17.029  0.0000E+00  0.3219E+02
     17.291  0.0000E+00  0.3281E+02
     17.553  0.0000E+00  0.3331E+02
     17.816  0.1412E+00  0.3406E+02
     18.078  0.0000E+00  0.3459E+02
     18.341  0.0000E+00  0.3481E+02
     18.603  0.0000E+00  0.3570E+02
     18.865  0.0000E+00  0.3637E+02
     19.128  0.0000E+00  0.3670E+02
     19.390  0.4680E-01  0.3808E+02
     19.653  0.0000E+00  0.3873E+02
     19.915  0.0000E+00  0.3921E+02
     20.177  0.0000E+00  0.3980E+02
     20.440  0.0000E+00  0.4002E+02
     20.702  0.2117E+00  0.4094E+02
     20.965  0.0000E+00  0.4187E+02
     21.227  0.0000E+00  0.4220E+02
     21.489  0.1441E+00  0.4291E+02
     21.752  0.4172E+00  0.4398E+02
     22.014  0.8469E+00  0.4494E+02
     22.276  0.0000E+00  0.4542E+02
     22.539  0.4235E+00  0.4644E+02
     22.801  0.0000E+00  0.4740E+02
     23.064  0.0000E+00  0.4794E+02
     23.326  0.0000E+00  0.4800E+02
     23.588  0.0000E+00  0.4839E+02
     23.851  0.0000E+00  0.4894E+02
     24.113  0.0000E+00  0.4905E+02
     24.376  0.0000E+00  0.4957E+02
     24.638  0.0000E+00  0.5113E+02
     24.900  0.2801E+00  0.5146E+02
     25.163  0.0000E+00  0.5171E+02
     25.425  0.0000E+00  0.5258E+02
     25.688  0.0000E+00  0.5314E+02
     25.950  0.0000E+00  0.5408E+02
     26.212  0.8697E-15  0.5443E+02
     26.475  0.1059E+00  0.5556E+02
     26.737  0.0000E+00  0.5681E+02
     27.000  0.0000E+00  0.5770E+02
     27.262  0.0000E+00  0.5798E+02
     27.524  0.0000E+00  0.5854E+02
     27.787  0.0000E+00  0.5906E+02
     28.049  0.0000E+00  0.5981E+02
     28.311  0.8466E+00  0.6048E+02
     28.574  0.0000E+00  0.6081E+02
     28.836  0.0000E+00  0.6118E+02
     29.099  0.2895E-10  0.6163E+02
     29.361  0.0000E+00  0.6230E+02
     29.623  0.0000E+00  0.6296E+02
     29.886  0.0000E+00  0.6385E+02
     30.148  0.0000E+00  0.6435E+02
     30.411  0.0000E+00  0.6513E+02
     30.673  0.0000E+00  0.6606E+02
     30.935  0.0000E+00  0.6624E+02
     31.198  0.6346E-05  0.6724E+02
     31.460  0.0000E+00  0.6797E+02
     31.723  0.0000E+00  0.6839E+02
     31.985  0.0000E+00  0.6950E+02
     32.247  0.0000E+00  0.7020E+02
     32.510  0.7861E+00  0.7101E+02
     32.772  0.1087E+00  0.7130E+02
     33.034  0.0000E+00  0.7214E+02
     33.297  0.0000E+00  0.7271E+02
     33.559  0.8469E+00  0.7396E+02
     33.822  0.0000E+00  0.7407E+02
     34.084  0.1270E+01  0.7507E+02
     34.346  0.2117E+00  0.7607E+02
     34.609  0.0000E+00  0.7639E+02
     34.871  0.1261E+00  0.7683E+02
     35.134  0.0000E+00  0.7759E+02
     35.396  0.0000E+00  0.7846E+02
     35.658  0.5087E-02  0.7902E+02
     35.921  0.0000E+00  0.7922E+02
     36.183  0.0000E+00  0.7939E+02
     36.446  0.0000E+00  0.7972E+02
     36.708  0.0000E+00  0.8026E+02
     36.970  0.8437E+00  0.8089E+02
     37.233  0.0000E+00  0.8263E+02
     37.495  0.0000E+00  0.8335E+02
     37.757  0.0000E+00  0.8402E+02
     38.020  0.9705E-07  0.8452E+02
     38.282  0.3927E+00  0.8527E+02
     38.545  0.0000E+00  0.8580E+02
     38.807  0.8971E+00  0.8677E+02
     39.069  0.0000E+00  0.8796E+02
     39.332  0.0000E+00  0.8819E+02
     39.594  0.8469E+00  0.8957E+02
     39.857  0.0000E+00  0.9041E+02
     40.119  0.0000E+00  0.9061E+02
     40.381  0.0000E+00  0.9206E+02
     40.644  0.4235E+00  0.9300E+02
     40.906  0.0000E+00  0.9379E+02
     41.169  0.0000E+00  0.9394E+02
     41.431  0.8469E+00  0.9477E+02
     41.693  0.0000E+00  0.9512E+02
     41.956  0.0000E+00  0.9557E+02
     42.218  0.0000E+00  0.9646E+02
     42.480  0.1412E+00  0.9720E+02
     42.743  0.2765E-09  0.9761E+02
     43.005  0.1288E-13  0.9825E+02
     43.268  0.0000E+00  0.9920E+02
     43.530  0.2117E+00  0.9993E+02
     43.792  0.1048E+00  0.1005E+03
     44.055  0.0000E+00  0.1014E+03
     44.317  0.5303E-13  0.1021E+03
     44.580  0.0000E+00  0.1024E+03
     44.842  0.0000E+00  0.1037E+03
     45.104  0.0000E+00  0.1043E+03
     45.367  0.8469E+00  0.1057E+03
     45.629  0.1835E+01  0.1066E+03
     45.892  0.0000E+00  0.1072E+03
     46.154  0.0000E+00  0.1075E+03
     46.416  0.4580E+00  0.1081E+03
     46.679  0.1204E+00  0.1086E+03
     46.941  0.0000E+00  0.1094E+03
     47.203  0.0000E+00  0.1100E+03
     47.466  0.4608E-02  0.1108E+03
     47.728  0.0000E+00  0.1113E+03
     47.991  0.0000E+00  0.1124E+03
     48.253  0.1058E+00  0.1130E+03
     48.515  0.0000E+00  0.1138E+03
     48.778  0.0000E+00  0.1146E+03
     49.040  0.2590E-03  0.1154E+03
     49.303  0.0000E+00  0.1160E+03
     49.565  0.0000E+00  0.1168E+03
     49.827  0.0000E+00  0.1173E+03
     50.090  0.0000E+00  0.1174E+03
     50.352  0.0000E+00  0.1185E+03
     50.615  0.0000E+00  0.1196E+03
     50.877  0.0000E+00  0.1204E+03
     51.139  0.0000E+00  0.1216E+03
     51.402  0.0000E+00  0.1223E+03
     51.664  0.8469E+00  0.1234E+03
     51.927  0.0000E+00  0.1239E+03
     52.189  0.0000E+00  0.1249E+03
     52.451  0.0000E+00  0.1255E+03
     52.714  0.0000E+00  0.1260E+03
     52.976  0.0000E+00  0.1261E+03
     53.238  0.0000E+00  0.1272E+03
     53.501  0.0000E+00  0.1274E+03
     53.763  0.0000E+00  0.1277E+03
     54.026  0.0000E+00  0.1279E+03
     54.288  0.0000E+00  0.1279E+03
     54.550  0.0000E+00  0.1279E+03
     54.813  0.0000E+00  0.1279E+03
     55.075  0.0000E+00  0.1279E+03
     55.338  0.0000E+00  0.1279E+03
     55.600  0.0000E+00  0.1280E+03
     55.862  0.0000E+00  0.1280E+03
     56.125  0.0000E+00  0.1280E+03
     56.387  0.0000E+00  0.1280E+03
     56.650  0.0000E+00  0.1280E+03
     56.912  0.0000E+00  0.1280E+03
     57.174  0.0000E+00  0.1280E+03
     57.437  0.0000E+00  0.1280E+03
     57.699  0.0000E+00  0.1280E+03
     57.961  0.0000E+00  0.1280E+03
     58.224  0.0000E+00  0.1280E+03
     58.486  0.0000E+00  0.1280E+03
     58.749  0.0000E+00  0.1280E+03
     59.011  0.0000E+00  0.1280E+03
