 vasp.5.4.4.18Apr17-6-g9f103f2a35 (build Jul 09 2018 16:43:14) complex          
  
 executed on             LinuxIFC date 2018.12.03  23:56:16
 running on   64 total cores
 distrk:  each k-point on   16 cores,    4 groups
 distr:  one band on NCORES_PER_BAND=   8 cores,    2 groups


--------------------------------------------------------------------------------------------------------


 INCAR:
 POTCAR:    PAW_PBE Xe_GW 08Jan2009               

 ----------------------------------------------------------------------------- 
|                                                                             |
|           W    W    AA    RRRRR   N    N  II  N    N   GGGG   !!!           |
|           W    W   A  A   R    R  NN   N  II  NN   N  G    G  !!!           |
|           W    W  A    A  R    R  N N  N  II  N N  N  G       !!!           |
|           W WW W  AAAAAA  RRRRR   N  N N  II  N  N N  G  GGG   !            |
|           WW  WW  A    A  R   R   N   NN  II  N   NN  G    G                |
|           W    W  A    A  R    R  N    N  II  N    N   GGGG   !!!           |
|                                                                             |
|      You have enabled k-point parallelism (KPAR>1).                         |
|      This developmental code was originally  written by Paul Kent at ORNL,  |
|      and carefully double checked in Vienna.                                |
|      GW as well as linear response parallelism added by Martijn Marsman     |
|      and Georg Kresse.                                                      |
|      Carefully verify results versus KPAR=1.                                |
|      Report problems to Paul Kent and Vienna.                               |
|                                                                             |
 ----------------------------------------------------------------------------- 

 POTCAR:    PAW_PBE Xe_GW 08Jan2009               
   VRHFIN =Xe: s2p6                                                             
   LEXCH  = PE                                                                  
   EATOM  =   429.5160 eV,   31.5685 Ry                                         
                                                                                
   TITEL  = PAW_PBE Xe_GW 08Jan2009                                             
   LULTRA =        F    use ultrasoft PP ?                                      
   IUNSCR =        1    unscreen: 0-lin 1-nonlin 2-no                           
   RPACOR =    1.800    partial core radius                                     
   POMASS =  131.294; ZVAL   =    8.000    mass and valenz                      
   RCORE  =    2.500    outmost cutoff radius                                   
   RWIGS  =    2.500; RWIGS  =    1.323    wigner-seitz radius (au A)           
   ENMAX  =  179.547; ENMIN  =  134.660 eV                                      
   RCLOC  =    2.013    cutoff for local pot                                    
   LCOR   =        T    correct aug charges                                     
   LPAW   =        T    paw PP                                                  
   EAUG   =  605.900                                                            
   DEXC   =    0.000                                                            
   RMAX   =    2.564    core radius for proj-oper                               
   RAUG   =    1.300    factor for augmentation sphere                          
   RDEP   =    2.580    radius for radial grids                                 
   RDEPT  =    2.108    core radius for aug-charge                              
                                                                                
   Atomic configuration                                                         
   13 entries                                                                   
     n  l   j            E        occ.                                          
     1  0  0.50    -34364.0918   2.0000                                         
     2  0  0.50     -5347.7047   2.0000                                         
     2  1  1.50     -4797.8080   6.0000                                         
     3  0  0.50     -1093.8565   2.0000                                         
     3  1  1.50      -916.3531   6.0000                                         
     3  2  2.50      -653.3728  10.0000                                         
     4  0  0.50      -197.4109   2.0000                                         
     4  1  1.50      -141.2234   6.0000                                         
     4  2  2.50       -59.3742  10.0000                                         
     5  0  0.50       -19.7401   2.0000                                         
     5  1  0.50        -8.2334   6.0000                                         
     5  2  1.50        -6.8029   0.0000                                         
     4  3  2.50        -6.8029   0.0000                                         
   Description                                                                  
     l       E           TYP  RCUT    TYP  RCUT                                 
     0    -19.7400602     23  1.800                                             
     0    -13.6058260     23  1.800                                             
     1     -8.2333784     23  2.300                                             
     1      2.7211652     23  2.300                                             
     2     -6.8029130     23  2.500                                             
     2     40.8174780     23  2.500                                             
     3      6.8029130     23  2.500                                             
     3     27.2116520     23  2.500                                             
  local pseudopotential read in
  partial core-charges read in
  partial kinetic energy density read in
  kinetic energy density of atom read in
  atomic valenz-charges read in
  non local Contribution for L=           0  read in
    real space projection operators read in
  non local Contribution for L=           0  read in
    real space projection operators read in
  non local Contribution for L=           1  read in
    real space projection operators read in
  non local Contribution for L=           1  read in
    real space projection operators read in
  non local Contribution for L=           2  read in
    real space projection operators read in
  non local Contribution for L=           2  read in
    real space projection operators read in
  non local Contribution for L=           3  read in
    real space projection operators read in
  non local Contribution for L=           3  read in
    real space projection operators read in
    PAW grid and wavefunctions read in
 
   number of l-projection  operators is LMAX  =           8
   number of lm-projection operators is LMMAX =          32
 
  PAW_PBE Xe_GW 08Jan2009               :
 energy of atom  1       EATOM= -429.5160
 kinetic energy error for atom=    0.0132 (will be added to EATOM!!)
 
 
 POSCAR: Xe_FCC                                  
  positions in direct lattice
  velocities in cartesian coordinates
 exchange correlation table for  LEXCH =        8
   RHO(1)=    0.500       N(1)  =     2000
   RHO(2)=  100.500       N(2)  =     4000
 


--------------------------------------------------------------------------------------------------------


 ion  position               nearest neighbor table
   1  0.000  0.000  0.000-
 

IMPORTANT INFORMATION: All symmetrisations will be switched off!
NOSYMM: (Re-)initialisation of all symmetry stuff for point group C_1.

 
 
 KPOINTS: k-points                                

Automatic generation of k-mesh.
Space group operators:
 irot       det(A)        alpha          n_x          n_y          n_z        tau_x        tau_y        tau_z
    1     1.000000     0.000000     1.000000     0.000000     0.000000     0.000000     0.000000     0.000000
 
 Subroutine IBZKPT returns following result:
 ===========================================
 
 Found    216 irreducible k-points:
 
 Following reciprocal coordinates:
            Coordinates               Weight
  0.000000  0.000000  0.000000      1.000000
  0.166667  0.000000  0.000000      1.000000
  0.333333 -0.000000 -0.000000      1.000000
  0.500000 -0.000000 -0.000000      1.000000
 -0.333333  0.000000  0.000000      1.000000
 -0.166667 -0.000000 -0.000000      1.000000
  0.000000  0.166667  0.000000      1.000000
  0.166667  0.166667  0.000000      1.000000
  0.333333  0.166667  0.000000      1.000000
  0.500000  0.166667  0.000000      1.000000
 -0.333333  0.166667  0.000000      1.000000
 -0.166667  0.166667  0.000000      1.000000
  0.000000  0.333333  0.000000      1.000000
  0.166667  0.333333  0.000000      1.000000
  0.333333  0.333333  0.000000      1.000000
  0.500000  0.333333  0.000000      1.000000
 -0.333333  0.333333  0.000000      1.000000
 -0.166667  0.333333 -0.000000      1.000000
  0.000000  0.500000  0.000000      1.000000
  0.166667  0.500000  0.000000      1.000000
  0.333333  0.500000  0.000000      1.000000
  0.500000  0.500000  0.000000      1.000000
 -0.333333  0.500000 -0.000000      1.000000
 -0.166667  0.500000 -0.000000      1.000000
  0.000000 -0.333333 -0.000000      1.000000
  0.166667 -0.333333  0.000000      1.000000
  0.333333 -0.333333 -0.000000      1.000000
  0.500000 -0.333333 -0.000000      1.000000
 -0.333333 -0.333333 -0.000000      1.000000
 -0.166667 -0.333333 -0.000000      1.000000
  0.000000 -0.166667  0.000000      1.000000
  0.166667 -0.166667 -0.000000      1.000000
  0.333333 -0.166667  0.000000      1.000000
  0.500000 -0.166667  0.000000      1.000000
 -0.333333 -0.166667  0.000000      1.000000
 -0.166667 -0.166667 -0.000000      1.000000
  0.000000  0.000000  0.166667      1.000000
  0.166667  0.000000  0.166667      1.000000
  0.333333 -0.000000  0.166667      1.000000
  0.500000 -0.000000  0.166667      1.000000
 -0.333333  0.000000  0.166667      1.000000
 -0.166667  0.000000  0.166667      1.000000
  0.000000  0.166667  0.166667      1.000000
  0.166667  0.166667  0.166667      1.000000
  0.333333  0.166667  0.166667      1.000000
  0.500000  0.166667  0.166667      1.000000
 -0.333333  0.166667  0.166667      1.000000
 -0.166667  0.166667  0.166667      1.000000
  0.000000  0.333333  0.166667      1.000000
  0.166667  0.333333  0.166667      1.000000
  0.333333  0.333333  0.166667      1.000000
  0.500000  0.333333  0.166667      1.000000
 -0.333333  0.333333  0.166667      1.000000
 -0.166667  0.333333  0.166667      1.000000
  0.000000  0.500000  0.166667      1.000000
  0.166667  0.500000  0.166667      1.000000
  0.333333  0.500000  0.166667      1.000000
  0.500000  0.500000  0.166667      1.000000
 -0.333333  0.500000  0.166667      1.000000
 -0.166667  0.500000  0.166667      1.000000
  0.000000 -0.333333  0.166667      1.000000
  0.166667 -0.333333  0.166667      1.000000
  0.333333 -0.333333  0.166667      1.000000
  0.500000 -0.333333  0.166667      1.000000
 -0.333333 -0.333333  0.166667      1.000000
 -0.166667 -0.333333  0.166667      1.000000
  0.000000 -0.166667  0.166667      1.000000
  0.166667 -0.166667  0.166667      1.000000
  0.333333 -0.166667  0.166667      1.000000
  0.500000 -0.166667  0.166667      1.000000
 -0.333333 -0.166667  0.166667      1.000000
 -0.166667 -0.166667  0.166667      1.000000
  0.000000  0.000000  0.333333      1.000000
  0.166667 -0.000000  0.333333      1.000000
  0.333333 -0.000000  0.333333      1.000000
  0.500000 -0.000000  0.333333      1.000000
 -0.333333  0.000000  0.333333      1.000000
 -0.166667  0.000000  0.333333      1.000000
  0.000000  0.166667  0.333333      1.000000
  0.166667  0.166667  0.333333      1.000000
  0.333333  0.166667  0.333333      1.000000
  0.500000  0.166667  0.333333      1.000000
 -0.333333  0.166667  0.333333      1.000000
 -0.166667  0.166667  0.333333      1.000000
 -0.000000  0.333333  0.333333      1.000000
  0.166667  0.333333  0.333333      1.000000
  0.333333  0.333333  0.333333      1.000000
  0.500000  0.333333  0.333333      1.000000
 -0.333333  0.333333  0.333333      1.000000
 -0.166667  0.333333  0.333333      1.000000
  0.000000  0.500000  0.333333      1.000000
  0.166667  0.500000  0.333333      1.000000
  0.333333  0.500000  0.333333      1.000000
  0.500000  0.500000  0.333333      1.000000
 -0.333333  0.500000  0.333333      1.000000
 -0.166667  0.500000  0.333333      1.000000
  0.000000 -0.333333  0.333333      1.000000
  0.166667 -0.333333  0.333333      1.000000
  0.333333 -0.333333  0.333333      1.000000
  0.500000 -0.333333  0.333333      1.000000
 -0.333333 -0.333333  0.333333      1.000000
 -0.166667 -0.333333  0.333333      1.000000
  0.000000 -0.166667  0.333333      1.000000
  0.166667 -0.166667  0.333333      1.000000
  0.333333 -0.166667  0.333333      1.000000
  0.500000 -0.166667  0.333333      1.000000
 -0.333333 -0.166667  0.333333      1.000000
 -0.166667 -0.166667  0.333333      1.000000
  0.000000 -0.000000  0.500000      1.000000
  0.166667  0.000000  0.500000      1.000000
  0.333333 -0.000000  0.500000      1.000000
  0.500000 -0.000000  0.500000      1.000000
 -0.333333  0.000000  0.500000      1.000000
 -0.166667  0.000000  0.500000      1.000000
  0.000000  0.166667  0.500000      1.000000
  0.166667  0.166667  0.500000      1.000000
  0.333333  0.166667  0.500000      1.000000
  0.500000  0.166667  0.500000      1.000000
 -0.333333  0.166667  0.500000      1.000000
 -0.166667  0.166667  0.500000      1.000000
 -0.000000  0.333333  0.500000      1.000000
  0.166667  0.333333  0.500000      1.000000
  0.333333  0.333333  0.500000      1.000000
  0.500000  0.333333  0.500000      1.000000
 -0.333333  0.333333  0.500000      1.000000
 -0.166667  0.333333  0.500000      1.000000
  0.000000  0.500000  0.500000      1.000000
  0.166667  0.500000  0.500000      1.000000
  0.333333  0.500000  0.500000      1.000000
  0.500000  0.500000  0.500000      1.000000
 -0.333333  0.500000  0.500000      1.000000
 -0.166667  0.500000  0.500000      1.000000
  0.000000 -0.333333  0.500000      1.000000
  0.166667 -0.333333  0.500000      1.000000
  0.333333 -0.333333  0.500000      1.000000
  0.500000 -0.333333  0.500000      1.000000
 -0.333333 -0.333333  0.500000      1.000000
 -0.166667 -0.333333  0.500000      1.000000
  0.000000 -0.166667  0.500000      1.000000
  0.166667 -0.166667  0.500000      1.000000
  0.333333 -0.166667  0.500000      1.000000
  0.500000 -0.166667  0.500000      1.000000
 -0.333333 -0.166667  0.500000      1.000000
 -0.166667 -0.166667  0.500000      1.000000
 -0.000000 -0.000000 -0.333333      1.000000
  0.166667 -0.000000 -0.333333      1.000000
  0.333333 -0.000000 -0.333333      1.000000
  0.500000 -0.000000 -0.333333      1.000000
 -0.333333  0.000000 -0.333333      1.000000
 -0.166667  0.000000 -0.333333      1.000000
  0.000000  0.166667 -0.333333      1.000000
  0.166667  0.166667 -0.333333      1.000000
  0.333333  0.166667 -0.333333      1.000000
  0.500000  0.166667 -0.333333      1.000000
 -0.333333  0.166667 -0.333333      1.000000
 -0.166667  0.166667 -0.333333      1.000000
 -0.000000  0.333333 -0.333333      1.000000
  0.166667  0.333333 -0.333333      1.000000
  0.333333  0.333333 -0.333333      1.000000
  0.500000  0.333333 -0.333333      1.000000
 -0.333333  0.333333 -0.333333      1.000000
 -0.166667  0.333333 -0.333333      1.000000
 -0.000000  0.500000 -0.333333      1.000000
  0.166667  0.500000 -0.333333      1.000000
  0.333333  0.500000 -0.333333      1.000000
  0.500000  0.500000 -0.333333      1.000000
 -0.333333  0.500000 -0.333333      1.000000
 -0.166667  0.500000 -0.333333      1.000000
  0.000000 -0.333333 -0.333333      1.000000
  0.166667 -0.333333 -0.333333      1.000000
  0.333333 -0.333333 -0.333333      1.000000
  0.500000 -0.333333 -0.333333      1.000000
 -0.333333 -0.333333 -0.333333      1.000000
 -0.166667 -0.333333 -0.333333      1.000000
 -0.000000 -0.166667 -0.333333      1.000000
  0.166667 -0.166667 -0.333333      1.000000
  0.333333 -0.166667 -0.333333      1.000000
  0.500000 -0.166667 -0.333333      1.000000
 -0.333333 -0.166667 -0.333333      1.000000
 -0.166667 -0.166667 -0.333333      1.000000
 -0.000000 -0.000000 -0.166667      1.000000
  0.166667 -0.000000 -0.166667      1.000000
  0.333333 -0.000000 -0.166667      1.000000
  0.500000 -0.000000 -0.166667      1.000000
 -0.333333  0.000000 -0.166667      1.000000
 -0.166667 -0.000000 -0.166667      1.000000
 -0.000000  0.166667 -0.166667      1.000000
  0.166667  0.166667 -0.166667      1.000000
  0.333333  0.166667 -0.166667      1.000000
  0.500000  0.166667 -0.166667      1.000000
 -0.333333  0.166667 -0.166667      1.000000
 -0.166667  0.166667 -0.166667      1.000000
  0.000000  0.333333 -0.166667      1.000000
  0.166667  0.333333 -0.166667      1.000000
  0.333333  0.333333 -0.166667      1.000000
  0.500000  0.333333 -0.166667      1.000000
 -0.333333  0.333333 -0.166667      1.000000
 -0.166667  0.333333 -0.166667      1.000000
  0.000000  0.500000 -0.166667      1.000000
  0.166667  0.500000 -0.166667      1.000000
  0.333333  0.500000 -0.166667      1.000000
  0.500000  0.500000 -0.166667      1.000000
 -0.333333  0.500000 -0.166667      1.000000
 -0.166667  0.500000 -0.166667      1.000000
 -0.000000 -0.333333 -0.166667      1.000000
  0.166667 -0.333333 -0.166667      1.000000
  0.333333 -0.333333 -0.166667      1.000000
  0.500000 -0.333333 -0.166667      1.000000
 -0.333333 -0.333333 -0.166667      1.000000
 -0.166667 -0.333333 -0.166667      1.000000
 -0.000000 -0.166667 -0.166667      1.000000
  0.166667 -0.166667 -0.166667      1.000000
  0.333333 -0.166667 -0.166667      1.000000
  0.500000 -0.166667 -0.166667      1.000000
 -0.333333 -0.166667 -0.166667      1.000000
 -0.166667 -0.166667 -0.166667      1.000000
 
 Following cartesian coordinates:
            Coordinates               Weight
  0.000000  0.000000  0.000000      1.000000
  0.037604 -0.021710 -0.015352      1.000000
  0.075207 -0.043421 -0.030703      1.000000
  0.112811 -0.065131 -0.046055      1.000000
 -0.075207  0.043421  0.030703      1.000000
 -0.037604  0.021710  0.015352      1.000000
  0.000000  0.043421 -0.015352      1.000000
  0.037604  0.021710 -0.030703      1.000000
  0.075207  0.000000 -0.046055      1.000000
  0.112811 -0.021710 -0.061406      1.000000
 -0.075207  0.086842  0.015352      1.000000
 -0.037604  0.065131  0.000000      1.000000
  0.000000  0.086842 -0.030703      1.000000
  0.037604  0.065131 -0.046055      1.000000
  0.075207  0.043421 -0.061406      1.000000
  0.112811  0.021710 -0.076758      1.000000
 -0.075207  0.130263  0.000000      1.000000
 -0.037604  0.108552 -0.015352      1.000000
  0.000000  0.130263 -0.046055      1.000000
  0.037604  0.108552 -0.061406      1.000000
  0.075207  0.086842 -0.076758      1.000000
  0.112811  0.065131 -0.092110      1.000000
 -0.075207  0.173684 -0.015352      1.000000
 -0.037604  0.151973 -0.030703      1.000000
 -0.000000 -0.086842  0.030703      1.000000
  0.037604 -0.108552  0.015352      1.000000
  0.075207 -0.130263 -0.000000      1.000000
  0.112811 -0.151973 -0.015352      1.000000
 -0.075207 -0.043421  0.061406      1.000000
 -0.037604 -0.065131  0.046055      1.000000
 -0.000000 -0.043421  0.015352      1.000000
  0.037604 -0.065131 -0.000000      1.000000
  0.075207 -0.086842 -0.015352      1.000000
  0.112811 -0.108552 -0.030703      1.000000
 -0.075207 -0.000000  0.046055      1.000000
 -0.037604 -0.021710  0.030703      1.000000
 -0.000000  0.000000  0.046055      1.000000
  0.037604 -0.021710  0.030703      1.000000
  0.075207 -0.043421  0.015352      1.000000
  0.112811 -0.065131 -0.000000      1.000000
 -0.075207  0.043421  0.076758      1.000000
 -0.037604  0.021710  0.061406      1.000000
 -0.000000  0.043421  0.030703      1.000000
  0.037604  0.021710  0.015352      1.000000
  0.075207  0.000000  0.000000      1.000000
  0.112811 -0.021710 -0.015352      1.000000
 -0.075207  0.086842  0.061406      1.000000
 -0.037604  0.065131  0.046055      1.000000
 -0.000000  0.086842  0.015352      1.000000
  0.037604  0.065131  0.000000      1.000000
  0.075207  0.043421 -0.015352      1.000000
  0.112811  0.021710 -0.030703      1.000000
 -0.075207  0.130263  0.046055      1.000000
 -0.037604  0.108552  0.030703      1.000000
 -0.000000  0.130263  0.000000      1.000000
  0.037604  0.108552 -0.015352      1.000000
  0.075207  0.086842 -0.030703      1.000000
  0.112811  0.065131 -0.046055      1.000000
 -0.075207  0.173684  0.030703      1.000000
 -0.037604  0.151973  0.015352      1.000000
 -0.000000 -0.086842  0.076758      1.000000
  0.037604 -0.108552  0.061406      1.000000
  0.075207 -0.130263  0.046055      1.000000
  0.112811 -0.151973  0.030703      1.000000
 -0.075207 -0.043421  0.107461      1.000000
 -0.037604 -0.065131  0.092110      1.000000
 -0.000000 -0.043421  0.061406      1.000000
  0.037604 -0.065131  0.046055      1.000000
  0.075207 -0.086842  0.030703      1.000000
  0.112811 -0.108552  0.015352      1.000000
 -0.075207 -0.000000  0.092110      1.000000
 -0.037604 -0.021710  0.076758      1.000000
 -0.000000  0.000000  0.092110      1.000000
  0.037604 -0.021710  0.076758      1.000000
  0.075207 -0.043421  0.061406      1.000000
  0.112811 -0.065131  0.046055      1.000000
 -0.075207  0.043421  0.122813      1.000000
 -0.037604  0.021710  0.107461      1.000000
 -0.000000  0.043421  0.076758      1.000000
  0.037604  0.021710  0.061406      1.000000
  0.075207  0.000000  0.046055      1.000000
  0.112811 -0.021710  0.030703      1.000000
 -0.075207  0.086842  0.107461      1.000000
 -0.037604  0.065131  0.092110      1.000000
 -0.000000  0.086842  0.061406      1.000000
  0.037604  0.065131  0.046055      1.000000
  0.075207  0.043421  0.030703      1.000000
  0.112811  0.021710  0.015352      1.000000
 -0.075207  0.130263  0.092110      1.000000
 -0.037604  0.108552  0.076758      1.000000
 -0.000000  0.130263  0.046055      1.000000
  0.037604  0.108552  0.030703      1.000000
  0.075207  0.086842  0.015352      1.000000
  0.112811  0.065131  0.000000      1.000000
 -0.075207  0.173684  0.076758      1.000000
 -0.037604  0.151973  0.061406      1.000000
 -0.000000 -0.086842  0.122813      1.000000
  0.037604 -0.108552  0.107461      1.000000
  0.075207 -0.130263  0.092110      1.000000
  0.112811 -0.151973  0.076758      1.000000
 -0.075207 -0.043421  0.153516      1.000000
 -0.037604 -0.065131  0.138164      1.000000
 -0.000000 -0.043421  0.107461      1.000000
  0.037604 -0.065131  0.092110      1.000000
  0.075207 -0.086842  0.076758      1.000000
  0.112811 -0.108552  0.061406      1.000000
 -0.075207 -0.000000  0.138164      1.000000
 -0.037604 -0.021710  0.122813      1.000000
 -0.000000  0.000000  0.138164      1.000000
  0.037604 -0.021710  0.122813      1.000000
  0.075207 -0.043421  0.107461      1.000000
  0.112811 -0.065131  0.092110      1.000000
 -0.075207  0.043421  0.168868      1.000000
 -0.037604  0.021710  0.153516      1.000000
 -0.000000  0.043421  0.122813      1.000000
  0.037604  0.021710  0.107461      1.000000
  0.075207  0.000000  0.092110      1.000000
  0.112811 -0.021710  0.076758      1.000000
 -0.075207  0.086842  0.153516      1.000000
 -0.037604  0.065131  0.138164      1.000000
 -0.000000  0.086842  0.107461      1.000000
  0.037604  0.065131  0.092110      1.000000
  0.075207  0.043421  0.076758      1.000000
  0.112811  0.021710  0.061406      1.000000
 -0.075207  0.130263  0.138164      1.000000
 -0.037604  0.108552  0.122813      1.000000
 -0.000000  0.130263  0.092110      1.000000
  0.037604  0.108552  0.076758      1.000000
  0.075207  0.086842  0.061406      1.000000
  0.112811  0.065131  0.046055      1.000000
 -0.075207  0.173684  0.122813      1.000000
 -0.037604  0.151973  0.107461      1.000000
 -0.000000 -0.086842  0.168868      1.000000
  0.037604 -0.108552  0.153516      1.000000
  0.075207 -0.130263  0.138164      1.000000
  0.112811 -0.151973  0.122813      1.000000
 -0.075207 -0.043421  0.199571      1.000000
 -0.037604 -0.065131  0.184219      1.000000
 -0.000000 -0.043421  0.153516      1.000000
  0.037604 -0.065131  0.138164      1.000000
  0.075207 -0.086842  0.122813      1.000000
  0.112811 -0.108552  0.107461      1.000000
 -0.075207 -0.000000  0.184219      1.000000
 -0.037604 -0.021710  0.168868      1.000000
  0.000000 -0.000000 -0.092110      1.000000
  0.037604 -0.021710 -0.107461      1.000000
  0.075207 -0.043421 -0.122813      1.000000
  0.112811 -0.065131 -0.138164      1.000000
 -0.075207  0.043421 -0.061406      1.000000
 -0.037604  0.021710 -0.076758      1.000000
  0.000000  0.043421 -0.107461      1.000000
  0.037604  0.021710 -0.122813      1.000000
  0.075207  0.000000 -0.138164      1.000000
  0.112811 -0.021710 -0.153516      1.000000
 -0.075207  0.086842 -0.076758      1.000000
 -0.037604  0.065131 -0.092110      1.000000
  0.000000  0.086842 -0.122813      1.000000
  0.037604  0.065131 -0.138164      1.000000
  0.075207  0.043421 -0.153516      1.000000
  0.112811  0.021710 -0.168868      1.000000
 -0.075207  0.130263 -0.092110      1.000000
 -0.037604  0.108552 -0.107461      1.000000
  0.000000  0.130263 -0.138164      1.000000
  0.037604  0.108552 -0.153516      1.000000
  0.075207  0.086842 -0.168868      1.000000
  0.112811  0.065131 -0.184219      1.000000
 -0.075207  0.173684 -0.107461      1.000000
 -0.037604  0.151973 -0.122813      1.000000
  0.000000 -0.086842 -0.061406      1.000000
  0.037604 -0.108552 -0.076758      1.000000
  0.075207 -0.130263 -0.092110      1.000000
  0.112811 -0.151973 -0.107461      1.000000
 -0.075207 -0.043421 -0.030703      1.000000
 -0.037604 -0.065131 -0.046055      1.000000
  0.000000 -0.043421 -0.076758      1.000000
  0.037604 -0.065131 -0.092110      1.000000
  0.075207 -0.086842 -0.107461      1.000000
  0.112811 -0.108552 -0.122813      1.000000
 -0.075207 -0.000000 -0.046055      1.000000
 -0.037604 -0.021710 -0.061406      1.000000
  0.000000 -0.000000 -0.046055      1.000000
  0.037604 -0.021710 -0.061406      1.000000
  0.075207 -0.043421 -0.076758      1.000000
  0.112811 -0.065131 -0.092110      1.000000
 -0.075207  0.043421 -0.015352      1.000000
 -0.037604  0.021710 -0.030703      1.000000
  0.000000  0.043421 -0.061406      1.000000
  0.037604  0.021710 -0.076758      1.000000
  0.075207  0.000000 -0.092110      1.000000
  0.112811 -0.021710 -0.107461      1.000000
 -0.075207  0.086842 -0.030703      1.000000
 -0.037604  0.065131 -0.046055      1.000000
  0.000000  0.086842 -0.076758      1.000000
  0.037604  0.065131 -0.092110      1.000000
  0.075207  0.043421 -0.107461      1.000000
  0.112811  0.021710 -0.122813      1.000000
 -0.075207  0.130263 -0.046055      1.000000
 -0.037604  0.108552 -0.061406      1.000000
  0.000000  0.130263 -0.092110      1.000000
  0.037604  0.108552 -0.107461      1.000000
  0.075207  0.086842 -0.122813      1.000000
  0.112811  0.065131 -0.138164      1.000000
 -0.075207  0.173684 -0.061406      1.000000
 -0.037604  0.151973 -0.076758      1.000000
  0.000000 -0.086842 -0.015352      1.000000
  0.037604 -0.108552 -0.030703      1.000000
  0.075207 -0.130263 -0.046055      1.000000
  0.112811 -0.151973 -0.061406      1.000000
 -0.075207 -0.043421  0.015352      1.000000
 -0.037604 -0.065131  0.000000      1.000000
  0.000000 -0.043421 -0.030703      1.000000
  0.037604 -0.065131 -0.046055      1.000000
  0.075207 -0.086842 -0.061406      1.000000
  0.112811 -0.108552 -0.076758      1.000000
 -0.075207 -0.000000 -0.000000      1.000000
 -0.037604 -0.021710 -0.015352      1.000000
 


--------------------------------------------------------------------------------------------------------




 Dimension of arrays:
   k-points           NKPTS =    216   k-points in BZ     NKDIM =    216   number of bands    NBANDS=    128
   number of dos      NEDOS =    301   number of ions     NIONS =      1
   non local maximal  LDIM  =      8   non local SUM 2l+1 LMDIM =     32
   total plane-waves  NPLWV =  13824
   max r-space proj   IRMAX =      1   max aug-charges    IRDMAX=  94949
   dimension x,y,z NGX =    24 NGY =   24 NGZ =   24
   dimension x,y,z NGXF=    48 NGYF=   48 NGZF=   48
   support grid    NGXF=    96 NGYF=   96 NGZF=   96
   ions per type =               1
   NGX,Y,Z   is equivalent  to a cutoff of   9.20,  9.20,  9.20 a.u.
   NGXF,Y,Z  is equivalent  to a cutoff of  18.40, 18.40, 18.40 a.u.

 SYSTEM =  Og_FCC                                  
 POSCAR =  Xe_FCC                                  

 Startparameter for this run:
   NWRITE =      2    write-flag & timer
   PREC   = accura    normal or accurate (medium, high low for compatibility)
   ISTART =      1    job   : 0-new  1-cont  2-samecut
   ICHARG =      0    charge: 1-file 2-atom 10-const
   ISPIN  =      1    spin polarized calculation?
   LNONCOLLINEAR =      T non collinear calculations
   LSORBIT =      T    spin-orbit coupling
   INIWAV =      1    electr: 0-lowe 1-rand  2-diag
   LASPH  =      F    aspherical Exc in radial PAW
   METAGGA=      F    non-selfconsistent MetaGGA calc.

 Electronic Relaxation 1
   ENCUT  =  300.0 eV  22.05 Ry    4.70 a.u.   6.12  6.12  6.12*2*pi/ulx,y,z
   ENINI  =  300.0     initial cutoff
   ENAUG  =  605.9 eV  augmentation charge cutoff
   NELM   =     50;   NELMIN=  2; NELMDL= -5     # of ELM steps 
   EDIFF  = 0.1E-07   stopping-criterion for ELM
   LREAL  =      F    real-space projection
   NLSPLINE    = F    spline interpolate recip. space projectors
   LCOMPAT=      F    compatible to vasp.4.4
   GGA_COMPAT  = F    GGA compatible to vasp.4.4-vasp.4.6
   LMAXPAW     = -100 max onsite density
   LMAXMIX     =    2 max onsite mixed and CHGCAR
   VOSKOWN=      0    Vosko Wilk Nusair interpolation
   ROPT   =    0.00000
 Ionic relaxation
   EDIFFG = 0.1E-04   stopping-criterion for IOM
   NSW    =      1    number of steps for IOM
   NBLOCK =      1;   KBLOCK =      1    inner block; outer block 
   IBRION =     -1    ionic relax: 0-MD 1-quasi-New 2-CG
   NFREE  =      5    steps in history (QN), initial steepest desc. (CG)
   ISIF   =      3    stress and relaxation
   IWAVPR =     10    prediction:  0-non 1-charg 2-wave 3-comb
   ISYM   =      0    0-nonsym 1-usesym 2-fastsym
   LCORR  =      T    Harris-Foulkes like correction to forces

   POTIM  = 0.1000    time-step for ionic-motion
   TEIN   =    0.0    initial temperature
   TEBEG  =    0.0;   TEEND  =   0.0 temperature during run
   SMASS  =  -3.00    Nose mass-parameter (am)
   estimated Nose-frequenzy (Omega)   =  0.10E-29 period in steps =****** mass=  -0.430E-27a.u.
   SCALEE = 1.0000    scale energy and forces
   NPACO  =    256;   APACO  = 16.0  distance and # of slots for P.C.
   PSTRESS=    0.0 pullay stress

  Mass of Ions in am
   POMASS = 131.29
  Ionic Valenz
   ZVAL   =   8.00
  Atomic Wigner-Seitz radii
   RWIGS  =  -1.00
  virtual crystal weights 
   VCA    =   1.00
   NELECT =       8.0000    total number of electrons
   NUPDOWN=      -1.0000    fix difference up-down

 DOS related values:
   EMIN   =  10.00;   EMAX   =-10.00  energy-range for DOS
   EFERMI =   0.00
   ISMEAR =     0;   SIGMA  =   0.00  broadening in eV -4-tet -1-fermi 0-gaus

 Electronic relaxation 2 (details)
   IALGO  =     90    algorithm
   LDIAG  =      T    sub-space diagonalisation (order eigenvalues)
   LSUBROT=      F    optimize rotation matrix (better conditioning)
   TURBO    =      0    0=normal 1=particle mesh
   IRESTART =      0    0=no restart 2=restart with 2 vectors
   NREBOOT  =      0    no. of reboots
   NMIN     =      0    reboot dimension
   EREF     =   0.00    reference energy to select bands
   IMIX   =      4    mixing-type and parameters
     AMIX     =   0.40;   BMIX     =  1.00
     AMIX_MAG =   1.60;   BMIX_MAG =  1.00
     AMIN     =   0.10
     WC   =   100.;   INIMIX=   1;  MIXPRE=   1;  MAXMIX=  50

 Intra band minimization:
   WEIMIN = 0.0000     energy-eigenvalue tresh-hold
   EBREAK =  0.20E-10  absolut break condition
   DEPER  =   0.30     relativ break condition  

   TIME   =   0.40     timestep for ELM

  volume/ion in A,a.u.               =      57.64       389.00
  Fermi-wavevector in a.u.,A,eV,Ry     =   0.847594  1.601720  9.774627  0.718415
  Thomas-Fermi vector in A             =   1.963124
 
 Write flags
   LWAVE        =      T    write WAVECAR
   LDOWNSAMPLE  =      F    k-point downsampling of WAVECAR
   LCHARG       =      F    write CHGCAR
   LVTOT        =      F    write LOCPOT, total local potential
   LVHAR        =      F    write LOCPOT, Hartree potential only
   LELF         =      F    write electronic localiz. function (ELF)
   LORBIT       =      0    0 simple, 1 ext, 2 COOP (PROOUT), +10 PAW based schemes


 Dipole corrections
   LMONO  =      F    monopole corrections only (constant potential shift)
   LDIPOL =      F    correct potential (dipole corrections)
   IDIPOL =      0    1-x, 2-y, 3-z, 4-all directions 
   EPSILON=  1.0000000 bulk dielectric constant

 Exchange correlation treatment:
   GGA     =    PE    GGA type
   LEXCH   =     8    internal setting for exchange type
   VOSKOWN=      0    Vosko Wilk Nusair interpolation
   LHFCALC =     F    Hartree Fock is set to
   LHFONE  =     F    Hartree Fock one center treatment
   AEXX    =    0.0000 exact exchange contribution

 Linear response parameters
   LEPSILON=     F    determine dielectric tensor
   LRPA    =     F    only Hartree local field effects (RPA)
   LNABLA  =     F    use nabla operator in PAW spheres
   LVEL    =     F    velocity operator in full k-point grid
   LINTERFAST=   F  fast interpolation
   KINTER  =     0    interpolate to denser k-point grid
   CSHIFT  =0.1000    complex shift for real part using Kramers Kronig
   OMEGAMAX=  -1.0    maximum frequency
   DEG_THRESHOLD= 0.2000000E-02 threshold for treating states as degnerate
   RTIME   =   -0.100 relaxation time in fs
  (WPLASMAI=    0.000 imaginary part of plasma frequency in eV, 0.658/RTIME)
   DFIELD  = 0.0000000 0.0000000 0.0000000 field for delta impulse in time
 
 Orbital magnetization related:
   ORBITALMAG=     F  switch on orbital magnetization
   LCHIMAG   =     F  perturbation theory with respect to B field
   DQ        =  0.001000  dq finite difference perturbation B field
   LLRAUG    =     F  two centre corrections for induced B field



--------------------------------------------------------------------------------------------------------


 Static calculation
 charge density and potential will be updated during run
 non collinear spin polarized calculation
 Exact diagonalization
 preconditioned conjugated gradient (Jacobi prec)
    charged. constant during bandupdate  
    band-by band algorithm
 perform sub-space diagonalisation
    after iterative eigenvector-optimisation
 modified Broyden-mixing scheme, WC =      100.0
 initial mixing is a Kerker type mixing with AMIX =  0.4000 and BMIX =      1.0000
 Hartree-type preconditioning will be used
 using additional bands          124
 reciprocal scheme for non local part
 use partial core corrections
 calculate Harris-corrections to forces 
   (improved forces if not selfconsistent)
 use gradient corrections 
 use of overlap-Matrix (Vanderbilt PP)
 Gauss-broadening in eV      SIGMA  =   0.00


--------------------------------------------------------------------------------------------------------


  energy-cutoff  :      300.00
  volume of cell :       57.64
      direct lattice vectors                 reciprocal lattice vectors
     4.335995782  0.000000000  0.000000000     0.230627531 -0.133152867 -0.094153295
     2.167997891  3.755082498 -0.000000000     0.000000000  0.266305734 -0.094153295
     2.167997891  1.251694166  3.540325731    -0.000000000  0.000000000  0.282459885

  length of vectors
     4.335995782  4.335995782  4.335995782     0.282459885  0.282459885  0.282459885


 
 old parameters found on file WAVECAR:
  energy-cutoff  :      300.00
  volume of cell :       57.64
      direct lattice vectors                 reciprocal lattice vectors
     4.335995782  0.000000000  0.000000000     0.230627531 -0.133152867 -0.094153295
     2.167997891  3.755082498 -0.000000000     0.000000000  0.266305734 -0.094153295
     2.167997891  1.251694166  3.540325731    -0.000000000  0.000000000  0.282459885

  length of vectors

 
 k-points in units of 2pi/SCALE and weight: k-points                                
   0.00000000  0.00000000  0.00000000       0.005
   0.03760360 -0.02171045 -0.01535160       0.005
   0.07520719 -0.04342089 -0.03070321       0.005
   0.11281079 -0.06513134 -0.04605481       0.005
  -0.07520719  0.04342089  0.03070321       0.005
  -0.03760360  0.02171045  0.01535160       0.005
   0.00000000  0.04342089 -0.01535160       0.005
   0.03760360  0.02171045 -0.03070321       0.005
   0.07520719  0.00000000 -0.04605481       0.005
   0.11281079 -0.02171045 -0.06140642       0.005
  -0.07520719  0.08684179  0.01535160       0.005
  -0.03760360  0.06513134  0.00000000       0.005
   0.00000000  0.08684179 -0.03070321       0.005
   0.03760360  0.06513134 -0.04605481       0.005
   0.07520719  0.04342089 -0.06140642       0.005
   0.11281079  0.02171045 -0.07675802       0.005
  -0.07520719  0.13026268  0.00000000       0.005
  -0.03760360  0.10855223 -0.01535160       0.005
   0.00000000  0.13026268 -0.04605481       0.005
   0.03760360  0.10855223 -0.06140642       0.005
   0.07520719  0.08684179 -0.07675802       0.005
   0.11281079  0.06513134 -0.09210962       0.005
  -0.07520719  0.17368357 -0.01535160       0.005
  -0.03760360  0.15197313 -0.03070321       0.005
  -0.00000000 -0.08684179  0.03070321       0.005
   0.03760360 -0.10855223  0.01535160       0.005
   0.07520719 -0.13026268 -0.00000000       0.005
   0.11281079 -0.15197313 -0.01535160       0.005
  -0.07520719 -0.04342089  0.06140642       0.005
  -0.03760360 -0.06513134  0.04605481       0.005
  -0.00000000 -0.04342089  0.01535160       0.005
   0.03760360 -0.06513134 -0.00000000       0.005
   0.07520719 -0.08684179 -0.01535160       0.005
   0.11281079 -0.10855223 -0.03070321       0.005
  -0.07520719 -0.00000000  0.04605481       0.005
  -0.03760360 -0.02171045  0.03070321       0.005
  -0.00000000  0.00000000  0.04605481       0.005
   0.03760360 -0.02171045  0.03070321       0.005
   0.07520719 -0.04342089  0.01535160       0.005
   0.11281079 -0.06513134 -0.00000000       0.005
  -0.07520719  0.04342089  0.07675802       0.005
  -0.03760360  0.02171045  0.06140642       0.005
  -0.00000000  0.04342089  0.03070321       0.005
   0.03760360  0.02171045  0.01535160       0.005
   0.07520719  0.00000000  0.00000000       0.005
   0.11281079 -0.02171045 -0.01535160       0.005
  -0.07520719  0.08684179  0.06140642       0.005
  -0.03760360  0.06513134  0.04605481       0.005
  -0.00000000  0.08684179  0.01535160       0.005
   0.03760360  0.06513134  0.00000000       0.005
   0.07520719  0.04342089 -0.01535160       0.005
   0.11281079  0.02171045 -0.03070321       0.005
  -0.07520719  0.13026268  0.04605481       0.005
  -0.03760360  0.10855223  0.03070321       0.005
  -0.00000000  0.13026268  0.00000000       0.005
   0.03760360  0.10855223 -0.01535160       0.005
   0.07520719  0.08684179 -0.03070321       0.005
   0.11281079  0.06513134 -0.04605481       0.005
  -0.07520719  0.17368357  0.03070321       0.005
  -0.03760360  0.15197313  0.01535160       0.005
  -0.00000000 -0.08684179  0.07675802       0.005
   0.03760360 -0.10855223  0.06140642       0.005
   0.07520719 -0.13026268  0.04605481       0.005
   0.11281079 -0.15197313  0.03070321       0.005
  -0.07520719 -0.04342089  0.10746123       0.005
  -0.03760360 -0.06513134  0.09210962       0.005
  -0.00000000 -0.04342089  0.06140642       0.005
   0.03760360 -0.06513134  0.04605481       0.005
   0.07520719 -0.08684179  0.03070321       0.005
   0.11281079 -0.10855223  0.01535160       0.005
  -0.07520719 -0.00000000  0.09210962       0.005
  -0.03760360 -0.02171045  0.07675802       0.005
  -0.00000000  0.00000000  0.09210962       0.005
   0.03760360 -0.02171045  0.07675802       0.005
   0.07520719 -0.04342089  0.06140642       0.005
   0.11281079 -0.06513134  0.04605481       0.005
  -0.07520719  0.04342089  0.12281283       0.005
  -0.03760360  0.02171045  0.10746123       0.005
  -0.00000000  0.04342089  0.07675802       0.005
   0.03760360  0.02171045  0.06140642       0.005
   0.07520719  0.00000000  0.04605481       0.005
   0.11281079 -0.02171045  0.03070321       0.005
  -0.07520719  0.08684179  0.10746123       0.005
  -0.03760360  0.06513134  0.09210962       0.005
  -0.00000000  0.08684179  0.06140642       0.005
   0.03760360  0.06513134  0.04605481       0.005
   0.07520719  0.04342089  0.03070321       0.005
   0.11281079  0.02171045  0.01535160       0.005
  -0.07520719  0.13026268  0.09210962       0.005
  -0.03760360  0.10855223  0.07675802       0.005
  -0.00000000  0.13026268  0.04605481       0.005
   0.03760360  0.10855223  0.03070321       0.005
   0.07520719  0.08684179  0.01535160       0.005
   0.11281079  0.06513134  0.00000000       0.005
  -0.07520719  0.17368357  0.07675802       0.005
  -0.03760360  0.15197313  0.06140642       0.005
  -0.00000000 -0.08684179  0.12281283       0.005
   0.03760360 -0.10855223  0.10746123       0.005
   0.07520719 -0.13026268  0.09210962       0.005
   0.11281079 -0.15197313  0.07675802       0.005
  -0.07520719 -0.04342089  0.15351604       0.005
  -0.03760360 -0.06513134  0.13816444       0.005
  -0.00000000 -0.04342089  0.10746123       0.005
   0.03760360 -0.06513134  0.09210962       0.005
   0.07520719 -0.08684179  0.07675802       0.005
   0.11281079 -0.10855223  0.06140642       0.005
  -0.07520719 -0.00000000  0.13816444       0.005
  -0.03760360 -0.02171045  0.12281283       0.005
  -0.00000000  0.00000000  0.13816444       0.005
   0.03760360 -0.02171045  0.12281283       0.005
   0.07520719 -0.04342089  0.10746123       0.005
   0.11281079 -0.06513134  0.09210962       0.005
  -0.07520719  0.04342089  0.16886765       0.005
  -0.03760360  0.02171045  0.15351604       0.005
  -0.00000000  0.04342089  0.12281283       0.005
   0.03760360  0.02171045  0.10746123       0.005
   0.07520719  0.00000000  0.09210962       0.005
   0.11281079 -0.02171045  0.07675802       0.005
  -0.07520719  0.08684179  0.15351604       0.005
  -0.03760360  0.06513134  0.13816444       0.005
  -0.00000000  0.08684179  0.10746123       0.005
   0.03760360  0.06513134  0.09210962       0.005
   0.07520719  0.04342089  0.07675802       0.005
   0.11281079  0.02171045  0.06140642       0.005
  -0.07520719  0.13026268  0.13816444       0.005
  -0.03760360  0.10855223  0.12281283       0.005
  -0.00000000  0.13026268  0.09210962       0.005
   0.03760360  0.10855223  0.07675802       0.005
   0.07520719  0.08684179  0.06140642       0.005
   0.11281079  0.06513134  0.04605481       0.005
  -0.07520719  0.17368357  0.12281283       0.005
  -0.03760360  0.15197313  0.10746123       0.005
  -0.00000000 -0.08684179  0.16886765       0.005
   0.03760360 -0.10855223  0.15351604       0.005
   0.07520719 -0.13026268  0.13816444       0.005
   0.11281079 -0.15197313  0.12281283       0.005
  -0.07520719 -0.04342089  0.19957085       0.005
  -0.03760360 -0.06513134  0.18421925       0.005
  -0.00000000 -0.04342089  0.15351604       0.005
   0.03760360 -0.06513134  0.13816444       0.005
   0.07520719 -0.08684179  0.12281283       0.005
   0.11281079 -0.10855223  0.10746123       0.005
  -0.07520719 -0.00000000  0.18421925       0.005
  -0.03760360 -0.02171045  0.16886765       0.005
   0.00000000 -0.00000000 -0.09210962       0.005
   0.03760360 -0.02171045 -0.10746123       0.005
   0.07520719 -0.04342089 -0.12281283       0.005
   0.11281079 -0.06513134 -0.13816444       0.005
  -0.07520719  0.04342089 -0.06140642       0.005
  -0.03760360  0.02171045 -0.07675802       0.005
   0.00000000  0.04342089 -0.10746123       0.005
   0.03760360  0.02171045 -0.12281283       0.005
   0.07520719  0.00000000 -0.13816444       0.005
   0.11281079 -0.02171045 -0.15351604       0.005
  -0.07520719  0.08684179 -0.07675802       0.005
  -0.03760360  0.06513134 -0.09210962       0.005
   0.00000000  0.08684179 -0.12281283       0.005
   0.03760360  0.06513134 -0.13816444       0.005
   0.07520719  0.04342089 -0.15351604       0.005
   0.11281079  0.02171045 -0.16886765       0.005
  -0.07520719  0.13026268 -0.09210962       0.005
  -0.03760360  0.10855223 -0.10746123       0.005
   0.00000000  0.13026268 -0.13816444       0.005
   0.03760360  0.10855223 -0.15351604       0.005
   0.07520719  0.08684179 -0.16886765       0.005
   0.11281079  0.06513134 -0.18421925       0.005
  -0.07520719  0.17368357 -0.10746123       0.005
  -0.03760360  0.15197313 -0.12281283       0.005
   0.00000000 -0.08684179 -0.06140642       0.005
   0.03760360 -0.10855223 -0.07675802       0.005
   0.07520719 -0.13026268 -0.09210962       0.005
   0.11281079 -0.15197313 -0.10746123       0.005
  -0.07520719 -0.04342089 -0.03070321       0.005
  -0.03760360 -0.06513134 -0.04605481       0.005
   0.00000000 -0.04342089 -0.07675802       0.005
   0.03760360 -0.06513134 -0.09210962       0.005
   0.07520719 -0.08684179 -0.10746123       0.005
   0.11281079 -0.10855223 -0.12281283       0.005
  -0.07520719 -0.00000000 -0.04605481       0.005
  -0.03760360 -0.02171045 -0.06140642       0.005
   0.00000000 -0.00000000 -0.04605481       0.005
   0.03760360 -0.02171045 -0.06140642       0.005
   0.07520719 -0.04342089 -0.07675802       0.005
   0.11281079 -0.06513134 -0.09210962       0.005
  -0.07520719  0.04342089 -0.01535160       0.005
  -0.03760360  0.02171045 -0.03070321       0.005
   0.00000000  0.04342089 -0.06140642       0.005
   0.03760360  0.02171045 -0.07675802       0.005
   0.07520719  0.00000000 -0.09210962       0.005
   0.11281079 -0.02171045 -0.10746123       0.005
  -0.07520719  0.08684179 -0.03070321       0.005
  -0.03760360  0.06513134 -0.04605481       0.005
   0.00000000  0.08684179 -0.07675802       0.005
   0.03760360  0.06513134 -0.09210962       0.005
   0.07520719  0.04342089 -0.10746123       0.005
   0.11281079  0.02171045 -0.12281283       0.005
  -0.07520719  0.13026268 -0.04605481       0.005
  -0.03760360  0.10855223 -0.06140642       0.005
   0.00000000  0.13026268 -0.09210962       0.005
   0.03760360  0.10855223 -0.10746123       0.005
   0.07520719  0.08684179 -0.12281283       0.005
   0.11281079  0.06513134 -0.13816444       0.005
  -0.07520719  0.17368357 -0.06140642       0.005
  -0.03760360  0.15197313 -0.07675802       0.005
   0.00000000 -0.08684179 -0.01535160       0.005
   0.03760360 -0.10855223 -0.03070321       0.005
   0.07520719 -0.13026268 -0.04605481       0.005
   0.11281079 -0.15197313 -0.06140642       0.005
  -0.07520719 -0.04342089  0.01535160       0.005
  -0.03760360 -0.06513134  0.00000000       0.005
   0.00000000 -0.04342089 -0.03070321       0.005
   0.03760360 -0.06513134 -0.04605481       0.005
   0.07520719 -0.08684179 -0.06140642       0.005
   0.11281079 -0.10855223 -0.07675802       0.005
  -0.07520719 -0.00000000 -0.00000000       0.005
  -0.03760360 -0.02171045 -0.01535160       0.005
 
 k-points in reciprocal lattice and weights: k-points                                
   0.00000000  0.00000000  0.00000000       0.005
   0.16666667  0.00000000  0.00000000       0.005
   0.33333333 -0.00000000 -0.00000000       0.005
   0.50000000 -0.00000000 -0.00000000       0.005
  -0.33333333  0.00000000  0.00000000       0.005
  -0.16666667 -0.00000000 -0.00000000       0.005
   0.00000000  0.16666667  0.00000000       0.005
   0.16666667  0.16666667  0.00000000       0.005
   0.33333333  0.16666667  0.00000000       0.005
   0.50000000  0.16666667  0.00000000       0.005
  -0.33333333  0.16666667  0.00000000       0.005
  -0.16666667  0.16666667  0.00000000       0.005
   0.00000000  0.33333333  0.00000000       0.005
   0.16666667  0.33333333  0.00000000       0.005
   0.33333333  0.33333333  0.00000000       0.005
   0.50000000  0.33333333  0.00000000       0.005
  -0.33333333  0.33333333  0.00000000       0.005
  -0.16666667  0.33333333 -0.00000000       0.005
   0.00000000  0.50000000  0.00000000       0.005
   0.16666667  0.50000000  0.00000000       0.005
   0.33333333  0.50000000  0.00000000       0.005
   0.50000000  0.50000000  0.00000000       0.005
  -0.33333333  0.50000000 -0.00000000       0.005
  -0.16666667  0.50000000 -0.00000000       0.005
   0.00000000 -0.33333333 -0.00000000       0.005
   0.16666667 -0.33333333  0.00000000       0.005
   0.33333333 -0.33333333 -0.00000000       0.005
   0.50000000 -0.33333333 -0.00000000       0.005
  -0.33333333 -0.33333333 -0.00000000       0.005
  -0.16666667 -0.33333333 -0.00000000       0.005
   0.00000000 -0.16666667  0.00000000       0.005
   0.16666667 -0.16666667 -0.00000000       0.005
   0.33333333 -0.16666667  0.00000000       0.005
   0.50000000 -0.16666667  0.00000000       0.005
  -0.33333333 -0.16666667  0.00000000       0.005
  -0.16666667 -0.16666667 -0.00000000       0.005
   0.00000000  0.00000000  0.16666667       0.005
   0.16666667  0.00000000  0.16666667       0.005
   0.33333333 -0.00000000  0.16666667       0.005
   0.50000000 -0.00000000  0.16666667       0.005
  -0.33333333  0.00000000  0.16666667       0.005
  -0.16666667  0.00000000  0.16666667       0.005
   0.00000000  0.16666667  0.16666667       0.005
   0.16666667  0.16666667  0.16666667       0.005
   0.33333333  0.16666667  0.16666667       0.005
   0.50000000  0.16666667  0.16666667       0.005
  -0.33333333  0.16666667  0.16666667       0.005
  -0.16666667  0.16666667  0.16666667       0.005
   0.00000000  0.33333333  0.16666667       0.005
   0.16666667  0.33333333  0.16666667       0.005
   0.33333333  0.33333333  0.16666667       0.005
   0.50000000  0.33333333  0.16666667       0.005
  -0.33333333  0.33333333  0.16666667       0.005
  -0.16666667  0.33333333  0.16666667       0.005
   0.00000000  0.50000000  0.16666667       0.005
   0.16666667  0.50000000  0.16666667       0.005
   0.33333333  0.50000000  0.16666667       0.005
   0.50000000  0.50000000  0.16666667       0.005
  -0.33333333  0.50000000  0.16666667       0.005
  -0.16666667  0.50000000  0.16666667       0.005
   0.00000000 -0.33333333  0.16666667       0.005
   0.16666667 -0.33333333  0.16666667       0.005
   0.33333333 -0.33333333  0.16666667       0.005
   0.50000000 -0.33333333  0.16666667       0.005
  -0.33333333 -0.33333333  0.16666667       0.005
  -0.16666667 -0.33333333  0.16666667       0.005
   0.00000000 -0.16666667  0.16666667       0.005
   0.16666667 -0.16666667  0.16666667       0.005
   0.33333333 -0.16666667  0.16666667       0.005
   0.50000000 -0.16666667  0.16666667       0.005
  -0.33333333 -0.16666667  0.16666667       0.005
  -0.16666667 -0.16666667  0.16666667       0.005
   0.00000000  0.00000000  0.33333333       0.005
   0.16666667 -0.00000000  0.33333333       0.005
   0.33333333 -0.00000000  0.33333333       0.005
   0.50000000 -0.00000000  0.33333333       0.005
  -0.33333333  0.00000000  0.33333333       0.005
  -0.16666667  0.00000000  0.33333333       0.005
   0.00000000  0.16666667  0.33333333       0.005
   0.16666667  0.16666667  0.33333333       0.005
   0.33333333  0.16666667  0.33333333       0.005
   0.50000000  0.16666667  0.33333333       0.005
  -0.33333333  0.16666667  0.33333333       0.005
  -0.16666667  0.16666667  0.33333333       0.005
  -0.00000000  0.33333333  0.33333333       0.005
   0.16666667  0.33333333  0.33333333       0.005
   0.33333333  0.33333333  0.33333333       0.005
   0.50000000  0.33333333  0.33333333       0.005
  -0.33333333  0.33333333  0.33333333       0.005
  -0.16666667  0.33333333  0.33333333       0.005
   0.00000000  0.50000000  0.33333333       0.005
   0.16666667  0.50000000  0.33333333       0.005
   0.33333333  0.50000000  0.33333333       0.005
   0.50000000  0.50000000  0.33333333       0.005
  -0.33333333  0.50000000  0.33333333       0.005
  -0.16666667  0.50000000  0.33333333       0.005
   0.00000000 -0.33333333  0.33333333       0.005
   0.16666667 -0.33333333  0.33333333       0.005
   0.33333333 -0.33333333  0.33333333       0.005
   0.50000000 -0.33333333  0.33333333       0.005
  -0.33333333 -0.33333333  0.33333333       0.005
  -0.16666667 -0.33333333  0.33333333       0.005
   0.00000000 -0.16666667  0.33333333       0.005
   0.16666667 -0.16666667  0.33333333       0.005
   0.33333333 -0.16666667  0.33333333       0.005
   0.50000000 -0.16666667  0.33333333       0.005
  -0.33333333 -0.16666667  0.33333333       0.005
  -0.16666667 -0.16666667  0.33333333       0.005
   0.00000000 -0.00000000  0.50000000       0.005
   0.16666667  0.00000000  0.50000000       0.005
   0.33333333 -0.00000000  0.50000000       0.005
   0.50000000 -0.00000000  0.50000000       0.005
  -0.33333333  0.00000000  0.50000000       0.005
  -0.16666667  0.00000000  0.50000000       0.005
   0.00000000  0.16666667  0.50000000       0.005
   0.16666667  0.16666667  0.50000000       0.005
   0.33333333  0.16666667  0.50000000       0.005
   0.50000000  0.16666667  0.50000000       0.005
  -0.33333333  0.16666667  0.50000000       0.005
  -0.16666667  0.16666667  0.50000000       0.005
  -0.00000000  0.33333333  0.50000000       0.005
   0.16666667  0.33333333  0.50000000       0.005
   0.33333333  0.33333333  0.50000000       0.005
   0.50000000  0.33333333  0.50000000       0.005
  -0.33333333  0.33333333  0.50000000       0.005
  -0.16666667  0.33333333  0.50000000       0.005
   0.00000000  0.50000000  0.50000000       0.005
   0.16666667  0.50000000  0.50000000       0.005
   0.33333333  0.50000000  0.50000000       0.005
   0.50000000  0.50000000  0.50000000       0.005
  -0.33333333  0.50000000  0.50000000       0.005
  -0.16666667  0.50000000  0.50000000       0.005
   0.00000000 -0.33333333  0.50000000       0.005
   0.16666667 -0.33333333  0.50000000       0.005
   0.33333333 -0.33333333  0.50000000       0.005
   0.50000000 -0.33333333  0.50000000       0.005
  -0.33333333 -0.33333333  0.50000000       0.005
  -0.16666667 -0.33333333  0.50000000       0.005
   0.00000000 -0.16666667  0.50000000       0.005
   0.16666667 -0.16666667  0.50000000       0.005
   0.33333333 -0.16666667  0.50000000       0.005
   0.50000000 -0.16666667  0.50000000       0.005
  -0.33333333 -0.16666667  0.50000000       0.005
  -0.16666667 -0.16666667  0.50000000       0.005
  -0.00000000 -0.00000000 -0.33333333       0.005
   0.16666667 -0.00000000 -0.33333333       0.005
   0.33333333 -0.00000000 -0.33333333       0.005
   0.50000000 -0.00000000 -0.33333333       0.005
  -0.33333333  0.00000000 -0.33333333       0.005
  -0.16666667  0.00000000 -0.33333333       0.005
   0.00000000  0.16666667 -0.33333333       0.005
   0.16666667  0.16666667 -0.33333333       0.005
   0.33333333  0.16666667 -0.33333333       0.005
   0.50000000  0.16666667 -0.33333333       0.005
  -0.33333333  0.16666667 -0.33333333       0.005
  -0.16666667  0.16666667 -0.33333333       0.005
  -0.00000000  0.33333333 -0.33333333       0.005
   0.16666667  0.33333333 -0.33333333       0.005
   0.33333333  0.33333333 -0.33333333       0.005
   0.50000000  0.33333333 -0.33333333       0.005
  -0.33333333  0.33333333 -0.33333333       0.005
  -0.16666667  0.33333333 -0.33333333       0.005
  -0.00000000  0.50000000 -0.33333333       0.005
   0.16666667  0.50000000 -0.33333333       0.005
   0.33333333  0.50000000 -0.33333333       0.005
   0.50000000  0.50000000 -0.33333333       0.005
  -0.33333333  0.50000000 -0.33333333       0.005
  -0.16666667  0.50000000 -0.33333333       0.005
   0.00000000 -0.33333333 -0.33333333       0.005
   0.16666667 -0.33333333 -0.33333333       0.005
   0.33333333 -0.33333333 -0.33333333       0.005
   0.50000000 -0.33333333 -0.33333333       0.005
  -0.33333333 -0.33333333 -0.33333333       0.005
  -0.16666667 -0.33333333 -0.33333333       0.005
  -0.00000000 -0.16666667 -0.33333333       0.005
   0.16666667 -0.16666667 -0.33333333       0.005
   0.33333333 -0.16666667 -0.33333333       0.005
   0.50000000 -0.16666667 -0.33333333       0.005
  -0.33333333 -0.16666667 -0.33333333       0.005
  -0.16666667 -0.16666667 -0.33333333       0.005
  -0.00000000 -0.00000000 -0.16666667       0.005
   0.16666667 -0.00000000 -0.16666667       0.005
   0.33333333 -0.00000000 -0.16666667       0.005
   0.50000000 -0.00000000 -0.16666667       0.005
  -0.33333333  0.00000000 -0.16666667       0.005
  -0.16666667 -0.00000000 -0.16666667       0.005
  -0.00000000  0.16666667 -0.16666667       0.005
   0.16666667  0.16666667 -0.16666667       0.005
   0.33333333  0.16666667 -0.16666667       0.005
   0.50000000  0.16666667 -0.16666667       0.005
  -0.33333333  0.16666667 -0.16666667       0.005
  -0.16666667  0.16666667 -0.16666667       0.005
   0.00000000  0.33333333 -0.16666667       0.005
   0.16666667  0.33333333 -0.16666667       0.005
   0.33333333  0.33333333 -0.16666667       0.005
   0.50000000  0.33333333 -0.16666667       0.005
  -0.33333333  0.33333333 -0.16666667       0.005
  -0.16666667  0.33333333 -0.16666667       0.005
   0.00000000  0.50000000 -0.16666667       0.005
   0.16666667  0.50000000 -0.16666667       0.005
   0.33333333  0.50000000 -0.16666667       0.005
   0.50000000  0.50000000 -0.16666667       0.005
  -0.33333333  0.50000000 -0.16666667       0.005
  -0.16666667  0.50000000 -0.16666667       0.005
  -0.00000000 -0.33333333 -0.16666667       0.005
   0.16666667 -0.33333333 -0.16666667       0.005
   0.33333333 -0.33333333 -0.16666667       0.005
   0.50000000 -0.33333333 -0.16666667       0.005
  -0.33333333 -0.33333333 -0.16666667       0.005
  -0.16666667 -0.33333333 -0.16666667       0.005
  -0.00000000 -0.16666667 -0.16666667       0.005
   0.16666667 -0.16666667 -0.16666667       0.005
   0.33333333 -0.16666667 -0.16666667       0.005
   0.50000000 -0.16666667 -0.16666667       0.005
  -0.33333333 -0.16666667 -0.16666667       0.005
  -0.16666667 -0.16666667 -0.16666667       0.005
 
 position of ions in fractional coordinates (direct lattice) 
   0.00000000  0.00000000  0.00000000
 
 position of ions in cartesian coordinates  (Angst):
   0.00000000  0.00000000  0.00000000
 
 Euler angles ALPHA=     0.0000000  BETA=     0.0000000

 transformation matrix from SAXIS to cartesian coordinates
 ---------------------------------------------------------
     1.0000000 m_x     0.0000000 m_y     0.0000000 m_z
     0.0000000 m_x     1.0000000 m_y     0.0000000 m_z
     0.0000000 m_x     0.0000000 m_y     1.0000000 m_z

 transformation matrix from cartesian coordinates to SAXIS
 ---------------------------------------------------------
     1.0000000 m_x     0.0000000 m_y     0.0000000 m_z
     0.0000000 m_x     1.0000000 m_y     0.0000000 m_z
     0.0000000 m_x     0.0000000 m_y     1.0000000 m_z




--------------------------------------------------------------------------------------------------------


 k-point  1 :   0.0000 0.0000 0.0000  plane waves:    1290
 k-point  2 :   0.1667 0.0000 0.0000  plane waves:    1346
 k-point  3 :   0.3333-0.0000-0.0000  plane waves:    1328
 k-point  4 :   0.5000-0.0000-0.0000  plane waves:    1400
 k-point  5 :  -0.3333 0.0000 0.0000  plane waves:    1328
 k-point  6 :  -0.1667-0.0000-0.0000  plane waves:    1346
 k-point  7 :   0.0000 0.1667 0.0000  plane waves:    1346
 k-point  8 :   0.1667 0.1667 0.0000  plane waves:    1362
 k-point  9 :   0.3333 0.1667 0.0000  plane waves:    1360
 k-point 10 :   0.5000 0.1667 0.0000  plane waves:    1356
 k-point 11 :  -0.3333 0.1667 0.0000  plane waves:    1354
 k-point 12 :  -0.1667 0.1667 0.0000  plane waves:    1348
 k-point 13 :   0.0000 0.3333 0.0000  plane waves:    1328
 k-point 14 :   0.1667 0.3333 0.0000  plane waves:    1360
 k-point 15 :   0.3333 0.3333 0.0000  plane waves:    1360
 k-point 16 :   0.5000 0.3333 0.0000  plane waves:    1372
 k-point 17 :  -0.3333 0.3333 0.0000  plane waves:    1360
 k-point 18 :  -0.1667 0.3333-0.0000  plane waves:    1354
 k-point 19 :   0.0000 0.5000 0.0000  plane waves:    1400
 k-point 20 :   0.1667 0.5000 0.0000  plane waves:    1356
 k-point 21 :   0.3333 0.5000 0.0000  plane waves:    1372
 k-point 22 :   0.5000 0.5000 0.0000  plane waves:    1384
 k-point 23 :  -0.3333 0.5000-0.0000  plane waves:    1372
 k-point 24 :  -0.1667 0.5000-0.0000  plane waves:    1356
 k-point 25 :   0.0000-0.3333-0.0000  plane waves:    1328
 k-point 26 :   0.1667-0.3333 0.0000  plane waves:    1354
 k-point 27 :   0.3333-0.3333-0.0000  plane waves:    1360
 k-point 28 :   0.5000-0.3333-0.0000  plane waves:    1372
 k-point 29 :  -0.3333-0.3333-0.0000  plane waves:    1360
 k-point 30 :  -0.1667-0.3333-0.0000  plane waves:    1360
 k-point 31 :   0.0000-0.1667 0.0000  plane waves:    1346
 k-point 32 :   0.1667-0.1667-0.0000  plane waves:    1348
 k-point 33 :   0.3333-0.1667 0.0000  plane waves:    1354
 k-point 34 :   0.5000-0.1667 0.0000  plane waves:    1356
 k-point 35 :  -0.3333-0.1667 0.0000  plane waves:    1360
 k-point 36 :  -0.1667-0.1667-0.0000  plane waves:    1362
 k-point 37 :   0.0000 0.0000 0.1667  plane waves:    1346
 k-point 38 :   0.1667 0.0000 0.1667  plane waves:    1362
 k-point 39 :   0.3333-0.0000 0.1667  plane waves:    1360
 k-point 40 :   0.5000-0.0000 0.1667  plane waves:    1356
 k-point 41 :  -0.3333 0.0000 0.1667  plane waves:    1354
 k-point 42 :  -0.1667 0.0000 0.1667  plane waves:    1348
 k-point 43 :   0.0000 0.1667 0.1667  plane waves:    1362
 k-point 44 :   0.1667 0.1667 0.1667  plane waves:    1346
 k-point 45 :   0.3333 0.1667 0.1667  plane waves:    1348
 k-point 46 :   0.5000 0.1667 0.1667  plane waves:    1354
 k-point 47 :  -0.3333 0.1667 0.1667  plane waves:    1356
 k-point 48 :  -0.1667 0.1667 0.1667  plane waves:    1360
 k-point 49 :   0.0000 0.3333 0.1667  plane waves:    1360
 k-point 50 :   0.1667 0.3333 0.1667  plane waves:    1348
 k-point 51 :   0.3333 0.3333 0.1667  plane waves:    1360
 k-point 52 :   0.5000 0.3333 0.1667  plane waves:    1352
 k-point 53 :  -0.3333 0.3333 0.1667  plane waves:    1384
 k-point 54 :  -0.1667 0.3333 0.1667  plane waves:    1352
 k-point 55 :   0.0000 0.5000 0.1667  plane waves:    1356
 k-point 56 :   0.1667 0.5000 0.1667  plane waves:    1354
 k-point 57 :   0.3333 0.5000 0.1667  plane waves:    1352
 k-point 58 :   0.5000 0.5000 0.1667  plane waves:    1372
 k-point 59 :  -0.3333 0.5000 0.1667  plane waves:    1380
 k-point 60 :  -0.1667 0.5000 0.1667  plane waves:    1384
 k-point 61 :   0.0000-0.3333 0.1667  plane waves:    1354
 k-point 62 :   0.1667-0.3333 0.1667  plane waves:    1356
 k-point 63 :   0.3333-0.3333 0.1667  plane waves:    1384
 k-point 64 :   0.5000-0.3333 0.1667  plane waves:    1380
 k-point 65 :  -0.3333-0.3333 0.1667  plane waves:    1372
 k-point 66 :  -0.1667-0.3333 0.1667  plane waves:    1352
 k-point 67 :   0.0000-0.1667 0.1667  plane waves:    1348
 k-point 68 :   0.1667-0.1667 0.1667  plane waves:    1360
 k-point 69 :   0.3333-0.1667 0.1667  plane waves:    1352
 k-point 70 :   0.5000-0.1667 0.1667  plane waves:    1384
 k-point 71 :  -0.3333-0.1667 0.1667  plane waves:    1352
 k-point 72 :  -0.1667-0.1667 0.1667  plane waves:    1360
 k-point 73 :   0.0000 0.0000 0.3333  plane waves:    1328
 k-point 74 :   0.1667-0.0000 0.3333  plane waves:    1360
 k-point 75 :   0.3333-0.0000 0.3333  plane waves:    1360
 k-point 76 :   0.5000-0.0000 0.3333  plane waves:    1372
 k-point 77 :  -0.3333 0.0000 0.3333  plane waves:    1360
 k-point 78 :  -0.1667 0.0000 0.3333  plane waves:    1354
 k-point 79 :   0.0000 0.1667 0.3333  plane waves:    1360
 k-point 80 :   0.1667 0.1667 0.3333  plane waves:    1348
 k-point 81 :   0.3333 0.1667 0.3333  plane waves:    1360
 k-point 82 :   0.5000 0.1667 0.3333  plane waves:    1352
 k-point 83 :  -0.3333 0.1667 0.3333  plane waves:    1384
 k-point 84 :  -0.1667 0.1667 0.3333  plane waves:    1352
 k-point 85 :  -0.0000 0.3333 0.3333  plane waves:    1360
 k-point 86 :   0.1667 0.3333 0.3333  plane waves:    1360
 k-point 87 :   0.3333 0.3333 0.3333  plane waves:    1328
 k-point 88 :   0.5000 0.3333 0.3333  plane waves:    1354
 k-point 89 :  -0.3333 0.3333 0.3333  plane waves:    1360
 k-point 90 :  -0.1667 0.3333 0.3333  plane waves:    1372
 k-point 91 :   0.0000 0.5000 0.3333  plane waves:    1372
 k-point 92 :   0.1667 0.5000 0.3333  plane waves:    1352
 k-point 93 :   0.3333 0.5000 0.3333  plane waves:    1354
 k-point 94 :   0.5000 0.5000 0.3333  plane waves:    1356
 k-point 95 :  -0.3333 0.5000 0.3333  plane waves:    1384
 k-point 96 :  -0.1667 0.5000 0.3333  plane waves:    1380
 k-point 97 :   0.0000-0.3333 0.3333  plane waves:    1360
 k-point 98 :   0.1667-0.3333 0.3333  plane waves:    1384
 k-point 99 :   0.3333-0.3333 0.3333  plane waves:    1360
 k-point ** :   0.5000-0.3333 0.3333  plane waves:    1384
 k-point ** :  -0.3333-0.3333 0.3333  plane waves:    1360
 k-point ** :  -0.1667-0.3333 0.3333  plane waves:    1384
 k-point ** :   0.0000-0.1667 0.3333  plane waves:    1354
 k-point ** :   0.1667-0.1667 0.3333  plane waves:    1352
 k-point ** :   0.3333-0.1667 0.3333  plane waves:    1372
 k-point ** :   0.5000-0.1667 0.3333  plane waves:    1380
 k-point ** :  -0.3333-0.1667 0.3333  plane waves:    1384
 k-point ** :  -0.1667-0.1667 0.3333  plane waves:    1356
 k-point ** :   0.0000-0.0000 0.5000  plane waves:    1400
 k-point ** :   0.1667 0.0000 0.5000  plane waves:    1356
 k-point ** :   0.3333-0.0000 0.5000  plane waves:    1372
 k-point ** :   0.5000-0.0000 0.5000  plane waves:    1384
 k-point ** :  -0.3333 0.0000 0.5000  plane waves:    1372
 k-point ** :  -0.1667 0.0000 0.5000  plane waves:    1356
 k-point ** :   0.0000 0.1667 0.5000  plane waves:    1356
 k-point ** :   0.1667 0.1667 0.5000  plane waves:    1354
 k-point ** :   0.3333 0.1667 0.5000  plane waves:    1352
 k-point ** :   0.5000 0.1667 0.5000  plane waves:    1372
 k-point ** :  -0.3333 0.1667 0.5000  plane waves:    1380
 k-point ** :  -0.1667 0.1667 0.5000  plane waves:    1384
 k-point ** :  -0.0000 0.3333 0.5000  plane waves:    1372
 k-point ** :   0.1667 0.3333 0.5000  plane waves:    1352
 k-point ** :   0.3333 0.3333 0.5000  plane waves:    1354
 k-point ** :   0.5000 0.3333 0.5000  plane waves:    1356
 k-point ** :  -0.3333 0.3333 0.5000  plane waves:    1384
 k-point ** :  -0.1667 0.3333 0.5000  plane waves:    1380
 k-point ** :   0.0000 0.5000 0.5000  plane waves:    1384
 k-point ** :   0.1667 0.5000 0.5000  plane waves:    1372
 k-point ** :   0.3333 0.5000 0.5000  plane waves:    1356
 k-point ** :   0.5000 0.5000 0.5000  plane waves:    1400
 k-point ** :  -0.3333 0.5000 0.5000  plane waves:    1356
 k-point ** :  -0.1667 0.5000 0.5000  plane waves:    1372
 k-point ** :   0.0000-0.3333 0.5000  plane waves:    1372
 k-point ** :   0.1667-0.3333 0.5000  plane waves:    1380
 k-point ** :   0.3333-0.3333 0.5000  plane waves:    1384
 k-point ** :   0.5000-0.3333 0.5000  plane waves:    1356
 k-point ** :  -0.3333-0.3333 0.5000  plane waves:    1354
 k-point ** :  -0.1667-0.3333 0.5000  plane waves:    1352
 k-point ** :   0.0000-0.1667 0.5000  plane waves:    1356
 k-point ** :   0.1667-0.1667 0.5000  plane waves:    1384
 k-point ** :   0.3333-0.1667 0.5000  plane waves:    1380
 k-point ** :   0.5000-0.1667 0.5000  plane waves:    1372
 k-point ** :  -0.3333-0.1667 0.5000  plane waves:    1352
 k-point ** :  -0.1667-0.1667 0.5000  plane waves:    1354
 k-point ** :  -0.0000-0.0000-0.3333  plane waves:    1328
 k-point ** :   0.1667-0.0000-0.3333  plane waves:    1354
 k-point ** :   0.3333-0.0000-0.3333  plane waves:    1360
 k-point ** :   0.5000-0.0000-0.3333  plane waves:    1372
 k-point ** :  -0.3333 0.0000-0.3333  plane waves:    1360
 k-point ** :  -0.1667 0.0000-0.3333  plane waves:    1360
 k-point ** :   0.0000 0.1667-0.3333  plane waves:    1354
 k-point ** :   0.1667 0.1667-0.3333  plane waves:    1356
 k-point ** :   0.3333 0.1667-0.3333  plane waves:    1384
 k-point ** :   0.5000 0.1667-0.3333  plane waves:    1380
 k-point ** :  -0.3333 0.1667-0.3333  plane waves:    1372
 k-point ** :  -0.1667 0.1667-0.3333  plane waves:    1352
 k-point ** :  -0.0000 0.3333-0.3333  plane waves:    1360
 k-point ** :   0.1667 0.3333-0.3333  plane waves:    1384
 k-point ** :   0.3333 0.3333-0.3333  plane waves:    1360
 k-point ** :   0.5000 0.3333-0.3333  plane waves:    1384
 k-point ** :  -0.3333 0.3333-0.3333  plane waves:    1360
 k-point ** :  -0.1667 0.3333-0.3333  plane waves:    1384
 k-point ** :  -0.0000 0.5000-0.3333  plane waves:    1372
 k-point ** :   0.1667 0.5000-0.3333  plane waves:    1380
 k-point ** :   0.3333 0.5000-0.3333  plane waves:    1384
 k-point ** :   0.5000 0.5000-0.3333  plane waves:    1356
 k-point ** :  -0.3333 0.5000-0.3333  plane waves:    1354
 k-point ** :  -0.1667 0.5000-0.3333  plane waves:    1352
 k-point ** :   0.0000-0.3333-0.3333  plane waves:    1360
 k-point ** :   0.1667-0.3333-0.3333  plane waves:    1372
 k-point ** :   0.3333-0.3333-0.3333  plane waves:    1360
 k-point ** :   0.5000-0.3333-0.3333  plane waves:    1354
 k-point ** :  -0.3333-0.3333-0.3333  plane waves:    1328
 k-point ** :  -0.1667-0.3333-0.3333  plane waves:    1360
 k-point ** :  -0.0000-0.1667-0.3333  plane waves:    1360
 k-point ** :   0.1667-0.1667-0.3333  plane waves:    1352
 k-point ** :   0.3333-0.1667-0.3333  plane waves:    1384
 k-point ** :   0.5000-0.1667-0.3333  plane waves:    1352
 k-point ** :  -0.3333-0.1667-0.3333  plane waves:    1360
 k-point ** :  -0.1667-0.1667-0.3333  plane waves:    1348
 k-point ** :  -0.0000-0.0000-0.1667  plane waves:    1346
 k-point ** :   0.1667-0.0000-0.1667  plane waves:    1348
 k-point ** :   0.3333-0.0000-0.1667  plane waves:    1354
 k-point ** :   0.5000-0.0000-0.1667  plane waves:    1356
 k-point ** :  -0.3333 0.0000-0.1667  plane waves:    1360
 k-point ** :  -0.1667-0.0000-0.1667  plane waves:    1362
 k-point ** :  -0.0000 0.1667-0.1667  plane waves:    1348
 k-point ** :   0.1667 0.1667-0.1667  plane waves:    1360
 k-point ** :   0.3333 0.1667-0.1667  plane waves:    1352
 k-point ** :   0.5000 0.1667-0.1667  plane waves:    1384
 k-point ** :  -0.3333 0.1667-0.1667  plane waves:    1352
 k-point ** :  -0.1667 0.1667-0.1667  plane waves:    1360
 k-point ** :   0.0000 0.3333-0.1667  plane waves:    1354
 k-point ** :   0.1667 0.3333-0.1667  plane waves:    1352
 k-point ** :   0.3333 0.3333-0.1667  plane waves:    1372
 k-point ** :   0.5000 0.3333-0.1667  plane waves:    1380
 k-point ** :  -0.3333 0.3333-0.1667  plane waves:    1384
 k-point ** :  -0.1667 0.3333-0.1667  plane waves:    1356
 k-point ** :   0.0000 0.5000-0.1667  plane waves:    1356
 k-point ** :   0.1667 0.5000-0.1667  plane waves:    1384
 k-point ** :   0.3333 0.5000-0.1667  plane waves:    1380
 k-point ** :   0.5000 0.5000-0.1667  plane waves:    1372
 k-point ** :  -0.3333 0.5000-0.1667  plane waves:    1352
 k-point ** :  -0.1667 0.5000-0.1667  plane waves:    1354
 k-point ** :  -0.0000-0.3333-0.1667  plane waves:    1360
 k-point ** :   0.1667-0.3333-0.1667  plane waves:    1352
 k-point ** :   0.3333-0.3333-0.1667  plane waves:    1384
 k-point ** :   0.5000-0.3333-0.1667  plane waves:    1352
 k-point ** :  -0.3333-0.3333-0.1667  plane waves:    1360
 k-point ** :  -0.1667-0.3333-0.1667  plane waves:    1348
 k-point ** :  -0.0000-0.1667-0.1667  plane waves:    1362
 k-point ** :   0.1667-0.1667-0.1667  plane waves:    1360
 k-point ** :   0.3333-0.1667-0.1667  plane waves:    1356
 k-point ** :   0.5000-0.1667-0.1667  plane waves:    1354
 k-point ** :  -0.3333-0.1667-0.1667  plane waves:    1348
 k-point ** :  -0.1667-0.1667-0.1667  plane waves:    1346

 maximum and minimum number of plane-waves per node :       194      140

 maximum number of plane-waves:      1400
 maximum index in each direction: 
   IXMAX=    6   IYMAX=    6   IZMAX=    6
   IXMIN=   -6   IYMIN=   -6   IZMIN=   -6


 parallel 3D FFT for wavefunctions:
    minimum data exchange during FFTs selected (reduces bandwidth)
 parallel 3D FFT for charge:
    minimum data exchange during FFTs selected (reduces bandwidth)


 total amount of memory used by VASP MPI-rank0    96962. kBytes
=======================================================================

   base      :      30000. kBytes
   nonl-proj :       5420. kBytes
   fftplans  :       2070. kBytes
   grid      :       1769. kBytes
   one-center:        196. kBytes
   wavefun   :      57507. kBytes
 
     INWAV:  cpu time    6.1543: real time    6.1543
 Broyden mixing: mesh for mixing (old mesh)
   NGX = 13   NGY = 13   NGZ = 13
  (NGX  = 48   NGY  = 48   NGZ  = 48)
  gives a total of   2197 points

 charge density for first step will be calculated from the start-wavefunctions


--------------------------------------------------------------------------------------------------------


 Maximum index for augmentation-charges         5533 (set IRDMAX)


--------------------------------------------------------------------------------------------------------


 initial charge from wavefunction
 First call to EWALD:  gamma=   0.459
 Maximum number of real-space cells 3x 3x 3
 Maximum number of reciprocal cells 3x 3x 3

    FEWALD:  cpu time    0.0021: real time    0.0021


--------------------------------------- Iteration      1(   1)  ---------------------------------------


    POTLOK:  cpu time    0.0215: real time    0.0216
    SETDIJ:  cpu time    0.0346: real time    0.0346

 total amount of memory used by VASP MPI-rank0   725954. kBytes
=======================================================================

   base      :      30000. kBytes
   nonl-proj :       5420. kBytes
   fftplans  :       2070. kBytes
   grid      :       1769. kBytes
   one-center:        196. kBytes
   wavefun   :     686499. kBytes
 
    EDDIAG:  cpu time  116.8632: real time  116.8507
       DOS:  cpu time    0.0303: real time    0.0303
    --------------------------------------------
      LOOP:  cpu time  116.9496: real time  116.9372

 eigenvalue-minimisations  :     0
 total energy-change (2. order) :-0.1357669E+00  ( 0.0000000E+00)
 number of electron       8.0000000 magnetization       0.0000000      0.0000000      0.0000000
 augmentation part       -1.3434641 magnetization       0.0000001      0.0000001      0.0000001

 Free energy of the ion-electron system (eV)
  ---------------------------------------------------
  alpha Z        PSCENC =        22.61767795
  Ewald energy   TEWEN  =      -344.53113738
  -Hartree energ DENC   =       -64.62108038
  -exchange      EXHF   =         0.00000000
  -V(xc)+E(xc)   XCENC  =       -72.80517268
  PAW double counting   =       432.50547950     -344.39597077
  entropy T*S    EENTRO =         0.00000000
  eigenvalues    EBANDS =       -58.40834363
  atomic energy  EATOM  =       429.50278051
  Solvation  Ediel_sol  =         0.00000000
  ---------------------------------------------------
  free energy    TOTEN  =        -0.13576689 eV

  energy without entropy =       -0.13576689  energy(sigma->0) =       -0.13576689


--------------------------------------------------------------------------------------------------------




--------------------------------------- Iteration      1(   2)  ---------------------------------------



 total amount of memory used by VASP MPI-rank0   725954. kBytes
=======================================================================

   base      :      30000. kBytes
   nonl-proj :       5420. kBytes
   fftplans  :       2070. kBytes
   grid      :       1769. kBytes
   one-center:        196. kBytes
   wavefun   :     686499. kBytes
 
    EDDIAG:  cpu time  116.8986: real time  116.8904
       DOS:  cpu time    0.0290: real time    0.0290
    --------------------------------------------
      LOOP:  cpu time  116.9276: real time  116.9194

 eigenvalue-minimisations  :     0
 total energy-change (2. order) :-0.3637979E-11  ( 0.0000000E+00)
 number of electron       8.0000000 magnetization       0.0000000      0.0000000      0.0000000
 augmentation part       -1.3434641 magnetization       0.0000001      0.0000001      0.0000001

 Free energy of the ion-electron system (eV)
  ---------------------------------------------------
  alpha Z        PSCENC =        22.61767795
  Ewald energy   TEWEN  =      -344.53113738
  -Hartree energ DENC   =       -64.62108038
  -exchange      EXHF   =         0.00000000
  -V(xc)+E(xc)   XCENC  =       -72.80517268
  PAW double counting   =       432.50547950     -344.39597077
  entropy T*S    EENTRO =         0.00000000
  eigenvalues    EBANDS =       -58.40834363
  atomic energy  EATOM  =       429.50278051
  Solvation  Ediel_sol  =         0.00000000
  ---------------------------------------------------
  free energy    TOTEN  =        -0.13576689 eV

  energy without entropy =       -0.13576689  energy(sigma->0) =       -0.13576689


--------------------------------------------------------------------------------------------------------




--------------------------------------- Iteration      1(   3)  ---------------------------------------



 total amount of memory used by VASP MPI-rank0   725954. kBytes
=======================================================================

   base      :      30000. kBytes
   nonl-proj :       5420. kBytes
   fftplans  :       2070. kBytes
   grid      :       1769. kBytes
   one-center:        196. kBytes
   wavefun   :     686499. kBytes
 
    EDDIAG:  cpu time  116.7213: real time  116.7093
       DOS:  cpu time    0.0283: real time    0.0283
    --------------------------------------------
      LOOP:  cpu time  116.7496: real time  116.7376

 eigenvalue-minimisations  :     0
 total energy-change (2. order) :-0.7958079E-12  ( 0.0000000E+00)
 number of electron       8.0000000 magnetization       0.0000000      0.0000000      0.0000000
 augmentation part       -1.3434641 magnetization       0.0000001      0.0000001      0.0000001

 Free energy of the ion-electron system (eV)
  ---------------------------------------------------
  alpha Z        PSCENC =        22.61767795
  Ewald energy   TEWEN  =      -344.53113738
  -Hartree energ DENC   =       -64.62108038
  -exchange      EXHF   =         0.00000000
  -V(xc)+E(xc)   XCENC  =       -72.80517268
  PAW double counting   =       432.50547950     -344.39597077
  entropy T*S    EENTRO =         0.00000000
  eigenvalues    EBANDS =       -58.40834363
  atomic energy  EATOM  =       429.50278051
  Solvation  Ediel_sol  =         0.00000000
  ---------------------------------------------------
  free energy    TOTEN  =        -0.13576689 eV

  energy without entropy =       -0.13576689  energy(sigma->0) =       -0.13576689


--------------------------------------------------------------------------------------------------------




--------------------------------------- Iteration      1(   4)  ---------------------------------------



 total amount of memory used by VASP MPI-rank0   725954. kBytes
=======================================================================

   base      :      30000. kBytes
   nonl-proj :       5420. kBytes
   fftplans  :       2070. kBytes
   grid      :       1769. kBytes
   one-center:        196. kBytes
   wavefun   :     686499. kBytes
 
    EDDIAG:  cpu time  116.4945: real time  116.4825
       DOS:  cpu time    0.0314: real time    0.0314
    --------------------------------------------
      LOOP:  cpu time  116.5258: real time  116.5138

 eigenvalue-minimisations  :     0
 total energy-change (2. order) : 0.7389644E-11  ( 0.0000000E+00)
 number of electron       8.0000000 magnetization       0.0000000      0.0000000      0.0000000
[...]
    0.000000    3.736782    3.736782    3.736782   -0.000000    0.000000   -0.000000
    0.859589    0.379515    0.379515    0.379515   -0.000000    0.000000   -0.000000
    1.719178    0.199124    0.199124    0.199124   -0.000000    0.000000   -0.000000
    2.578767    0.144494    0.144494    0.144494   -0.000000    0.000000   -0.000000
    3.438356    0.123422    0.123422    0.123422   -0.000000    0.000000   -0.000000
    4.297945    0.119939    0.119939    0.119939   -0.000000    0.000000   -0.000000
    5.157534    0.138825    0.138825    0.138825   -0.000000    0.000000   -0.000000
    6.017123    0.227145    0.227145    0.227145   -0.000000    0.000000   -0.000000
    6.876712    1.084369    1.084369    1.084369   -0.000000    0.000000   -0.000000
    7.736301    2.024762    2.024762    2.024763   -0.000000    0.000000   -0.000000
    8.595890    3.458693    3.458693    3.458693   -0.000000    0.000000   -0.000000
    9.455479    6.748515    6.748515    6.748515    0.000000   -0.000000    0.000000
   10.315068    3.750572    3.750572    3.750572   -0.000000   -0.000000    0.000000
   11.174657    3.637921    3.637921    3.637922   -0.000000    0.000000   -0.000000
   12.034246    2.150881    2.150881    2.150881   -0.000000   -0.000000    0.000000
   12.893835    2.576091    2.576091    2.576090    0.000000   -0.000000    0.000000
   13.753424    1.375640    1.375640    1.375640    0.000000   -0.000000    0.000000
   14.613013    0.889458    0.889458    0.889458    0.000000   -0.000000    0.000000
   15.472602    1.138060    1.138060    1.138060    0.000000   -0.000000    0.000000
   16.332191    0.563567    0.563568    0.563567    0.000000   -0.000000    0.000000
   17.191780    0.887998    0.887998    0.887997   -0.000000   -0.000000    0.000001
   18.051369    0.814342    0.814342    0.814342    0.000000    0.000000   -0.000000
   18.910958    0.336081    0.336081    0.336081   -0.000000    0.000000   -0.000000
   19.770547    0.341669    0.341669    0.341669   -0.000000    0.000000    0.000000
   20.630137    0.266927    0.266927    0.266927    0.000000    0.000000   -0.000000
   21.489726    0.241296    0.241296    0.241296    0.000000    0.000000   -0.000000
   22.349315    0.108242    0.108242    0.108242   -0.000000    0.000000   -0.000000
   23.208904    0.186445    0.186445    0.186445   -0.000000    0.000000   -0.000000
   24.068493    0.101022    0.101022    0.101022   -0.000000    0.000000   -0.000000
   24.928082    0.066239    0.066239    0.066239   -0.000000    0.000000   -0.000000
   25.787671    0.045543    0.045543    0.045543   -0.000000   -0.000000    0.000000
   26.647260    0.062168    0.062168    0.062168   -0.000000    0.000000   -0.000000
   27.506849    0.030713    0.030713    0.030713   -0.000000    0.000000   -0.000000
   28.366438    0.057727    0.057727    0.057727   -0.000000    0.000000   -0.000000
   29.226027    0.052883    0.052883    0.052883   -0.000000    0.000000   -0.000000
   30.085616    0.053062    0.053062    0.053062   -0.000000   -0.000000    0.000000
   30.945205    0.051016    0.051016    0.051016   -0.000000    0.000000   -0.000000
   31.804794    0.035393    0.035393    0.035393    0.000000   -0.000000    0.000000
   32.664383    0.022685    0.022685    0.022685    0.000000    0.000000   -0.000000
   33.523972    0.023374    0.023374    0.023374    0.000000    0.000000    0.000000
   34.383561    0.023548    0.023548    0.023548   -0.000000   -0.000000    0.000000
   35.243150    0.019201    0.019201    0.019201   -0.000000   -0.000000    0.000000
   36.102739    0.021069    0.021069    0.021069   -0.000000   -0.000000   -0.000000
   36.962328    0.018296    0.018296    0.018296   -0.000000   -0.000000   -0.000000
   37.821917    0.017858    0.017858    0.017858    0.000000   -0.000000    0.000000
   38.681506    0.008616    0.008616    0.008616    0.000000   -0.000000   -0.000000
   39.541095    0.006661    0.006661    0.006661   -0.000000    0.000000   -0.000000
   40.400684    0.006139    0.006139    0.006139   -0.000000   -0.000000    0.000000
   41.260273    0.009258    0.009258    0.009258    0.000000   -0.000000    0.000000
   42.119862    0.006495    0.006495    0.006495    0.000000   -0.000000   -0.000000
   42.979451    0.007399    0.007399    0.007399    0.000000   -0.000000    0.000000
   43.839040    0.013641    0.013641    0.013641    0.000000   -0.000000    0.000000
   44.698629    0.006868    0.006868    0.006868    0.000000   -0.000000    0.000000
   45.558218    0.008992    0.008992    0.008992   -0.000000   -0.000000   -0.000000
   46.417807    0.003962    0.003962    0.003962   -0.000000   -0.000000    0.000000
   47.277396    0.003059    0.003059    0.003059    0.000000   -0.000000    0.000000
   48.136985    0.003764    0.003764    0.003764    0.000000   -0.000000    0.000000
   48.996574    0.007595    0.007595    0.007595   -0.000000    0.000000   -0.000000
   49.856163    0.007443    0.007443    0.007443   -0.000000   -0.000000   -0.000000
   50.715752    0.005543    0.005543    0.005543   -0.000000    0.000000   -0.000000
   51.575341    0.004352    0.004352    0.004352   -0.000000    0.000000   -0.000000
   52.434930    0.005635    0.005635    0.005635    0.000000   -0.000000    0.000000
   53.294519    0.004345    0.004345    0.004345    0.000000    0.000000   -0.000000
   54.154108    0.004539    0.004539    0.004539   -0.000000    0.000000    0.000000
   55.013697    0.002056    0.002056    0.002056    0.000000    0.000000    0.000000
   55.873286    0.002011    0.002011    0.002011   -0.000000   -0.000000    0.000000
   56.732875    0.002609    0.002609    0.002609   -0.000000    0.000000   -0.000000
   57.592464    0.002493    0.002493    0.002493    0.000000    0.000000   -0.000000
   58.452053    0.003152    0.003152    0.003152    0.000000   -0.000000    0.000000
   59.311642    0.000326    0.000326    0.000326    0.000000    0.000000    0.000000
   60.171231    0.000703    0.000703    0.000703    0.000000    0.000000    0.000000
   61.030820    0.000739    0.000739    0.000739   -0.000000   -0.000000   -0.000000
   61.890410    0.000373    0.000373    0.000373   -0.000000    0.000000   -0.000000
   62.749999    0.000874    0.000874    0.000874    0.000000    0.000000    0.000000
   63.609588    0.000693    0.000693    0.000693    0.000000   -0.000000    0.000000
   64.469177    0.001306    0.001306    0.001306    0.000000    0.000000    0.000000
   65.328766    0.000260    0.000260    0.000260    0.000000   -0.000000    0.000000
   66.188355    0.000817    0.000817    0.000817   -0.000000    0.000000   -0.000000
   67.047944    0.000356    0.000356    0.000356    0.000000    0.000000   -0.000000
   67.907533    0.001249    0.001249    0.001249   -0.000000    0.000000   -0.000000
   68.767122    0.000539    0.000539    0.000539   -0.000000   -0.000000   -0.000000
   69.626711    0.000260    0.000260    0.000260   -0.000000    0.000000   -0.000000
   70.486300    0.000028    0.000028    0.000028   -0.000000    0.000000   -0.000000
   71.345889    0.000017    0.000017    0.000017    0.000000   -0.000000   -0.000000
   72.205478    0.000013    0.000013    0.000013    0.000000   -0.000000   -0.000000
   73.065067    0.000011    0.000011    0.000011    0.000000   -0.000000   -0.000000
   73.924656    0.000010    0.000010    0.000010    0.000000   -0.000000   -0.000000
   74.784245    0.000008    0.000008    0.000008    0.000000   -0.000000   -0.000000
   75.643834    0.000008    0.000008    0.000008    0.000000   -0.000000   -0.000000
   76.503423    0.000007    0.000007    0.000007    0.000000   -0.000000   -0.000000
   77.363012    0.000006    0.000006    0.000006    0.000000   -0.000000   -0.000000
   78.222601    0.000006    0.000006    0.000006    0.000000   -0.000000   -0.000000
   79.082190    0.000005    0.000005    0.000005    0.000000   -0.000000   -0.000000
   79.941779    0.000005    0.000005    0.000005    0.000000   -0.000000   -0.000000
   80.801368    0.000005    0.000005    0.000005    0.000000   -0.000000   -0.000000
   81.660957    0.000004    0.000004    0.000004    0.000000   -0.000000   -0.000000
   82.520546    0.000004    0.000004    0.000004    0.000000   -0.000000   -0.000000
   83.380135    0.000004    0.000004    0.000004    0.000000   -0.000000   -0.000000
   84.239724    0.000003    0.000003    0.000003    0.000000   -0.000000   -0.000000
   85.099313    0.000003    0.000003    0.000003    0.000000   -0.000000   -0.000000

  frequency dependent      REAL DIELECTRIC FUNCTION (independent particle, no local field effects) current-current (2nd set in vasprun.xml)
     E(ev)        X           Y           Z          XY          YZ          ZX
  --------------------------------------------------------------------------------------------------------------
    0.000000    2.605247    2.605247    2.605247   -0.000000    0.000000   -0.000000
    0.859589    2.617715    2.617715    2.617715   -0.000000    0.000000   -0.000000
    1.719178    2.656963    2.656963    2.656963   -0.000000    0.000000   -0.000000
    2.578767    2.727805    2.727804    2.727805   -0.000000    0.000000   -0.000000
    3.438356    2.840721    2.840721    2.840721   -0.000000    0.000000   -0.000000
    4.297945    3.017824    3.017824    3.017824   -0.000000    0.000000   -0.000000
    5.157534    3.318290    3.318290    3.318290   -0.000000    0.000000   -0.000000
    6.017123    3.752988    3.752988    3.752988   -0.000000    0.000000   -0.000000
    6.876712    4.528498    4.528498    4.528498   -0.000000    0.000000   -0.000000
    7.736301    5.704665    5.704665    5.704666   -0.000000    0.000000   -0.000000
    8.595890    2.130055    2.130055    2.130054    0.000000   -0.000000    0.000000
    9.455479    1.981434    1.981434    1.981433    0.000000   -0.000000    0.000001
   10.315068    0.425503    0.425503    0.425503    0.000000   -0.000000    0.000000
   11.174657   -0.487186   -0.487185   -0.487187    0.000001   -0.000000    0.000001
   12.034246   -0.272517   -0.272518   -0.272517   -0.000000    0.000000   -0.000000
   12.893835   -0.446808   -0.446808   -0.446808    0.000000    0.000000   -0.000000
   13.753424   -0.469629   -0.469629   -0.469629   -0.000000   -0.000000   -0.000000
   14.613013   -0.030895   -0.030896   -0.030895   -0.000000   -0.000000    0.000000
   15.472602   -0.319993   -0.319993   -0.319992   -0.000000    0.000000   -0.000000
   16.332191    0.132412    0.132412    0.132412   -0.000000    0.000000   -0.000000
   17.191780   -0.069580   -0.069580   -0.069580   -0.000000   -0.000000    0.000000
   18.051369   -0.007323   -0.007323   -0.007323   -0.000000    0.000000   -0.000000
   18.910958    0.286043    0.286043    0.286043   -0.000000    0.000000   -0.000000
   19.770547    0.385563    0.385563    0.385563   -0.000000   -0.000000   -0.000000
   20.630137    0.290125    0.290125    0.290125   -0.000000    0.000000   -0.000000
   21.489726    0.291736    0.291736    0.291736    0.000000    0.000000   -0.000000
   22.349315    0.451007    0.451007    0.451007   -0.000000    0.000000   -0.000000
   23.208904    0.455484    0.455484    0.455484   -0.000000    0.000000   -0.000000
   24.068493    0.476124    0.476124    0.476124    0.000000   -0.000000    0.000000
   24.928082    0.529065    0.529065    0.529065   -0.000000   -0.000000   -0.000000
   25.787671    0.599553    0.599553    0.599553    0.000000    0.000000   -0.000000
   26.647260    0.641562    0.641562    0.641562   -0.000000    0.000000   -0.000000
   27.506849    0.672060    0.672060    0.672060   -0.000000    0.000000   -0.000000
   28.366438    0.702961    0.702961    0.702961   -0.000000    0.000000   -0.000000
   29.226027    0.723846    0.723846    0.723846    0.000000    0.000000   -0.000000
   30.085616    0.744094    0.744094    0.744094    0.000000    0.000000   -0.000000
   30.945205    0.721571    0.721571    0.721571   -0.000000    0.000000   -0.000000
   31.804794    0.760297    0.760297    0.760297    0.000000    0.000000   -0.000000
   32.664383    0.765026    0.765026    0.765026   -0.000000   -0.000000    0.000000
   33.523972    0.776226    0.776226    0.776226    0.000000   -0.000000    0.000000
   34.383561    0.788884    0.788884    0.788884   -0.000000   -0.000000   -0.000000
   35.243150    0.806707    0.806707    0.806707    0.000000    0.000000   -0.000000
   36.102739    0.816408    0.816408    0.816408    0.000000   -0.000000    0.000000
   36.962328    0.822764    0.822764    0.822764    0.000000   -0.000000    0.000000
   37.821917    0.828935    0.828935    0.828935   -0.000000   -0.000000   -0.000000
   38.681506    0.836588    0.836588    0.836588    0.000000    0.000000    0.000000
   39.541095    0.842787    0.842787    0.842787    0.000000   -0.000000    0.000000
   40.400684    0.857906    0.857906    0.857906    0.000000    0.000000    0.000000
   41.260273    0.861203    0.861203    0.861203    0.000000   -0.000000    0.000000
   42.119862    0.871794    0.871794    0.871794   -0.000000   -0.000000    0.000000
   42.979451    0.876790    0.876790    0.876790   -0.000000   -0.000000    0.000000
   43.839040    0.884218    0.884218    0.884218    0.000000    0.000000    0.000000
   44.698629    0.881707    0.881707    0.881707    0.000000    0.000000    0.000000
   45.558218    0.885311    0.885311    0.885311   -0.000000   -0.000000   -0.000000
   46.417807    0.891322    0.891322    0.891322    0.000000    0.000000    0.000000
   47.277396    0.897912    0.897912    0.897912   -0.000000    0.000000   -0.000000
   48.136985    0.903848    0.903848    0.903848    0.000000    0.000000    0.000000
   48.996574    0.909598    0.909598    0.909598    0.000000    0.000000    0.000000
   49.856163    0.909103    0.909103    0.909103    0.000000    0.000000    0.000000
   50.715752    0.909558    0.909558    0.909558    0.000000    0.000000    0.000000
   51.575341    0.914048    0.914048    0.914048    0.000000   -0.000000    0.000000
   52.434930    0.916536    0.916536    0.916536    0.000000    0.000000   -0.000000
   53.294519    0.918234    0.918234    0.918234    0.000000    0.000000    0.000000
   54.154108    0.919862    0.919862    0.919862   -0.000000    0.000000   -0.000000
   55.013697    0.925081    0.925081    0.925081   -0.000000    0.000000   -0.000000
   55.873286    0.927450    0.927450    0.927450   -0.000000   -0.000000   -0.000000
   56.732875    0.929684    0.929684    0.929684    0.000000   -0.000000    0.000000
   57.592464    0.930318    0.930318    0.930318    0.000000    0.000000    0.000000
   58.452053    0.933706    0.933706    0.933706    0.000000    0.000000   -0.000000
   59.311642    0.935368    0.935368    0.935368   -0.000000    0.000000   -0.000000
   60.171231    0.937838    0.937838    0.937838    0.000000    0.000000   -0.000000
   61.030820    0.940023    0.940023    0.940023   -0.000000    0.000000    0.000000
   61.890410    0.941640    0.941640    0.941640    0.000000    0.000000    0.000000
   62.749999    0.943947    0.943947    0.943947    0.000000    0.000000    0.000000
   63.609588    0.945622    0.945622    0.945622    0.000000   -0.000000    0.000000
   64.469177    0.946519    0.946519    0.946519    0.000000    0.000000    0.000000
   65.328766    0.948083    0.948083    0.948083    0.000000    0.000000   -0.000000
   66.188355    0.950013    0.950013    0.950013    0.000000    0.000000   -0.000000
   67.047944    0.950998    0.950998    0.950998   -0.000000    0.000000   -0.000000
   67.907533    0.952270    0.952270    0.952270    0.000000    0.000000    0.000000
   68.767122    0.953716    0.953716    0.953716   -0.000000    0.000000   -0.000000
   69.626711    0.954262    0.954262    0.954262    0.000000   -0.000000    0.000000
   70.486300    0.955796    0.955796    0.955796    0.000000   -0.000000    0.000000
   71.345889    0.957038    0.957038    0.957038    0.000000    0.000000   -0.000000
   72.205478    0.958183    0.958183    0.958183    0.000000    0.000000   -0.000000
   73.065067    0.959264    0.959264    0.959264    0.000000    0.000000   -0.000000
   73.924656    0.960293    0.960293    0.960293    0.000000    0.000000   -0.000000
   74.784245    0.961277    0.961277    0.961277    0.000000    0.000000   -0.000000
   75.643834    0.962220    0.962220    0.962220    0.000000    0.000000   -0.000000
   76.503423    0.963125    0.963125    0.963125    0.000000    0.000000   -0.000000
   77.363012    0.963995    0.963995    0.963995    0.000000    0.000000   -0.000000
   78.222601    0.964833    0.964833    0.964833    0.000000    0.000000   -0.000000
   79.082190    0.965640    0.965640    0.965640    0.000000    0.000000   -0.000000
   79.941779    0.966418    0.966418    0.966418    0.000000    0.000000   -0.000000
   80.801368    0.967169    0.967169    0.967169    0.000000    0.000000   -0.000000
   81.660957    0.967893    0.967893    0.967893    0.000000    0.000000   -0.000000
   82.520546    0.968593    0.968593    0.968593    0.000000    0.000000   -0.000000
   83.380135    0.969270    0.969270    0.969270    0.000000    0.000000   -0.000000
   84.239724    0.969924    0.969924    0.969924    0.000000    0.000000   -0.000000
   85.099313    0.970557    0.970557    0.970557    0.000000    0.000000   -0.000000
 
 The outermost node in the dielectric function lies at epsilon=  18.3


--------------------------------------------------------------------------------------------------------


    OPTICS:  cpu time    0.4708: real time    0.5450
    4ORBIT:  cpu time    0.0000: real time    0.0000

 Spin-Orbit-Coupling matrix elements

 Ion:    1  E_soc:     -0.2997953
 l=   1
     0.0000000    -0.0499594    -0.0499594
    -0.0499594     0.0000000    -0.0499594
    -0.0499594    -0.0499594     0.0000000
 l=   2
     0.0000000    -0.0000012     0.0000000    -0.0000012    -0.0000053
    -0.0000012     0.0000000    -0.0000040    -0.0000012    -0.0000012
     0.0000000    -0.0000040     0.0000000    -0.0000040     0.0000000
    -0.0000012    -0.0000012    -0.0000040     0.0000000    -0.0000012
    -0.0000053    -0.0000012     0.0000000    -0.0000012     0.0000000
 l=   3
     0.0000000     0.0000000     0.0000000     0.0000000     0.0000000     0.0000000    -0.0000000
     0.0000000     0.0000000    -0.0000000     0.0000000    -0.0000000    -0.0000000    -0.0000000
     0.0000000    -0.0000000     0.0000000    -0.0000000    -0.0000000    -0.0000000     0.0000000
     0.0000000     0.0000000    -0.0000000     0.0000000    -0.0000000     0.0000000     0.0000000
     0.0000000    -0.0000000    -0.0000000    -0.0000000     0.0000000    -0.0000000     0.0000000
     0.0000000    -0.0000000    -0.0000000     0.0000000    -0.0000000     0.0000000    -0.0000000
    -0.0000000    -0.0000000     0.0000000     0.0000000     0.0000000    -0.0000000     0.0000000

 total amount of memory used by VASP MPI-rank0    96962. kBytes
=======================================================================

   base      :      30000. kBytes
   nonl-proj :       5420. kBytes
   fftplans  :       2070. kBytes
   grid      :       1769. kBytes
   one-center:        196. kBytes
   wavefun   :      57507. kBytes
 
  
  
 General timing and accounting informations for this job:
 ========================================================
  
                  Total CPU time used (sec):      715.538
                            User time (sec):      710.780
                          System time (sec):        4.759
                         Elapsed time (sec):      716.257
  
                   Maximum memory used (kb):      772280.
                   Average memory used (kb):           0.
  
                          Minor page faults:       105839
                          Major page faults:            0
                 Voluntary context switches:         1701
