 running on   64 total cores
 distrk:  each k-point on   16 cores,    4 groups
 distr:  one band on    4 cores,    4 groups
 using from now: INCAR     
 vasp.5.4.4.18Apr17-6-g9f103f2a35 (build Jul 09 2018 16:43:14) complex          
  
 POSCAR found type information on POSCAR  Kr
 POSCAR found :  1 types and       1 ions
 scaLAPACK will be used

 ----------------------------------------------------------------------------- 
|                                                                             |
|           W    W    AA    RRRRR   N    N  II  N    N   GGGG   !!!           |
|           W    W   A  A   R    R  NN   N  II  NN   N  G    G  !!!           |
|           W    W  A    A  R    R  N N  N  II  N N  N  G       !!!           |
|           W WW W  AAAAAA  RRRRR   N  N N  II  N  N N  G  GGG   !            |
|           WW  WW  A    A  R   R   N   NN  II  N   NN  G    G                |
|           W    W  A    A  R    R  N    N  II  N    N   GGGG   !!!           |
|                                                                             |
|      You have enabled k-point parallelism (KPAR>1).                         |
|      This developmental code was originally  written by Paul Kent at ORNL,  |
|      and carefully double checked in Vienna.                                |
|      GW as well as linear response parallelism added by Martijn Marsman     |
|      and Georg Kresse.                                                      |
|      Carefully verify results versus KPAR=1.                                |
|      Report problems to Paul Kent and Vienna.                               |
|                                                                             |
 ----------------------------------------------------------------------------- 

 LDA part: xc-table for Pade appr. of Perdew
 POSCAR, INCAR and KPOINTS ok, starting setup
 FFT: planning ...
 WAVECAR not read
 entering main loop
       N       E                     dE             d eps       ncg     rms          rms(c)
DAV:   1     0.138368919010E+02    0.13837E+02   -0.23026E+03  8656   0.451E+02
DAV:   2    -0.181665963245E+02   -0.32003E+02   -0.29748E+02 11644   0.112E+02
DAV:   3    -0.201422860937E+02   -0.19757E+01   -0.19666E+01 10528   0.277E+01
DAV:   4    -0.201530271668E+02   -0.10741E-01   -0.10738E-01 10756   0.258E+00
DAV:   5    -0.201532548648E+02   -0.22770E-03   -0.22769E-03 10672   0.389E-01    0.533E+00
DAV:   6    -0.189152686372E+02    0.12380E+01   -0.35333E-01  9500   0.513E+00    0.139E+00
DAV:   7    -0.190067117739E+02   -0.91443E-01   -0.12257E-01  9032   0.304E+00    0.186E-01
DAV:   8    -0.190087905781E+02   -0.20788E-02   -0.84311E-03  9904   0.878E-01    0.814E-02
DAV:   9    -0.190085235418E+02    0.26704E-03   -0.17602E-03  9596   0.434E-01    0.460E-02
DAV:  10    -0.190085863561E+02   -0.62814E-04   -0.44220E-04  9932   0.181E-01    0.181E-02
DAV:  11    -0.190085691348E+02    0.17221E-04   -0.78297E-05  9716   0.852E-02    0.108E-02
DAV:  12    -0.190085688512E+02    0.28368E-06   -0.21105E-05  9816   0.441E-02    0.441E-03
DAV:  13    -0.190085669923E+02    0.18589E-05   -0.54734E-06  9876   0.211E-02    0.160E-03
DAV:  14    -0.190085680341E+02   -0.10418E-05   -0.12351E-06  9948   0.103E-02    0.786E-04
DAV:  15    -0.190085691856E+02   -0.11515E-05   -0.13625E-07 10572   0.337E-03    0.556E-04
DAV:  16    -0.190085699135E+02   -0.72794E-06   -0.53225E-08  9844   0.225E-03    0.215E-04
DAV:  17    -0.190085700915E+02   -0.17797E-06   -0.10342E-08 10264   0.866E-04    0.802E-05
DAV:  18    -0.190085701082E+02   -0.16639E-07   -0.22566E-09  8004   0.444E-04    0.308E-05
DAV:  19    -0.190085701035E+02    0.46226E-08   -0.33025E-10  5948   0.165E-04
   1 F= -.19008570E+02 E0= -.19008570E+02  d E =0.000000E+00  mag=     0.0000     0.0000     0.0000
 writing wavefunctions
 optical routines
 imaginary and real dielectric function

 ----------------------------------------------------------------------------- 
|                                                                             |
|           W    W    AA    RRRRR   N    N  II  N    N   GGGG   !!!           |
|           W    W   A  A   R    R  NN   N  II  NN   N  G    G  !!!           |
|           W    W  A    A  R    R  N N  N  II  N N  N  G       !!!           |
|           W WW W  AAAAAA  RRRRR   N  N N  II  N  N N  G  GGG   !            |
|           WW  WW  A    A  R   R   N   NN  II  N   NN  G    G                |
|           W    W  A    A  R    R  N    N  II  N    N   GGGG   !!!           |
|                                                                             |
|      You have switched on METAGGA and linear response routines.             |
|      This combination is currently not supported.                           |
|      If you have selected LOPTICS=.TRUE., VASP will continue but some       |
|      matrix elements [H,r] are neglected   (you might try to use            |
|      LPEAD=.TRUE. which works irrespective of H).                           |
|      In all other cases VASP will stop now. SOOO sorry...                   |
|                                                                             |
 ----------------------------------------------------------------------------- 

 direction            1
 direction            2
 direction            3
