   1   1   0   0
  0.6089512E+02  0.4416035E-09  0.4416035E-09  0.4416035E-09  0.5000000E-15
  1.000000000000000E-004
  CAR 
 Og_FCC                                  
     16.04316249    -30.95559485  301      1.08427132      1.00000000
    -30.956  0.0000E+00  0.0000E+00
    -30.799  0.0000E+00  0.0000E+00
    -30.642  0.0000E+00  0.0000E+00
    -30.486  0.0000E+00  0.0000E+00
    -30.329  0.0000E+00  0.0000E+00
    -30.172  0.0000E+00  0.0000E+00
    -30.016  0.0000E+00  0.0000E+00
    -29.859  0.0000E+00  0.0000E+00
    -29.702  0.0000E+00  0.0000E+00
    -29.546  0.0000E+00  0.0000E+00
    -29.389  0.0000E+00  0.0000E+00
    -29.232 -0.7449E-28 -0.1167E-28
    -29.076 -0.1226E-09 -0.1921E-10
    -28.919 -0.3589E+00 -0.5622E-01
    -28.762  0.6589E+02  0.1027E+02
    -28.606 -0.1700E+01  0.1000E+02
    -28.449 -0.2403E-05  0.1000E+02
    -28.292  0.0000E+00  0.1000E+02
    -28.136  0.0000E+00  0.1000E+02
    -27.979  0.0000E+00  0.1000E+02
    -27.822  0.0000E+00  0.1000E+02
    -27.666  0.0000E+00  0.1000E+02
    -27.509  0.0000E+00  0.1000E+02
    -27.352  0.0000E+00  0.1000E+02
    -27.196  0.0000E+00  0.1000E+02
    -27.039  0.0000E+00  0.1000E+02
    -26.882  0.0000E+00  0.1000E+02
    -26.726  0.0000E+00  0.1000E+02
    -26.569  0.0000E+00  0.1000E+02
    -26.412  0.0000E+00  0.1000E+02
    -26.256  0.0000E+00  0.1000E+02
    -26.099  0.0000E+00  0.1000E+02
    -25.942  0.0000E+00  0.1000E+02
    -25.786  0.0000E+00  0.1000E+02
    -25.629  0.0000E+00  0.1000E+02
    -25.472  0.0000E+00  0.1000E+02
    -25.316  0.0000E+00  0.1000E+02
    -25.159  0.0000E+00  0.1000E+02
    -25.002  0.0000E+00  0.1000E+02
    -24.846  0.0000E+00  0.1000E+02
    -24.689  0.0000E+00  0.1000E+02
    -24.532  0.0000E+00  0.1000E+02
    -24.376  0.0000E+00  0.1000E+02
    -24.219  0.0000E+00  0.1000E+02
    -24.062  0.0000E+00  0.1000E+02
    -23.906  0.0000E+00  0.1000E+02
    -23.749  0.0000E+00  0.1000E+02
    -23.592  0.0000E+00  0.1000E+02
    -23.436  0.0000E+00  0.1000E+02
    -23.279  0.0000E+00  0.1000E+02
    -23.122  0.0000E+00  0.1000E+02
    -22.966  0.0000E+00  0.1000E+02
    -22.809  0.0000E+00  0.1000E+02
    -22.652  0.0000E+00  0.1000E+02
    -22.496  0.0000E+00  0.1000E+02
    -22.339  0.0000E+00  0.1000E+02
    -22.182 -0.9133E-41  0.1000E+02
    -22.026 -0.5429E-19  0.1000E+02
    -21.869 -0.1234E-05  0.1000E+02
    -21.713 -0.5150E-01  0.9992E+01
    -21.556  0.1277E+02  0.1199E+02
    -21.399  0.5109E-01  0.1200E+02
    -21.243 -0.2825E-05  0.1200E+02
    -21.086  0.0000E+00  0.1200E+02
    -20.929  0.0000E+00  0.1200E+02
    -20.773  0.0000E+00  0.1200E+02
    -20.616  0.0000E+00  0.1200E+02
    -20.459  0.0000E+00  0.1200E+02
    -20.303  0.0000E+00  0.1200E+02
    -20.146  0.0000E+00  0.1200E+02
    -19.989  0.0000E+00  0.1200E+02
    -19.833  0.0000E+00  0.1200E+02
    -19.676  0.0000E+00  0.1200E+02
    -19.519  0.0000E+00  0.1200E+02
    -19.363  0.0000E+00  0.1200E+02
    -19.206  0.0000E+00  0.1200E+02
    -19.049  0.0000E+00  0.1200E+02
    -18.893  0.0000E+00  0.1200E+02
    -18.736  0.0000E+00  0.1200E+02
    -18.579  0.0000E+00  0.1200E+02
    -18.423  0.0000E+00  0.1200E+02
    -18.266  0.0000E+00  0.1200E+02
    -18.109  0.0000E+00  0.1200E+02
    -17.953  0.0000E+00  0.1200E+02
    -17.796  0.0000E+00  0.1200E+02
    -17.639  0.0000E+00  0.1200E+02
    -17.483  0.0000E+00  0.1200E+02
    -17.326  0.0000E+00  0.1200E+02
    -17.169  0.0000E+00  0.1200E+02
    -17.013  0.0000E+00  0.1200E+02
    -16.856  0.0000E+00  0.1200E+02
    -16.699  0.0000E+00  0.1200E+02
    -16.543  0.0000E+00  0.1200E+02
    -16.386  0.0000E+00  0.1200E+02
    -16.229  0.0000E+00  0.1200E+02
    -16.073  0.0000E+00  0.1200E+02
    -15.916  0.0000E+00  0.1200E+02
    -15.759  0.0000E+00  0.1200E+02
    -15.603  0.0000E+00  0.1200E+02
    -15.446  0.0000E+00  0.1200E+02
    -15.289  0.0000E+00  0.1200E+02
    -15.133  0.0000E+00  0.1200E+02
    -14.976  0.0000E+00  0.1200E+02
    -14.819  0.0000E+00  0.1200E+02
    -14.663  0.0000E+00  0.1200E+02
    -14.506  0.0000E+00  0.1200E+02
    -14.349  0.0000E+00  0.1200E+02
    -14.193  0.0000E+00  0.1200E+02
    -14.036  0.0000E+00  0.1200E+02
    -13.879  0.0000E+00  0.1200E+02
    -13.723  0.0000E+00  0.1200E+02
    -13.566  0.0000E+00  0.1200E+02
    -13.409  0.0000E+00  0.1200E+02
    -13.253  0.0000E+00  0.1200E+02
    -13.096  0.0000E+00  0.1200E+02
    -12.939  0.0000E+00  0.1200E+02
    -12.783  0.0000E+00  0.1200E+02
    -12.626  0.0000E+00  0.1200E+02
    -12.469  0.0000E+00  0.1200E+02
    -12.313  0.0000E+00  0.1200E+02
    -12.156  0.0000E+00  0.1200E+02
    -11.999  0.0000E+00  0.1200E+02
    -11.843  0.0000E+00  0.1200E+02
    -11.686  0.0000E+00  0.1200E+02
    -11.529  0.0000E+00  0.1200E+02
    -11.373  0.0000E+00  0.1200E+02
    -11.216  0.0000E+00  0.1200E+02
    -11.059  0.0000E+00  0.1200E+02
    -10.903  0.0000E+00  0.1200E+02
    -10.746  0.0000E+00  0.1200E+02
    -10.589  0.0000E+00  0.1200E+02
    -10.433  0.0000E+00  0.1200E+02
    -10.276  0.0000E+00  0.1200E+02
    -10.119  0.0000E+00  0.1200E+02
     -9.963  0.0000E+00  0.1200E+02
     -9.806  0.0000E+00  0.1200E+02
     -9.649  0.0000E+00  0.1200E+02
     -9.493  0.0000E+00  0.1200E+02
     -9.336  0.0000E+00  0.1200E+02
     -9.180  0.0000E+00  0.1200E+02
     -9.023  0.0000E+00  0.1200E+02
     -8.866  0.0000E+00  0.1200E+02
     -8.710  0.0000E+00  0.1200E+02
     -8.553  0.0000E+00  0.1200E+02
     -8.396  0.0000E+00  0.1200E+02
     -8.240  0.0000E+00  0.1200E+02
     -8.083  0.0000E+00  0.1200E+02
     -7.926  0.0000E+00  0.1200E+02
     -7.770  0.0000E+00  0.1200E+02
     -7.613  0.0000E+00  0.1200E+02
     -7.456  0.0000E+00  0.1200E+02
     -7.300  0.0000E+00  0.1200E+02
     -7.143  0.0000E+00  0.1200E+02
     -6.986  0.0000E+00  0.1200E+02
     -6.830  0.0000E+00  0.1200E+02
     -6.673  0.0000E+00  0.1200E+02
     -6.516  0.0000E+00  0.1200E+02
     -6.360  0.0000E+00  0.1200E+02
     -6.203  0.0000E+00  0.1200E+02
     -6.046  0.0000E+00  0.1200E+02
     -5.890  0.0000E+00  0.1200E+02
     -5.733  0.0000E+00  0.1200E+02
     -5.576  0.0000E+00  0.1200E+02
     -5.420  0.0000E+00  0.1200E+02
     -5.263  0.0000E+00  0.1200E+02
     -5.106  0.0000E+00  0.1200E+02
     -4.950  0.0000E+00  0.1200E+02
     -4.793  0.0000E+00  0.1200E+02
     -4.636  0.0000E+00  0.1200E+02
     -4.480  0.0000E+00  0.1200E+02
     -4.323  0.0000E+00  0.1200E+02
     -4.166  0.0000E+00  0.1200E+02
     -4.010  0.0000E+00  0.1200E+02
     -3.853  0.0000E+00  0.1200E+02
     -3.696  0.0000E+00  0.1200E+02
     -3.540  0.0000E+00  0.1200E+02
     -3.383  0.0000E+00  0.1200E+02
     -3.226  0.0000E+00  0.1200E+02
     -3.070  0.0000E+00  0.1200E+02
     -2.913  0.0000E+00  0.1200E+02
     -2.756  0.0000E+00  0.1200E+02
     -2.600  0.0000E+00  0.1200E+02
     -2.443  0.0000E+00  0.1200E+02
     -2.286 -0.3479E-47  0.1200E+02
     -2.130 -0.2858E-23  0.1200E+02
     -1.973 -0.5367E-08  0.1200E+02
     -1.816 -0.8650E-02  0.1200E+02
     -1.660  0.5694E+00  0.1209E+02
     -1.503  0.1437E+01  0.1231E+02
     -1.346  0.2915E+01  0.1277E+02
     -1.190  0.4250E+01  0.1344E+02
     -1.033  0.1302E+01  0.1364E+02
     -0.876  0.8494E+00  0.1377E+02
     -0.720  0.8708E+00  0.1391E+02
     -0.563  0.1591E+01  0.1416E+02
     -0.406  0.9198E+00  0.1430E+02
     -0.250  0.2050E+01  0.1462E+02
     -0.093  0.1196E+01  0.1481E+02
      0.064  0.4033E+01  0.1544E+02
      0.220  0.2347E+01  0.1581E+02
      0.377  0.2979E+01  0.1628E+02
      0.534  0.3703E+01  0.1686E+02
      0.690  0.3224E+01  0.1736E+02
      0.847  0.2610E+01  0.1777E+02
      1.004  0.1012E+01  0.1793E+02
      1.160  0.4505E+00  0.1800E+02
      1.317 -0.1144E-02  0.1800E+02
      1.474 -0.3658E-11  0.1800E+02
      1.630  0.0000E+00  0.1800E+02
      1.787  0.0000E+00  0.1800E+02
      1.944  0.0000E+00  0.1800E+02
      2.100  0.0000E+00  0.1800E+02
      2.257  0.0000E+00  0.1800E+02
      2.414  0.0000E+00  0.1800E+02
      2.570  0.0000E+00  0.1800E+02
      2.727  0.0000E+00  0.1800E+02
      2.884 -0.1424E-54  0.1800E+02
      3.040 -0.9467E-29  0.1800E+02
      3.197 -0.1515E-11  0.1800E+02
      3.353 -0.3186E-03  0.1800E+02
      3.510  0.1837E-01  0.1800E+02
      3.667 -0.5397E-03  0.1800E+02
      3.823 -0.2031E-10  0.1800E+02
      3.980 -0.9572E-08  0.1800E+02
      4.137 -0.2448E-02  0.1800E+02
      4.293  0.1431E+00  0.1802E+02
      4.450  0.6964E-01  0.1804E+02
      4.607  0.3488E-01  0.1804E+02
      4.763 -0.1324E-05  0.1804E+02
      4.920 -0.2627E-02  0.1804E+02
      5.077  0.2201E+00  0.1808E+02
      5.233 -0.7695E-02  0.1807E+02
      5.390  0.1564E+00  0.1810E+02
      5.547  0.4050E+00  0.1816E+02
      5.703 -0.1007E-02  0.1816E+02
      5.860  0.1336E+00  0.1818E+02
      6.017  0.5372E+00  0.1827E+02
      6.173  0.3459E+00  0.1832E+02
      6.330  0.6584E+00  0.1842E+02
      6.487  0.1548E+01  0.1867E+02
      6.643  0.6192E+00  0.1876E+02
      6.800  0.8013E+00  0.1889E+02
      6.957  0.3857E+00  0.1895E+02
      7.113  0.1855E+01  0.1924E+02
      7.270  0.1900E+01  0.1954E+02
      7.427  0.1304E+01  0.1974E+02
      7.583  0.5585E-01  0.1975E+02
      7.740  0.8617E+00  0.1989E+02
      7.897  0.2569E+00  0.1993E+02
      8.053  0.1325E+01  0.2013E+02
      8.210  0.4104E+00  0.2020E+02
      8.367 -0.3797E-02  0.2020E+02
      8.523  0.1282E+01  0.2040E+02
      8.680  0.9499E+00  0.2055E+02
      8.837  0.1000E+01  0.2070E+02
      8.993  0.4034E+01  0.2134E+02
      9.150  0.6626E+00  0.2144E+02
      9.307  0.1219E+01  0.2163E+02
      9.463  0.1390E+01  0.2185E+02
      9.620  0.4541E+01  0.2256E+02
      9.777  0.8264E+00  0.2269E+02
      9.933  0.2288E+00  0.2273E+02
     10.090  0.4285E+00  0.2279E+02
     10.247  0.2750E+00  0.2284E+02
     10.403  0.8486E+00  0.2297E+02
     10.560  0.1049E+01  0.2313E+02
     10.717  0.2779E+01  0.2357E+02
     10.873  0.3196E+01  0.2407E+02
     11.030  0.2098E+01  0.2440E+02
     11.187  0.2530E+01  0.2479E+02
     11.343  0.1841E+01  0.2508E+02
     11.500  0.3810E+00  0.2514E+02
     11.657  0.6131E+00  0.2524E+02
     11.813  0.8281E+00  0.2537E+02
     11.970  0.6485E+00  0.2547E+02
     12.127  0.1303E+00  0.2549E+02
     12.283  0.4330E-01  0.2550E+02
     12.440  0.9776E+00  0.2565E+02
     12.597  0.6750E+00  0.2576E+02
     12.753  0.1201E+00  0.2577E+02
     12.910  0.4118E+00  0.2584E+02
     13.067  0.9306E+00  0.2598E+02
     13.223 -0.6175E-02  0.2598E+02
     13.380 -0.1804E-48  0.2598E+02
     13.537 -0.3325E-24  0.2598E+02
     13.693 -0.1414E-08  0.2598E+02
     13.850 -0.3593E-02  0.2598E+02
     14.007  0.1095E+00  0.2600E+02
     14.163 -0.8567E-03  0.2600E+02
     14.320  0.0000E+00  0.2600E+02
     14.477  0.0000E+00  0.2600E+02
     14.633  0.0000E+00  0.2600E+02
     14.790  0.0000E+00  0.2600E+02
     14.947  0.0000E+00  0.2600E+02
     15.103  0.0000E+00  0.2600E+02
     15.260  0.0000E+00  0.2600E+02
     15.417  0.0000E+00  0.2600E+02
     15.573  0.0000E+00  0.2600E+02
     15.730  0.0000E+00  0.2600E+02
     15.886  0.0000E+00  0.2600E+02
     16.043  0.0000E+00  0.2600E+02
