    1    1    1    1
  0.6089512E+02  0.4416035E-09  0.4416035E-09  0.4416035E-09  0.5000000E-15
  1.000000000000000E-004
  CAR 
 Og_FCC                                  
     18     35     13
 
  0.0000000E+00  0.0000000E+00  0.0000000E+00  0.1371742E-02
    1      -28.816896   1.000000
    2      -28.816896   1.000000
    3      -28.816896   1.000000
    4      -28.814858   1.000000
    5      -28.814858   1.000000
    6      -21.703955   1.000000
    7        1.073666   0.675094
    8        1.073667   0.675091
    9        1.073670   0.675043
   10        3.438907   0.000000
   11       10.624489   0.000000
   12       10.624490   0.000000
   13       10.624492   0.000000
 
  0.1111111E+00  0.1488443E-16  0.0000000E+00  0.1097394E-01
    1      -28.816443   1.000000
    2      -28.816325   1.000000
    3      -28.816324   1.000000
    4      -28.814562   1.000000
    5      -28.814561   1.000000
    6      -21.693449   1.000000
    7        0.418309   1.000000
    8        1.026952   1.034408
    9        1.026954   1.034406
   10        4.183722   0.000000
   11        9.855739   0.000000
   12       10.757304   0.000000
   13       10.757306   0.000000
 
  0.2222222E+00  0.1589107E-16  0.0000000E+00  0.1097394E-01
    1      -28.816119   1.000000
    2      -28.816117   1.000000
    3      -28.815864   1.000000
    4      -28.813225   1.000000
    5      -28.813223   1.000000
    6      -21.666703   1.000000
    7       -0.581382   1.000000
    8        0.912688   1.000007
    9        0.912691   1.000007
   10        5.276104   0.000000
   11        9.653011   0.000000
   12       10.776919   0.000000
   13       10.776921   0.000000
 
  0.3333333E+00  0.3077550E-16  0.2775558E-16  0.1097394E-01
    1      -28.816517   1.000000
    2      -28.816515   1.000000
    3      -28.815165   1.000000
    4      -28.811267   1.000000
    5      -28.811266   1.000000
    6      -21.635969   1.000000
    7       -1.355130   1.000000
    8        0.789124   1.000000
    9        0.789127   1.000000
   10        5.820142   0.000000
   11       10.417429   0.000000
   12       10.417431   0.000000
   13       10.427725   0.000000
 
  0.4444444E+00  0.3178215E-16  0.0000000E+00  0.1097394E-01
    1      -28.816794   1.000000
    2      -28.816792   1.000000
    3      -28.814700   1.000000
    4      -28.809933   1.000000
    5      -28.809932   1.000000
    6      -21.615725   1.000000
    7       -1.765802   1.000000
    8        0.711758   1.000000
    9        0.711761   1.000000
   10        5.921463   0.000000
   11       10.166995   0.000000
   12       10.166997   0.000000
   13       10.538302   0.000000
 
  0.1111111E+00  0.1111111E+00 -0.1387779E-16  0.8230453E-02
    1      -28.817052   1.000000
    2      -28.815710   1.000000
    3      -28.815710   1.000000
    4      -28.815009   1.000000
    5      -28.814323   1.000000
    6      -21.689956   1.000000
    7        0.385062   1.000000
    8        0.924247   1.000029
    9        0.924249   1.000029
   10        4.439980   0.000000
   11        9.532635   0.000000
   12       10.953493   0.000000
   13       10.953722   0.000000
 
  0.2222222E+00  0.1111111E+00  0.0000000E+00  0.3292181E-01
    1      -28.816920   1.000000
    2      -28.815468   1.000000
    3      -28.815233   1.000000
    4      -28.814177   1.000000
    5      -28.813088   1.000000
    6      -21.668642   1.000000
    7       -0.364643   1.000000
    8        0.772510   1.000000
    9        0.815288   1.000000
   10        5.425551   0.000000
   11        9.154332   0.000000
   12       10.304075   0.000000
   13       11.198054   0.000000
 
  0.3333333E+00  0.1111111E+00  0.0000000E+00  0.3292181E-01
    1      -28.816682   1.000000
    2      -28.815545   1.000000
    3      -28.815347   1.000000
    4      -28.812460   1.000000
    5      -28.811097   1.000000
    6      -21.639232   1.000000
    7       -1.120829   1.000000
    8        0.644904   1.000000
    9        0.647973   1.000000
   10        6.187015   0.000000
   11        9.564007   0.000000
   12        9.629099   0.000000
   13       10.970367   0.000000
 
  0.4444444E+00  0.1111111E+00 -0.2775558E-16  0.3292181E-01
    1      -28.816823   1.000000
    2      -28.815891   1.000000
    3      -28.814599   1.000000
    4      -28.810938   1.000000
    5      -28.809842   1.000000
    6      -21.615454   1.000000
    7       -1.601728   1.000000
    8        0.464099   1.000000
    9        0.594951   1.000000
   10        6.413880   0.000000
   11        9.222353   0.000000
   12       10.597729   0.000000
   13       10.905838   0.000000
 
 -0.4444444E+00  0.1111111E+00 -0.1387779E-16  0.3292181E-01
    1      -28.816832   1.000000
    2      -28.816074   1.000000
    3      -28.814209   1.000000
    4      -28.810159   1.000000
    5      -28.809914   1.000000
    6      -21.608675   1.000000
    7       -1.722776   1.000000
    8        0.348969   1.000000
    9        0.641707   1.000000
   10        6.447612   0.000000
   11        9.162094   0.000000
   12       10.398913   0.000000
   13       11.666872   0.000000
 
 -0.3333333E+00  0.1111111E+00 -0.1387779E-16  0.3292181E-01
    1      -28.816521   1.000000
    2      -28.815955   1.000000
    3      -28.814723   1.000000
    4      -28.811368   1.000000
    5      -28.810425   1.000000
    6      -21.622190   1.000000
    7       -1.470604   1.000000
    8        0.354995   1.000000
    9        0.767125   1.000000
   10        6.397024   0.000000
   11        9.428950   0.000000
   12       10.456362   0.000000
   13       10.630612   0.000000
 
 -0.2222222E+00  0.1111111E+00 -0.6938894E-17  0.3292181E-01
    1      -28.816114   1.000000
    2      -28.815591   1.000000
    3      -28.815524   1.000000
    4      -28.813475   1.000000
    5      -28.811677   1.000000
    6      -21.649452   1.000000
    7       -0.894006   1.000000
    8        0.496370   1.000000
    9        0.918952   1.000015
   10        5.986196   0.000000
   11        9.537785   0.000000
   12        9.994424   0.000000
   13       10.780455   0.000000
 
 -0.1111111E+00  0.1111111E+00 -0.6341801E-17  0.1646091E-01
    1      -28.816270   1.000000
    2      -28.815855   1.000000
    3      -28.815688   1.000000
    4      -28.814833   1.000000
    5      -28.813441   1.000000
    6      -21.677540   1.000000
    7       -0.146247   1.000000
    8        0.757997   1.000000
    9        1.024666   1.035286
   10        5.012740   0.000000
   11        9.450915   0.000000
   12       10.684469   0.000000
   13       10.916654   0.000000
 
  0.2222222E+00  0.2222222E+00  0.0000000E+00  0.8230453E-02
    1      -28.817772   1.000000
    2      -28.815717   1.000000
    3      -28.813191   1.000000
    4      -28.813166   1.000000
    5      -28.813166   1.000000
    6      -21.654384   1.000000
    7       -0.555700   1.000000
    8        0.577276   1.000000
    9        0.577278   1.000000
   10        6.058634   0.000000
   11        8.547416   0.000000
   12        9.820390   0.000000
   13       11.802379   0.000000
 
  0.3333333E+00  0.2222222E+00  0.0000000E+00  0.3292181E-01
    1      -28.817734   1.000000
    2      -28.815999   1.000000
    3      -28.813481   1.000000
    4      -28.811780   1.000000
    5      -28.810969   1.000000
    6      -21.630443   1.000000
    7       -1.021280   1.000000
    8        0.351615   1.000000
    9        0.420103   1.000000
   10        6.662423   0.000000
   11        8.445360   0.000000
   12        9.490177   0.000000
   13       11.958402   0.000000
 
  0.4444444E+00  0.2222222E+00  0.0000000E+00  0.3292181E-01
    1      -28.817337   1.000000
    2      -28.815275   1.000000
    3      -28.813869   1.000000
    4      -28.811002   1.000000
    5      -28.809597   1.000000
    6      -21.607949   1.000000
    7       -1.375135   1.000000
    8        0.019705   1.000000
    9        0.363906   1.000000
   10        6.980576   0.000000
   11        8.953249   0.000000
   12        9.470488   0.000000
   13       11.591544   0.000000
 
 -0.4444444E+00  0.2222222E+00  0.0000000E+00  0.3292181E-01
    1      -28.817147   1.000000
    2      -28.814196   1.000000
    3      -28.813679   1.000000
    4      -28.811045   1.000000
    5      -28.809721   1.000000
    6      -21.597563   1.000000
    7       -1.483575   1.000000
    8       -0.279736   1.000000
    9        0.429139   1.000000
   10        7.173665   0.000000
   11        8.878403   0.000000
   12       10.795381   0.000000
   13       11.229432   0.000000
 
 -0.3333333E+00  0.2222222E+00 -0.2775558E-16  0.3292181E-01
    1      -28.816794   1.000000
    2      -28.814298   1.000000
    3      -28.813332   1.000000
    4      -28.811158   1.000000
    5      -28.810996   1.000000
    6      -21.604257   1.000000
    7       -1.369071   1.000000
    8       -0.357778   1.000000
    9        0.592382   1.000000
   10        7.352547   0.000000
   11        8.860000   0.000000
   12       10.608901   0.000000
   13       11.037985   0.000000
 
 -0.2222222E+00  0.2222222E+00 -0.2775558E-16  0.1646091E-01
    1      -28.816305   1.000000
    2      -28.814561   1.000000
    3      -28.814450   1.000000
    4      -28.813075   1.000000
    5      -28.810860   1.000000
    6      -21.624811   1.000000
    7       -1.155925   1.000000
    8       -0.066673   1.000000
    9        0.787230   1.000000
   10        7.013203   0.000000
   11        9.183270   0.000000
   12        9.599897   0.000000
   13       10.982230   0.000000
 
  0.3333333E+00  0.3333333E+00  0.2775558E-16  0.8230453E-02
    1      -28.818686   1.000000
    2      -28.816646   1.000000
    3      -28.811990   1.000000
    4      -28.810338   1.000000
    5      -28.810338   1.000000
    6      -21.613640   1.000000
    7       -1.216465   1.000000
    8        0.225769   1.000000
    9        0.225771   1.000000
   10        6.523878   0.000000
   11        7.885388   0.000000
   12       10.376767   0.000000
   13       12.907126   0.000000
 
  0.4444444E+00  0.3333333E+00 -0.5551115E-16  0.3292181E-01
    1      -28.818483   1.000000
    2      -28.816648   1.000000
    3      -28.811914   1.000000
    4      -28.809533   1.000000
    5      -28.809134   1.000000
    6      -21.596651   1.000000
    7       -1.396841   1.000000
    8       -0.055662   1.000000
    9        0.139692   1.000000
   10        6.552539   0.000000
   11        7.981526   0.000000
   12       10.817739   0.000000
   13       12.911930   0.000000
 
 -0.4444444E+00  0.3333333E+00 -0.4163336E-16  0.3292181E-01
    1      -28.817787   1.000000
    2      -28.815382   1.000000
    3      -28.812321   1.000000
    4      -28.809900   1.000000
    5      -28.809179   1.000000
    6      -21.587508   1.000000
    7       -1.335570   1.000000
    8       -0.548215   1.000000
    9        0.191936   1.000000
   10        6.825157   0.000000
   11        8.821214   0.000000
   12       10.760626   0.000000
   13       12.444265   0.000000
 
 -0.3333333E+00  0.3333333E+00 -0.9773544E-17  0.1646091E-01
    1      -28.817259   1.000000
    2      -28.813046   1.000000
    3      -28.812886   1.000000
    4      -28.811331   1.000000
    5      -28.810271   1.000000
    6      -21.590535   1.000000
    7       -1.050535   1.000000
    8       -0.964850   1.000000
    9        0.364952   1.000000
   10        7.220853   0.000000
   11        9.530129   0.000000
   12       11.028857   0.000000
   13       11.210398   0.000000
 
  0.4444444E+00  0.4444444E+00  0.0000000E+00  0.8230453E-02
    1      -28.819288   1.000000
    2      -28.817139   1.000000
    3      -28.811055   1.000000
    4      -28.808411   1.000000
    5      -28.808411   1.000000
    6      -21.586861   1.000000
    7       -1.543575   1.000000
    8        0.015711   1.000000
    9        0.015713   1.000000
   10        6.146801   0.000000
   11        7.553805   0.000000
   12       12.580042   0.000000
   13       13.906855   0.000000
 
 -0.4444444E+00  0.4444444E+00 -0.5551115E-16  0.1646091E-01
    1      -28.818757   1.000000
    2      -28.816948   1.000000
    3      -28.811261   1.000000
    4      -28.808536   1.000000
    5      -28.808440   1.000000
    6      -21.583246   1.000000
    7       -1.511564   1.000000
    8       -0.216182   1.000000
    9        0.035242   1.000000
   10        6.323186   0.000000
   11        7.824304   0.000000
   12       12.777224   0.000000
   13       12.972779   0.000000
 
  0.3333333E+00  0.2222222E+00  0.1111111E+00  0.3292181E-01
    1      -28.816761   1.000000
    2      -28.815806   1.000000
    3      -28.814528   1.000000
    4      -28.813283   1.000000
    5      -28.811620   1.000000
    6      -21.646002   1.000000
    7       -0.819230   1.000000
    8        0.377601   1.000000
    9        0.753940   1.000000
   10        6.326191   0.000000
   11        8.928281   0.000000
   12        9.566732   0.000000
   13       11.688764   0.000000
 
  0.4444444E+00  0.2222222E+00  0.1111111E+00  0.6584362E-01
    1      -28.816427   1.000000
    2      -28.815492   1.000000
    3      -28.814457   1.000000
    4      -28.811805   1.000000
    5      -28.810431   1.000000
    6      -21.620043   1.000000
    7       -1.260532   1.000000
    8        0.063161   1.000000
    9        0.609444   1.000000
   10        7.027281   0.000000
   11        8.955207   0.000000
   12        9.450404   0.000000
   13       11.290509   0.000000
 
 -0.4444444E+00  0.2222222E+00  0.1111111E+00  0.6584362E-01
    1      -28.816635   1.000000
    2      -28.815250   1.000000
    3      -28.813645   1.000000
    4      -28.811103   1.000000
    5      -28.809826   1.000000
    6      -21.602971   1.000000
    7       -1.522831   1.000000
    8       -0.085266   1.000000
    9        0.482781   1.000000
   10        7.226386   0.000000
   11        8.610356   0.000000
   12       10.803613   0.000000
   13       11.114358   0.000000
 
  0.4444444E+00  0.3333333E+00  0.1111111E+00  0.3292181E-01
    1      -28.817496   1.000000
    2      -28.816304   1.000000
    3      -28.813123   1.000000
    4      -28.810365   1.000000
    5      -28.810177   1.000000
    6      -21.609969   1.000000
    7       -1.249378   1.000000
    8       -0.001465   1.000000
    9        0.298130   1.000000
   10        7.002679   0.000000
   11        8.402922   0.000000
   12        9.522586   0.000000
   13       12.573875   0.000000
 
 -0.4444444E+00  0.3333333E+00  0.1111111E+00  0.6584362E-01
    1      -28.816873   1.000000
    2      -28.815390   1.000000
    3      -28.813198   1.000000
    4      -28.810600   1.000000
    5      -28.809257   1.000000
    6      -21.594166   1.000000
    7       -1.324245   1.000000
    8       -0.379572   1.000000
    9        0.182239   1.000000
   10        7.354642   0.000000
   11        8.948719   0.000000
   12        9.490578   0.000000
   13       12.316698   0.000000
 
 -0.3333333E+00  0.3333333E+00  0.1111111E+00  0.6584362E-01
    1      -28.816646   1.000000
    2      -28.813971   1.000000
    3      -28.812575   1.000000
    4      -28.812190   1.000000
    5      -28.809329   1.000000
    6      -21.590534   1.000000
    7       -1.237798   1.000000
    8       -0.672783   1.000000
    9        0.233900   1.000000
   10        7.693765   0.000000
   11        8.818253   0.000000
   12       10.628948   0.000000
   13       11.162480   0.000000
 
 -0.2222222E+00  0.3333333E+00  0.1111111E+00  0.3292181E-01
    1      -28.816339   1.000000
    2      -28.814404   1.000000
    3      -28.813848   1.000000
    4      -28.811009   1.000000
    5      -28.810462   1.000000
    6      -21.600786   1.000000
    7       -1.244684   1.000000
    8       -0.496361   1.000000
    9        0.420007   1.000000
   10        7.947198   0.000000
   11        8.473350   0.000000
   12        9.695334   0.000000
   13       11.830566   0.000000
 
 -0.4444444E+00  0.4444444E+00  0.1111111E+00  0.3292181E-01
    1      -28.817979   1.000000
    2      -28.816656   1.000000
    3      -28.811769   1.000000
    4      -28.809523   1.000000
    5      -28.808444   1.000000
    6      -21.586356   1.000000
    7       -1.422771   1.000000
    8       -0.225631   1.000000
    9       -0.034328   1.000000
   10        6.683704   0.000000
   11        8.115992   0.000000
   12       11.116472   0.000000
   13       12.968053   0.000000
 
 -0.3333333E+00  0.4444444E+00  0.1111111E+00  0.3292181E-01
    1      -28.817022   1.000000
    2      -28.815354   1.000000
    3      -28.812100   1.000000
    4      -28.810949   1.000000
    5      -28.808445   1.000000
    6      -21.583950   1.000000
    7       -1.233487   1.000000
    8       -0.649578   1.000000
    9        0.007860   1.000000
   10        7.172556   0.000000
   11        8.935799   0.000000
   12       10.591719   0.000000
   13       11.461613   0.000000
 
 -0.3333333E+00  0.4444444E+00  0.2222222E+00  0.3292181E-01
    1      -28.815835   1.000000
    2      -28.814665   1.000000
    3      -28.813126   1.000000
    4      -28.811972   1.000000
    5      -28.808424   1.000000
    6      -21.585154   1.000000
    7       -1.093902   1.000000
    8       -0.745841   1.000000
    9       -0.070734   1.000000
   10        7.995215   0.000000
   11        9.122823   0.000000
   12        9.569629   0.000000
   13       10.975298   0.000000
