<?xml version="1.0" encoding="ISO-8859-1"?>
<modeling>
 <generator>
  <i name="program" type="string">vasp </i>
  <i name="version" type="string">5.4.4.18Apr17-6-g9f103f2a35  </i>
  <i name="subversion" type="string">(build Nov 03 2018 10:20:43) complex            parallel </i>
  <i name="platform" type="string">LinuxIFC </i>
  <i name="date" type="string">2018 11 29 </i>
  <i name="time" type="string">14:55:47 </i>
 </generator>
 <incar>
  <i type="string" name="SYSTEM">   Og_FCC</i>
  <i type="string" name="PREC">accurate</i>
  <i type="string" name="ALGO">   Fast</i>
  <i type="logical" name="ADDGRID"> T  </i>
  <i type="logical" name="LSORBIT"> F  </i>
  <i type="int" name="ISPIN">     1</i>
  <i type="int" name="MAXMIX">    50</i>
  <i type="int" name="NELM">   100</i>
  <i type="int" name="NELMDL">    -5</i>
  <i type="int" name="NELMIN">     5</i>
  <i type="int" name="IBRION">    -1</i>
  <i type="int" name="NFREE">     5</i>
  <i name="EDIFF">      0.00000001</i>
  <i name="EDIFFG">      0.00000100</i>
  <i type="int" name="NSW">     1</i>
  <i type="int" name="ISIF">     7</i>
  <i type="int" name="ISYM">     2</i>
  <i name="SYMPREC">      0.00000010</i>
  <i name="ENCUT">    600.00000000</i>
  <i type="logical" name="LREAL"> F  </i>
  <i type="int" name="ISMEAR">     1</i>
  <i name="SIGMA">      0.05000000</i>
  <i name="KSPACING">      0.20000000</i>
  <i type="int" name="NWRITE">     2</i>
  <i type="logical" name="LWAVE"> F  </i>
  <i type="logical" name="LCHARG"> F  </i>
  <i type="logical" name="LVTOT"> F  </i>
  <i type="logical" name="GGA_COMPAT"> F  </i>
  <v type="int" name="KPOINT_BSE">    -1     0     0     0</v>
  <i type="int" name="NELM">   100</i>
  <i type="string" name="METAGGA"> SCAN</i>
 </incar>
 <structure name="primitive_cell" >
  <crystal>
   <varray name="basis" >
    <v>       4.41603497       0.00000000       0.00000000 </v>
    <v>       2.20801749       3.82439847      -0.00000000 </v>
    <v>       2.20801749       1.27479949       3.60567746 </v>
   </varray>
   <i name="volume">     60.89512341 </i>
   <varray name="rec_basis" >
    <v>       0.22644748      -0.13073951      -0.09244680 </v>
    <v>       0.00000000       0.26147903      -0.09244680 </v>
    <v>      -0.00000000       0.00000000       0.27734039 </v>
   </varray>
  </crystal>
  <varray name="positions" >
   <v>       0.00000000       0.00000000       0.00000000 </v>
  </varray>
 </structure>
 <varray name="primitive_index" >
  <v type="int" >        1 </v>
 </varray>
 <kpoints>
  <generation param="Gamma">
   <v type="int" name="divisions">       9        9        9 </v>
   <v name="usershift">      0.00000000       0.00000000       0.00000000 </v>
   <v name="genvec1">      0.11111111       0.00000000       0.00000000 </v>
   <v name="genvec2">      0.00000000       0.11111111       0.00000000 </v>
   <v name="genvec3">     -0.00000000       0.00000000       0.11111111 </v>
   <v name="shift">      0.00000000       0.00000000       0.00000000 </v>
  </generation>
  <varray name="kpointlist" >
   <v>       0.00000000       0.00000000       0.00000000 </v>
   <v>       0.11111111       0.00000000       0.00000000 </v>
   <v>       0.22222222       0.00000000       0.00000000 </v>
   <v>       0.33333333       0.00000000       0.00000000 </v>
   <v>       0.44444444       0.00000000       0.00000000 </v>
   <v>       0.11111111       0.11111111      -0.00000000 </v>
   <v>       0.22222222       0.11111111       0.00000000 </v>
   <v>       0.33333333       0.11111111       0.00000000 </v>
   <v>       0.44444444       0.11111111      -0.00000000 </v>
   <v>      -0.44444444       0.11111111      -0.00000000 </v>
   <v>      -0.33333333       0.11111111      -0.00000000 </v>
   <v>      -0.22222222       0.11111111      -0.00000000 </v>
   <v>      -0.11111111       0.11111111      -0.00000000 </v>
   <v>       0.22222222       0.22222222       0.00000000 </v>
   <v>       0.33333333       0.22222222       0.00000000 </v>
   <v>       0.44444444       0.22222222       0.00000000 </v>
   <v>      -0.44444444       0.22222222       0.00000000 </v>
   <v>      -0.33333333       0.22222222      -0.00000000 </v>
   <v>      -0.22222222       0.22222222      -0.00000000 </v>
   <v>       0.33333333       0.33333333       0.00000000 </v>
   <v>       0.44444444       0.33333333      -0.00000000 </v>
   <v>      -0.44444444       0.33333333      -0.00000000 </v>
   <v>      -0.33333333       0.33333333      -0.00000000 </v>
   <v>       0.44444444       0.44444444       0.00000000 </v>
   <v>      -0.44444444       0.44444444      -0.00000000 </v>
   <v>       0.33333333       0.22222222       0.11111111 </v>
   <v>       0.44444444       0.22222222       0.11111111 </v>
   <v>      -0.44444444       0.22222222       0.11111111 </v>
   <v>       0.44444444       0.33333333       0.11111111 </v>
   <v>      -0.44444444       0.33333333       0.11111111 </v>
   <v>      -0.33333333       0.33333333       0.11111111 </v>
   <v>      -0.22222222       0.33333333       0.11111111 </v>
   <v>      -0.44444444       0.44444444       0.11111111 </v>
   <v>      -0.33333333       0.44444444       0.11111111 </v>
   <v>      -0.33333333       0.44444444       0.22222222 </v>
  </varray>
  <varray name="weights" >
   <v>       0.00137174 </v>
   <v>       0.01097394 </v>
   <v>       0.01097394 </v>
   <v>       0.01097394 </v>
   <v>       0.01097394 </v>
   <v>       0.00823045 </v>
   <v>       0.03292181 </v>
   <v>       0.03292181 </v>
   <v>       0.03292181 </v>
   <v>       0.03292181 </v>
   <v>       0.03292181 </v>
   <v>       0.03292181 </v>
   <v>       0.01646091 </v>
   <v>       0.00823045 </v>
   <v>       0.03292181 </v>
   <v>       0.03292181 </v>
   <v>       0.03292181 </v>
   <v>       0.03292181 </v>
   <v>       0.01646091 </v>
   <v>       0.00823045 </v>
   <v>       0.03292181 </v>
   <v>       0.03292181 </v>
   <v>       0.01646091 </v>
   <v>       0.00823045 </v>
   <v>       0.01646091 </v>
   <v>       0.03292181 </v>
   <v>       0.06584362 </v>
   <v>       0.06584362 </v>
   <v>       0.03292181 </v>
   <v>       0.06584362 </v>
   <v>       0.06584362 </v>
   <v>       0.03292181 </v>
   <v>       0.03292181 </v>
   <v>       0.03292181 </v>
   <v>       0.03292181 </v>
  </varray>
 </kpoints>
 <parameters>
  <separator name="general" >
   <i type="string" name="SYSTEM">Og_FCC</i>
   <i type="logical" name="LCOMPAT"> F  </i>
  </separator>
  <separator name="electronic" >
   <i type="string" name="PREC">accura</i>
   <i name="ENMAX">    600.00000000</i>
   <i name="ENAUG">    361.02500000</i>
   <i name="EDIFF">      0.00000001</i>
   <i type="int" name="IALGO">    68</i>
   <i type="int" name="IWAVPR">    10</i>
   <i type="int" name="NBANDS">    13</i>
   <i name="NELECT">     18.00000000</i>
   <i type="int" name="TURBO">     0</i>
   <i type="int" name="IRESTART">     0</i>
   <i type="int" name="NREBOOT">     0</i>
   <i type="int" name="NMIN">     0</i>
   <i name="EREF">      0.00000000</i>
   <separator name="electronic smearing" >
    <i type="int" name="ISMEAR">     1</i>
    <i name="SIGMA">      0.05000000</i>
    <i name="KSPACING">      0.20000000</i>
    <i type="logical" name="KGAMMA"> T  </i>
   </separator>
   <separator name="electronic projectors" >
    <i type="logical" name="LREAL"> F  </i>
    <v name="ROPT">      0.00000000</v>
    <i type="int" name="LMAXPAW">  -100</i>
    <i type="int" name="LMAXMIX">     2</i>
    <i type="logical" name="NLSPLINE"> F  </i>
   </separator>
   <separator name="electronic startup" >
    <i type="int" name="ISTART">     0</i>
    <i type="int" name="ICHARG">     2</i>
    <i type="int" name="INIWAV">     1</i>
   </separator>
   <separator name="electronic spin" >
    <i type="int" name="ISPIN">     1</i>
    <i type="logical" name="LNONCOLLINEAR"> F  </i>
    <v name="MAGMOM">      1.00000000</v>
    <i name="NUPDOWN">     -1.00000000</i>
    <i type="logical" name="LSORBIT"> F  </i>
    <v name="SAXIS">      0.00000000      0.00000000      1.00000000</v>
    <i type="logical" name="LSPIRAL"> F  </i>
    <v name="QSPIRAL">      0.00000000      0.00000000      0.00000000</v>
    <i type="logical" name="LZEROZ"> F  </i>
   </separator>
   <separator name="electronic exchange-correlation" >
    <i type="logical" name="LASPH"> F  </i>
    <i type="logical" name="LMETAGGA"> F  </i>
   </separator>
   <separator name="electronic convergence" >
    <i type="int" name="NELM">   100</i>
    <i type="int" name="NELMDL">    -5</i>
    <i type="int" name="NELMIN">     5</i>
    <i name="ENINI">    600.00000000</i>
    <separator name="electronic convergence detail" >
     <i type="logical" name="LDIAG"> T  </i>
     <i type="logical" name="LSUBROT"> F  </i>
     <i name="WEIMIN">      0.00000000</i>
     <i name="EBREAK">      0.00000000</i>
     <i name="DEPER">      0.30000000</i>
     <i type="int" name="NRMM">     4</i>
     <i name="TIME">      0.40000000</i>
    </separator>
   </separator>
   <separator name="electronic mixer" >
    <i name="AMIX">      0.40000000</i>
    <i name="BMIX">      1.00000000</i>
    <i name="AMIN">      0.10000000</i>
    <i name="AMIX_MAG">      1.60000000</i>
    <i name="BMIX_MAG">      1.00000000</i>
    <separator name="electronic mixer details" >
     <i type="int" name="IMIX">     4</i>
     <i type="logical" name="MIXFIRST"> F  </i>
     <i type="int" name="MAXMIX">    50</i>
     <i name="WC">    100.00000000</i>
     <i type="int" name="INIMIX">     1</i>
     <i type="int" name="MIXPRE">     1</i>
     <i type="int" name="MREMOVE">     5</i>
    </separator>
   </separator>
   <separator name="electronic dipolcorrection" >
    <i type="logical" name="LDIPOL"> F  </i>
    <i type="logical" name="LMONO"> F  </i>
    <i type="int" name="IDIPOL">     0</i>
    <i name="EPSILON">      1.00000000</i>
    <v name="DIPOL">   -100.00000000   -100.00000000   -100.00000000</v>
    <i name="EFIELD">      0.00000000</i>
   </separator>
  </separator>
  <separator name="grids" >
   <i type="int" name="NGX">    36</i>
   <i type="int" name="NGY">    36</i>
   <i type="int" name="NGZ">    36</i>
   <i type="int" name="NGXF">    72</i>
   <i type="int" name="NGYF">    72</i>
   <i type="int" name="NGZF">    72</i>
   <i type="logical" name="ADDGRID"> T  </i>
  </separator>
  <separator name="ionic" >
   <i type="int" name="NSW">     1</i>
   <i type="int" name="IBRION">    -1</i>
   <i type="int" name="MDALGO">     0</i>
   <i type="int" name="ISIF">     7</i>
   <i name="PSTRESS">      0.00000000</i>
   <i name="EDIFFG">      0.00000100</i>
   <i type="int" name="NFREE">     5</i>
   <i name="POTIM">      0.50000000</i>
   <i name="SMASS">     -3.00000000</i>
   <i name="SCALEE">      1.00000000</i>
  </separator>
  <separator name="ionic md" >
   <i name="TEBEG">      0.00010000</i>
   <i name="TEEND">      0.00010000</i>
   <i type="int" name="NBLOCK">     1</i>
   <i type="int" name="KBLOCK">     1</i>
   <i type="int" name="NPACO">   256</i>
   <i name="APACO">     16.00000000</i>
  </separator>
  <separator name="symmetry" >
   <i type="int" name="ISYM">     2</i>
   <i name="SYMPREC">      0.00000010</i>
  </separator>
  <separator name="dos" >
   <i type="int" name="LORBIT">     0</i>
   <v name="RWIGS">     -1.00000000</v>
   <i type="int" name="NEDOS">   301</i>
   <i name="EMIN">     10.00000000</i>
   <i name="EMAX">    -10.00000000</i>
   <i name="EFERMI">      0.00000000</i>
  </separator>
  <separator name="writing" >
   <i type="int" name="NWRITE">     2</i>
   <i type="logical" name="LWAVE"> F  </i>
   <i type="logical" name="LDOWNSAMPLE"> F  </i>
   <i type="logical" name="LCHARG"> F  </i>
   <i type="logical" name="LPARD"> F  </i>
   <i type="logical" name="LVTOT"> F  </i>
   <i type="logical" name="LVHAR"> F  </i>
   <i type="logical" name="LELF"> F  </i>
   <i type="logical" name="LOPTICS"> F  </i>
   <v name="STM">      0.00000000      0.00000000      0.00000000      0.00000000      0.00000000      0.00000000      0.00000000</v>
  </separator>
  <separator name="performance" >
   <i type="int" name="NPAR">     1</i>
   <i type="int" name="NSIM">     4</i>
   <i type="int" name="NBLK">    -1</i>
   <i type="logical" name="LPLANE"> T  </i>
   <i type="logical" name="LSCALAPACK"> T  </i>
   <i type="logical" name="LSCAAWARE"> F  </i>
   <i type="logical" name="LSCALU"> F  </i>
   <i type="logical" name="LASYNC"> F  </i>
   <i type="logical" name="LORBITALREAL"> F  </i>
  </separator>
  <separator name="miscellaneous" >
   <i type="int" name="IDIOT">     3</i>
   <i type="int" name="ISPECIAL">     0</i>
   <i type="logical" name="LMUSIC"> F  </i>
   <v name="POMASS">      0.01000000</v>
   <v name="DARWINR">      0.00000000</v>
   <v name="DARWINV">      1.00000000</v>
   <i type="logical" name="LCORR"> T  </i>
  </separator>
  <i type="logical" name="GGA_COMPAT"> F  </i>
  <i type="logical" name="LBERRY"> F  </i>
  <i type="int" name="ICORELEVEL">     0</i>
  <i type="logical" name="LDAU"> F  </i>
  <i type="int" name="I_CONSTRAINED_M">     0</i>
  <separator name="electronic exchange-correlation" >
   <i type="string" name="GGA">--</i>
   <i type="int" name="VOSKOWN">     0</i>
   <i type="logical" name="LHFCALC"> F  </i>
   <i type="string" name="PRECFOCK"></i>
   <i type="logical" name="LSYMGRAD"> F  </i>
   <i type="logical" name="LHFONE"> F  </i>
   <i type="logical" name="LRHFCALC"> F  </i>
   <i type="logical" name="LTHOMAS"> F  </i>
   <i type="logical" name="LMODELHF"> F  </i>
   <i name="ENCUT4O">     -1.00000000</i>
   <i type="int" name="EXXOEP">     0</i>
   <i type="int" name="FOURORBIT">     0</i>
   <i name="AEXX">      0.00000000</i>
   <i name="HFALPHA">      0.00000000</i>
   <i name="MCALPHA">      0.00000000</i>
   <i name="ALDAX">      1.00000000</i>
   <i name="AGGAX">      1.00000000</i>
   <i name="ALDAC">      1.00000000</i>
   <i name="AGGAC">      1.00000000</i>
   <i type="int" name="NKREDX">     1</i>
   <i type="int" name="NKREDY">     1</i>
   <i type="int" name="NKREDZ">     1</i>
   <i type="logical" name="SHIFTRED"> F  </i>
   <i type="logical" name="ODDONLY"> F  </i>
   <i type="logical" name="EVENONLY"> F  </i>
   <i type="int" name="LMAXFOCK">     0</i>
   <i type="int" name="NMAXFOCKAE">     0</i>
   <i type="logical" name="LFOCKAEDFT"> F  </i>
   <i name="HFSCREEN">      0.00000000</i>
   <i name="HFSCREENC">      0.00000000</i>
   <i type="int" name="NBANDSGWLOW">     0</i>
  </separator>
  <separator name="vdW DFT" >
   <i type="logical" name="LUSE_VDW"> F  </i>
   <i name="Zab_VDW">     -0.84910000</i>
   <i name="PARAM1">      0.12340000</i>
   <i name="PARAM2">      1.00000000</i>
   <i name="PARAM3">      0.00000000</i>
  </separator>
  <separator name="model GW" >
   <i type="int" name="MODEL_GW">     0</i>
   <i name="MODEL_EPS0">     36.53707405</i>
   <i name="MODEL_ALPHA">      1.00000000</i>
  </separator>
  <separator name="linear response parameters" >
   <i type="logical" name="LEPSILON"> F  </i>
   <i type="logical" name="LRPA"> F  </i>
   <i type="logical" name="LNABLA"> F  </i>
   <i type="logical" name="LVEL"> F  </i>
   <i type="int" name="KINTER">     0</i>
   <i name="CSHIFT">      0.10000000</i>
   <i name="OMEGAMAX">     -1.00000000</i>
   <i name="DEG_THRESHOLD">      0.00200000</i>
   <i name="RTIME">     -0.10000000</i>
   <i name="WPLASMAI">      0.00000000</i>
   <v name="DFIELD">      0.00000000      0.00000000      0.00000000</v>
   <v name="WPLASMA">      0.00000000      0.00000000      0.00000000      0.00000000      0.00000000      0.00000000      0.00000000      0.00000000      0.00000000</v>
  </separator>
  <separator name="orbital magnetization" >
   <i type="logical" name="NUCIND"> F  </i>
   <v name="MAGPOS">      0.00000000      0.00000000      0.00000000</v>
   <i type="logical" name="LNICSALL"> T  </i>
   <i type="logical" name="ORBITALMAG"> F  </i>
   <i type="logical" name="LMAGBLOCH"> F  </i>
   <i type="logical" name="LCHIMAG"> F  </i>
   <i type="logical" name="LGAUGE"> T  </i>
   <i type="int" name="MAGATOM">     0</i>
   <v name="MAGDIPOL">      0.00000000      0.00000000      0.00000000</v>
   <v name="AVECCONST">      0.00000000      0.00000000      0.00000000</v>
  </separator>
  <separator name="response functions" >
   <i type="logical" name="LADDER"> F  </i>
   <i type="logical" name="LRPAFORCE"> F  </i>
   <i type="logical" name="LFXC"> F  </i>
   <i type="logical" name="LHARTREE"> T  </i>
   <i type="int" name="IBSE">     0</i>
   <v type="int" name="KPOINT">    -1     0     0     0</v>
   <i type="logical" name="LTCTE"> F  </i>
   <i type="logical" name="LTETE"> F  </i>
   <i type="logical" name="LTRIPLET"> F  </i>
   <i type="logical" name="LFXCEPS"> F  </i>
   <i type="logical" name="LFXHEG"> F  </i>
   <i type="int" name="NATURALO">     2</i>
   <i type="logical" name="L2ORDER"> F  </i>
   <i type="logical" name="LMP2LT"> F  </i>
   <i type="logical" name="LUSEW"> F  </i>
   <i name="ENCUTGW">     -2.00000000</i>
   <i name="ENCUTGWSOFT">     -2.00000000</i>
   <i name="ENCUTLF">     -1.00000000</i>
   <i type="int" name="LMAXMP2">    -1</i>
   <i name="SCISSOR">      0.00000000</i>
   <i type="int" name="NOMEGA">     0</i>
   <i type="int" name="NOMEGAR">     0</i>
   <i type="int" name="NBANDSGW">    -1</i>
   <i type="int" name="NBANDSO">    -1</i>
   <i type="int" name="NBANDSV">    -1</i>
   <i type="int" name="NELM">   100</i>
   <i type="int" name="NELMHF">     1</i>
   <i type="int" name="DIM">     3</i>
   <i type="int" name="ANTIRES">     0</i>
   <i name="OMEGAMAX">    -30.00000000</i>
   <i name="OMEGAMIN">    -30.00000000</i>
   <i name="OMEGATL">   -200.00000000</i>
   <i type="int" name="OMEGAGRID">   140</i>
   <i name="CSHIFT">     -0.10000000</i>
   <i type="logical" name="SELFENERGY"> F  </i>
   <i type="logical" name="LSPECTRAL"> F  </i>
   <i type="logical" name="LSPECTRALGW"> F  </i>
   <i type="logical" name="LSINGLES"> F  </i>
   <i type="logical" name="LFERMIGW"> F  </i>
   <i type="logical" name="ODDONLYGW"> F  </i>
   <i type="logical" name="EVENONLYGW"> F  </i>
   <i type="int" name="NKREDLFX">     1</i>
   <i type="int" name="NKREDLFY">     1</i>
   <i type="int" name="NKREDLFZ">     1</i>
   <i type="int" name="MAXMEM">  2800</i>
   <i type="int" name="TELESCOPE">     0</i>
   <i type="int" name="TAUPAR">     1</i>
   <i type="int" name="OMEGAPAR">    -1</i>
   <i name="LAMBDA">      1.00000000</i>
  </separator>
  <separator name="External order field" >
   <i name="OFIELD_KAPPA">      0.00000000</i>
   <v name="OFIELD_K">      0.00000000      0.00000000      0.00000000</v>
   <i name="OFIELD_Q6_NEAR">      0.00000000</i>
   <i name="OFIELD_Q6_FAR">      0.00000000</i>
   <i name="OFIELD_A">      0.00000000</i>
  </separator>
 </parameters>
 <atominfo>
  <atoms>       1 </atoms>
  <types>       1 </types>
  <array name="atoms" >
   <dimension dim="1">ion</dimension>
   <field type="string">element</field>
   <field type="int">atomtype</field>
   <set>
    <rc><c>Og</c><c>   1</c></rc>
   </set>
  </array>
  <array name="atomtypes" >
   <dimension dim="1">type</dimension>
   <field type="int">atomspertype</field>
   <field type="string">element</field>
   <field>mass</field>
   <field>valence</field>
   <field type="string">pseudopotential</field>
   <set>
    <rc><c>   1</c><c>Og</c><c>      0.01000000</c><c>     18.00000000</c><c>  PAW Og, JanMewes Oct 18               </c></rc>
   </set>
  </array>
 </atominfo>
 <structure name="initialpos" >
  <crystal>
   <varray name="basis" >
    <v>       4.41603497       0.00000000       0.00000000 </v>
    <v>       2.20801749       3.82439847      -0.00000000 </v>
    <v>       2.20801749       1.27479949       3.60567746 </v>
   </varray>
   <i name="volume">     60.89512341 </i>
   <varray name="rec_basis" >
    <v>       0.22644748      -0.13073951      -0.09244680 </v>
    <v>       0.00000000       0.26147903      -0.09244680 </v>
    <v>      -0.00000000       0.00000000       0.27734039 </v>
   </varray>
  </crystal>
  <varray name="positions" >
   <v>       0.00000000       0.00000000       0.00000000 </v>
  </varray>
  <varray name="velocities" >
   <v>       0.00000000       0.00000000       0.00000000 </v>
  </varray>
 </structure>
 <calculation>
  <scstep>
   <time name="dav">    1.17    1.17</time>
   <time name="total">    1.46    1.46</time>
   <energy>
    <i name="alphaZ">     62.65290858 </i>
    <i name="ewald">  -1712.57602905 </i>
    <i name="hartreedc">   -679.06876999 </i>
    <i name="XCdc">    -42.45051203 </i>
    <i name="pawpsdc">   2249.78787100 </i>
    <i name="pawaedc">  -2317.67826404 </i>
    <i name="eentropy">     -0.00017010 </i>
    <i name="bandstr">    -59.99142211 </i>
    <i name="atom">   2640.52872706 </i>
    <i name="e_fr_energy">    141.20433932 </i>
    <i name="e_wo_entrp">    141.20450942 </i>
    <i name="e_0_energy">    141.20439602 </i>
   </energy>
  </scstep>
  <scstep>
   <time name="dav">    1.31    1.31</time>
   <time name="total">    1.31    1.31</time>
   <energy>
    <i name="e_fr_energy">   -132.29353232 </i>
    <i name="e_wo_entrp">   -132.29362776 </i>
    <i name="e_0_energy">   -132.29356414 </i>
   </energy>
  </scstep>
  <scstep>
   <time name="dav">    1.29    1.29</time>
   <time name="total">    1.29    1.29</time>
   <energy>
    <i name="e_fr_energy">   -140.40941943 </i>
    <i name="e_wo_entrp">   -140.40961016 </i>
    <i name="e_0_energy">   -140.40948301 </i>
   </energy>
  </scstep>
  <scstep>
   <time name="dav">    1.53    1.53</time>
   <time name="total">    1.53    1.53</time>
   <energy>
    <i name="e_fr_energy">   -140.55702414 </i>
    <i name="e_wo_entrp">   -140.55721366 </i>
    <i name="e_0_energy">   -140.55708731 </i>
   </energy>
  </scstep>
  <scstep>
   <time name="dav">    1.26    1.26</time>
   <time name="total">    1.62    1.62</time>
   <energy>
    <i name="e_fr_energy">   -140.55987901 </i>
    <i name="e_wo_entrp">   -140.56006844 </i>
    <i name="e_0_energy">   -140.55994215 </i>
   </energy>
  </scstep>
  <scstep>
   <time name="diag">    0.25    0.25</time>
   <time name="diis">    1.83    1.82</time>
   <time name="orth">    0.00    0.00</time>
   <time name="total">    2.71    2.71</time>
   <energy>
    <i name="e_fr_energy">   -137.05074335 </i>
    <i name="e_wo_entrp">   -137.05093170 </i>
    <i name="e_0_energy">   -137.05080614 </i>
   </energy>
  </scstep>
  <scstep>
   <time name="diag">    0.27    0.27</time>
   <time name="diis">    1.72    1.72</time>
   <time name="orth">    0.00    0.00</time>
   <time name="total">    2.62    2.62</time>
   <energy>
    <i name="e_fr_energy">   -137.02587491 </i>
    <i name="e_wo_entrp">   -137.02606389 </i>
    <i name="e_0_energy">   -137.02593790 </i>
   </energy>
  </scstep>
  <scstep>
   <time name="diag">    0.26    0.26</time>
   <time name="diis">    1.92    1.92</time>
   <time name="orth">    0.00    0.00</time>
   <time name="total">    2.82    2.82</time>
   <energy>
    <i name="e_fr_energy">   -137.02069873 </i>
    <i name="e_wo_entrp">   -137.02088733 </i>
    <i name="e_0_energy">   -137.02076160 </i>
   </energy>
  </scstep>
  <scstep>
   <time name="diag">    0.25    0.25</time>
   <time name="diis">    1.75    1.75</time>
   <time name="orth">    0.00    0.00</time>
   <time name="total">    2.65    2.65</time>
   <energy>
    <i name="e_fr_energy">   -137.00554304 </i>
    <i name="e_wo_entrp">   -137.00573167 </i>
    <i name="e_0_energy">   -137.00560591 </i>
   </energy>
  </scstep>
  <scstep>
   <time name="diag">    0.27    0.27</time>
   <time name="diis">    1.75    1.75</time>
   <time name="orth">    0.00    0.00</time>
   <time name="total">    2.66    2.66</time>
   <energy>
    <i name="e_fr_energy">   -137.00555343 </i>
    <i name="e_wo_entrp">   -137.00574198 </i>
    <i name="e_0_energy">   -137.00561628 </i>
   </energy>
  </scstep>
  <scstep>
   <time name="diag">    0.25    0.25</time>
   <time name="diis">    1.86    1.86</time>
   <time name="orth">    0.00    0.00</time>
   <time name="total">    2.72    2.72</time>
   <energy>
    <i name="e_fr_energy">   -137.00516488 </i>
    <i name="e_wo_entrp">   -137.00535348 </i>
    <i name="e_0_energy">   -137.00522774 </i>
   </energy>
  </scstep>
  <scstep>
   <time name="diag">    0.27    0.27</time>
   <time name="diis">    1.90    1.90</time>
   <time name="orth">    0.00    0.00</time>
   <time name="total">    2.81    2.81</time>
   <energy>
    <i name="e_fr_energy">   -137.00505508 </i>
    <i name="e_wo_entrp">   -137.00524371 </i>
    <i name="e_0_energy">   -137.00511796 </i>
   </energy>
  </scstep>
  <scstep>
   <time name="diag">    0.25    0.25</time>
   <time name="diis">    1.98    1.98</time>
   <time name="orth">    0.00    0.00</time>
   <time name="total">    2.88    2.88</time>
   <energy>
    <i name="e_fr_energy">   -137.00505294 </i>
    <i name="e_wo_entrp">   -137.00524156 </i>
    <i name="e_0_energy">   -137.00511581 </i>
   </energy>
  </scstep>
  <scstep>
   <time name="diag">    0.27    0.27</time>
   <time name="diis">    2.19    2.19</time>
   <time name="orth">    0.00    0.00</time>
   <time name="total">    3.10    3.10</time>
   <energy>
    <i name="e_fr_energy">   -137.00505460 </i>
    <i name="e_wo_entrp">   -137.00524323 </i>
    <i name="e_0_energy">   -137.00511748 </i>
   </energy>
  </scstep>
  <scstep>
   <time name="diag">    0.26    0.26</time>
   <time name="diis">    1.72    1.72</time>
   <time name="orth">    0.00    0.00</time>
   <time name="total">    2.62    2.62</time>
   <energy>
    <i name="e_fr_energy">   -137.00507824 </i>
    <i name="e_wo_entrp">   -137.00526685 </i>
    <i name="e_0_energy">   -137.00514111 </i>
   </energy>
  </scstep>
  <scstep>
   <time name="diag">    0.25    0.25</time>
   <time name="diis">    1.68    1.68</time>
   <time name="orth">    0.00    0.00</time>
   <time name="total">    2.57    2.57</time>
   <energy>
    <i name="e_fr_energy">   -137.00509342 </i>
    <i name="e_wo_entrp">   -137.00528201 </i>
    <i name="e_0_energy">   -137.00515628 </i>
   </energy>
  </scstep>
  <scstep>
   <time name="diag">    0.25    0.25</time>
   <time name="diis">    1.63    1.63</time>
   <time name="orth">    0.00    0.00</time>
   <time name="total">    2.51    2.50</time>
   <energy>
    <i name="e_fr_energy">   -137.00507904 </i>
    <i name="e_wo_entrp">   -137.00526764 </i>
    <i name="e_0_energy">   -137.00514191 </i>
   </energy>
  </scstep>
  <scstep>
   <time name="diag">    0.25    0.25</time>
   <time name="diis">    1.56    1.56</time>
   <time name="orth">    0.00    0.00</time>
   <time name="total">    2.44    2.44</time>
   <energy>
    <i name="e_fr_energy">   -137.00507904 </i>
    <i name="e_wo_entrp">   -137.00526764 </i>
    <i name="e_0_energy">   -137.00514190 </i>
   </energy>
  </scstep>
  <scstep>
   <time name="diag">    0.25    0.25</time>
   <time name="diis">    1.61    1.61</time>
   <time name="orth">    0.00    0.00</time>
   <time name="total">    2.49    2.49</time>
   <energy>
    <i name="e_fr_energy">   -137.00507712 </i>
    <i name="e_wo_entrp">   -137.00526573 </i>
    <i name="e_0_energy">   -137.00513999 </i>
   </energy>
  </scstep>
  <scstep>
   <time name="diag">    0.25    0.25</time>
   <time name="diis">    1.74    1.74</time>
   <time name="orth">    0.00    0.00</time>
   <time name="total">    2.59    2.59</time>
   <energy>
    <i name="e_fr_energy">   -137.00507825 </i>
    <i name="e_wo_entrp">   -137.00526686 </i>
    <i name="e_0_energy">   -137.00514112 </i>
   </energy>
  </scstep>
  <scstep>
   <time name="diag">    0.25    0.25</time>
   <time name="diis">    1.86    1.86</time>
   <time name="orth">    0.00    0.00</time>
   <time name="total">    2.75    2.75</time>
   <energy>
    <i name="e_fr_energy">   -137.00507886 </i>
    <i name="e_wo_entrp">   -137.00526747 </i>
    <i name="e_0_energy">   -137.00514173 </i>
   </energy>
  </scstep>
  <scstep>
   <time name="diag">    0.25    0.25</time>
   <time name="diis">    1.79    1.79</time>
   <time name="orth">    0.00    0.00</time>
   <time name="total">    2.67    2.67</time>
   <energy>
    <i name="e_fr_energy">   -137.00507800 </i>
    <i name="e_wo_entrp">   -137.00526660 </i>
    <i name="e_0_energy">   -137.00514087 </i>
   </energy>
  </scstep>
  <scstep>
   <time name="diag">    0.26    0.26</time>
   <time name="diis">    1.76    1.76</time>
   <time name="orth">    0.00    0.00</time>
   <time name="total">    2.65    2.64</time>
   <energy>
    <i name="e_fr_energy">   -137.00507790 </i>
    <i name="e_wo_entrp">   -137.00526650 </i>
    <i name="e_0_energy">   -137.00514077 </i>
   </energy>
  </scstep>
  <scstep>
   <time name="diag">    0.25    0.25</time>
   <time name="diis">    1.60    1.60</time>
   <time name="orth">    0.00    0.00</time>
   <time name="total">    2.50    2.49</time>
   <energy>
    <i name="e_fr_energy">   -137.00507832 </i>
    <i name="e_wo_entrp">   -137.00526692 </i>
    <i name="e_0_energy">   -137.00514119 </i>
   </energy>
  </scstep>
  <scstep>
   <time name="diag">    0.29    0.29</time>
   <time name="diis">    1.46    1.46</time>
   <time name="orth">    0.00    0.00</time>
   <time name="total">    2.37    2.37</time>
   <energy>
    <i name="e_fr_energy">   -137.00507835 </i>
    <i name="e_wo_entrp">   -137.00526696 </i>
    <i name="e_0_energy">   -137.00514122 </i>
   </energy>
  </scstep>
  <scstep>
   <time name="diag">    0.28    0.28</time>
   <time name="diis">    1.35    1.34</time>
   <time name="orth">    0.00    0.00</time>
   <time name="total">    2.27    2.27</time>
   <energy>
    <i name="e_fr_energy">   -137.00507840 </i>
    <i name="e_wo_entrp">   -137.00526700 </i>
    <i name="e_0_energy">   -137.00514126 </i>
   </energy>
  </scstep>
  <scstep>
   <time name="diag">    0.26    0.26</time>
   <time name="diis">    1.19    1.19</time>
   <time name="orth">    0.00    0.00</time>
   <time name="total">    2.08    2.08</time>
   <energy>
    <i name="e_fr_energy">   -137.00507841 </i>
    <i name="e_wo_entrp">   -137.00526701 </i>
    <i name="e_0_energy">   -137.00514128 </i>
   </energy>
  </scstep>
  <scstep>
   <time name="diag">    0.25    0.25</time>
   <time name="diis">    1.21    1.21</time>
   <time name="orth">    0.00    0.00</time>
   <time name="total">    2.13    2.13</time>
   <energy>
    <i name="e_fr_energy">   -137.00507842 </i>
    <i name="e_wo_entrp">   -137.00526703 </i>
    <i name="e_0_energy">   -137.00514129 </i>
   </energy>
  </scstep>
  <scstep>
   <time name="diag">    0.25    0.25</time>
   <time name="diis">    1.15    1.15</time>
   <time name="orth">    0.00    0.00</time>
   <time name="total">    1.69    1.69</time>
   <energy>
    <i name="alphaZ">     62.65290858 </i>
    <i name="ewald">  -1712.57602905 </i>
    <i name="hartreedc">   -677.06947309 </i>
    <i name="XCdc">    -51.27120206 </i>
    <i name="pawpsdc">   2302.45682029 </i>
    <i name="pawaedc">  -2368.83230757 </i>
    <i name="eentropy">      0.00018861 </i>
    <i name="bandstr">   -332.89471119 </i>
    <i name="atom">   2640.52872706 </i>
    <i name="e_fr_energy">   -137.00507842 </i>
    <i name="e_wo_entrp">   -137.00526703 </i>
    <i name="e_0_energy">   -137.00514129 </i>
   </energy>
  </scstep>
  <structure>
   <crystal>
    <varray name="basis" >
     <v>       4.41603497       0.00000000       0.00000000 </v>
     <v>       2.20801749       3.82439847      -0.00000000 </v>
     <v>       2.20801749       1.27479949       3.60567746 </v>
    </varray>
    <i name="volume">     60.89512341 </i>
    <varray name="rec_basis" >
     <v>       0.22644748      -0.13073951      -0.09244680 </v>
     <v>       0.00000000       0.26147903      -0.09244680 </v>
     <v>      -0.00000000       0.00000000       0.27734039 </v>
    </varray>
   </crystal>
   <varray name="positions" >
    <v>       0.00000000       0.00000000       0.00000000 </v>
   </varray>
  </structure>
  <varray name="forces" >
   <v>      -0.00000000       0.00000000       0.00000000 </v>
  </varray>
  <varray name="stress" >
   <v>       4.20602429      -0.00000000       0.00000000 </v>
   <v>       0.00000000       4.20602429      -0.00000000 </v>
   <v>      -0.00000000      -0.00000000       4.20602429 </v>
  </varray>
  <energy>
   <i name="e_fr_energy">   -137.00507842 </i>
   <i name="e_wo_entrp">   -137.00514129 </i>
   <i name="e_0_energy">      0.00018861 </i>
  </energy>
  <time name="totalsc">   74.89   74.86</time>
  <eigenvalues>
   <array>
    <dimension dim="1">band</dimension>
    <dimension dim="2">kpoint</dimension>
    <dimension dim="3">spin</dimension>
    <field>eigene</field>
    <field>occ</field>
    <set>
     <set comment="spin 1">
      <set comment="kpoint 1">
       <r>  -28.8169    1.0000 </r>
       <r>  -28.8169    1.0000 </r>
       <r>  -28.8169    1.0000 </r>
       <r>  -28.8149    1.0000 </r>
       <r>  -28.8149    1.0000 </r>
       <r>  -21.7040    1.0000 </r>
       <r>    1.0737    0.6751 </r>
       <r>    1.0737    0.6751 </r>
       <r>    1.0737    0.6750 </r>
       <r>    3.4389    0.0000 </r>
       <r>   10.6245    0.0000 </r>
       <r>   10.6245    0.0000 </r>
       <r>   10.6245    0.0000 </r>
      </set>
      <set comment="kpoint 2">
       <r>  -28.8164    1.0000 </r>
       <r>  -28.8163    1.0000 </r>
       <r>  -28.8163    1.0000 </r>
       <r>  -28.8146    1.0000 </r>
       <r>  -28.8146    1.0000 </r>
       <r>  -21.6934    1.0000 </r>
       <r>    0.4183    1.0000 </r>
       <r>    1.0270    1.0344 </r>
       <r>    1.0270    1.0344 </r>
       <r>    4.1837    0.0000 </r>
       <r>    9.8557    0.0000 </r>
       <r>   10.7573    0.0000 </r>
       <r>   10.7573    0.0000 </r>
      </set>
      <set comment="kpoint 3">
       <r>  -28.8161    1.0000 </r>
       <r>  -28.8161    1.0000 </r>
       <r>  -28.8159    1.0000 </r>
       <r>  -28.8132    1.0000 </r>
       <r>  -28.8132    1.0000 </r>
       <r>  -21.6667    1.0000 </r>
       <r>   -0.5814    1.0000 </r>
       <r>    0.9127    1.0000 </r>
       <r>    0.9127    1.0000 </r>
       <r>    5.2761    0.0000 </r>
       <r>    9.6530    0.0000 </r>
       <r>   10.7769    0.0000 </r>
       <r>   10.7769    0.0000 </r>
      </set>
      <set comment="kpoint 4">
       <r>  -28.8165    1.0000 </r>
       <r>  -28.8165    1.0000 </r>
       <r>  -28.8152    1.0000 </r>
       <r>  -28.8113    1.0000 </r>
       <r>  -28.8113    1.0000 </r>
       <r>  -21.6360    1.0000 </r>
       <r>   -1.3551    1.0000 </r>
       <r>    0.7891    1.0000 </r>
       <r>    0.7891    1.0000 </r>
       <r>    5.8201    0.0000 </r>
       <r>   10.4174    0.0000 </r>
       <r>   10.4174    0.0000 </r>
       <r>   10.4277    0.0000 </r>
      </set>
      <set comment="kpoint 5">
       <r>  -28.8168    1.0000 </r>
       <r>  -28.8168    1.0000 </r>
       <r>  -28.8147    1.0000 </r>
       <r>  -28.8099    1.0000 </r>
       <r>  -28.8099    1.0000 </r>
       <r>  -21.6157    1.0000 </r>
       <r>   -1.7658    1.0000 </r>
       <r>    0.7118    1.0000 </r>
       <r>    0.7118    1.0000 </r>
       <r>    5.9215    0.0000 </r>
       <r>   10.1670    0.0000 </r>
       <r>   10.1670    0.0000 </r>
       <r>   10.5383    0.0000 </r>
      </set>
      <set comment="kpoint 6">
       <r>  -28.8171    1.0000 </r>
       <r>  -28.8157    1.0000 </r>
       <r>  -28.8157    1.0000 </r>
       <r>  -28.8150    1.0000 </r>
       <r>  -28.8143    1.0000 </r>
       <r>  -21.6900    1.0000 </r>
       <r>    0.3851    1.0000 </r>
       <r>    0.9242    1.0000 </r>
       <r>    0.9242    1.0000 </r>
       <r>    4.4400    0.0000 </r>
       <r>    9.5326    0.0000 </r>
       <r>   10.9535    0.0000 </r>
       <r>   10.9537    0.0000 </r>
      </set>
      <set comment="kpoint 7">
       <r>  -28.8169    1.0000 </r>
       <r>  -28.8155    1.0000 </r>
       <r>  -28.8152    1.0000 </r>
       <r>  -28.8142    1.0000 </r>
       <r>  -28.8131    1.0000 </r>
       <r>  -21.6686    1.0000 </r>
       <r>   -0.3646    1.0000 </r>
       <r>    0.7725    1.0000 </r>
       <r>    0.8153    1.0000 </r>
       <r>    5.4256    0.0000 </r>
       <r>    9.1543    0.0000 </r>
       <r>   10.3041    0.0000 </r>
       <r>   11.1981    0.0000 </r>
      </set>
      <set comment="kpoint 8">
       <r>  -28.8167    1.0000 </r>
       <r>  -28.8155    1.0000 </r>
       <r>  -28.8153    1.0000 </r>
       <r>  -28.8125    1.0000 </r>
       <r>  -28.8111    1.0000 </r>
       <r>  -21.6392    1.0000 </r>
       <r>   -1.1208    1.0000 </r>
       <r>    0.6449    1.0000 </r>
       <r>    0.6480    1.0000 </r>
       <r>    6.1870    0.0000 </r>
       <r>    9.5640    0.0000 </r>
       <r>    9.6291    0.0000 </r>
       <r>   10.9704    0.0000 </r>
      </set>
      <set comment="kpoint 9">
       <r>  -28.8168    1.0000 </r>
       <r>  -28.8159    1.0000 </r>
       <r>  -28.8146    1.0000 </r>
       <r>  -28.8109    1.0000 </r>
       <r>  -28.8098    1.0000 </r>
       <r>  -21.6155    1.0000 </r>
       <r>   -1.6017    1.0000 </r>
       <r>    0.4641    1.0000 </r>
       <r>    0.5950    1.0000 </r>
       <r>    6.4139    0.0000 </r>
       <r>    9.2224    0.0000 </r>
       <r>   10.5977    0.0000 </r>
       <r>   10.9058    0.0000 </r>
      </set>
      <set comment="kpoint 10">
       <r>  -28.8168    1.0000 </r>
       <r>  -28.8161    1.0000 </r>
       <r>  -28.8142    1.0000 </r>
       <r>  -28.8102    1.0000 </r>
       <r>  -28.8099    1.0000 </r>
       <r>  -21.6087    1.0000 </r>
       <r>   -1.7228    1.0000 </r>
       <r>    0.3490    1.0000 </r>
       <r>    0.6417    1.0000 </r>
       <r>    6.4476    0.0000 </r>
       <r>    9.1621    0.0000 </r>
       <r>   10.3989    0.0000 </r>
       <r>   11.6669    0.0000 </r>
      </set>
      <set comment="kpoint 11">
       <r>  -28.8165    1.0000 </r>
       <r>  -28.8160    1.0000 </r>
       <r>  -28.8147    1.0000 </r>
       <r>  -28.8114    1.0000 </r>
       <r>  -28.8104    1.0000 </r>
       <r>  -21.6222    1.0000 </r>
       <r>   -1.4706    1.0000 </r>
       <r>    0.3550    1.0000 </r>
       <r>    0.7671    1.0000 </r>
       <r>    6.3970    0.0000 </r>
       <r>    9.4290    0.0000 </r>
       <r>   10.4564    0.0000 </r>
       <r>   10.6306    0.0000 </r>
      </set>
      <set comment="kpoint 12">
       <r>  -28.8161    1.0000 </r>
       <r>  -28.8156    1.0000 </r>
       <r>  -28.8155    1.0000 </r>
       <r>  -28.8135    1.0000 </r>
       <r>  -28.8117    1.0000 </r>
       <r>  -21.6495    1.0000 </r>
       <r>   -0.8940    1.0000 </r>
       <r>    0.4964    1.0000 </r>
       <r>    0.9190    1.0000 </r>
       <r>    5.9862    0.0000 </r>
       <r>    9.5378    0.0000 </r>
       <r>    9.9944    0.0000 </r>
       <r>   10.7805    0.0000 </r>
      </set>
      <set comment="kpoint 13">
       <r>  -28.8163    1.0000 </r>
       <r>  -28.8159    1.0000 </r>
       <r>  -28.8157    1.0000 </r>
       <r>  -28.8148    1.0000 </r>
       <r>  -28.8134    1.0000 </r>
       <r>  -21.6775    1.0000 </r>
       <r>   -0.1462    1.0000 </r>
       <r>    0.7580    1.0000 </r>
       <r>    1.0247    1.0353 </r>
       <r>    5.0127    0.0000 </r>
       <r>    9.4509    0.0000 </r>
       <r>   10.6845    0.0000 </r>
       <r>   10.9167    0.0000 </r>
      </set>
      <set comment="kpoint 14">
       <r>  -28.8178    1.0000 </r>
       <r>  -28.8157    1.0000 </r>
       <r>  -28.8132    1.0000 </r>
       <r>  -28.8132    1.0000 </r>
       <r>  -28.8132    1.0000 </r>
       <r>  -21.6544    1.0000 </r>
       <r>   -0.5557    1.0000 </r>
       <r>    0.5773    1.0000 </r>
       <r>    0.5773    1.0000 </r>
       <r>    6.0586    0.0000 </r>
       <r>    8.5474    0.0000 </r>
       <r>    9.8204    0.0000 </r>
       <r>   11.8024    0.0000 </r>
      </set>
      <set comment="kpoint 15">
       <r>  -28.8177    1.0000 </r>
       <r>  -28.8160    1.0000 </r>
       <r>  -28.8135    1.0000 </r>
       <r>  -28.8118    1.0000 </r>
       <r>  -28.8110    1.0000 </r>
       <r>  -21.6304    1.0000 </r>
       <r>   -1.0213    1.0000 </r>
       <r>    0.3516    1.0000 </r>
       <r>    0.4201    1.0000 </r>
       <r>    6.6624    0.0000 </r>
       <r>    8.4454    0.0000 </r>
       <r>    9.4902    0.0000 </r>
       <r>   11.9584    0.0000 </r>
      </set>
      <set comment="kpoint 16">
       <r>  -28.8173    1.0000 </r>
       <r>  -28.8153    1.0000 </r>
       <r>  -28.8139    1.0000 </r>
       <r>  -28.8110    1.0000 </r>
       <r>  -28.8096    1.0000 </r>
       <r>  -21.6079    1.0000 </r>
       <r>   -1.3751    1.0000 </r>
       <r>    0.0197    1.0000 </r>
       <r>    0.3639    1.0000 </r>
       <r>    6.9806    0.0000 </r>
       <r>    8.9532    0.0000 </r>
       <r>    9.4705    0.0000 </r>
       <r>   11.5915    0.0000 </r>
      </set>
      <set comment="kpoint 17">
       <r>  -28.8171    1.0000 </r>
       <r>  -28.8142    1.0000 </r>
       <r>  -28.8137    1.0000 </r>
       <r>  -28.8110    1.0000 </r>
       <r>  -28.8097    1.0000 </r>
       <r>  -21.5976    1.0000 </r>
       <r>   -1.4836    1.0000 </r>
       <r>   -0.2797    1.0000 </r>
       <r>    0.4291    1.0000 </r>
       <r>    7.1737    0.0000 </r>
       <r>    8.8784    0.0000 </r>
       <r>   10.7954    0.0000 </r>
       <r>   11.2294    0.0000 </r>
      </set>
      <set comment="kpoint 18">
       <r>  -28.8168    1.0000 </r>
       <r>  -28.8143    1.0000 </r>
       <r>  -28.8133    1.0000 </r>
       <r>  -28.8112    1.0000 </r>
       <r>  -28.8110    1.0000 </r>
       <r>  -21.6043    1.0000 </r>
       <r>   -1.3691    1.0000 </r>
       <r>   -0.3578    1.0000 </r>
       <r>    0.5924    1.0000 </r>
       <r>    7.3525    0.0000 </r>
       <r>    8.8600    0.0000 </r>
       <r>   10.6089    0.0000 </r>
       <r>   11.0380    0.0000 </r>
      </set>
      <set comment="kpoint 19">
       <r>  -28.8163    1.0000 </r>
       <r>  -28.8146    1.0000 </r>
       <r>  -28.8144    1.0000 </r>
       <r>  -28.8131    1.0000 </r>
       <r>  -28.8109    1.0000 </r>
       <r>  -21.6248    1.0000 </r>
       <r>   -1.1559    1.0000 </r>
       <r>   -0.0667    1.0000 </r>
       <r>    0.7872    1.0000 </r>
       <r>    7.0132    0.0000 </r>
       <r>    9.1833    0.0000 </r>
       <r>    9.5999    0.0000 </r>
       <r>   10.9822    0.0000 </r>
      </set>
      <set comment="kpoint 20">
       <r>  -28.8187    1.0000 </r>
       <r>  -28.8166    1.0000 </r>
       <r>  -28.8120    1.0000 </r>
       <r>  -28.8103    1.0000 </r>
       <r>  -28.8103    1.0000 </r>
       <r>  -21.6136    1.0000 </r>
       <r>   -1.2165    1.0000 </r>
       <r>    0.2258    1.0000 </r>
       <r>    0.2258    1.0000 </r>
       <r>    6.5239    0.0000 </r>
       <r>    7.8854    0.0000 </r>
       <r>   10.3768    0.0000 </r>
       <r>   12.9071    0.0000 </r>
      </set>
      <set comment="kpoint 21">
       <r>  -28.8185    1.0000 </r>
       <r>  -28.8166    1.0000 </r>
       <r>  -28.8119    1.0000 </r>
       <r>  -28.8095    1.0000 </r>
       <r>  -28.8091    1.0000 </r>
       <r>  -21.5967    1.0000 </r>
       <r>   -1.3968    1.0000 </r>
       <r>   -0.0557    1.0000 </r>
       <r>    0.1397    1.0000 </r>
       <r>    6.5525    0.0000 </r>
       <r>    7.9815    0.0000 </r>
       <r>   10.8177    0.0000 </r>
       <r>   12.9119    0.0000 </r>
      </set>
      <set comment="kpoint 22">
       <r>  -28.8178    1.0000 </r>
       <r>  -28.8154    1.0000 </r>
       <r>  -28.8123    1.0000 </r>
       <r>  -28.8099    1.0000 </r>
       <r>  -28.8092    1.0000 </r>
       <r>  -21.5875    1.0000 </r>
       <r>   -1.3356    1.0000 </r>
       <r>   -0.5482    1.0000 </r>
       <r>    0.1919    1.0000 </r>
       <r>    6.8252    0.0000 </r>
       <r>    8.8212    0.0000 </r>
       <r>   10.7606    0.0000 </r>
       <r>   12.4443    0.0000 </r>
      </set>
      <set comment="kpoint 23">
       <r>  -28.8173    1.0000 </r>
       <r>  -28.8130    1.0000 </r>
       <r>  -28.8129    1.0000 </r>
       <r>  -28.8113    1.0000 </r>
       <r>  -28.8103    1.0000 </r>
       <r>  -21.5905    1.0000 </r>
       <r>   -1.0505    1.0000 </r>
       <r>   -0.9648    1.0000 </r>
       <r>    0.3650    1.0000 </r>
       <r>    7.2209    0.0000 </r>
       <r>    9.5301    0.0000 </r>
       <r>   11.0289    0.0000 </r>
       <r>   11.2104    0.0000 </r>
      </set>
      <set comment="kpoint 24">
       <r>  -28.8193    1.0000 </r>
       <r>  -28.8171    1.0000 </r>
       <r>  -28.8111    1.0000 </r>
       <r>  -28.8084    1.0000 </r>
       <r>  -28.8084    1.0000 </r>
       <r>  -21.5869    1.0000 </r>
       <r>   -1.5436    1.0000 </r>
       <r>    0.0157    1.0000 </r>
       <r>    0.0157    1.0000 </r>
       <r>    6.1468    0.0000 </r>
       <r>    7.5538    0.0000 </r>
       <r>   12.5800    0.0000 </r>
       <r>   13.9069    0.0000 </r>
      </set>
      <set comment="kpoint 25">
       <r>  -28.8188    1.0000 </r>
       <r>  -28.8169    1.0000 </r>
       <r>  -28.8113    1.0000 </r>
       <r>  -28.8085    1.0000 </r>
       <r>  -28.8084    1.0000 </r>
       <r>  -21.5832    1.0000 </r>
       <r>   -1.5116    1.0000 </r>
       <r>   -0.2162    1.0000 </r>
       <r>    0.0352    1.0000 </r>
       <r>    6.3232    0.0000 </r>
       <r>    7.8243    0.0000 </r>
       <r>   12.7772    0.0000 </r>
       <r>   12.9728    0.0000 </r>
      </set>
      <set comment="kpoint 26">
       <r>  -28.8168    1.0000 </r>
       <r>  -28.8158    1.0000 </r>
       <r>  -28.8145    1.0000 </r>
       <r>  -28.8133    1.0000 </r>
       <r>  -28.8116    1.0000 </r>
       <r>  -21.6460    1.0000 </r>
       <r>   -0.8192    1.0000 </r>
       <r>    0.3776    1.0000 </r>
       <r>    0.7539    1.0000 </r>
       <r>    6.3262    0.0000 </r>
       <r>    8.9283    0.0000 </r>
       <r>    9.5667    0.0000 </r>
       <r>   11.6888    0.0000 </r>
      </set>
      <set comment="kpoint 27">
       <r>  -28.8164    1.0000 </r>
       <r>  -28.8155    1.0000 </r>
       <r>  -28.8145    1.0000 </r>
       <r>  -28.8118    1.0000 </r>
       <r>  -28.8104    1.0000 </r>
       <r>  -21.6200    1.0000 </r>
       <r>   -1.2605    1.0000 </r>
       <r>    0.0632    1.0000 </r>
       <r>    0.6094    1.0000 </r>
       <r>    7.0273    0.0000 </r>
       <r>    8.9552    0.0000 </r>
       <r>    9.4504    0.0000 </r>
       <r>   11.2905    0.0000 </r>
      </set>
      <set comment="kpoint 28">
       <r>  -28.8166    1.0000 </r>
       <r>  -28.8152    1.0000 </r>
       <r>  -28.8136    1.0000 </r>
       <r>  -28.8111    1.0000 </r>
       <r>  -28.8098    1.0000 </r>
       <r>  -21.6030    1.0000 </r>
       <r>   -1.5228    1.0000 </r>
       <r>   -0.0853    1.0000 </r>
       <r>    0.4828    1.0000 </r>
       <r>    7.2264    0.0000 </r>
       <r>    8.6104    0.0000 </r>
       <r>   10.8036    0.0000 </r>
       <r>   11.1144    0.0000 </r>
      </set>
      <set comment="kpoint 29">
       <r>  -28.8175    1.0000 </r>
       <r>  -28.8163    1.0000 </r>
       <r>  -28.8131    1.0000 </r>
       <r>  -28.8104    1.0000 </r>
       <r>  -28.8102    1.0000 </r>
       <r>  -21.6100    1.0000 </r>
       <r>   -1.2494    1.0000 </r>
       <r>   -0.0015    1.0000 </r>
       <r>    0.2981    1.0000 </r>
       <r>    7.0027    0.0000 </r>
       <r>    8.4029    0.0000 </r>
       <r>    9.5226    0.0000 </r>
       <r>   12.5739    0.0000 </r>
      </set>
      <set comment="kpoint 30">
       <r>  -28.8169    1.0000 </r>
       <r>  -28.8154    1.0000 </r>
       <r>  -28.8132    1.0000 </r>
       <r>  -28.8106    1.0000 </r>
       <r>  -28.8093    1.0000 </r>
       <r>  -21.5942    1.0000 </r>
       <r>   -1.3242    1.0000 </r>
       <r>   -0.3796    1.0000 </r>
       <r>    0.1822    1.0000 </r>
       <r>    7.3546    0.0000 </r>
       <r>    8.9487    0.0000 </r>
       <r>    9.4906    0.0000 </r>
       <r>   12.3167    0.0000 </r>
      </set>
      <set comment="kpoint 31">
       <r>  -28.8166    1.0000 </r>
       <r>  -28.8140    1.0000 </r>
       <r>  -28.8126    1.0000 </r>
       <r>  -28.8122    1.0000 </r>
       <r>  -28.8093    1.0000 </r>
       <r>  -21.5905    1.0000 </r>
       <r>   -1.2378    1.0000 </r>
       <r>   -0.6728    1.0000 </r>
       <r>    0.2339    1.0000 </r>
       <r>    7.6938    0.0000 </r>
       <r>    8.8183    0.0000 </r>
       <r>   10.6289    0.0000 </r>
       <r>   11.1625    0.0000 </r>
      </set>
      <set comment="kpoint 32">
       <r>  -28.8163    1.0000 </r>
       <r>  -28.8144    1.0000 </r>
       <r>  -28.8138    1.0000 </r>
       <r>  -28.8110    1.0000 </r>
       <r>  -28.8105    1.0000 </r>
       <r>  -21.6008    1.0000 </r>
       <r>   -1.2447    1.0000 </r>
       <r>   -0.4964    1.0000 </r>
       <r>    0.4200    1.0000 </r>
       <r>    7.9472    0.0000 </r>
       <r>    8.4734    0.0000 </r>
       <r>    9.6953    0.0000 </r>
       <r>   11.8306    0.0000 </r>
      </set>
      <set comment="kpoint 33">
       <r>  -28.8180    1.0000 </r>
       <r>  -28.8167    1.0000 </r>
       <r>  -28.8118    1.0000 </r>
       <r>  -28.8095    1.0000 </r>
       <r>  -28.8084    1.0000 </r>
       <r>  -21.5864    1.0000 </r>
       <r>   -1.4228    1.0000 </r>
       <r>   -0.2256    1.0000 </r>
       <r>   -0.0343    1.0000 </r>
       <r>    6.6837    0.0000 </r>
       <r>    8.1160    0.0000 </r>
       <r>   11.1165    0.0000 </r>
       <r>   12.9681    0.0000 </r>
      </set>
      <set comment="kpoint 34">
       <r>  -28.8170    1.0000 </r>
       <r>  -28.8154    1.0000 </r>
       <r>  -28.8121    1.0000 </r>
       <r>  -28.8109    1.0000 </r>
       <r>  -28.8084    1.0000 </r>
       <r>  -21.5840    1.0000 </r>
       <r>   -1.2335    1.0000 </r>
       <r>   -0.6496    1.0000 </r>
       <r>    0.0079    1.0000 </r>
       <r>    7.1726    0.0000 </r>
       <r>    8.9358    0.0000 </r>
       <r>   10.5917    0.0000 </r>
       <r>   11.4616    0.0000 </r>
      </set>
      <set comment="kpoint 35">
       <r>  -28.8158    1.0000 </r>
       <r>  -28.8147    1.0000 </r>
       <r>  -28.8131    1.0000 </r>
       <r>  -28.8120    1.0000 </r>
       <r>  -28.8084    1.0000 </r>
       <r>  -21.5852    1.0000 </r>
       <r>   -1.0939    1.0000 </r>
       <r>   -0.7458    1.0000 </r>
       <r>   -0.0707    1.0000 </r>
       <r>    7.9952    0.0000 </r>
       <r>    9.1228    0.0000 </r>
       <r>    9.5696    0.0000 </r>
       <r>   10.9753    0.0000 </r>
      </set>
     </set>
    </set>
   </array>
  </eigenvalues>
  <separator name="orbital magnetization" >
   <v name="MAGDIPOLOUT">      0.00000000      0.00000000      0.00000000</v>
  </separator>
  <dos>
   <i name="efermi">      1.08427132 </i>
   <total>
    <array>
     <dimension dim="1">gridpoints</dimension>
     <dimension dim="2">spin</dimension>
     <field>energy</field>
     <field>total</field>
     <field>integrated</field>
     <set>
      <set comment="spin 1">
       <r>   -30.9556     0.0000     0.0000 </r>
       <r>   -30.7989     0.0000     0.0000 </r>
       <r>   -30.6423     0.0000     0.0000 </r>
       <r>   -30.4856     0.0000     0.0000 </r>
       <r>   -30.3289     0.0000     0.0000 </r>
       <r>   -30.1723     0.0000     0.0000 </r>
       <r>   -30.0156     0.0000     0.0000 </r>
       <r>   -29.8590     0.0000     0.0000 </r>
       <r>   -29.7023     0.0000     0.0000 </r>
       <r>   -29.5456     0.0000     0.0000 </r>
       <r>   -29.3890     0.0000     0.0000 </r>
       <r>   -29.2323    -0.0000    -0.0000 </r>
       <r>   -29.0756    -0.0000    -0.0000 </r>
       <r>   -28.9190    -0.3589    -0.0562 </r>
       <r>   -28.7623    65.8907    10.2664 </r>
       <r>   -28.6057    -1.7003    10.0000 </r>
       <r>   -28.4490    -0.0000    10.0000 </r>
       <r>   -28.2923     0.0000    10.0000 </r>
       <r>   -28.1357     0.0000    10.0000 </r>
       <r>   -27.9790     0.0000    10.0000 </r>
       <r>   -27.8223     0.0000    10.0000 </r>
       <r>   -27.6657     0.0000    10.0000 </r>
       <r>   -27.5090     0.0000    10.0000 </r>
       <r>   -27.3524     0.0000    10.0000 </r>
       <r>   -27.1957     0.0000    10.0000 </r>
       <r>   -27.0390     0.0000    10.0000 </r>
       <r>   -26.8824     0.0000    10.0000 </r>
       <r>   -26.7257     0.0000    10.0000 </r>
       <r>   -26.5690     0.0000    10.0000 </r>
       <r>   -26.4124     0.0000    10.0000 </r>
       <r>   -26.2557     0.0000    10.0000 </r>
       <r>   -26.0991     0.0000    10.0000 </r>
       <r>   -25.9424     0.0000    10.0000 </r>
       <r>   -25.7857     0.0000    10.0000 </r>
       <r>   -25.6291     0.0000    10.0000 </r>
       <r>   -25.4724     0.0000    10.0000 </r>
       <r>   -25.3157     0.0000    10.0000 </r>
       <r>   -25.1591     0.0000    10.0000 </r>
       <r>   -25.0024     0.0000    10.0000 </r>
       <r>   -24.8458     0.0000    10.0000 </r>
       <r>   -24.6891     0.0000    10.0000 </r>
       <r>   -24.5324     0.0000    10.0000 </r>
       <r>   -24.3758     0.0000    10.0000 </r>
       <r>   -24.2191     0.0000    10.0000 </r>
       <r>   -24.0624     0.0000    10.0000 </r>
       <r>   -23.9058     0.0000    10.0000 </r>
       <r>   -23.7491     0.0000    10.0000 </r>
       <r>   -23.5925     0.0000    10.0000 </r>
       <r>   -23.4358     0.0000    10.0000 </r>
       <r>   -23.2791     0.0000    10.0000 </r>
       <r>   -23.1225     0.0000    10.0000 </r>
       <r>   -22.9658     0.0000    10.0000 </r>
       <r>   -22.8091     0.0000    10.0000 </r>
       <r>   -22.6525     0.0000    10.0000 </r>
       <r>   -22.4958     0.0000    10.0000 </r>
       <r>   -22.3392     0.0000    10.0000 </r>
       <r>   -22.1825    -0.0000    10.0000 </r>
       <r>   -22.0258    -0.0000    10.0000 </r>
       <r>   -21.8692    -0.0000    10.0000 </r>
       <r>   -21.7125    -0.0515     9.9919 </r>
       <r>   -21.5558    12.7667    11.9920 </r>
       <r>   -21.3992     0.0511    12.0000 </r>
       <r>   -21.2425    -0.0000    12.0000 </r>
       <r>   -21.0859     0.0000    12.0000 </r>
       <r>   -20.9292     0.0000    12.0000 </r>
       <r>   -20.7725     0.0000    12.0000 </r>
       <r>   -20.6159     0.0000    12.0000 </r>
       <r>   -20.4592     0.0000    12.0000 </r>
       <r>   -20.3025     0.0000    12.0000 </r>
       <r>   -20.1459     0.0000    12.0000 </r>
       <r>   -19.9892     0.0000    12.0000 </r>
       <r>   -19.8326     0.0000    12.0000 </r>
       <r>   -19.6759     0.0000    12.0000 </r>
       <r>   -19.5192     0.0000    12.0000 </r>
       <r>   -19.3626     0.0000    12.0000 </r>
       <r>   -19.2059     0.0000    12.0000 </r>
       <r>   -19.0492     0.0000    12.0000 </r>
       <r>   -18.8926     0.0000    12.0000 </r>
       <r>   -18.7359     0.0000    12.0000 </r>
       <r>   -18.5793     0.0000    12.0000 </r>
       <r>   -18.4226     0.0000    12.0000 </r>
       <r>   -18.2659     0.0000    12.0000 </r>
       <r>   -18.1093     0.0000    12.0000 </r>
       <r>   -17.9526     0.0000    12.0000 </r>
       <r>   -17.7959     0.0000    12.0000 </r>
       <r>   -17.6393     0.0000    12.0000 </r>
       <r>   -17.4826     0.0000    12.0000 </r>
       <r>   -17.3260     0.0000    12.0000 </r>
       <r>   -17.1693     0.0000    12.0000 </r>
       <r>   -17.0126     0.0000    12.0000 </r>
       <r>   -16.8560     0.0000    12.0000 </r>
       <r>   -16.6993     0.0000    12.0000 </r>
       <r>   -16.5426     0.0000    12.0000 </r>
       <r>   -16.3860     0.0000    12.0000 </r>
       <r>   -16.2293     0.0000    12.0000 </r>
       <r>   -16.0727     0.0000    12.0000 </r>
       <r>   -15.9160     0.0000    12.0000 </r>
       <r>   -15.7593     0.0000    12.0000 </r>
       <r>   -15.6027     0.0000    12.0000 </r>
       <r>   -15.4460     0.0000    12.0000 </r>
       <r>   -15.2893     0.0000    12.0000 </r>
       <r>   -15.1327     0.0000    12.0000 </r>
       <r>   -14.9760     0.0000    12.0000 </r>
       <r>   -14.8194     0.0000    12.0000 </r>
       <r>   -14.6627     0.0000    12.0000 </r>
       <r>   -14.5060     0.0000    12.0000 </r>
       <r>   -14.3494     0.0000    12.0000 </r>
       <r>   -14.1927     0.0000    12.0000 </r>
       <r>   -14.0360     0.0000    12.0000 </r>
       <r>   -13.8794     0.0000    12.0000 </r>
       <r>   -13.7227     0.0000    12.0000 </r>
       <r>   -13.5661     0.0000    12.0000 </r>
       <r>   -13.4094     0.0000    12.0000 </r>
       <r>   -13.2527     0.0000    12.0000 </r>
       <r>   -13.0961     0.0000    12.0000 </r>
       <r>   -12.9394     0.0000    12.0000 </r>
       <r>   -12.7827     0.0000    12.0000 </r>
       <r>   -12.6261     0.0000    12.0000 </r>
       <r>   -12.4694     0.0000    12.0000 </r>
       <r>   -12.3128     0.0000    12.0000 </r>
       <r>   -12.1561     0.0000    12.0000 </r>
       <r>   -11.9994     0.0000    12.0000 </r>
       <r>   -11.8428     0.0000    12.0000 </r>
       <r>   -11.6861     0.0000    12.0000 </r>
       <r>   -11.5294     0.0000    12.0000 </r>
       <r>   -11.3728     0.0000    12.0000 </r>
       <r>   -11.2161     0.0000    12.0000 </r>
       <r>   -11.0595     0.0000    12.0000 </r>
       <r>   -10.9028     0.0000    12.0000 </r>
       <r>   -10.7461     0.0000    12.0000 </r>
       <r>   -10.5895     0.0000    12.0000 </r>
       <r>   -10.4328     0.0000    12.0000 </r>
       <r>   -10.2761     0.0000    12.0000 </r>
       <r>   -10.1195     0.0000    12.0000 </r>
       <r>    -9.9628     0.0000    12.0000 </r>
       <r>    -9.8062     0.0000    12.0000 </r>
       <r>    -9.6495     0.0000    12.0000 </r>
       <r>    -9.4928     0.0000    12.0000 </r>
       <r>    -9.3362     0.0000    12.0000 </r>
       <r>    -9.1795     0.0000    12.0000 </r>
       <r>    -9.0228     0.0000    12.0000 </r>
       <r>    -8.8662     0.0000    12.0000 </r>
       <r>    -8.7095     0.0000    12.0000 </r>
       <r>    -8.5529     0.0000    12.0000 </r>
       <r>    -8.3962     0.0000    12.0000 </r>
       <r>    -8.2395     0.0000    12.0000 </r>
       <r>    -8.0829     0.0000    12.0000 </r>
       <r>    -7.9262     0.0000    12.0000 </r>
       <r>    -7.7695     0.0000    12.0000 </r>
       <r>    -7.6129     0.0000    12.0000 </r>
       <r>    -7.4562     0.0000    12.0000 </r>
       <r>    -7.2996     0.0000    12.0000 </r>
       <r>    -7.1429     0.0000    12.0000 </r>
       <r>    -6.9862     0.0000    12.0000 </r>
       <r>    -6.8296     0.0000    12.0000 </r>
       <r>    -6.6729     0.0000    12.0000 </r>
       <r>    -6.5162     0.0000    12.0000 </r>
       <r>    -6.3596     0.0000    12.0000 </r>
       <r>    -6.2029     0.0000    12.0000 </r>
       <r>    -6.0463     0.0000    12.0000 </r>
       <r>    -5.8896     0.0000    12.0000 </r>
       <r>    -5.7329     0.0000    12.0000 </r>
       <r>    -5.5763     0.0000    12.0000 </r>
       <r>    -5.4196     0.0000    12.0000 </r>
       <r>    -5.2629     0.0000    12.0000 </r>
       <r>    -5.1063     0.0000    12.0000 </r>
       <r>    -4.9496     0.0000    12.0000 </r>
       <r>    -4.7930     0.0000    12.0000 </r>
       <r>    -4.6363     0.0000    12.0000 </r>
       <r>    -4.4796     0.0000    12.0000 </r>
       <r>    -4.3230     0.0000    12.0000 </r>
       <r>    -4.1663     0.0000    12.0000 </r>
       <r>    -4.0096     0.0000    12.0000 </r>
       <r>    -3.8530     0.0000    12.0000 </r>
       <r>    -3.6963     0.0000    12.0000 </r>
       <r>    -3.5397     0.0000    12.0000 </r>
       <r>    -3.3830     0.0000    12.0000 </r>
       <r>    -3.2263     0.0000    12.0000 </r>
       <r>    -3.0697     0.0000    12.0000 </r>
       <r>    -2.9130     0.0000    12.0000 </r>
       <r>    -2.7563     0.0000    12.0000 </r>
       <r>    -2.5997     0.0000    12.0000 </r>
       <r>    -2.4430     0.0000    12.0000 </r>
       <r>    -2.2864    -0.0000    12.0000 </r>
       <r>    -2.1297    -0.0000    12.0000 </r>
       <r>    -1.9730    -0.0000    12.0000 </r>
       <r>    -1.8164    -0.0087    11.9986 </r>
       <r>    -1.6597     0.5694    12.0878 </r>
       <r>    -1.5030     1.4368    12.3129 </r>
       <r>    -1.3464     2.9147    12.7696 </r>
       <r>    -1.1897     4.2499    13.4354 </r>
       <r>    -1.0331     1.3019    13.6393 </r>
       <r>    -0.8764     0.8494    13.7724 </r>
       <r>    -0.7197     0.8708    13.9088 </r>
       <r>    -0.5631     1.5910    14.1581 </r>
       <r>    -0.4064     0.9198    14.3022 </r>
       <r>    -0.2497     2.0496    14.6233 </r>
       <r>    -0.0931     1.1959    14.8106 </r>
       <r>     0.0636     4.0332    15.4425 </r>
       <r>     0.2202     2.3475    15.8102 </r>
       <r>     0.3769     2.9791    16.2769 </r>
       <r>     0.5336     3.7034    16.8571 </r>
       <r>     0.6902     3.2237    17.3622 </r>
       <r>     0.8469     2.6098    17.7710 </r>
       <r>     1.0036     1.0123    17.9296 </r>
       <r>     1.1602     0.4505    18.0002 </r>
       <r>     1.3169    -0.0011    18.0000 </r>
       <r>     1.4735    -0.0000    18.0000 </r>
       <r>     1.6302     0.0000    18.0000 </r>
       <r>     1.7869     0.0000    18.0000 </r>
       <r>     1.9435     0.0000    18.0000 </r>
       <r>     2.1002     0.0000    18.0000 </r>
       <r>     2.2569     0.0000    18.0000 </r>
       <r>     2.4135     0.0000    18.0000 </r>
       <r>     2.5702     0.0000    18.0000 </r>
       <r>     2.7268     0.0000    18.0000 </r>
       <r>     2.8835    -0.0000    18.0000 </r>
       <r>     3.0402    -0.0000    18.0000 </r>
       <r>     3.1968    -0.0000    18.0000 </r>
       <r>     3.3535    -0.0003    18.0000 </r>
       <r>     3.5102     0.0184    18.0028 </r>
       <r>     3.6668    -0.0005    18.0027 </r>
       <r>     3.8235    -0.0000    18.0027 </r>
       <r>     3.9801    -0.0000    18.0027 </r>
       <r>     4.1368    -0.0024    18.0024 </r>
       <r>     4.2935     0.1431    18.0248 </r>
       <r>     4.4501     0.0696    18.0357 </r>
       <r>     4.6068     0.0349    18.0412 </r>
       <r>     4.7635    -0.0000    18.0412 </r>
       <r>     4.9201    -0.0026    18.0407 </r>
       <r>     5.0768     0.2201    18.0752 </r>
       <r>     5.2334    -0.0077    18.0740 </r>
       <r>     5.3901     0.1564    18.0985 </r>
       <r>     5.5468     0.4050    18.1620 </r>
       <r>     5.7034    -0.0010    18.1618 </r>
       <r>     5.8601     0.1336    18.1827 </r>
       <r>     6.0168     0.5372    18.2669 </r>
       <r>     6.1734     0.3459    18.3211 </r>
       <r>     6.3301     0.6584    18.4242 </r>
       <r>     6.4867     1.5482    18.6668 </r>
       <r>     6.6434     0.6192    18.7638 </r>
       <r>     6.8001     0.8013    18.8893 </r>
       <r>     6.9567     0.3857    18.9498 </r>
       <r>     7.1134     1.8555    19.2404 </r>
       <r>     7.2701     1.9003    19.5381 </r>
       <r>     7.4267     1.3041    19.7424 </r>
       <r>     7.5834     0.0558    19.7512 </r>
       <r>     7.7400     0.8617    19.8862 </r>
       <r>     7.8967     0.2569    19.9264 </r>
       <r>     8.0534     1.3248    20.1340 </r>
       <r>     8.2100     0.4104    20.1983 </r>
       <r>     8.3667    -0.0038    20.1977 </r>
       <r>     8.5234     1.2822    20.3986 </r>
       <r>     8.6800     0.9499    20.5474 </r>
       <r>     8.8367     1.0005    20.7041 </r>
       <r>     8.9933     4.0342    21.3361 </r>
       <r>     9.1500     0.6626    21.4399 </r>
       <r>     9.3067     1.2185    21.6308 </r>
       <r>     9.4633     1.3897    21.8485 </r>
       <r>     9.6200     4.5413    22.5600 </r>
       <r>     9.7767     0.8264    22.6895 </r>
       <r>     9.9333     0.2288    22.7253 </r>
       <r>    10.0900     0.4285    22.7924 </r>
       <r>    10.2466     0.2750    22.8355 </r>
       <r>    10.4033     0.8486    22.9684 </r>
       <r>    10.5600     1.0495    23.1329 </r>
       <r>    10.7166     2.7793    23.5683 </r>
       <r>    10.8733     3.1957    24.0689 </r>
       <r>    11.0300     2.0975    24.3975 </r>
       <r>    11.1866     2.5297    24.7938 </r>
       <r>    11.3433     1.8408    25.0822 </r>
       <r>    11.4999     0.3810    25.1419 </r>
       <r>    11.6566     0.6131    25.2380 </r>
       <r>    11.8133     0.8281    25.3677 </r>
       <r>    11.9699     0.6485    25.4693 </r>
       <r>    12.1266     0.1303    25.4897 </r>
       <r>    12.2833     0.0433    25.4965 </r>
       <r>    12.4399     0.9776    25.6496 </r>
       <r>    12.5966     0.6750    25.7554 </r>
       <r>    12.7532     0.1201    25.7742 </r>
       <r>    12.9099     0.4118    25.8387 </r>
       <r>    13.0666     0.9306    25.9845 </r>
       <r>    13.2232    -0.0062    25.9835 </r>
       <r>    13.3799    -0.0000    25.9835 </r>
       <r>    13.5366    -0.0000    25.9835 </r>
       <r>    13.6932    -0.0000    25.9835 </r>
       <r>    13.8499    -0.0036    25.9830 </r>
       <r>    14.0065     0.1095    26.0001 </r>
       <r>    14.1632    -0.0009    26.0000 </r>
       <r>    14.3199     0.0000    26.0000 </r>
       <r>    14.4765     0.0000    26.0000 </r>
       <r>    14.6332     0.0000    26.0000 </r>
       <r>    14.7899     0.0000    26.0000 </r>
       <r>    14.9465     0.0000    26.0000 </r>
       <r>    15.1032     0.0000    26.0000 </r>
       <r>    15.2598     0.0000    26.0000 </r>
       <r>    15.4165     0.0000    26.0000 </r>
       <r>    15.5732     0.0000    26.0000 </r>
       <r>    15.7298     0.0000    26.0000 </r>
       <r>    15.8865     0.0000    26.0000 </r>
       <r>    16.0432     0.0000    26.0000 </r>
      </set>
     </set>
    </array>
   </total>
  </dos>
 </calculation>
 <structure name="finalpos" >
  <crystal>
   <varray name="basis" >
    <v>       4.41603497       0.00000000       0.00000000 </v>
    <v>       2.20801749       3.82439847      -0.00000000 </v>
    <v>       2.20801749       1.27479949       3.60567746 </v>
   </varray>
   <i name="volume">     60.89512341 </i>
   <varray name="rec_basis" >
    <v>       0.22644748      -0.13073951      -0.09244680 </v>
    <v>       0.00000000       0.26147903      -0.09244680 </v>
    <v>      -0.00000000       0.00000000       0.27734039 </v>
   </varray>
  </crystal>
  <varray name="positions" >
   <v>       0.00000000       0.00000000       0.00000000 </v>
  </varray>
  <varray name="velocities" >
   <v>       0.00000000       0.00000000       0.00000000 </v>
  </varray>
 </structure>
</modeling>
