Og_FCC                                  
           1
     4.416035    0.000000    0.000000
     2.208017    3.824398   -0.000000
     2.208017    1.274799    3.605677
   Og
   1
Direct configuration=     1
   0.00000000  0.00000000  0.00000000
