Og_FCC                                  
           1
     4.382932    0.000000    0.000000
     2.191466    3.795730   -0.000000
     2.191466    1.265243    3.578649
   Og
   1
Direct configuration=     1
   0.00000000  0.00000000  0.00000000
