    1    1  999    1
  0.6535318E+02  0.4521271E-09  0.4521271E-09  0.4521271E-09  0.1000000E-15
  1.000000000000000E-004
  CAR 
 Cn_FCC                                  
     18    365     28
 
  0.0000000E+00  0.0000000E+00  0.0000000E+00  0.1371742E-02
    1      -44.151887   1.000000
    2      -44.151886   1.000000
    3      -44.151883   1.000000
    4      -44.151882   1.000000
    5      -39.755376   1.000000
    6      -39.755371   1.000000
    7      -39.755192   1.000000
    8      -39.755189   1.000000
    9      -39.755182   1.000000
   10      -39.755179   1.000000
   11      -17.372751   1.000000
   12      -17.372733   1.000000
   13       -5.081651   1.000000
   14       -5.081650   1.000000
   15       -1.370285   0.770019
   16       -1.370279   0.769977
   17       -1.370277   0.769961
   18       -1.370272   0.769930
   19        2.419734   0.000000
   20        2.419810   0.000000
   21        7.616555   0.000000
   22        7.616561   0.000000
   23        7.616565   0.000000
   24        7.616571   0.000000
   25        7.772649   0.000000
   26        7.772656   0.000000
   27        9.437185   0.000000
   28        9.438217   0.000000
 
  0.1111111E+00 -0.1287451E-16 -0.6938894E-17  0.2743484E-02
    1      -44.151886   1.000000
    2      -44.151885   1.000000
    3      -44.151867   1.000000
    4      -44.151867   1.000000
    5      -39.755356   1.000000
    6      -39.755352   1.000000
    7      -39.755211   1.000000
    8      -39.755205   1.000000
    9      -39.755161   1.000000
   10      -39.755158   1.000000
   11      -17.357775   1.000000
   12      -17.357758   1.000000
   13       -5.143309   1.000000
   14       -5.143307   1.000000
   15       -1.630129   1.000131
   16       -1.630126   1.000131
   17       -1.402230   0.944850
   18       -1.402226   0.944836
   19        2.828689   0.000000
   20        2.828761   0.000000
   21        7.207399   0.000000
   22        7.207419   0.000000
   23        7.728530   0.000000
   24        7.728533   0.000000
   25        7.856654   0.000000
   26        7.856657   0.000000
   27        9.550283   0.000000
   28        9.571571   0.000000
 
  0.2222222E+00 -0.2574902E-16  0.0000000E+00  0.2743484E-02
    1      -44.151869   1.000000
    2      -44.151868   1.000000
    3      -44.151800   1.000000
    4      -44.151800   1.000000
    5      -39.755295   1.000000
    6      -39.755293   1.000000
    7      -39.755174   1.000000
    8      -39.755165   1.000000
    9      -39.755045   1.000000
   10      -39.755042   1.000000
   11      -17.319269   1.000000
   12      -17.319251   1.000000
   13       -5.304898   1.000000
   14       -5.304897   1.000000
   15       -2.121847   1.000000
   16       -2.121841   1.000000
   17       -1.480524   1.030131
   18       -1.480521   1.030133
   19        3.634869   0.000000
   20        3.634931   0.000000
   21        6.830939   0.000000
   22        6.830982   0.000000
   23        7.773509   0.000000
   24        7.773514   0.000000
   25        7.943026   0.000000
   26        7.943033   0.000000
   27        9.334791   0.000000
   28        9.418744   0.000000
 
  0.3333333E+00 -0.2474574E-16  0.1387779E-16  0.2743484E-02
    1      -44.151855   1.000000
    2      -44.151854   1.000000
    3      -44.151721   1.000000
    4      -44.151721   1.000000
    5      -39.755316   1.000000
    6      -39.755314   1.000000
    7      -39.755052   1.000000
    8      -39.755042   1.000000
    9      -39.754917   1.000000
   10      -39.754913   1.000000
   11      -17.274682   1.000000
   12      -17.274664   1.000000
   13       -5.497262   1.000000
   14       -5.497260   1.000000
   15       -2.523917   1.000000
   16       -2.523909   1.000000
   17       -1.565406   1.002798
   18       -1.565402   1.002798
   19        4.138876   0.000000
   20        4.138921   0.000000
   21        7.158600   0.000000
   22        7.158690   0.000000
   23        7.498206   0.000000
   24        7.498214   0.000000
   25        7.664440   0.000000
   26        7.664451   0.000000
   27        9.466062   0.000000
   28        9.467022   0.000000
 
  0.4444444E+00 -0.5149804E-16  0.0000000E+00  0.2743484E-02
    1      -44.151834   1.000000
    2      -44.151833   1.000000
    3      -44.151664   1.000000
    4      -44.151664   1.000000
    5      -39.755319   1.000000
    6      -39.755317   1.000000
    7      -39.754964   1.000000
    8      -39.754955   1.000000
    9      -39.754798   1.000000
   10      -39.754794   1.000000
   11      -17.245061   1.000000
   12      -17.245043   1.000000
   13       -5.626996   1.000000
   14       -5.626995   1.000000
   15       -2.732540   1.000000
   16       -2.732530   1.000000
   17       -1.618650   1.000242
   18       -1.618646   1.000242
   19        4.234648   0.000000
   20        4.234682   0.000000
   21        7.280926   0.000000
   22        7.280935   0.000000
   23        7.436551   0.000000
   24        7.436563   0.000000
   25        7.731111   0.000000
   26        7.731281   0.000000
   27        9.576105   0.000000
   28        9.576195   0.000000
 
 -0.3851860E-33  0.1111111E+00  0.0000000E+00  0.2743484E-02
    1      -44.151887   1.000000
    2      -44.151886   1.000000
    3      -44.151866   1.000000
    4      -44.151865   1.000000
    5      -39.755357   1.000000
    6      -39.755352   1.000000
    7      -39.755212   1.000000
    8      -39.755204   1.000000
    9      -39.755161   1.000000
   10      -39.755158   1.000000
   11      -17.357775   1.000000
   12      -17.357758   1.000000
   13       -5.143309   1.000000
   14       -5.143307   1.000000
   15       -1.630129   1.000131
   16       -1.630125   1.000131
   17       -1.402229   0.944850
   18       -1.402226   0.944837
   19        2.828689   0.000000
   20        2.828761   0.000000
   21        7.207397   0.000000
   22        7.207421   0.000000
   23        7.728528   0.000000
   24        7.728535   0.000000
   25        7.856652   0.000000
   26        7.856658   0.000000
   27        9.546860   0.000000
   28        9.566714   0.000000
 
  0.1111111E+00  0.1111111E+00 -0.1387779E-16  0.2743484E-02
    1      -44.151878   1.000000
    2      -44.151877   1.000000
    3      -44.151863   1.000000
    4      -44.151861   1.000000
    5      -39.755346   1.000000
    6      -39.755338   1.000000
    7      -39.755181   1.000000
    8      -39.755173   1.000000
    9      -39.755167   1.000000
   10      -39.755159   1.000000
   11      -17.352765   1.000000
   12      -17.352747   1.000000
   13       -5.162105   1.000000
   14       -5.162103   1.000000
   15       -1.658019   1.000026
   16       -1.658012   1.000026
   17       -1.469699   1.033880
   18       -1.469696   1.033881
   19        2.967897   0.000000
   20        2.967968   0.000000
   21        6.981612   0.000000
   22        6.981635   0.000000
   23        7.829589   0.000000
   24        7.829602   0.000000
   25        8.001863   0.000000
   26        8.001873   0.000000
   27        8.767649   0.000000
   28        8.767683   0.000000
 
  0.2222222E+00  0.1111111E+00  0.0000000E+00  0.2743484E-02
    1      -44.151860   1.000000
    2      -44.151859   1.000000
    3      -44.151815   1.000000
    4      -44.151814   1.000000
    5      -39.755294   1.000000
    6      -39.755287   1.000000
    7      -39.755184   1.000000
    8      -39.755176   1.000000
    9      -39.755066   1.000000
   10      -39.755059   1.000000
   11      -17.322129   1.000000
   12      -17.322111   1.000000
   13       -5.285587   1.000000
   14       -5.285585   1.000000
   15       -2.040010   1.000000
   16       -2.040005   1.000000
   17       -1.556444   1.003954
   18       -1.556442   1.003955
   19        3.662317   0.000000
   20        3.662383   0.000000
   21        6.572966   0.000000
   22        6.572997   0.000000
   23        7.679370   0.000000
   24        7.679405   0.000000
   25        8.140016   0.000000
   26        8.140023   0.000000
   27        8.638265   0.000000
   28        8.638278   0.000000
 
  0.3333333E+00  0.1111111E+00  0.2775558E-16  0.2743484E-02
    1      -44.151841   1.000000
    2      -44.151840   1.000000
    3      -44.151737   1.000000
    4      -44.151736   1.000000
    5      -39.755264   1.000000
    6      -39.755262   1.000000
    7      -39.755095   1.000000
    8      -39.755083   1.000000
    9      -39.754919   1.000000
   10      -39.754912   1.000000
   11      -17.279473   1.000000
   12      -17.279455   1.000000
   13       -5.460784   1.000000
   14       -5.460783   1.000000
   15       -2.446661   1.000000
   16       -2.446654   1.000000
   17       -1.656875   1.000028
   18       -1.656872   1.000028
   19        4.323728   0.000000
   20        4.323782   0.000000
   21        6.645871   0.000000
   22        6.645931   0.000000
   23        7.132776   0.000000
   24        7.132817   0.000000
   25        7.996535   0.000000
   26        7.996543   0.000000
   27        9.462205   0.000000
   28        9.462371   0.000000
 
  0.4444444E+00  0.1111111E+00 -0.2775558E-16  0.2743484E-02
    1      -44.151823   1.000000
    2      -44.151822   1.000000
    3      -44.151679   1.000000
    4      -44.151679   1.000000
    5      -39.755275   1.000000
    6      -39.755272   1.000000
    7      -39.754987   1.000000
    8      -39.754975   1.000000
    9      -39.754828   1.000000
   10      -39.754822   1.000000
   11      -17.244755   1.000000
   12      -17.244737   1.000000
   13       -5.605196   1.000000
   14       -5.605194   1.000000
   15       -2.706705   1.000000
   16       -2.706696   1.000000
   17       -1.736505   1.000000
   18       -1.736502   1.000000
   19        4.542317   0.000000
   20        4.542353   0.000000
   21        6.673493   0.000000
   22        6.673585   0.000000
   23        7.521671   0.000000
   24        7.521713   0.000000
   25        7.742443   0.000000
   26        7.742449   0.000000
   27        9.970632   0.000000
   28        9.970814   0.000000
 
 -0.4444444E+00  0.1111111E+00  0.1387779E-16  0.2743484E-02
    1      -44.151819   1.000000
    2      -44.151818   1.000000
    3      -44.151662   1.000000
    4      -44.151662   1.000000
    5      -39.755284   1.000000
    6      -39.755281   1.000000
    7      -39.754941   1.000000
    8      -39.754932   1.000000
    9      -39.754810   1.000000
   10      -39.754806   1.000000
   11      -17.234815   1.000000
   12      -17.234797   1.000000
   13       -5.646707   1.000000
   14       -5.646705   1.000000
   15       -2.775102   1.000000
   16       -2.775093   1.000000
   17       -1.757922   1.000000
   18       -1.757919   1.000000
   19        4.575533   0.000000
   20        4.575565   0.000000
   21        6.629939   0.000000
   22        6.630033   0.000000
   23        7.542456   0.000000
   24        7.542465   0.000000
   25        8.007407   0.000000
   26        8.007484   0.000000
   27       10.178521   0.000000
   28       10.178767   0.000000
 
 -0.3333333E+00  0.1111111E+00  0.2775558E-16  0.2743484E-02
    1      -44.151831   1.000000
    2      -44.151830   1.000000
    3      -44.151696   1.000000
    4      -44.151696   1.000000
    5      -39.755274   1.000000
    6      -39.755271   1.000000
    7      -39.755020   1.000000
    8      -39.755015   1.000000
    9      -39.754865   1.000000
   10      -39.754861   1.000000
   11      -17.254618   1.000000
   12      -17.254600   1.000000
   13       -5.564671   1.000000
   14       -5.564669   1.000000
   15       -2.644717   1.000000
   16       -2.644709   1.000000
   17       -1.709852   1.000001
   18       -1.709849   1.000001
   19        4.540051   0.000000
   20        4.540090   0.000000
   21        6.838195   0.000000
   22        6.838293   0.000000
   23        7.327962   0.000000
   24        7.328006   0.000000
   25        7.657594   0.000000
   26        7.657604   0.000000
   27        9.842600   0.000000
   28        9.846543   0.000000
 
 -0.2222222E+00  0.1111111E+00  0.6938894E-17  0.2743484E-02
    1      -44.151853   1.000000
    2      -44.151852   1.000000
    3      -44.151765   1.000000
    4      -44.151765   1.000000
    5      -39.755263   1.000000
    6      -39.755261   1.000000
    7      -39.755155   1.000000
    8      -39.755150   1.000000
    9      -39.754977   1.000000
   10      -39.754972   1.000000
   11      -17.294346   1.000000
   12      -17.294328   1.000000
   13       -5.401263   1.000000
   14       -5.401261   1.000000
   15       -2.331254   1.000000
   16       -2.331248   1.000000
   17       -1.608326   1.000409
   18       -1.608323   1.000409
   19        4.162245   0.000000
   20        4.162303   0.000000
   21        6.672822   0.000000
   22        6.672865   0.000000
   23        7.364069   0.000000
   24        7.364124   0.000000
   25        7.964981   0.000000
   26        7.964990   0.000000
   27        8.836846   0.000000
   28        8.836851   0.000000
 
 -0.1111111E+00  0.1111111E+00  0.7707369E-17  0.2743484E-02
    1      -44.151865   1.000000
    2      -44.151864   1.000000
    3      -44.151829   1.000000
    4      -44.151828   1.000000
    5      -39.755290   1.000000
    6      -39.755287   1.000000
    7      -39.755200   1.000000
    8      -39.755192   1.000000
    9      -39.755084   1.000000
   10      -39.755082   1.000000
   11      -17.334897   1.000000
   12      -17.334879   1.000000
   13       -5.236066   1.000000
   14       -5.236064   1.000000
   15       -1.919746   1.000000
   16       -1.919743   1.000000
   17       -1.487390   1.027163
   18       -1.487386   1.027165
   19        3.382371   0.000000
   20        3.382439   0.000000
   21        6.823424   0.000000
   22        6.823454   0.000000
   23        7.777272   0.000000
   24        7.777294   0.000000
   25        8.010920   0.000000
   26        8.010924   0.000000
   27        8.783584   0.000000
   28        8.783823   0.000000
 
 -0.3851860E-33  0.2222222E+00  0.1387779E-16  0.2743484E-02
    1      -44.151869   1.000000
    2      -44.151868   1.000000
    3      -44.151800   1.000000
    4      -44.151799   1.000000
    5      -39.755298   1.000000
    6      -39.755292   1.000000
    7      -39.755174   1.000000
    8      -39.755163   1.000000
    9      -39.755045   1.000000
   10      -39.755042   1.000000
   11      -17.319269   1.000000
   12      -17.319251   1.000000
   13       -5.304898   1.000000
   14       -5.304897   1.000000
   15       -2.121846   1.000000
   16       -2.121843   1.000000
   17       -1.480524   1.030131
   18       -1.480521   1.030133
   19        3.634869   0.000000
   20        3.634931   0.000000
   21        6.830938   0.000000
   22        6.830983   0.000000
   23        7.773506   0.000000
   24        7.773516   0.000000
   25        7.943026   0.000000
   26        7.943033   0.000000
   27        9.341848   0.000000
   28        9.362261   0.000000
 
  0.1111111E+00  0.2222222E+00  0.0000000E+00  0.2743484E-02
    1      -44.151861   1.000000
    2      -44.151861   1.000000
    3      -44.151814   1.000000
    4      -44.151813   1.000000
    5      -39.755295   1.000000
    6      -39.755287   1.000000
    7      -39.755184   1.000000
    8      -39.755176   1.000000
    9      -39.755065   1.000000
   10      -39.755059   1.000000
   11      -17.322129   1.000000
   12      -17.322111   1.000000
   13       -5.285587   1.000000
   14       -5.285585   1.000000
   15       -2.040010   1.000000
   16       -2.040005   1.000000
   17       -1.556445   1.003954
   18       -1.556442   1.003955
   19        3.662317   0.000000
   20        3.662383   0.000000
   21        6.572965   0.000000
   22        6.572998   0.000000
   23        7.679369   0.000000
   24        7.679406   0.000000
   25        8.140016   0.000000
   26        8.140023   0.000000
   27        8.638264   0.000000
   28        8.638279   0.000000
 
  0.2222222E+00  0.2222222E+00  0.0000000E+00  0.2743484E-02
    1      -44.151837   1.000000
    2      -44.151836   1.000000
    3      -44.151790   1.000000
    4      -44.151789   1.000000
    5      -39.755289   1.000000
    6      -39.755280   1.000000
    7      -39.755127   1.000000
    8      -39.755117   1.000000
    9      -39.755004   1.000000
   10      -39.754996   1.000000
   11      -17.301582   1.000000
   12      -17.301564   1.000000
   13       -5.357930   1.000000
   14       -5.357929   1.000000
   15       -2.181898   1.000000
   16       -2.181892   1.000000
   17       -1.705099   1.000001
   18       -1.705096   1.000001
   19        4.074537   0.000000
   20        4.074611   0.000000
   21        6.096354   0.000000
   22        6.096387   0.000000
   23        7.364244   0.000000
   24        7.364292   0.000000
   25        8.497034   0.000000
   26        8.497046   0.000000
   27        8.761372   0.000000
   28        8.761383   0.000000
 
  0.3333333E+00  0.2222222E+00  0.2775558E-16  0.2743484E-02
    1      -44.151815   1.000000
    2      -44.151814   1.000000
    3      -44.151734   1.000000
    4      -44.151733   1.000000
    5      -39.755255   1.000000
    6      -39.755248   1.000000
    7      -39.755090   1.000000
    8      -39.755079   1.000000
    9      -39.754879   1.000000
   10      -39.754872   1.000000
   11      -17.266869   1.000000
   12      -17.266851   1.000000
   13       -5.487519   1.000000
   14       -5.487518   1.000000
   15       -2.463913   1.000000
   16       -2.463907   1.000000
   17       -1.835889   1.000000
   18       -1.835887   1.000000
   19        4.578247   0.000000
   20        4.578329   0.000000
   21        5.905694   0.000000
   22        5.905731   0.000000
   23        6.968835   0.000000
   24        6.968879   0.000000
   25        8.763305   0.000000
   26        8.763313   0.000000
   27        9.422778   0.000000
   28        9.422795   0.000000
 
  0.4444444E+00  0.2222222E+00  0.0000000E+00  0.2743484E-02
    1      -44.151789   1.000000
    2      -44.151788   1.000000
    3      -44.151681   1.000000
    4      -44.151680   1.000000
    5      -39.755204   1.000000
    6      -39.755200   1.000000
    7      -39.755008   1.000000
    8      -39.754995   1.000000
    9      -39.754783   1.000000
   10      -39.754775   1.000000
   11      -17.233945   1.000000
   12      -17.233927   1.000000
   13       -5.608797   1.000000
   14       -5.608795   1.000000
   15       -2.698752   1.000000
   16       -2.698746   1.000000
   17       -1.963745   1.000000
   18       -1.963742   1.000000
   19        4.892896   0.000000
   20        4.892967   0.000000
   21        6.116235   0.000000
   22        6.116303   0.000000
   23        6.919471   0.000000
   24        6.919499   0.000000
   25        8.518575   0.000000
   26        8.518584   0.000000
   27       10.279851   0.000000
   28       10.279917   0.000000
 
 -0.4444444E+00  0.2222222E+00  0.4163336E-16  0.2743484E-02
    1      -44.151781   1.000000
    2      -44.151780   1.000000
    3      -44.151669   1.000000
    4      -44.151668   1.000000
    5      -39.755200   1.000000
    6      -39.755196   1.000000
    7      -39.754949   1.000000
    8      -39.754936   1.000000
    9      -39.754817   1.000000
   10      -39.754809   1.000000
   11      -17.218711   1.000000
   12      -17.218692   1.000000
   13       -5.663540   1.000000
   14       -5.663538   1.000000
   15       -2.810447   1.000000
   16       -2.810440   1.000000
   17       -2.024568   1.000000
   18       -2.024563   1.000000
   19        5.102914   0.000000
   20        5.102963   0.000000
   21        6.113535   0.000000
   22        6.113632   0.000000
   23        7.545004   0.000000
   24        7.545042   0.000000
   25        8.258420   0.000000
   26        8.258431   0.000000
   27       10.032477   0.000000
   28       10.032531   0.000000
 
 -0.3333333E+00  0.2222222E+00 -0.6938894E-17  0.2743484E-02
    1      -44.151788   1.000000
    2      -44.151787   1.000000
    3      -44.151681   1.000000
    4      -44.151681   1.000000
    5      -39.755188   1.000000
    6      -39.755182   1.000000
    7      -39.754956   1.000000
    8      -39.754953   1.000000
    9      -39.754863   1.000000
   10      -39.754859   1.000000
   11      -17.228484   1.000000
   12      -17.228466   1.000000
   13       -5.630028   1.000000
   14       -5.630027   1.000000
   15       -2.768941   1.000000
   16       -2.768935   1.000000
   17       -1.973333   1.000000
   18       -1.973327   1.000000
   19        5.309915   0.000000
   20        5.309941   0.000000
   21        6.150025   0.000000
   22        6.150146   0.000000
   23        7.246967   0.000000
   24        7.247014   0.000000
   25        8.134071   0.000000
   26        8.134083   0.000000
   27        9.849164   0.000000
   28        9.849411   0.000000
 
 -0.2222222E+00  0.2222222E+00  0.1113738E-16  0.2743484E-02
    1      -44.151820   1.000000
    2      -44.151819   1.000000
    3      -44.151718   1.000000
    4      -44.151717   1.000000
    5      -39.755198   1.000000
    6      -39.755191   1.000000
    7      -39.755102   1.000000
    8      -39.755097   1.000000
    9      -39.754889   1.000000
   10      -39.754881   1.000000
   11      -17.258521   1.000000
   12      -17.258503   1.000000
   13       -5.527609   1.000000
   14       -5.527608   1.000000
   15       -2.583499   1.000000
   16       -2.583495   1.000000
   17       -1.816795   1.000000
   18       -1.816790   1.000000
   19        4.989352   0.000000
   20        4.989399   0.000000
   21        6.504678   0.000000
   22        6.504731   0.000000
   23        6.726293   0.000000
   24        6.726346   0.000000
   25        8.144437   0.000000
   26        8.144451   0.000000
   27        8.899331   0.000000
   28        8.899337   0.000000
 
 -0.1111111E+00  0.2222222E+00  0.6938894E-17  0.2743484E-02
    1      -44.151853   1.000000
    2      -44.151852   1.000000
    3      -44.151765   1.000000
    4      -44.151764   1.000000
    5      -39.755266   1.000000
    6      -39.755260   1.000000
    7      -39.755154   1.000000
    8      -39.755150   1.000000
    9      -39.754977   1.000000
   10      -39.754972   1.000000
   11      -17.294346   1.000000
   12      -17.294328   1.000000
   13       -5.401263   1.000000
   14       -5.401261   1.000000
   15       -2.331252   1.000000
   16       -2.331250   1.000000
   17       -1.608326   1.000409
   18       -1.608323   1.000409
   19        4.162245   0.000000
   20        4.162303   0.000000
   21        6.672821   0.000000
   22        6.672866   0.000000
   23        7.364069   0.000000
   24        7.364124   0.000000
   25        7.964982   0.000000
   26        7.964988   0.000000
   27        8.836844   0.000000
   28        8.836852   0.000000
 
 -0.3851860E-33  0.3333333E+00  0.1387779E-16  0.2743484E-02
    1      -44.151856   1.000000
    2      -44.151855   1.000000
    3      -44.151720   1.000000
    4      -44.151719   1.000000
    5      -39.755319   1.000000
    6      -39.755312   1.000000
    7      -39.755052   1.000000
    8      -39.755041   1.000000
    9      -39.754916   1.000000
   10      -39.754913   1.000000
   11      -17.274682   1.000000
   12      -17.274664   1.000000
   13       -5.497262   1.000000
   14       -5.497260   1.000000
   15       -2.523915   1.000000
   16       -2.523910   1.000000
   17       -1.565406   1.002798
   18       -1.565402   1.002798
   19        4.138876   0.000000
   20        4.138920   0.000000
   21        7.158599   0.000000
   22        7.158691   0.000000
   23        7.498204   0.000000
   24        7.498214   0.000000
   25        7.664441   0.000000
   26        7.664450   0.000000
   27        9.465966   0.000000
   28        9.466057   0.000000
 
  0.1111111E+00  0.3333333E+00  0.2775558E-16  0.2743484E-02
    1      -44.151841   1.000000
    2      -44.151841   1.000000
    3      -44.151736   1.000000
    4      -44.151735   1.000000
    5      -39.755268   1.000000
    6      -39.755260   1.000000
    7      -39.755095   1.000000
    8      -39.755083   1.000000
    9      -39.754918   1.000000
   10      -39.754912   1.000000
   11      -17.279473   1.000000
   12      -17.279455   1.000000
   13       -5.460785   1.000000
   14       -5.460783   1.000000
   15       -2.446660   1.000000
   16       -2.446655   1.000000
   17       -1.656875   1.000028
   18       -1.656872   1.000028
   19        4.323728   0.000000
   20        4.323782   0.000000
   21        6.645870   0.000000
   22        6.645933   0.000000
   23        7.132776   0.000000
   24        7.132818   0.000000
   25        7.996536   0.000000
   26        7.996541   0.000000
   27        9.462207   0.000000
   28        9.462413   0.000000
 
  0.2222222E+00  0.3333333E+00  0.2775558E-16  0.2743484E-02
    1      -44.151816   1.000000
    2      -44.151815   1.000000
    3      -44.151733   1.000000
    4      -44.151732   1.000000
    5      -39.755256   1.000000
    6      -39.755248   1.000000
    7      -39.755090   1.000000
    8      -39.755080   1.000000
    9      -39.754878   1.000000
   10      -39.754872   1.000000
   11      -17.266869   1.000000
   12      -17.266851   1.000000
   13       -5.487519   1.000000
   14       -5.487518   1.000000
   15       -2.463913   1.000000
   16       -2.463906   1.000000
   17       -1.835890   1.000000
   18       -1.835886   1.000000
   19        4.578247   0.000000
   20        4.578330   0.000000
   21        5.905694   0.000000
   22        5.905732   0.000000
   23        6.968834   0.000000
   24        6.968880   0.000000
   25        8.763307   0.000000
   26        8.763312   0.000000
   27        9.422777   0.000000
   28        9.422790   0.000000
 
  0.3333333E+00  0.3333333E+00  0.5551115E-16  0.2743484E-02
    1      -44.151788   1.000000
    2      -44.151787   1.000000
    3      -44.151699   1.000000
    4      -44.151698   1.000000
    5      -39.755255   1.000000
    6      -39.755247   1.000000
    7      -39.755044   1.000000
    8      -39.755035   1.000000
    9      -39.754768   1.000000
   10      -39.754760   1.000000
   11      -17.242478   1.000000
   12      -17.242460   1.000000
   13       -5.567685   1.000000
   14       -5.567683   1.000000
   15       -2.604645   1.000000
   16       -2.604638   1.000000
   17       -1.949200   1.000000
   18       -1.949197   1.000000
   19        4.487970   0.000000
   20        4.488072   0.000000
   21        5.464237   0.000000
   22        5.464274   0.000000
   23        7.476942   0.000000
   24        7.476973   0.000000
   25        9.482506   0.000000
   26        9.482523   0.000000
   27        9.864690   0.000000
   28        9.864704   0.000000
 
  0.4444444E+00  0.3333333E+00  0.0000000E+00  0.2743484E-02
    1      -44.151769   1.000000
    2      -44.151769   1.000000
    3      -44.151668   1.000000
    4      -44.151667   1.000000
    5      -39.755225   1.000000
    6      -39.755217   1.000000
    7      -39.755007   1.000000
    8      -39.754996   1.000000
    9      -39.754686   1.000000
   10      -39.754679   1.000000
   11      -17.217607   1.000000
   12      -17.217589   1.000000
   13       -5.650361   1.000000
   14       -5.650359   1.000000
   15       -2.748248   1.000000
   16       -2.748241   1.000000
   17       -2.075236   1.000000
   18       -2.075232   1.000000
   19        4.518034   0.000000
   20        4.518143   0.000000
   21        5.457872   0.000000
   22        5.457911   0.000000
   23        7.757036   0.000000
   24        7.757064   0.000000
   25        9.672859   0.000000
   26        9.672868   0.000000
   27       10.486510   0.000000
   28       10.486537   0.000000
 
 -0.4444444E+00  0.3333333E+00  0.4857226E-16  0.2743484E-02
    1      -44.151748   1.000000
    2      -44.151747   1.000000
    3      -44.151662   1.000000
    4      -44.151661   1.000000
    5      -39.755166   1.000000
    6      -39.755159   1.000000
    7      -39.754980   1.000000
    8      -39.754969   1.000000
    9      -39.754718   1.000000
   10      -39.754710   1.000000
   11      -17.204137   1.000000
   12      -17.204118   1.000000
   13       -5.689814   1.000000
   14       -5.689812   1.000000
   15       -2.824817   1.000000
   16       -2.824810   1.000000
   17       -2.192240   1.000000
   18       -2.192232   1.000000
   19        4.754139   0.000000
   20        4.754240   0.000000
   21        5.906936   0.000000
   22        5.906988   0.000000
   23        7.789515   0.000000
   24        7.789542   0.000000
   25        9.267640   0.000000
   26        9.267652   0.000000
   27        9.906982   0.000000
   28        9.907014   0.000000
 
 -0.3333333E+00  0.3333333E+00  0.1588675E-16  0.2743484E-02
    1      -44.151752   1.000000
    2      -44.151752   1.000000
    3      -44.151671   1.000000
    4      -44.151671   1.000000
    5      -39.755144   1.000000
    6      -39.755137   1.000000
    7      -39.754926   1.000000
    8      -39.754914   1.000000
    9      -39.754828   1.000000
   10      -39.754819   1.000000
   11      -17.208468   1.000000
   12      -17.208449   1.000000
   13       -5.677183   1.000000
   14       -5.677181   1.000000
   15       -2.835696   1.000000
   16       -2.835691   1.000000
   17       -2.168078   1.000000
   18       -2.168069   1.000000
   19        5.150968   0.000000
   20        5.151048   0.000000
   21        6.289678   0.000000
   22        6.289757   0.000000
   23        7.534734   0.000000
   24        7.534764   0.000000
   25        8.773584   0.000000
   26        8.773598   0.000000
   27        9.359698   0.000000
   28        9.360905   0.000000
 
 -0.2222222E+00  0.3333333E+00  0.6938894E-17  0.2743484E-02
    1      -44.151788   1.000000
    2      -44.151788   1.000000
    3      -44.151681   1.000000
    4      -44.151680   1.000000