 vasp.5.4.4.18Apr17-6-g9f103f2a35 (build Nov 03 2018 10:20:46) complex          
  
 executed on             LinuxIFC date 2018.11.14  14:25:30
 running on    8 total cores
 distrk:  each k-point on    4 cores,    2 groups
 distr:  one band on NCORES_PER_BAND=   4 cores,    1 groups


--------------------------------------------------------------------------------------------------------


 INCAR:
 POTCAR:    PAW_PBE Rn_d_GW 14Apr2014             

 ----------------------------------------------------------------------------- 
|                                                                             |
|           W    W    AA    RRRRR   N    N  II  N    N   GGGG   !!!           |
|           W    W   A  A   R    R  NN   N  II  NN   N  G    G  !!!           |
|           W    W  A    A  R    R  N N  N  II  N N  N  G       !!!           |
|           W WW W  AAAAAA  RRRRR   N  N N  II  N  N N  G  GGG   !            |
|           WW  WW  A    A  R   R   N   NN  II  N   NN  G    G                |
|           W    W  A    A  R    R  N    N  II  N    N   GGGG   !!!           |
|                                                                             |
|      You have enabled k-point parallelism (KPAR>1).                         |
|      This developmental code was originally  written by Paul Kent at ORNL,  |
|      and carefully double checked in Vienna.                                |
|      GW as well as linear response parallelism added by Martijn Marsman     |
|      and Georg Kresse.                                                      |
|      Carefully verify results versus KPAR=1.                                |
|      Report problems to Paul Kent and Vienna.                               |
|                                                                             |
 ----------------------------------------------------------------------------- 

 POTCAR:    PAW_PBE Rn_d_GW 14Apr2014             
   VRHFIN =Rn:                                                                  
   LEXCH  = PE                                                                  
   EATOM  =  3030.7130 eV,  222.7511 Ry                                         
                                                                                
   TITEL  = PAW_PBE Rn_d_GW 14Apr2014                                           
   LULTRA =        F    use ultrasoft PP ?                                      
   IUNSCR =        1    unscreen: 0-lin 1-nonlin 2-no                           
   RPACOR =    1.800    partial core radius                                     
   POMASS =  220.170; ZVAL   =   18.000    mass and valenz                      
   RCORE  =    2.500    outmost cutoff radius                                   
   RWIGS  =    2.500; RWIGS  =    1.323    wigner-seitz radius (au A)           
   ENMAX  =  268.495; ENMIN  =  201.371 eV                                      
   RCLOC  =    1.808    cutoff for local pot                                    
   LCOR   =        T    correct aug charges                                     
   LPAW   =        T    paw PP                                                  
   EAUG   =  715.607                                                            
   DEXC   =    0.000                                                            
   RMAX   =    2.556    core radius for proj-oper                               
   RAUG   =    1.300    factor for augmentation sphere                          
   RDEP   =    2.531    radius for radial grids                                 
   RDEPT  =    1.947    core radius for aug-charge                              
                                                                                
   Atomic configuration                                                         
   16 entries                                                                   
     n  l   j            E        occ.                                          
     1  0  0.50    -98595.8050   2.0000                                         
     2  0  0.50    -17950.5082   2.0000                                         
     2  1  1.50    -15211.8638   6.0000                                         
     3  0  0.50     -4402.4302   2.0000                                         
     3  1  1.50     -3628.5852   6.0000                                         
     3  2  2.50     -2889.7488  10.0000                                         
     4  0  0.50     -1049.6607   2.0000                                         
     4  1  1.50      -796.4440   6.0000                                         
     4  2  2.50      -519.0207  10.0000                                         
     4  3  3.50      -216.6456  14.0000                                         
     5  0  0.50      -201.5459   2.0000                                         
     5  1  1.50      -127.7069   6.0000                                         
     5  2  2.50       -46.2584  10.0000                                         
     6  0  0.50       -21.8730   2.0000                                         
     6  1  0.50        -7.7135   6.0000                                         
     5  3  2.50        -2.7212   0.0000                                         
   Description                                                                  
     l       E           TYP  RCUT    TYP  RCUT                                 
     2    -46.2583946     23  2.400                                             
     2    -47.6189772     23  2.400                                             
     2     40.8174780     23  2.400                                             
     0    -21.8730472     23  1.700                                             
     0     81.6349560     23  1.700                                             
     1     -7.7135306     23  2.300                                             
     1     68.0291300     23  2.300                                             
     3      6.8029130     23  2.500                                             
     3     27.2116520     23  2.500                                             
  local pseudopotential read in
  partial core-charges read in
  partial kinetic energy density read in
  kinetic energy density of atom read in
  atomic valenz-charges read in
  non local Contribution for L=           2  read in
    real space projection operators read in
  non local Contribution for L=           2  read in
    real space projection operators read in
  non local Contribution for L=           2  read in
    real space projection operators read in
  non local Contribution for L=           0  read in
    real space projection operators read in
  non local Contribution for L=           0  read in
    real space projection operators read in
  non local Contribution for L=           1  read in
    real space projection operators read in
  non local Contribution for L=           1  read in
    real space projection operators read in
  non local Contribution for L=           3  read in
    real space projection operators read in
  non local Contribution for L=           3  read in
    real space projection operators read in
    PAW grid and wavefunctions read in
 
   number of l-projection  operators is LMAX  =           9
   number of lm-projection operators is LMMAX =          37
 
  PAW_PBE Rn_d_GW 14Apr2014             :
 energy of atom  1       EATOM=-3030.7130
 kinetic energy error for atom=    0.0066 (will be added to EATOM!!)
 
 
 POSCAR: Rn_FCC                                  
  positions in direct lattice
  velocities in cartesian coordinates
 exchange correlation table for  LEXCH =        8
   RHO(1)=    0.500       N(1)  =     2000
   RHO(2)=  100.500       N(2)  =     4000
 


--------------------------------------------------------------------------------------------------------


 ion  position               nearest neighbor table
   1  0.000  0.000  0.000-
 
  LATTYP: Found a face centered cubic cell.
 ALAT       =     6.3940432426
  
  Lattice vectors:
  
 A1 = (   4.5212713359,   0.0000000000,   0.0000000000)
 A2 = (   2.2606356680,   3.9155358343,  -0.0000000000)
 A3 = (   2.2606356680,   1.3051786114,   3.6916025873)


Analysis of symmetry for initial positions (statically):
=====================================================================
 Subroutine PRICEL returns:
 Original cell was already a primitive cell.
 

 Routine SETGRP: Setting up the symmetry group for a 
 face centered cubic supercell.


 Subroutine GETGRP returns: Found 48 space group operations
 (whereof 48 operations were pure point group operations)
 out of a pool of 48 trial point group operations.


The static configuration has the point symmetry O_h .


Analysis of symmetry for dynamics (positions and initial velocities):
=====================================================================
 Subroutine PRICEL returns:
 Original cell was already a primitive cell.
 

 Routine SETGRP: Setting up the symmetry group for a 
 face centered cubic supercell.


 Subroutine GETGRP returns: Found 48 space group operations
 (whereof 48 operations were pure point group operations)
 out of a pool of 48 trial point group operations.


The dynamic configuration has the point symmetry O_h .


Analysis of structural, dynamic, and magnetic symmetry:
=====================================================================
 Subroutine PRICEL returns:
 Original cell was already a primitive cell.
 

 Routine SETGRP: Setting up the symmetry group for a 
 face centered cubic supercell.


 Subroutine GETGRP returns: Found  2 space group operations
 (whereof  2 operations were pure point group operations)
 out of a pool of 48 trial point group operations.


The (compounded) configuration has the point symmetry S_2 .


 Subroutine INISYM returns: Found  2 space group operations
 (whereof  2 operations are pure point group operations),
 and found     1 'primitive' translations

 
 

Automatic generation of k-mesh.
 generate k-points for:    9    9    9
Space group operators:
 irot       det(A)        alpha          n_x          n_y          n_z        tau_x        tau_y        tau_z
    1     1.000000     0.000001     1.000000     0.000000     0.000000     0.000000     0.000000     0.000000
    2    -1.000000     0.000001     1.000000     0.000000     0.000000     0.000000     0.000000     0.000000
 
 Subroutine IBZKPT returns following result:
 ===========================================
 
 Found    365 irreducible k-points:
 
 Following reciprocal coordinates:
            Coordinates               Weight
  0.000000  0.000000  0.000000      1.000000
  0.111111 -0.000000 -0.000000      2.000000
  0.222222 -0.000000  0.000000      2.000000
  0.333333 -0.000000  0.000000      2.000000
  0.444444 -0.000000  0.000000      2.000000
 -0.000000  0.111111  0.000000      2.000000
  0.111111  0.111111 -0.000000      2.000000
  0.222222  0.111111  0.000000      2.000000
  0.333333  0.111111  0.000000      2.000000
  0.444444  0.111111 -0.000000      2.000000
 -0.444444  0.111111  0.000000      2.000000
 -0.333333  0.111111  0.000000      2.000000
 -0.222222  0.111111  0.000000      2.000000
 -0.111111  0.111111  0.000000      2.000000
 -0.000000  0.222222  0.000000      2.000000
  0.111111  0.222222  0.000000      2.000000
  0.222222  0.222222  0.000000      2.000000
  0.333333  0.222222  0.000000      2.000000
  0.444444  0.222222  0.000000      2.000000
 -0.444444  0.222222  0.000000      2.000000
 -0.333333  0.222222 -0.000000      2.000000
 -0.222222  0.222222  0.000000      2.000000
 -0.111111  0.222222  0.000000      2.000000
 -0.000000  0.333333  0.000000      2.000000
  0.111111  0.333333  0.000000      2.000000
  0.222222  0.333333  0.000000      2.000000
  0.333333  0.333333  0.000000      2.000000
  0.444444  0.333333  0.000000      2.000000
 -0.444444  0.333333  0.000000      2.000000
 -0.333333  0.333333  0.000000      2.000000
 -0.222222  0.333333  0.000000      2.000000
 -0.111111  0.333333  0.000000      2.000000
 -0.000000  0.444444  0.000000      2.000000
  0.111111  0.444444 -0.000000      2.000000
  0.222222  0.444444  0.000000      2.000000
  0.333333  0.444444 -0.000000      2.000000
  0.444444  0.444444  0.000000      2.000000
 -0.444444  0.444444  0.000000      2.000000
 -0.333333  0.444444  0.000000      2.000000
 -0.222222  0.444444  0.000000      2.000000
 -0.111111  0.444444  0.000000      2.000000
  0.000000  0.000000  0.111111      2.000000
  0.111111 -0.000000  0.111111      2.000000
  0.222222 -0.000000  0.111111      2.000000
  0.333333 -0.000000  0.111111      2.000000
  0.444444 -0.000000  0.111111      2.000000
 -0.444444  0.000000  0.111111      2.000000
 -0.333333  0.000000  0.111111      2.000000
 -0.222222  0.000000  0.111111      2.000000
 -0.111111  0.000000  0.111111      2.000000
  0.000000  0.111111  0.111111      2.000000
  0.111111  0.111111  0.111111      2.000000
  0.222222  0.111111  0.111111      2.000000
  0.333333  0.111111  0.111111      2.000000
  0.444444  0.111111  0.111111      2.000000
 -0.444444  0.111111  0.111111      2.000000
 -0.333333  0.111111  0.111111      2.000000
 -0.222222  0.111111  0.111111      2.000000
 -0.111111  0.111111  0.111111      2.000000
  0.000000  0.222222  0.111111      2.000000
  0.111111  0.222222  0.111111      2.000000
  0.222222  0.222222  0.111111      2.000000
  0.333333  0.222222  0.111111      2.000000
  0.444444  0.222222  0.111111      2.000000
 -0.444444  0.222222  0.111111      2.000000
 -0.333333  0.222222  0.111111      2.000000
 -0.222222  0.222222  0.111111      2.000000
 -0.111111  0.222222  0.111111      2.000000
  0.000000  0.333333  0.111111      2.000000
  0.111111  0.333333  0.111111      2.000000
  0.222222  0.333333  0.111111      2.000000
  0.333333  0.333333  0.111111      2.000000
  0.444444  0.333333  0.111111      2.000000
 -0.444444  0.333333  0.111111      2.000000
 -0.333333  0.333333  0.111111      2.000000
 -0.222222  0.333333  0.111111      2.000000
 -0.111111  0.333333  0.111111      2.000000
  0.000000  0.444444  0.111111      2.000000
  0.111111  0.444444  0.111111      2.000000
  0.222222  0.444444  0.111111      2.000000
  0.333333  0.444444  0.111111      2.000000
  0.444444  0.444444  0.111111      2.000000
 -0.444444  0.444444  0.111111      2.000000
 -0.333333  0.444444  0.111111      2.000000
 -0.222222  0.444444  0.111111      2.000000
 -0.111111  0.444444  0.111111      2.000000
  0.000000 -0.444444  0.111111      2.000000
  0.111111 -0.444444  0.111111      2.000000
  0.222222 -0.444444  0.111111      2.000000
  0.333333 -0.444444  0.111111      2.000000
  0.444444 -0.444444  0.111111      2.000000
 -0.444444 -0.444444  0.111111      2.000000
 -0.333333 -0.444444  0.111111      2.000000
 -0.222222 -0.444444  0.111111      2.000000
 -0.111111 -0.444444  0.111111      2.000000
  0.000000 -0.333333  0.111111      2.000000
  0.111111 -0.333333  0.111111      2.000000
  0.222222 -0.333333  0.111111      2.000000
  0.333333 -0.333333  0.111111      2.000000
  0.444444 -0.333333  0.111111      2.000000
 -0.444444 -0.333333  0.111111      2.000000
 -0.333333 -0.333333  0.111111      2.000000
 -0.222222 -0.333333  0.111111      2.000000
 -0.111111 -0.333333  0.111111      2.000000
  0.000000 -0.222222  0.111111      2.000000
  0.111111 -0.222222  0.111111      2.000000
  0.222222 -0.222222  0.111111      2.000000
  0.333333 -0.222222  0.111111      2.000000
  0.444444 -0.222222  0.111111      2.000000
 -0.444444 -0.222222  0.111111      2.000000
 -0.333333 -0.222222  0.111111      2.000000
 -0.222222 -0.222222  0.111111      2.000000
 -0.111111 -0.222222  0.111111      2.000000
  0.000000 -0.111111  0.111111      2.000000
  0.111111 -0.111111  0.111111      2.000000
  0.222222 -0.111111  0.111111      2.000000
  0.333333 -0.111111  0.111111      2.000000
  0.444444 -0.111111  0.111111      2.000000
 -0.444444 -0.111111  0.111111      2.000000
 -0.333333 -0.111111  0.111111      2.000000
 -0.222222 -0.111111  0.111111      2.000000
 -0.111111 -0.111111  0.111111      2.000000
  0.000000  0.000000  0.222222      2.000000
  0.111111 -0.000000  0.222222      2.000000
  0.222222  0.000000  0.222222      2.000000
  0.333333 -0.000000  0.222222      2.000000
  0.444444 -0.000000  0.222222      2.000000
 -0.444444  0.000000  0.222222      2.000000
 -0.333333  0.000000  0.222222      2.000000
 -0.222222  0.000000  0.222222      2.000000
 -0.111111  0.000000  0.222222      2.000000
  0.000000  0.111111  0.222222      2.000000
  0.111111  0.111111  0.222222      2.000000
  0.222222  0.111111  0.222222      2.000000
  0.333333  0.111111  0.222222      2.000000
  0.444444  0.111111  0.222222      2.000000
 -0.444444  0.111111  0.222222      2.000000
 -0.333333  0.111111  0.222222      2.000000
 -0.222222  0.111111  0.222222      2.000000
 -0.111111  0.111111  0.222222      2.000000
  0.000000  0.222222  0.222222      2.000000
  0.111111  0.222222  0.222222      2.000000
  0.222222  0.222222  0.222222      2.000000
  0.333333  0.222222  0.222222      2.000000
  0.444444  0.222222  0.222222      2.000000
 -0.444444  0.222222  0.222222      2.000000
 -0.333333  0.222222  0.222222      2.000000
 -0.222222  0.222222  0.222222      2.000000
 -0.111111  0.222222  0.222222      2.000000
 -0.000000  0.333333  0.222222      2.000000
  0.111111  0.333333  0.222222      2.000000
  0.222222  0.333333  0.222222      2.000000
  0.333333  0.333333  0.222222      2.000000
  0.444444  0.333333  0.222222      2.000000
 -0.444444  0.333333  0.222222      2.000000
 -0.333333  0.333333  0.222222      2.000000
 -0.222222  0.333333  0.222222      2.000000
 -0.111111  0.333333  0.222222      2.000000
 -0.000000  0.444444  0.222222      2.000000
  0.111111  0.444444  0.222222      2.000000
  0.222222  0.444444  0.222222      2.000000
  0.333333  0.444444  0.222222      2.000000
  0.444444  0.444444  0.222222      2.000000
 -0.444444  0.444444  0.222222      2.000000
 -0.333333  0.444444  0.222222      2.000000
 -0.222222  0.444444  0.222222      2.000000
 -0.111111  0.444444  0.222222      2.000000
  0.000000 -0.444444  0.222222      2.000000
  0.111111 -0.444444  0.222222      2.000000
  0.222222 -0.444444  0.222222      2.000000
  0.333333 -0.444444  0.222222      2.000000
  0.444444 -0.444444  0.222222      2.000000
 -0.444444 -0.444444  0.222222      2.000000
 -0.333333 -0.444444  0.222222      2.000000
 -0.222222 -0.444444  0.222222      2.000000
 -0.111111 -0.444444  0.222222      2.000000
  0.000000 -0.333333  0.222222      2.000000
  0.111111 -0.333333  0.222222      2.000000
  0.222222 -0.333333  0.222222      2.000000
  0.333333 -0.333333  0.222222      2.000000
  0.444444 -0.333333  0.222222      2.000000
 -0.444444 -0.333333  0.222222      2.000000
 -0.333333 -0.333333  0.222222      2.000000
 -0.222222 -0.333333  0.222222      2.000000
 -0.111111 -0.333333  0.222222      2.000000
  0.000000 -0.222222  0.222222      2.000000
  0.111111 -0.222222  0.222222      2.000000
  0.222222 -0.222222  0.222222      2.000000
  0.333333 -0.222222  0.222222      2.000000
  0.444444 -0.222222  0.222222      2.000000
 -0.444444 -0.222222  0.222222      2.000000
 -0.333333 -0.222222  0.222222      2.000000
 -0.222222 -0.222222  0.222222      2.000000
 -0.111111 -0.222222  0.222222      2.000000
  0.000000 -0.111111  0.222222      2.000000
  0.111111 -0.111111  0.222222      2.000000
  0.222222 -0.111111  0.222222      2.000000
  0.333333 -0.111111  0.222222      2.000000
  0.444444 -0.111111  0.222222      2.000000
 -0.444444 -0.111111  0.222222      2.000000
 -0.333333 -0.111111  0.222222      2.000000
 -0.222222 -0.111111  0.222222      2.000000
 -0.111111 -0.111111  0.222222      2.000000
  0.000000  0.000000  0.333333      2.000000
  0.111111 -0.000000  0.333333      2.000000
  0.222222 -0.000000  0.333333      2.000000
  0.333333 -0.000000  0.333333      2.000000
  0.444444 -0.000000  0.333333      2.000000
 -0.444444  0.000000  0.333333      2.000000
 -0.333333 -0.000000  0.333333      2.000000
 -0.222222  0.000000  0.333333      2.000000
 -0.111111 -0.000000  0.333333      2.000000
  0.000000  0.111111  0.333333      2.000000
  0.111111  0.111111  0.333333      2.000000
  0.222222  0.111111  0.333333      2.000000
  0.333333  0.111111  0.333333      2.000000
  0.444444  0.111111  0.333333      2.000000
 -0.444444  0.111111  0.333333      2.000000
 -0.333333  0.111111  0.333333      2.000000
 -0.222222  0.111111  0.333333      2.000000
 -0.111111  0.111111  0.333333      2.000000
  0.000000  0.222222  0.333333      2.000000
  0.111111  0.222222  0.333333      2.000000
  0.222222  0.222222  0.333333      2.000000
  0.333333  0.222222  0.333333      2.000000
  0.444444  0.222222  0.333333      2.000000
 -0.444444  0.222222  0.333333      2.000000
 -0.333333  0.222222  0.333333      2.000000
 -0.222222  0.222222  0.333333      2.000000
 -0.111111  0.222222  0.333333      2.000000
  0.000000  0.333333  0.333333      2.000000
  0.111111  0.333333  0.333333      2.000000
  0.222222  0.333333  0.333333      2.000000
  0.333333  0.333333  0.333333      2.000000
  0.444444  0.333333  0.333333      2.000000
 -0.444444  0.333333  0.333333      2.000000
 -0.333333  0.333333  0.333333      2.000000
 -0.222222  0.333333  0.333333      2.000000
 -0.111111  0.333333  0.333333      2.000000
  0.000000  0.444444  0.333333      2.000000
  0.111111  0.444444  0.333333      2.000000
  0.222222  0.444444  0.333333      2.000000
  0.333333  0.444444  0.333333      2.000000
  0.444444  0.444444  0.333333      2.000000
 -0.444444  0.444444  0.333333      2.000000
 -0.333333  0.444444  0.333333      2.000000
 -0.222222  0.444444  0.333333      2.000000
 -0.111111  0.444444  0.333333      2.000000
  0.000000 -0.444444  0.333333      2.000000
  0.111111 -0.444444  0.333333      2.000000
  0.222222 -0.444444  0.333333      2.000000
  0.333333 -0.444444  0.333333      2.000000
  0.444444 -0.444444  0.333333      2.000000
 -0.444444 -0.444444  0.333333      2.000000
 -0.333333 -0.444444  0.333333      2.000000
 -0.222222 -0.444444  0.333333      2.000000
 -0.111111 -0.444444  0.333333      2.000000
  0.000000 -0.333333  0.333333      2.000000
  0.111111 -0.333333  0.333333      2.000000
  0.222222 -0.333333  0.333333      2.000000
  0.333333 -0.333333  0.333333      2.000000
  0.444444 -0.333333  0.333333      2.000000
 -0.444444 -0.333333  0.333333      2.000000
 -0.333333 -0.333333  0.333333      2.000000
 -0.222222 -0.333333  0.333333      2.000000
 -0.111111 -0.333333  0.333333      2.000000
  0.000000 -0.222222  0.333333      2.000000
  0.111111 -0.222222  0.333333      2.000000
  0.222222 -0.222222  0.333333      2.000000
  0.333333 -0.222222  0.333333      2.000000
  0.444444 -0.222222  0.333333      2.000000
 -0.444444 -0.222222  0.333333      2.000000
 -0.333333 -0.222222  0.333333      2.000000
 -0.222222 -0.222222  0.333333      2.000000
 -0.111111 -0.222222  0.333333      2.000000
  0.000000 -0.111111  0.333333      2.000000
  0.111111 -0.111111  0.333333      2.000000
  0.222222 -0.111111  0.333333      2.000000
  0.333333 -0.111111  0.333333      2.000000
  0.444444 -0.111111  0.333333      2.000000
 -0.444444 -0.111111  0.333333      2.000000
 -0.333333 -0.111111  0.333333      2.000000
 -0.222222 -0.111111  0.333333      2.000000
 -0.111111 -0.111111  0.333333      2.000000
  0.000000  0.000000  0.444444      2.000000
  0.111111 -0.000000  0.444444      2.000000
  0.222222 -0.000000  0.444444      2.000000
  0.333333  0.000000  0.444444      2.000000
  0.444444  0.000000  0.444444      2.000000
 -0.444444  0.000000  0.444444      2.000000
 -0.333333  0.000000  0.444444      2.000000
 -0.222222  0.000000  0.444444      2.000000
 -0.111111  0.000000  0.444444      2.000000
  0.000000  0.111111  0.444444      2.000000
  0.111111  0.111111  0.444444      2.000000
  0.222222  0.111111  0.444444      2.000000
  0.333333  0.111111  0.444444      2.000000
  0.444444  0.111111  0.444444      2.000000
 -0.444444  0.111111  0.444444      2.000000
 -0.333333  0.111111  0.444444      2.000000
 -0.222222  0.111111  0.444444      2.000000
 -0.111111  0.111111  0.444444      2.000000
  0.000000  0.222222  0.444444      2.000000
  0.111111  0.222222  0.444444      2.000000
  0.222222  0.222222  0.444444      2.000000
  0.333333  0.222222  0.444444      2.000000
  0.444444  0.222222  0.444444      2.000000
 -0.444444  0.222222  0.444444      2.000000
 -0.333333  0.222222  0.444444      2.000000
 -0.222222  0.222222  0.444444      2.000000
 -0.111111  0.222222  0.444444      2.000000
  0.000000  0.333333  0.444444      2.000000
  0.111111  0.333333  0.444444      2.000000
  0.222222  0.333333  0.444444      2.000000
  0.333333  0.333333  0.444444      2.000000
  0.444444  0.333333  0.444444      2.000000
 -0.444444  0.333333  0.444444      2.000000
 -0.333333  0.333333  0.444444      2.000000
 -0.222222  0.333333  0.444444      2.000000
 -0.111111  0.333333  0.444444      2.000000
  0.000000  0.444444  0.444444      2.000000
  0.111111  0.444444  0.444444      2.000000
  0.222222  0.444444  0.444444      2.000000
  0.333333  0.444444  0.444444      2.000000
  0.444444  0.444444  0.444444      2.000000
 -0.444444  0.444444  0.444444      2.000000
 -0.333333  0.444444  0.444444      2.000000
 -0.222222  0.444444  0.444444      2.000000
 -0.111111  0.444444  0.444444      2.000000
  0.000000 -0.444444  0.444444      2.000000
  0.111111 -0.444444  0.444444      2.000000
  0.222222 -0.444444  0.444444      2.000000
  0.333333 -0.444444  0.444444      2.000000
  0.444444 -0.444444  0.444444      2.000000
 -0.444444 -0.444444  0.444444      2.000000
 -0.333333 -0.444444  0.444444      2.000000
 -0.222222 -0.444444  0.444444      2.000000
 -0.111111 -0.444444  0.444444      2.000000
  0.000000 -0.333333  0.444444      2.000000
  0.111111 -0.333333  0.444444      2.000000
  0.222222 -0.333333  0.444444      2.000000
  0.333333 -0.333333  0.444444      2.000000
  0.444444 -0.333333  0.444444      2.000000
 -0.444444 -0.333333  0.444444      2.000000
 -0.333333 -0.333333  0.444444      2.000000
 -0.222222 -0.333333  0.444444      2.000000
 -0.111111 -0.333333  0.444444      2.000000
  0.000000 -0.222222  0.444444      2.000000
  0.111111 -0.222222  0.444444      2.000000
  0.222222 -0.222222  0.444444      2.000000
  0.333333 -0.222222  0.444444      2.000000
  0.444444 -0.222222  0.444444      2.000000
 -0.444444 -0.222222  0.444444      2.000000
 -0.333333 -0.222222  0.444444      2.000000
 -0.222222 -0.222222  0.444444      2.000000
 -0.111111 -0.222222  0.444444      2.000000
  0.000000 -0.111111  0.444444      2.000000
  0.111111 -0.111111  0.444444      2.000000
  0.222222 -0.111111  0.444444      2.000000
  0.333333 -0.111111  0.444444      2.000000
  0.444444 -0.111111  0.444444      2.000000
 -0.444444 -0.111111  0.444444      2.000000
 -0.333333 -0.111111  0.444444      2.000000
 -0.222222 -0.111111  0.444444      2.000000
 -0.111111 -0.111111  0.444444      2.000000
 
 Following cartesian coordinates:
            Coordinates               Weight
  0.000000  0.000000  0.000000      1.000000
  0.024575 -0.014188 -0.010033      2.000000
  0.049150 -0.028377 -0.020066      2.000000
  0.073726 -0.042565 -0.030098      2.000000
  0.098301 -0.056754 -0.040131      2.000000
  0.000000  0.028377 -0.010033      2.000000
  0.024575  0.014188 -0.020066      2.000000
  0.049150 -0.000000 -0.030098      2.000000
  0.073726 -0.014188 -0.040131      2.000000
  0.098301 -0.028377 -0.050164      2.000000
 -0.098301  0.085131  0.030098      2.000000
 -0.073726  0.070942  0.020066      2.000000
 -0.049150  0.056754  0.010033      2.000000
 -0.024575  0.042565  0.000000      2.000000
  0.000000  0.056754 -0.020066      2.000000
  0.024575  0.042565 -0.030098      2.000000
  0.049150  0.028377 -0.040131      2.000000
  0.073726  0.014188 -0.050164      2.000000
  0.098301  0.000000 -0.060197      2.000000
 -0.098301  0.113508  0.020066      2.000000
 -0.073726  0.099319  0.010033      2.000000
 -0.049150  0.085131  0.000000      2.000000
 -0.024575  0.070942 -0.010033      2.000000
  0.000000  0.085131 -0.030098      2.000000
  0.024575  0.070942 -0.040131      2.000000
  0.049150  0.056754 -0.050164      2.000000
  0.073726  0.042565 -0.060197      2.000000
  0.098301  0.028377 -0.070229      2.000000
 -0.098301  0.141885  0.010033      2.000000
 -0.073726  0.127696  0.000000      2.000000
 -0.049150  0.113508 -0.010033      2.000000
 -0.024575  0.099319 -0.020066      2.000000
  0.000000  0.113508 -0.040131      2.000000
  0.024575  0.099319 -0.050164      2.000000
  0.049150  0.085131 -0.060197      2.000000
  0.073726  0.070942 -0.070229      2.000000
  0.098301  0.056754 -0.080262      2.000000
 -0.098301  0.170262  0.000000      2.000000
 -0.073726  0.156073 -0.010033      2.000000
 -0.049150  0.141885 -0.020066      2.000000
 -0.024575  0.127696 -0.030098      2.000000
 -0.000000  0.000000  0.030098      2.000000
  0.024575 -0.014188  0.020066      2.000000
  0.049150 -0.028377  0.010033      2.000000
  0.073726 -0.042565 -0.000000      2.000000
  0.098301 -0.056754 -0.010033      2.000000
 -0.098301  0.056754  0.070229      2.000000
 -0.073726  0.042565  0.060197      2.000000
 -0.049150  0.028377  0.050164      2.000000
 -0.024575  0.014188  0.040131      2.000000
 -0.000000  0.028377  0.020066      2.000000
  0.024575  0.014188  0.010033      2.000000
  0.049150 -0.000000 -0.000000      2.000000
  0.073726 -0.014188 -0.010033      2.000000
  0.098301 -0.028377 -0.020066      2.000000
 -0.098301  0.085131  0.060197      2.000000
 -0.073726  0.070942  0.050164      2.000000
 -0.049150  0.056754  0.040131      2.000000
 -0.024575  0.042565  0.030098      2.000000
 -0.000000  0.056754  0.010033      2.000000
  0.024575  0.042565  0.000000      2.000000
  0.049150  0.028377 -0.010033      2.000000
  0.073726  0.014188 -0.020066      2.000000
  0.098301  0.000000 -0.030098      2.000000
 -0.098301  0.113508  0.050164      2.000000
 -0.073726  0.099319  0.040131      2.000000
 -0.049150  0.085131  0.030098      2.000000
 -0.024575  0.070942  0.020066      2.000000
 -0.000000  0.085131  0.000000      2.000000
  0.024575  0.070942 -0.010033      2.000000
  0.049150  0.056754 -0.020066      2.000000
  0.073726  0.042565 -0.030098      2.000000
  0.098301  0.028377 -0.040131      2.000000
 -0.098301  0.141885  0.040131      2.000000
 -0.073726  0.127696  0.030098      2.000000
 -0.049150  0.113508  0.020066      2.000000
 -0.024575  0.099319  0.010033      2.000000
  0.000000  0.113508 -0.010033      2.000000
  0.024575  0.099319 -0.020066      2.000000
  0.049150  0.085131 -0.030098      2.000000
  0.073726  0.070942 -0.040131      2.000000
  0.098301  0.056754 -0.050164      2.000000
 -0.098301  0.170262  0.030098      2.000000
 -0.073726  0.156073  0.020066      2.000000
 -0.049150  0.141885  0.010033      2.000000
 -0.024575  0.127696  0.000000      2.000000
 -0.000000 -0.113508  0.070229      2.000000
  0.024575 -0.127696  0.060197      2.000000
  0.049150 -0.141885  0.050164      2.000000
  0.073726 -0.156073  0.040131      2.000000
  0.098301 -0.170262  0.030098      2.000000
 -0.098301 -0.056754  0.110361      2.000000
 -0.073726 -0.070942  0.100328      2.000000
 -0.049150 -0.085131  0.090295      2.000000
 -0.024575 -0.099319  0.080262      2.000000
 -0.000000 -0.085131  0.060197      2.000000
  0.024575 -0.099319  0.050164      2.000000
  0.049150 -0.113508  0.040131      2.000000
  0.073726 -0.127696  0.030098      2.000000
  0.098301 -0.141885  0.020066      2.000000
 -0.098301 -0.028377  0.100328      2.000000
 -0.073726 -0.042565  0.090295      2.000000
 -0.049150 -0.056754  0.080262      2.000000
 -0.024575 -0.070942  0.070229      2.000000
 -0.000000 -0.056754  0.050164      2.000000
  0.024575 -0.070942  0.040131      2.000000
  0.049150 -0.085131  0.030098      2.000000
  0.073726 -0.099319  0.020066      2.000000
  0.098301 -0.113508  0.010033      2.000000
 -0.098301  0.000000  0.090295      2.000000
 -0.073726 -0.014188  0.080262      2.000000
 -0.049150 -0.028377  0.070229      2.000000
 -0.024575 -0.042565  0.060197      2.000000
 -0.000000 -0.028377  0.040131      2.000000
  0.024575 -0.042565  0.030098      2.000000
  0.049150 -0.056754  0.020066      2.000000
  0.073726 -0.070942  0.010033      2.000000
  0.098301 -0.085131 -0.000000      2.000000
 -0.098301  0.028377  0.080262      2.000000
 -0.073726  0.014188  0.070229      2.000000
 -0.049150  0.000000  0.060197      2.000000
 -0.024575 -0.014188  0.050164      2.000000
 -0.000000  0.000000  0.060197      2.000000
  0.024575 -0.014188  0.050164      2.000000
  0.049150 -0.028377  0.040131      2.000000
  0.073726 -0.042565  0.030098      2.000000
  0.098301 -0.056754  0.020066      2.000000
 -0.098301  0.056754  0.100328      2.000000
 -0.073726  0.042565  0.090295      2.000000
 -0.049150  0.028377  0.080262      2.000000
 -0.024575  0.014188  0.070229      2.000000
 -0.000000  0.028377  0.050164      2.000000
  0.024575  0.014188  0.040131      2.000000
  0.049150 -0.000000  0.030098      2.000000
  0.073726 -0.014188  0.020066      2.000000
  0.098301 -0.028377  0.010033      2.000000
 -0.098301  0.085131  0.090295      2.000000
 -0.073726  0.070942  0.080262      2.000000
 -0.049150  0.056754  0.070229      2.000000
 -0.024575  0.042565  0.060197      2.000000
 -0.000000  0.056754  0.040131      2.000000
  0.024575  0.042565  0.030098      2.000000
  0.049150  0.028377  0.020066      2.000000
  0.073726  0.014188  0.010033      2.000000
  0.098301  0.000000  0.000000      2.000000
 -0.098301  0.113508  0.080262      2.000000
 -0.073726  0.099319  0.070229      2.000000
 -0.049150  0.085131  0.060197      2.000000
 -0.024575  0.070942  0.050164      2.000000
 -0.000000  0.085131  0.030098      2.000000
  0.024575  0.070942  0.020066      2.000000
  0.049150  0.056754  0.010033      2.000000
  0.073726  0.042565  0.000000      2.000000
  0.098301  0.028377 -0.010033      2.000000
 -0.098301  0.141885  0.070229      2.000000
 -0.073726  0.127696  0.060197      2.000000
 -0.049150  0.113508  0.050164      2.000000
 -0.024575  0.099319  0.040131      2.000000
 -0.000000  0.113508  0.020066      2.000000
  0.024575  0.099319  0.010033      2.000000
  0.049150  0.085131  0.000000      2.000000
  0.073726  0.070942 -0.010033      2.000000
  0.098301  0.056754 -0.020066      2.000000
 -0.098301  0.170262  0.060197      2.000000
 -0.073726  0.156073  0.050164      2.000000
 -0.049150  0.141885  0.040131      2.000000
 -0.024575  0.127696  0.030098      2.000000
 -0.000000 -0.113508  0.100328      2.000000
  0.024575 -0.127696  0.090295      2.000000
  0.049150 -0.141885  0.080262      2.000000
  0.073726 -0.156073  0.070229      2.000000
  0.098301 -0.170262  0.060197      2.000000
 -0.098301 -0.056754  0.140459      2.000000
 -0.073726 -0.070942  0.130426      2.000000
 -0.049150 -0.085131  0.120393      2.000000
 -0.024575 -0.099319  0.110361      2.000000
 -0.000000 -0.085131  0.090295      2.000000
  0.024575 -0.099319  0.080262      2.000000
  0.049150 -0.113508  0.070229      2.000000
  0.073726 -0.127696  0.060197      2.000000
  0.098301 -0.141885  0.050164      2.000000
 -0.098301 -0.028377  0.130426      2.000000
 -0.073726 -0.042565  0.120393      2.000000
 -0.049150 -0.056754  0.110361      2.000000
 -0.024575 -0.070942  0.100328      2.000000
 -0.000000 -0.056754  0.080262      2.000000
  0.024575 -0.070942  0.070229      2.000000
  0.049150 -0.085131  0.060197      2.000000
  0.073726 -0.099319  0.050164      2.000000
  0.098301 -0.113508  0.040131      2.000000
 -0.098301  0.000000  0.120393      2.000000
 -0.073726 -0.014188  0.110361      2.000000
 -0.049150 -0.028377  0.100328      2.000000
 -0.024575 -0.042565  0.090295      2.000000
 -0.000000 -0.028377  0.070229      2.000000
  0.024575 -0.042565  0.060197      2.000000
  0.049150 -0.056754  0.050164      2.000000
  0.073726 -0.070942  0.040131      2.000000
  0.098301 -0.085131  0.030098      2.000000
 -0.098301  0.028377  0.110361      2.000000
 -0.073726  0.014188  0.100328      2.000000
 -0.049150  0.000000  0.090295      2.000000
 -0.024575 -0.014188  0.080262      2.000000
 -0.000000  0.000000  0.090295      2.000000
  0.024575 -0.014188  0.080262      2.000000
  0.049150 -0.028377  0.070229      2.000000
  0.073726 -0.042565  0.060197      2.000000
  0.098301 -0.056754  0.050164      2.000000
 -0.098301  0.056754  0.130426      2.000000
 -0.073726  0.042565  0.120393      2.000000
 -0.049150  0.028377  0.110361      2.000000
 -0.024575  0.014188  0.100328      2.000000
 -0.000000  0.028377  0.080262      2.000000
  0.024575  0.014188  0.070229      2.000000
  0.049150 -0.000000  0.060197      2.000000
  0.073726 -0.014188  0.050164      2.000000
  0.098301 -0.028377  0.040131      2.000000
 -0.098301  0.085131  0.120393      2.000000
 -0.073726  0.070942  0.110361      2.000000
 -0.049150  0.056754  0.100328      2.000000
 -0.024575  0.042565  0.090295      2.000000
 -0.000000  0.056754  0.070229      2.000000
  0.024575  0.042565  0.060197      2.000000
  0.049150  0.028377  0.050164      2.000000
  0.073726  0.014188  0.040131      2.000000
  0.098301  0.000000  0.030098      2.000000
 -0.098301  0.113508  0.110361      2.000000
 -0.073726  0.099319  0.100328      2.000000
 -0.049150  0.085131  0.090295      2.000000
 -0.024575  0.070942  0.080262      2.000000
 -0.000000  0.085131  0.060197      2.000000
  0.024575  0.070942  0.050164      2.000000
  0.049150  0.056754  0.040131      2.000000
  0.073726  0.042565  0.030098      2.000000
  0.098301  0.028377  0.020066      2.000000
 -0.098301  0.141885  0.100328      2.000000
 -0.073726  0.127696  0.090295      2.000000
 -0.049150  0.113508  0.080262      2.000000
 -0.024575  0.099319  0.070229      2.000000
 -0.000000  0.113508  0.050164      2.000000
  0.024575  0.099319  0.040131      2.000000
  0.049150  0.085131  0.030098      2.000000
  0.073726  0.070942  0.020066      2.000000
  0.098301  0.056754  0.010033      2.000000
 -0.098301  0.170262  0.090295      2.000000
 -0.073726  0.156073  0.080262      2.000000
 -0.049150  0.141885  0.070229      2.000000
 -0.024575  0.127696  0.060197      2.000000
 -0.000000 -0.113508  0.130426      2.000000
  0.024575 -0.127696  0.120393      2.000000
  0.049150 -0.141885  0.110361      2.000000
  0.073726 -0.156073  0.100328      2.000000
  0.098301 -0.170262  0.090295      2.000000
 -0.098301 -0.056754  0.170557      2.000000
 -0.073726 -0.070942  0.160524      2.000000
 -0.049150 -0.085131  0.150492      2.000000
 -0.024575 -0.099319  0.140459      2.000000
 -0.000000 -0.085131  0.120393      2.000000
  0.024575 -0.099319  0.110361      2.000000
  0.049150 -0.113508  0.100328      2.000000
  0.073726 -0.127696  0.090295      2.000000
  0.098301 -0.141885  0.080262      2.000000
 -0.098301 -0.028377  0.160524      2.000000
 -0.073726 -0.042565  0.150492      2.000000
 -0.049150 -0.056754  0.140459      2.000000
 -0.024575 -0.070942  0.130426      2.000000
 -0.000000 -0.056754  0.110361      2.000000
  0.024575 -0.070942  0.100328      2.000000
  0.049150 -0.085131  0.090295      2.000000
  0.073726 -0.099319  0.080262      2.000000
  0.098301 -0.113508  0.070229      2.000000
 -0.098301 -0.000000  0.150492      2.000000
 -0.073726 -0.014188  0.140459      2.000000
 -0.049150 -0.028377  0.130426      2.000000
 -0.024575 -0.042565  0.120393      2.000000
 -0.000000 -0.028377  0.100328      2.000000
  0.024575 -0.042565  0.090295      2.000000
  0.049150 -0.056754  0.080262      2.000000
  0.073726 -0.070942  0.070229      2.000000
  0.098301 -0.085131  0.060197      2.000000
 -0.098301  0.028377  0.140459      2.000000
 -0.073726  0.014188  0.130426      2.000000
 -0.049150  0.000000  0.120393      2.000000
 -0.024575 -0.014188  0.110361      2.000000
 -0.000000  0.000000  0.120393      2.000000
  0.024575 -0.014188  0.110361      2.000000
  0.049150 -0.028377  0.100328      2.000000
  0.073726 -0.042565  0.090295      2.000000
  0.098301 -0.056754  0.080262      2.000000
 -0.098301  0.056754  0.160524      2.000000
 -0.073726  0.042565  0.150492      2.000000
 -0.049150  0.028377  0.140459      2.000000
 -0.024575  0.014188  0.130426      2.000000
 -0.000000  0.028377  0.110361      2.000000
  0.024575  0.014188  0.100328      2.000000
  0.049150 -0.000000  0.090295      2.000000
  0.073726 -0.014188  0.080262      2.000000
  0.098301 -0.028377  0.070229      2.000000
 -0.098301  0.085131  0.150492      2.000000
 -0.073726  0.070942  0.140459      2.000000
 -0.049150  0.056754  0.130426      2.000000
 -0.024575  0.042565  0.120393      2.000000
 -0.000000  0.056754  0.100328      2.000000
  0.024575  0.042565  0.090295      2.000000
  0.049150  0.028377  0.080262      2.000000
  0.073726  0.014188  0.070229      2.000000
  0.098301  0.000000  0.060197      2.000000
 -0.098301  0.113508  0.140459      2.000000
 -0.073726  0.099319  0.130426      2.000000
 -0.049150  0.085131  0.120393      2.000000
 -0.024575  0.070942  0.110361      2.000000
 -0.000000  0.085131  0.090295      2.000000
  0.024575  0.070942  0.080262      2.000000
  0.049150  0.056754  0.070229      2.000000
  0.073726  0.042565  0.060197      2.000000
  0.098301  0.028377  0.050164      2.000000
 -0.098301  0.141885  0.130426      2.000000
 -0.073726  0.127696  0.120393      2.000000
 -0.049150  0.113508  0.110361      2.000000
 -0.024575  0.099319  0.100328      2.000000
 -0.000000  0.113508  0.080262      2.000000
  0.024575  0.099319  0.070229      2.000000
  0.049150  0.085131  0.060197      2.000000
  0.073726  0.070942  0.050164      2.000000
  0.098301  0.056754  0.040131      2.000000
 -0.098301  0.170262  0.120393      2.000000
 -0.073726  0.156073  0.110361      2.000000
 -0.049150  0.141885  0.100328      2.000000
 -0.024575  0.127696  0.090295      2.000000
 -0.000000 -0.113508  0.160524      2.000000
  0.024575 -0.127696  0.150492      2.000000
  0.049150 -0.141885  0.140459      2.000000
  0.073726 -0.156073  0.130426      2.000000
  0.098301 -0.170262  0.120393      2.000000
 -0.098301 -0.056754  0.200656      2.000000
 -0.073726 -0.070942  0.190623      2.000000
 -0.049150 -0.085131  0.180590      2.000000
 -0.024575 -0.099319  0.170557      2.000000
 -0.000000 -0.085131  0.150492      2.000000
  0.024575 -0.099319  0.140459      2.000000
  0.049150 -0.113508  0.130426      2.000000
  0.073726 -0.127696  0.120393      2.000000
  0.098301 -0.141885  0.110361      2.000000
 -0.098301 -0.028377  0.190623      2.000000
 -0.073726 -0.042565  0.180590      2.000000
 -0.049150 -0.056754  0.170557      2.000000
 -0.024575 -0.070942  0.160524      2.000000
 -0.000000 -0.056754  0.140459      2.000000
  0.024575 -0.070942  0.130426      2.000000
  0.049150 -0.085131  0.120393      2.000000
  0.073726 -0.099319  0.110361      2.000000
  0.098301 -0.113508  0.100328      2.000000
 -0.098301  0.000000  0.180590      2.000000
 -0.073726 -0.014188  0.170557      2.000000
 -0.049150 -0.028377  0.160524      2.000000
 -0.024575 -0.042565  0.150492      2.000000
 -0.000000 -0.028377  0.130426      2.000000
  0.024575 -0.042565  0.120393      2.000000
  0.049150 -0.056754  0.110361      2.000000
  0.073726 -0.070942  0.100328      2.000000
  0.098301 -0.085131  0.090295      2.000000
 -0.098301  0.028377  0.170557      2.000000
 -0.073726  0.014188  0.160524      2.000000
 -0.049150  0.000000  0.150492      2.000000
 -0.024575 -0.014188  0.140459      2.000000
 


--------------------------------------------------------------------------------------------------------




 Dimension of arrays:
   k-points           NKPTS =    365   k-points in BZ     NKDIM =    365   number of bands    NBANDS=     28
   number of dos      NEDOS =    301   number of ions     NIONS =      1
   non local maximal  LDIM  =      9   non local SUM 2l+1 LMDIM =     37
   total plane-waves  NPLWV =  46656
   max r-space proj   IRMAX =      1   max aug-charges    IRDMAX= 219948
   dimension x,y,z NGX =    36 NGY =   36 NGZ =   36
   dimension x,y,z NGXF=    72 NGYF=   72 NGZF=   72
   support grid    NGXF=   144 NGYF=  144 NGZF=  144
   ions per type =               1
   NGX,Y,Z   is equivalent  to a cutoff of  13.24, 13.24, 13.24 a.u.
   NGXF,Y,Z  is equivalent  to a cutoff of  26.47, 26.47, 26.47 a.u.

 SYSTEM =  Cn_FCC                                  
 POSCAR =  Rn_FCC                                  

 Startparameter for this run:
   NWRITE =      2    write-flag & timer
   PREC   = accura    normal or accurate (medium, high low for compatibility)
   ISTART =      0    job   : 0-new  1-cont  2-samecut
   ICHARG =      2    charge: 1-file 2-atom 10-const
   ISPIN  =      1    spin polarized calculation?
   LNONCOLLINEAR =      T non collinear calculations
   LSORBIT =      T    spin-orbit coupling
   INIWAV =      1    electr: 0-lowe 1-rand  2-diag
   LASPH  =      F    aspherical Exc in radial PAW
   METAGGA=      F    non-selfconsistent MetaGGA calc.

 Electronic Relaxation 1
   ENCUT  =  600.0 eV  44.10 Ry    6.64 a.u.   9.03  9.03  9.03*2*pi/ulx,y,z
   ENINI  =  600.0     initial cutoff
   ENAUG  =  715.6 eV  augmentation charge cutoff
   NELM   =    100;   NELMIN=  5; NELMDL= -5     # of ELM steps 
   EDIFF  = 0.1E-06   stopping-criterion for ELM
   LREAL  =      F    real-space projection
   NLSPLINE    = F    spline interpolate recip. space projectors
   LCOMPAT=      F    compatible to vasp.4.4
   GGA_COMPAT  = F    GGA compatible to vasp.4.4-vasp.4.6
   LMAXPAW     = -100 max onsite density
   LMAXMIX     =    2 max onsite mixed and CHGCAR
   VOSKOWN=      0    Vosko Wilk Nusair interpolation
   ROPT   =    0.00000
 Ionic relaxation
   EDIFFG = 0.1E-04   stopping-criterion for IOM
   NSW    =    999    number of steps for IOM
   NBLOCK =      1;   KBLOCK =    999    inner block; outer block 
   IBRION =      1    ionic relax: 0-MD 1-quasi-New 2-CG
   NFREE  =      5    steps in history (QN), initial steepest desc. (CG)
   ISIF   =      7    stress and relaxation
   IWAVPR =     11    prediction:  0-non 1-charg 2-wave 3-comb
   ISYM   =      2    0-nonsym 1-usesym 2-fastsym
   LCORR  =      T    Harris-Foulkes like correction to forces

   POTIM  = 0.1000    time-step for ionic-motion
   TEIN   =    0.0    initial temperature
   TEBEG  =    0.0;   TEEND  =   0.0 temperature during run
   SMASS  =  -3.00    Nose mass-parameter (am)
   estimated Nose-frequenzy (Omega)   =  0.10E-29 period in steps =****** mass=  -0.467E-27a.u.
   SCALEE = 1.0000    scale energy and forces
   NPACO  =    256;   APACO  = 16.0  distance and # of slots for P.C.
   PSTRESS=    0.0 pullay stress

  Mass of Ions in am
   POMASS = 220.17
  Ionic Valenz
   ZVAL   =  18.00
  Atomic Wigner-Seitz radii
   RWIGS  =  -1.00
  virtual crystal weights 
   VCA    =   1.00
   NELECT =      18.0000    total number of electrons
   NUPDOWN=      -1.0000    fix difference up-down

 DOS related values:
   EMIN   =  10.00;   EMAX   =-10.00  energy-range for DOS
   EFERMI =   0.00
   ISMEAR =     1;   SIGMA  =   0.10  broadening in eV -4-tet -1-fermi 0-gaus

 Electronic relaxation 2 (details)
   IALGO  =     38    algorithm
   LDIAG  =      T    sub-space diagonalisation (order eigenvalues)
   LSUBROT=      F    optimize rotation matrix (better conditioning)
   TURBO    =      0    0=normal 1=particle mesh
   IRESTART =      0    0=no restart 2=restart with 2 vectors
   NREBOOT  =      0    no. of reboots
   NMIN     =      0    reboot dimension
   EREF     =   0.00    reference energy to select bands
   IMIX   =      4    mixing-type and parameters
     AMIX     =   0.40;   BMIX     =  1.00
     AMIX_MAG =   1.60;   BMIX_MAG =  1.00
     AMIN     =   0.10
     WC   =   100.;   INIMIX=   1;  MIXPRE=   1;  MAXMIX=  50

 Intra band minimization:
   WEIMIN = 0.0010     energy-eigenvalue tresh-hold
   EBREAK =  0.89E-09  absolut break condition
   DEPER  =   0.30     relativ break condition  

   TIME   =   0.40     timestep for ELM

  volume/ion in A,a.u.               =      65.35       441.03
  Fermi-wavevector in a.u.,A,eV,Ry     =   1.065148  2.012838 15.436367  1.134541
  Thomas-Fermi vector in A             =   2.200690
 
 Write flags
   LWAVE        =      F    write WAVECAR
   LDOWNSAMPLE  =      F    k-point downsampling of WAVECAR
   LCHARG       =      F    write CHGCAR
   LVTOT        =      F    write LOCPOT, total local potential
   LVHAR        =      F    write LOCPOT, Hartree potential only
   LELF         =      F    write electronic localiz. function (ELF)
   LORBIT       =      0    0 simple, 1 ext, 2 COOP (PROOUT), +10 PAW based schemes


 Dipole corrections
   LMONO  =      F    monopole corrections only (constant potential shift)
   LDIPOL =      F    correct potential (dipole corrections)
   IDIPOL =      0    1-x, 2-y, 3-z, 4-all directions 
   EPSILON=  1.0000000 bulk dielectric constant

 Exchange correlation treatment:
   GGA     =    PE    GGA type
   LEXCH   =     8    internal setting for exchange type
   VOSKOWN=      0    Vosko Wilk Nusair interpolation
   LHFCALC =     F    Hartree Fock is set to
   LHFONE  =     F    Hartree Fock one center treatment
   AEXX    =    0.0000 exact exchange contribution

 Linear response parameters
   LEPSILON=     F    determine dielectric tensor
   LRPA    =     F    only Hartree local field effects (RPA)
   LNABLA  =     F    use nabla operator in PAW spheres
   LVEL    =     F    velocity operator in full k-point grid
   LINTERFAST=   F  fast interpolation
   KINTER  =     0    interpolate to denser k-point grid
   CSHIFT  =0.1000    complex shift for real part using Kramers Kronig
   OMEGAMAX=  -1.0    maximum frequency
   DEG_THRESHOLD= 0.2000000E-02 threshold for treating states as degnerate
   RTIME   =   -0.100 relaxation time in fs
  (WPLASMAI=    0.000 imaginary part of plasma frequency in eV, 0.658/RTIME)
   DFIELD  = 0.0000000 0.0000000 0.0000000 field for delta impulse in time
 
 Orbital magnetization related:
   ORBITALMAG=     F  switch on orbital magnetization
   LCHIMAG   =     F  perturbation theory with respect to B field
   DQ        =  0.001000  dq finite difference perturbation B field
   LLRAUG    =     F  two centre corrections for induced B field



--------------------------------------------------------------------------------------------------------


 quasi-Newton-method for relaxation of ions
 charge density and potential will be updated during run
 non collinear spin polarized calculation
 Variant of blocked Davidson
 Davidson routine will perform the subspace rotation
 perform sub-space diagonalisation
    after iterative eigenvector-optimisation
 modified Broyden-mixing scheme, WC =      100.0
 initial mixing is a Kerker type mixing with AMIX =  0.4000 and BMIX =      1.0000
 Hartree-type preconditioning will be used
 using additional bands           19
 reciprocal scheme for non local part
 use partial core corrections
 calculate Harris-corrections to forces 
   (improved forces if not selfconsistent)
 use gradient corrections 
 use of overlap-Matrix (Vanderbilt PP)
 Methfessel and Paxton  Order N= 1 SIGMA  =   0.10


--------------------------------------------------------------------------------------------------------


  energy-cutoff  :      600.00
  volume of cell :       65.35
      direct lattice vectors                 reciprocal lattice vectors
     4.521271336  0.000000000  0.000000000     0.221176728 -0.127696443 -0.090295021
     2.260635668  3.915535834 -0.000000000     0.000000000  0.255392887 -0.090295021
     2.260635668  1.305178611  3.691602587    -0.000000000  0.000000000  0.270885063

  length of vectors
     4.521271336  4.521271336  4.521271336     0.270885063  0.270885063  0.270885063


 
 k-points in units of 2pi/SCALE and weight: read from INCAR                         
   0.00000000  0.00000000  0.00000000       0.001
   0.02457519 -0.01418849 -0.01003278       0.003
   0.04915038 -0.02837699 -0.02006556       0.003
   0.07372558 -0.04256548 -0.03009834       0.003
   0.09830077 -0.05675397 -0.04013112       0.003
   0.00000000  0.02837699 -0.01003278       0.003
   0.02457519  0.01418849 -0.02006556       0.003
   0.04915038 -0.00000000 -0.03009834       0.003
   0.07372558 -0.01418849 -0.04013112       0.003
   0.09830077 -0.02837699 -0.05016390       0.003
  -0.09830077  0.08513096  0.03009834       0.003
  -0.07372558  0.07094247  0.02006556       0.003
  -0.04915038  0.05675397  0.01003278       0.003
  -0.02457519  0.04256548  0.00000000       0.003
   0.00000000  0.05675397 -0.02006556       0.003
   0.02457519  0.04256548 -0.03009834       0.003
   0.04915038  0.02837699 -0.04013112       0.003
   0.07372558  0.01418849 -0.05016390       0.003
   0.09830077  0.00000000 -0.06019668       0.003
  -0.09830077  0.11350795  0.02006556       0.003
  -0.07372558  0.09931946  0.01003278       0.003
  -0.04915038  0.08513096  0.00000000       0.003
  -0.02457519  0.07094247 -0.01003278       0.003
   0.00000000  0.08513096 -0.03009834       0.003
   0.02457519  0.07094247 -0.04013112       0.003
   0.04915038  0.05675397 -0.05016390       0.003
   0.07372558  0.04256548 -0.06019668       0.003
   0.09830077  0.02837699 -0.07022946       0.003
  -0.09830077  0.14188494  0.01003278       0.003
  -0.07372558  0.12769644  0.00000000       0.003
  -0.04915038  0.11350795 -0.01003278       0.003
  -0.02457519  0.09931946 -0.02006556       0.003
   0.00000000  0.11350795 -0.04013112       0.003
   0.02457519  0.09931946 -0.05016390       0.003
   0.04915038  0.08513096 -0.06019668       0.003
   0.07372558  0.07094247 -0.07022946       0.003
   0.09830077  0.05675397 -0.08026224       0.003
  -0.09830077  0.17026192  0.00000000       0.003
  -0.07372558  0.15607343 -0.01003278       0.003
  -0.04915038  0.14188494 -0.02006556       0.003
  -0.02457519  0.12769644 -0.03009834       0.003
  -0.00000000  0.00000000  0.03009834       0.003
   0.02457519 -0.01418849  0.02006556       0.003
   0.04915038 -0.02837699  0.01003278       0.003
   0.07372558 -0.04256548 -0.00000000       0.003
   0.09830077 -0.05675397 -0.01003278       0.003
  -0.09830077  0.05675397  0.07022946       0.003
  -0.07372558  0.04256548  0.06019668       0.003
  -0.04915038  0.02837699  0.05016390       0.003
  -0.02457519  0.01418849  0.04013112       0.003
  -0.00000000  0.02837699  0.02006556       0.003
   0.02457519  0.01418849  0.01003278       0.003
   0.04915038 -0.00000000 -0.00000000       0.003
   0.07372558 -0.01418849 -0.01003278       0.003
   0.09830077 -0.02837699 -0.02006556       0.003
  -0.09830077  0.08513096  0.06019668       0.003
  -0.07372558  0.07094247  0.05016390       0.003
  -0.04915038  0.05675397  0.04013112       0.003
  -0.02457519  0.04256548  0.03009834       0.003
  -0.00000000  0.05675397  0.01003278       0.003
   0.02457519  0.04256548  0.00000000       0.003
   0.04915038  0.02837699 -0.01003278       0.003
   0.07372558  0.01418849 -0.02006556       0.003
   0.09830077  0.00000000 -0.03009834       0.003
  -0.09830077  0.11350795  0.05016390       0.003
  -0.07372558  0.09931946  0.04013112       0.003
  -0.04915038  0.08513096  0.03009834       0.003
  -0.02457519  0.07094247  0.02006556       0.003
  -0.00000000  0.08513096  0.00000000       0.003
   0.02457519  0.07094247 -0.01003278       0.003
   0.04915038  0.05675397 -0.02006556       0.003
   0.07372558  0.04256548 -0.03009834       0.003
   0.09830077  0.02837699 -0.04013112       0.003
  -0.09830077  0.14188494  0.04013112       0.003
  -0.07372558  0.12769644  0.03009834       0.003
  -0.04915038  0.11350795  0.02006556       0.003
  -0.02457519  0.09931946  0.01003278       0.003
   0.00000000  0.11350795 -0.01003278       0.003
   0.02457519  0.09931946 -0.02006556       0.003
   0.04915038  0.08513096 -0.03009834       0.003
   0.07372558  0.07094247 -0.04013112       0.003
   0.09830077  0.05675397 -0.05016390       0.003
  -0.09830077  0.17026192  0.03009834       0.003
  -0.07372558  0.15607343  0.02006556       0.003
  -0.04915038  0.14188494  0.01003278       0.003
  -0.02457519  0.12769644  0.00000000       0.003
  -0.00000000 -0.11350795  0.07022946       0.003
   0.02457519 -0.12769644  0.06019668       0.003
   0.04915038 -0.14188494  0.05016390       0.003
   0.07372558 -0.15607343  0.04013112       0.003
   0.09830077 -0.17026192  0.03009834       0.003
  -0.09830077 -0.05675397  0.11036058       0.003
  -0.07372558 -0.07094247  0.10032780       0.003
  -0.04915038 -0.08513096  0.09029502       0.003
  -0.02457519 -0.09931946  0.08026224       0.003
  -0.00000000 -0.08513096  0.06019668       0.003
   0.02457519 -0.09931946  0.05016390       0.003
   0.04915038 -0.11350795  0.04013112       0.003
   0.07372558 -0.12769644  0.03009834       0.003
   0.09830077 -0.14188494  0.02006556       0.003
  -0.09830077 -0.02837699  0.10032780       0.003
  -0.07372558 -0.04256548  0.09029502       0.003
  -0.04915038 -0.05675397  0.08026224       0.003
  -0.02457519 -0.07094247  0.07022946       0.003
  -0.00000000 -0.05675397  0.05016390       0.003
   0.02457519 -0.07094247  0.04013112       0.003
   0.04915038 -0.08513096  0.03009834       0.003
   0.07372558 -0.09931946  0.02006556       0.003
   0.09830077 -0.11350795  0.01003278       0.003
  -0.09830077  0.00000000  0.09029502       0.003
  -0.07372558 -0.01418849  0.08026224       0.003
  -0.04915038 -0.02837699  0.07022946       0.003
  -0.02457519 -0.04256548  0.06019668       0.003
  -0.00000000 -0.02837699  0.04013112       0.003
   0.02457519 -0.04256548  0.03009834       0.003
   0.04915038 -0.05675397  0.02006556       0.003
   0.07372558 -0.07094247  0.01003278       0.003
   0.09830077 -0.08513096 -0.00000000       0.003
  -0.09830077  0.02837699  0.08026224       0.003
  -0.07372558  0.01418849  0.07022946       0.003
  -0.04915038  0.00000000  0.06019668       0.003
  -0.02457519 -0.01418849  0.05016390       0.003
  -0.00000000  0.00000000  0.06019668       0.003
   0.02457519 -0.01418849  0.05016390       0.003
   0.04915038 -0.02837699  0.04013112       0.003
   0.07372558 -0.04256548  0.03009834       0.003
   0.09830077 -0.05675397  0.02006556       0.003
  -0.09830077  0.05675397  0.10032780       0.003
  -0.07372558  0.04256548  0.09029502       0.003
  -0.04915038  0.02837699  0.08026224       0.003
  -0.02457519  0.01418849  0.07022946       0.003
  -0.00000000  0.02837699  0.05016390       0.003
   0.02457519  0.01418849  0.04013112       0.003
   0.04915038 -0.00000000  0.03009834       0.003
   0.07372558 -0.01418849  0.02006556       0.003
   0.09830077 -0.02837699  0.01003278       0.003
  -0.09830077  0.08513096  0.09029502       0.003
  -0.07372558  0.07094247  0.08026224       0.003
  -0.04915038  0.05675397  0.07022946       0.003
  -0.02457519  0.04256548  0.06019668       0.003
  -0.00000000  0.05675397  0.04013112       0.003
   0.02457519  0.04256548  0.03009834       0.003
   0.04915038  0.02837699  0.02006556       0.003
   0.07372558  0.01418849  0.01003278       0.003
   0.09830077  0.00000000  0.00000000       0.003
  -0.09830077  0.11350795  0.08026224       0.003
  -0.07372558  0.09931946  0.07022946       0.003
  -0.04915038  0.08513096  0.06019668       0.003
  -0.02457519  0.07094247  0.05016390       0.003
  -0.00000000  0.08513096  0.03009834       0.003
   0.02457519  0.07094247  0.02006556       0.003
   0.04915038  0.05675397  0.01003278       0.003
   0.07372558  0.04256548  0.00000000       0.003
   0.09830077  0.02837699 -0.01003278       0.003
  -0.09830077  0.14188494  0.07022946       0.003
  -0.07372558  0.12769644  0.06019668       0.003
  -0.04915038  0.11350795  0.05016390       0.003
  -0.02457519  0.09931946  0.04013112       0.003
  -0.00000000  0.11350795  0.02006556       0.003
   0.02457519  0.09931946  0.01003278       0.003
   0.04915038  0.08513096  0.00000000       0.003
   0.07372558  0.07094247 -0.01003278       0.003
   0.09830077  0.05675397 -0.02006556       0.003
  -0.09830077  0.17026192  0.06019668       0.003
  -0.07372558  0.15607343  0.05016390       0.003
  -0.04915038  0.14188494  0.04013112       0.003
  -0.02457519  0.12769644  0.03009834       0.003
  -0.00000000 -0.11350795  0.10032780       0.003
   0.02457519 -0.12769644  0.09029502       0.003
   0.04915038 -0.14188494  0.08026224       0.003
   0.07372558 -0.15607343  0.07022946       0.003
   0.09830077 -0.17026192  0.06019668       0.003
  -0.09830077 -0.05675397  0.14045892       0.003
  -0.07372558 -0.07094247  0.13042614       0.003
  -0.04915038 -0.08513096  0.12039336       0.003
  -0.02457519 -0.09931946  0.11036058       0.003
  -0.00000000 -0.08513096  0.09029502       0.003
   0.02457519 -0.09931946  0.08026224       0.003
   0.04915038 -0.11350795  0.07022946       0.003
   0.07372558 -0.12769644  0.06019668       0.003
   0.09830077 -0.14188494  0.05016390       0.003
  -0.09830077 -0.02837699  0.13042614       0.003
  -0.07372558 -0.04256548  0.12039336       0.003
  -0.04915038 -0.05675397  0.11036058       0.003
  -0.02457519 -0.07094247  0.10032780       0.003
  -0.00000000 -0.05675397  0.08026224       0.003
   0.02457519 -0.07094247  0.07022946       0.003
   0.04915038 -0.08513096  0.06019668       0.003
   0.07372558 -0.09931946  0.05016390       0.003
   0.09830077 -0.11350795  0.04013112       0.003
  -0.09830077  0.00000000  0.12039336       0.003
  -0.07372558 -0.01418849  0.11036058       0.003
  -0.04915038 -0.02837699  0.10032780       0.003
  -0.02457519 -0.04256548  0.09029502       0.003
  -0.00000000 -0.02837699  0.07022946       0.003
   0.02457519 -0.04256548  0.06019668       0.003
   0.04915038 -0.05675397  0.05016390       0.003
   0.07372558 -0.07094247  0.04013112       0.003
   0.09830077 -0.08513096  0.03009834       0.003
  -0.09830077  0.02837699  0.11036058       0.003
  -0.07372558  0.01418849  0.10032780       0.003
  -0.04915038  0.00000000  0.09029502       0.003
  -0.02457519 -0.01418849  0.08026224       0.003
  -0.00000000  0.00000000  0.09029502       0.003
   0.02457519 -0.01418849  0.08026224       0.003
   0.04915038 -0.02837699  0.07022946       0.003
   0.07372558 -0.04256548  0.06019668       0.003
   0.09830077 -0.05675397  0.05016390       0.003
  -0.09830077  0.05675397  0.13042614       0.003
  -0.07372558  0.04256548  0.12039336       0.003
  -0.04915038  0.02837699  0.11036058       0.003
  -0.02457519  0.01418849  0.10032780       0.003
  -0.00000000  0.02837699  0.08026224       0.003
   0.02457519  0.01418849  0.07022946       0.003
   0.04915038 -0.00000000  0.06019668       0.003
   0.07372558 -0.01418849  0.05016390       0.003
   0.09830077 -0.02837699  0.04013112       0.003
  -0.09830077  0.08513096  0.12039336       0.003
  -0.07372558  0.07094247  0.11036058       0.003
  -0.04915038  0.05675397  0.10032780       0.003
  -0.02457519  0.04256548  0.09029502       0.003
  -0.00000000  0.05675397  0.07022946       0.003
   0.02457519  0.04256548  0.06019668       0.003
   0.04915038  0.02837699  0.05016390       0.003
   0.07372558  0.01418849  0.04013112       0.003
   0.09830077  0.00000000  0.03009834       0.003
  -0.09830077  0.11350795  0.11036058       0.003
  -0.07372558  0.09931946  0.10032780       0.003
  -0.04915038  0.08513096  0.09029502       0.003
  -0.02457519  0.07094247  0.08026224       0.003
  -0.00000000  0.08513096  0.06019668       0.003
   0.02457519  0.07094247  0.05016390       0.003
   0.04915038  0.05675397  0.04013112       0.003
   0.07372558  0.04256548  0.03009834       0.003
   0.09830077  0.02837699  0.02006556       0.003
  -0.09830077  0.14188494  0.10032780       0.003
  -0.07372558  0.12769644  0.09029502       0.003
  -0.04915038  0.11350795  0.08026224       0.003
  -0.02457519  0.09931946  0.07022946       0.003
  -0.00000000  0.11350795  0.05016390       0.003
   0.02457519  0.09931946  0.04013112       0.003
   0.04915038  0.08513096  0.03009834       0.003
   0.07372558  0.07094247  0.02006556       0.003
   0.09830077  0.05675397  0.01003278       0.003
  -0.09830077  0.17026192  0.09029502       0.003
  -0.07372558  0.15607343  0.08026224       0.003
  -0.04915038  0.14188494  0.07022946       0.003
  -0.02457519  0.12769644  0.06019668       0.003
  -0.00000000 -0.11350795  0.13042614       0.003
   0.02457519 -0.12769644  0.12039336       0.003
   0.04915038 -0.14188494  0.11036058       0.003
   0.07372558 -0.15607343  0.10032780       0.003
   0.09830077 -0.17026192  0.09029502       0.003
  -0.09830077 -0.05675397  0.17055726       0.003
  -0.07372558 -0.07094247  0.16052448       0.003
  -0.04915038 -0.08513096  0.15049170       0.003
  -0.02457519 -0.09931946  0.14045892       0.003
  -0.00000000 -0.08513096  0.12039336       0.003
   0.02457519 -0.09931946  0.11036058       0.003
   0.04915038 -0.11350795  0.10032780       0.003
   0.07372558 -0.12769644  0.09029502       0.003
   0.09830077 -0.14188494  0.08026224       0.003
  -0.09830077 -0.02837699  0.16052448       0.003
  -0.07372558 -0.04256548  0.15049170       0.003
  -0.04915038 -0.05675397  0.14045892       0.003
  -0.02457519 -0.07094247  0.13042614       0.003
  -0.00000000 -0.05675397  0.11036058       0.003
   0.02457519 -0.07094247  0.10032780       0.003
   0.04915038 -0.08513096  0.09029502       0.003
   0.07372558 -0.09931946  0.08026224       0.003
   0.09830077 -0.11350795  0.07022946       0.003
  -0.09830077 -0.00000000  0.15049170       0.003
  -0.07372558 -0.01418849  0.14045892       0.003
  -0.04915038 -0.02837699  0.13042614       0.003
  -0.02457519 -0.04256548  0.12039336       0.003
  -0.00000000 -0.02837699  0.10032780       0.003
   0.02457519 -0.04256548  0.09029502       0.003
   0.04915038 -0.05675397  0.08026224       0.003
   0.07372558 -0.07094247  0.07022946       0.003
   0.09830077 -0.08513096  0.06019668       0.003
  -0.09830077  0.02837699  0.14045892       0.003
  -0.07372558  0.01418849  0.13042614       0.003
  -0.04915038  0.00000000  0.12039336       0.003
  -0.02457519 -0.01418849  0.11036058       0.003
  -0.00000000  0.00000000  0.12039336       0.003
   0.02457519 -0.01418849  0.11036058       0.003
   0.04915038 -0.02837699  0.10032780       0.003
   0.07372558 -0.04256548  0.09029502       0.003
   0.09830077 -0.05675397  0.08026224       0.003
  -0.09830077  0.05675397  0.16052448       0.003
  -0.07372558  0.04256548  0.15049170       0.003
  -0.04915038  0.02837699  0.14045892       0.003
  -0.02457519  0.01418849  0.13042614       0.003
  -0.00000000  0.02837699  0.11036058       0.003
   0.02457519  0.01418849  0.10032780       0.003
   0.04915038 -0.00000000  0.09029502       0.003
   0.07372558 -0.01418849  0.08026224       0.003
   0.09830077 -0.02837699  0.07022946       0.003
  -0.09830077  0.08513096  0.15049170       0.003
  -0.07372558  0.07094247  0.14045892       0.003
  -0.04915038  0.05675397  0.13042614       0.003
  -0.02457519  0.04256548  0.12039336       0.003
  -0.00000000  0.05675397  0.10032780       0.003
   0.02457519  0.04256548  0.09029502       0.003
   0.04915038  0.02837699  0.08026224       0.003
   0.07372558  0.01418849  0.07022946       0.003
   0.09830077  0.00000000  0.06019668       0.003
  -0.09830077  0.11350795  0.14045892       0.003
  -0.07372558  0.09931946  0.13042614       0.003
  -0.04915038  0.08513096  0.12039336       0.003
  -0.02457519  0.07094247  0.11036058       0.003
  -0.00000000  0.08513096  0.09029502       0.003
   0.02457519  0.07094247  0.08026224       0.003
   0.04915038  0.05675397  0.07022946       0.003
   0.07372558  0.04256548  0.06019668       0.003
   0.09830077  0.02837699  0.05016390       0.003
  -0.09830077  0.14188494  0.13042614       0.003
  -0.07372558  0.12769644  0.12039336       0.003
  -0.04915038  0.11350795  0.11036058       0.003
  -0.02457519  0.09931946  0.10032780       0.003
  -0.00000000  0.11350795  0.08026224       0.003
   0.02457519  0.09931946  0.07022946       0.003
   0.04915038  0.08513096  0.06019668       0.003
   0.07372558  0.07094247  0.05016390       0.003
   0.09830077  0.05675397  0.04013112       0.003
  -0.09830077  0.17026192  0.12039336       0.003
  -0.07372558  0.15607343  0.11036058       0.003
  -0.04915038  0.14188494  0.10032780       0.003
  -0.02457519  0.12769644  0.09029502       0.003
  -0.00000000 -0.11350795  0.16052448       0.003
   0.02457519 -0.12769644  0.15049170       0.003
   0.04915038 -0.14188494  0.14045892       0.003
   0.07372558 -0.15607343  0.13042614       0.003
   0.09830077 -0.17026192  0.12039336       0.003
  -0.09830077 -0.05675397  0.20065560       0.003
  -0.07372558 -0.07094247  0.19062282       0.003
  -0.04915038 -0.08513096  0.18059004       0.003
  -0.02457519 -0.09931946  0.17055726       0.003
  -0.00000000 -0.08513096  0.15049170       0.003
   0.02457519 -0.09931946  0.14045892       0.003
   0.04915038 -0.11350795  0.13042614       0.003
   0.07372558 -0.12769644  0.12039336       0.003
   0.09830077 -0.14188494  0.11036058       0.003
  -0.09830077 -0.02837699  0.19062282       0.003
  -0.07372558 -0.04256548  0.18059004       0.003
  -0.04915038 -0.05675397  0.17055726       0.003
  -0.02457519 -0.07094247  0.16052448       0.003
  -0.00000000 -0.05675397  0.14045892       0.003
   0.02457519 -0.07094247  0.13042614       0.003
   0.04915038 -0.08513096  0.12039336       0.003
   0.07372558 -0.09931946  0.11036058       0.003
   0.09830077 -0.11350795  0.10032780       0.003
  -0.09830077  0.00000000  0.18059004       0.003
  -0.07372558 -0.01418849  0.17055726       0.003
  -0.04915038 -0.02837699  0.16052448       0.003
  -0.02457519 -0.04256548  0.15049170       0.003
  -0.00000000 -0.02837699  0.13042614       0.003
   0.02457519 -0.04256548  0.12039336       0.003
   0.04915038 -0.05675397  0.11036058       0.003
   0.07372558 -0.07094247  0.10032780       0.003
   0.09830077 -0.08513096  0.09029502       0.003
  -0.09830077  0.02837699  0.17055726       0.003
  -0.07372558  0.01418849  0.16052448       0.003
  -0.04915038  0.00000000  0.15049170       0.003
  -0.02457519 -0.01418849  0.14045892       0.003
 
 k-points in reciprocal lattice and weights: read from INCAR                         
   0.00000000  0.00000000  0.00000000       0.001
   0.11111111 -0.00000000 -0.00000000       0.003
   0.22222222 -0.00000000  0.00000000       0.003
   0.33333333 -0.00000000  0.00000000       0.003
   0.44444444 -0.00000000  0.00000000       0.003
  -0.00000000  0.11111111  0.00000000       0.003
   0.11111111  0.11111111 -0.00000000       0.003
   0.22222222  0.11111111  0.00000000       0.003
   0.33333333  0.11111111  0.00000000       0.003
   0.44444444  0.11111111 -0.00000000       0.003
  -0.44444444  0.11111111  0.00000000       0.003
  -0.33333333  0.11111111  0.00000000       0.003
  -0.22222222  0.11111111  0.00000000       0.003
  -0.11111111  0.11111111  0.00000000       0.003
  -0.00000000  0.22222222  0.00000000       0.003
   0.11111111  0.22222222  0.00000000       0.003
   0.22222222  0.22222222  0.00000000       0.003
   0.33333333  0.22222222  0.00000000       0.003
   0.44444444  0.22222222  0.00000000       0.003
  -0.44444444  0.22222222  0.00000000       0.003
  -0.33333333  0.22222222 -0.00000000       0.003
  -0.22222222  0.22222222  0.00000000       0.003
  -0.11111111  0.22222222  0.00000000       0.003
  -0.00000000  0.33333333  0.00000000       0.003
   0.11111111  0.33333333  0.00000000       0.003
   0.22222222  0.33333333  0.00000000       0.003
   0.33333333  0.33333333  0.00000000       0.003
   0.44444444  0.33333333  0.00000000       0.003
  -0.44444444  0.33333333  0.00000000       0.003
  -0.33333333  0.33333333  0.00000000       0.003
  -0.22222222  0.33333333  0.00000000       0.003
  -0.11111111  0.33333333  0.00000000       0.003
  -0.00000000  0.44444444  0.00000000       0.003
   0.11111111  0.44444444 -0.00000000       0.003
   0.22222222  0.44444444  0.00000000       0.003
   0.33333333  0.44444444 -0.00000000       0.003
   0.44444444  0.44444444  0.00000000       0.003
  -0.44444444  0.44444444  0.00000000       0.003
  -0.33333333  0.44444444  0.00000000       0.003
  -0.22222222  0.44444444  0.00000000       0.003
  -0.11111111  0.44444444  0.00000000       0.003
   0.00000000  0.00000000  0.11111111       0.003
   0.11111111 -0.00000000  0.11111111       0.003
   0.22222222 -0.00000000  0.11111111       0.003
   0.33333333 -0.00000000  0.11111111       0.003
   0.44444444 -0.00000000  0.11111111       0.003
  -0.44444444  0.00000000  0.11111111       0.003
  -0.33333333  0.00000000  0.11111111       0.003
  -0.22222222  0.00000000  0.11111111       0.003
  -0.11111111  0.00000000  0.11111111       0.003
   0.00000000  0.11111111  0.11111111       0.003
   0.11111111  0.11111111  0.11111111       0.003
   0.22222222  0.11111111  0.11111111       0.003
   0.33333333  0.11111111  0.11111111       0.003
   0.44444444  0.11111111  0.11111111       0.003
  -0.44444444  0.11111111  0.11111111       0.003
  -0.33333333  0.11111111  0.11111111       0.003
  -0.22222222  0.11111111  0.11111111       0.003
  -0.11111111  0.11111111  0.11111111       0.003
   0.00000000  0.22222222  0.11111111       0.003
   0.11111111  0.22222222  0.11111111       0.003
   0.22222222  0.22222222  0.11111111       0.003
   0.33333333  0.22222222  0.11111111       0.003
   0.44444444  0.22222222  0.11111111       0.003
  -0.44444444  0.22222222  0.11111111       0.003
  -0.33333333  0.22222222  0.11111111       0.003
  -0.22222222  0.22222222  0.11111111       0.003
  -0.11111111  0.22222222  0.11111111       0.003
   0.00000000  0.33333333  0.11111111       0.003
   0.11111111  0.33333333  0.11111111       0.003
   0.22222222  0.33333333  0.11111111       0.003
   0.33333333  0.33333333  0.11111111       0.003
   0.44444444  0.33333333  0.11111111       0.003
  -0.44444444  0.33333333  0.11111111       0.003
  -0.33333333  0.33333333  0.11111111       0.003
  -0.22222222  0.33333333  0.11111111       0.003
  -0.11111111  0.33333333  0.11111111       0.003
   0.00000000  0.44444444  0.11111111       0.003
   0.11111111  0.44444444  0.11111111       0.003
   0.22222222  0.44444444  0.11111111       0.003
   0.33333333  0.44444444  0.11111111       0.003
   0.44444444  0.44444444  0.11111111       0.003
  -0.44444444  0.44444444  0.11111111       0.003
  -0.33333333  0.44444444  0.11111111       0.003
  -0.22222222  0.44444444  0.11111111       0.003
  -0.11111111  0.44444444  0.11111111       0.003
   0.00000000 -0.44444444  0.11111111       0.003
   0.11111111 -0.44444444  0.11111111       0.003
   0.22222222 -0.44444444  0.11111111       0.003
   0.33333333 -0.44444444  0.11111111       0.003
   0.44444444 -0.44444444  0.11111111       0.003
  -0.44444444 -0.44444444  0.11111111       0.003
  -0.33333333 -0.44444444  0.11111111       0.003
  -0.22222222 -0.44444444  0.11111111       0.003
  -0.11111111 -0.44444444  0.11111111       0.003
   0.00000000 -0.33333333  0.11111111       0.003
   0.11111111 -0.33333333  0.11111111       0.003
   0.22222222 -0.33333333  0.11111111       0.003
   0.33333333 -0.33333333  0.11111111       0.003
   0.44444444 -0.33333333  0.11111111       0.003
  -0.44444444 -0.33333333  0.11111111       0.003
  -0.33333333 -0.33333333  0.11111111       0.003
  -0.22222222 -0.33333333  0.11111111       0.003
  -0.11111111 -0.33333333  0.11111111       0.003
   0.00000000 -0.22222222  0.11111111       0.003
   0.11111111 -0.22222222  0.11111111       0.003
   0.22222222 -0.22222222  0.11111111       0.003
   0.33333333 -0.22222222  0.11111111       0.003
   0.44444444 -0.22222222  0.11111111       0.003
  -0.44444444 -0.22222222  0.11111111       0.003
  -0.33333333 -0.22222222  0.11111111       0.003
  -0.22222222 -0.22222222  0.11111111       0.003
  -0.11111111 -0.22222222  0.11111111       0.003
   0.00000000 -0.11111111  0.11111111       0.003
   0.11111111 -0.11111111  0.11111111       0.003
   0.22222222 -0.11111111  0.11111111       0.003
   0.33333333 -0.11111111  0.11111111       0.003
   0.44444444 -0.11111111  0.11111111       0.003
  -0.44444444 -0.11111111  0.11111111       0.003
  -0.33333333 -0.11111111  0.11111111       0.003
  -0.22222222 -0.11111111  0.11111111       0.003
  -0.11111111 -0.11111111  0.11111111       0.003
   0.00000000  0.00000000  0.22222222       0.003
   0.11111111 -0.00000000  0.22222222       0.003
   0.22222222  0.00000000  0.22222222       0.003
   0.33333333 -0.00000000  0.22222222       0.003
   0.44444444 -0.00000000  0.22222222       0.003
  -0.44444444  0.00000000  0.22222222       0.003
  -0.33333333  0.00000000  0.22222222       0.003
  -0.22222222  0.00000000  0.22222222       0.003
  -0.11111111  0.00000000  0.22222222       0.003
   0.00000000  0.11111111  0.22222222       0.003
   0.11111111  0.11111111  0.22222222       0.003
   0.22222222  0.11111111  0.22222222       0.003
   0.33333333  0.11111111  0.22222222       0.003
   0.44444444  0.11111111  0.22222222       0.003
  -0.44444444  0.11111111  0.22222222       0.003
  -0.33333333  0.11111111  0.22222222       0.003
  -0.22222222  0.11111111  0.22222222       0.003
  -0.11111111  0.11111111  0.22222222       0.003
   0.00000000  0.22222222  0.22222222       0.003
   0.11111111  0.22222222  0.22222222       0.003
   0.22222222  0.22222222  0.22222222       0.003
   0.33333333  0.22222222  0.22222222       0.003
   0.44444444  0.22222222  0.22222222       0.003
  -0.44444444  0.22222222  0.22222222       0.003
  -0.33333333  0.22222222  0.22222222       0.003
  -0.22222222  0.22222222  0.22222222       0.003
  -0.11111111  0.22222222  0.22222222       0.003
  -0.00000000  0.33333333  0.22222222       0.003
   0.11111111  0.33333333  0.22222222       0.003
   0.22222222  0.33333333  0.22222222       0.003
   0.33333333  0.33333333  0.22222222       0.003
   0.44444444  0.33333333  0.22222222       0.003
  -0.44444444  0.33333333  0.22222222       0.003
  -0.33333333  0.33333333  0.22222222       0.003
  -0.22222222  0.33333333  0.22222222       0.003
  -0.11111111  0.33333333  0.22222222       0.003
  -0.00000000  0.44444444  0.22222222       0.003
   0.11111111  0.44444444  0.22222222       0.003
   0.22222222  0.44444444  0.22222222       0.003
   0.33333333  0.44444444  0.22222222       0.003
   0.44444444  0.44444444  0.22222222       0.003
  -0.44444444  0.44444444  0.22222222       0.003
  -0.33333333  0.44444444  0.22222222       0.003
  -0.22222222  0.44444444  0.22222222       0.003
  -0.11111111  0.44444444  0.22222222       0.003
   0.00000000 -0.44444444  0.22222222       0.003
   0.11111111 -0.44444444  0.22222222       0.003
   0.22222222 -0.44444444  0.22222222       0.003
   0.33333333 -0.44444444  0.22222222       0.003
   0.44444444 -0.44444444  0.22222222       0.003
  -0.44444444 -0.44444444  0.22222222       0.003
  -0.33333333 -0.44444444  0.22222222       0.003
  -0.22222222 -0.44444444  0.22222222       0.003
  -0.11111111 -0.44444444  0.22222222       0.003
   0.00000000 -0.33333333  0.22222222       0.003
   0.11111111 -0.33333333  0.22222222       0.003
   0.22222222 -0.33333333  0.22222222       0.003
   0.33333333 -0.33333333  0.22222222       0.003
   0.44444444 -0.33333333  0.22222222       0.003
  -0.44444444 -0.33333333  0.22222222       0.003
  -0.33333333 -0.33333333  0.22222222       0.003
  -0.22222222 -0.33333333  0.22222222       0.003
  -0.11111111 -0.33333333  0.22222222       0.003
   0.00000000 -0.22222222  0.22222222       0.003
   0.11111111 -0.22222222  0.22222222       0.003
   0.22222222 -0.22222222  0.22222222       0.003
   0.33333333 -0.22222222  0.22222222       0.003
   0.44444444 -0.22222222  0.22222222       0.003
  -0.44444444 -0.22222222  0.22222222       0.003
  -0.33333333 -0.22222222  0.22222222       0.003
  -0.22222222 -0.22222222  0.22222222       0.003
  -0.11111111 -0.22222222  0.22222222       0.003
   0.00000000 -0.11111111  0.22222222       0.003
[...]
 -0.000  -0.000  -0.000  -0.000   0.000   0.000  -0.000   0.000   0.000   0.000  -0.000   0.000  -0.000  -0.000   0.000  -0.000
 -0.000  -0.000   0.000  -0.000  -0.000   0.000   0.000  -0.000   0.000   0.000   0.000   0.000   0.000  -0.000  -0.000  -0.000
  0.000  -0.000   0.000   0.000   0.000   0.000   0.000  -0.000   0.000   0.000   0.000   0.000  -0.000   0.000   0.000   0.000
  0.000   0.000   0.000   0.000   0.000   0.000   0.000   0.000   0.000   0.000   0.000   0.000   0.000   0.000   0.000   0.000
  0.000   0.000   0.000   0.000   0.000   0.000   0.000   0.000   0.000   0.000   0.000   0.000   0.000   0.000   0.000   0.000
  0.000   0.000   0.000   0.000   0.000   0.000   0.000   0.000   0.000   0.000   0.000   0.000   0.000   0.000   0.000   0.000
  0.000   0.000   0.000   0.000   0.000   0.000   0.000   0.000   0.000   0.000   0.000   0.000   0.000   0.000   0.000   0.000
  0.000   0.000   0.000   0.000   0.000   0.000   0.000   0.000   0.000   0.000   0.000   0.000   0.000   0.000   0.000   0.000
  0.000   0.000   0.000   0.000   0.000   0.000   0.000   0.000   0.000   0.000   0.000   0.000   0.000   0.000   0.000   0.000
  0.000   0.000   0.000   0.000   0.000   0.000   0.000   0.000   0.000   0.000   0.000   0.000   0.000   0.000   0.000   0.000
  0.000   0.000   0.000   0.000   0.000   0.000   0.000   0.000   0.000   0.000   0.000   0.000   0.000   0.000   0.000   0.000
  0.000   0.000   0.000   0.000   0.000   0.000   0.000   0.000   0.000   0.000   0.000   0.000   0.000   0.000   0.000   0.000
  0.000   0.000   0.000   0.000   0.000   0.000   0.000   0.000   0.000   0.000   0.000   0.000   0.000   0.000   0.000   0.000
  0.000   0.000   0.000   0.000   0.000   0.000   0.000   0.000   0.000   0.000   0.000   0.000   0.000   0.000   0.000   0.000
  0.000   0.000   0.000   0.000   0.000   0.000   0.000   0.000   0.000   0.000   0.000   0.000   0.000   0.000   0.000   0.000
  0.000   0.000   0.000   0.000   0.000   0.000   0.000   0.000   0.000   0.000   0.000   0.000   0.000   0.000   0.000   0.000
  0.000   0.000   0.000   0.000   0.000   0.000   0.000   0.000   0.000   0.000   0.000   0.000   0.000   0.000   0.000   0.000
  0.000   0.000   0.000   0.000   0.000   0.000   0.000   0.000   0.000   0.000   0.000   0.000   0.000   0.000   0.000   0.000
  0.000   0.000   0.000   0.000   0.000   0.000   0.000   0.000   0.000   0.000   0.000   0.000   0.000   0.000   0.000   0.000
  0.000   0.000   0.000   0.000   0.000   0.000   0.000   0.000   0.000   0.000   0.000   0.000   0.000   0.000   0.000   0.000
  0.000   0.000   0.000   0.000   0.000   0.000   0.000   0.000   0.000   0.000   0.000   0.000   0.000   0.000   0.000   0.000
  0.000   0.000   0.000   0.000   0.000   0.000   0.000   0.000   0.000   0.000   0.000   0.000   0.000   0.000   0.000   0.000
  0.000   0.000   0.000   0.000   0.000   0.000   0.000   0.000   0.000   0.000   0.000   0.000   0.000   0.000   0.000   0.000
 total augmentation occupancy for first ion, spin component:           3
 -0.000   0.000   0.000  -0.000  -0.000   0.000  -0.000  -0.000   0.000  -0.000   0.000  -0.000  -0.000  -0.000   0.000  -0.000
  0.000  -0.000  -0.000  -0.000   0.000  -0.000   0.000   0.000   0.000  -0.000  -0.000   0.000   0.000   0.000   0.000  -0.000
  0.000  -0.000  -0.000   0.000  -0.000  -0.000   0.000   0.000  -0.000   0.000  -0.000  -0.000   0.000   0.000   0.000   0.000
 -0.000  -0.000   0.000  -0.000   0.000   0.000   0.000  -0.000   0.000  -0.000  -0.000   0.000  -0.000   0.000  -0.000  -0.000
 -0.000   0.000  -0.000   0.000  -0.000   0.000  -0.000   0.000  -0.000   0.000  -0.000  -0.000   0.000  -0.000   0.000   0.000
  0.000  -0.000  -0.000   0.000   0.000   0.000  -0.000   0.000   0.000   0.000   0.000  -0.000   0.000  -0.000  -0.000   0.000
 -0.000   0.000   0.000   0.000  -0.000  -0.000   0.000   0.000  -0.000   0.000  -0.000   0.000  -0.000  -0.000  -0.000   0.000
 -0.000   0.000   0.000  -0.000   0.000   0.000   0.000   0.000  -0.000   0.000   0.000   0.000   0.000  -0.000  -0.000  -0.000
  0.000   0.000  -0.000   0.000  -0.000   0.000  -0.000  -0.000   0.000  -0.000   0.000   0.000   0.000   0.000   0.000   0.000
 -0.000  -0.000   0.000  -0.000   0.000   0.000   0.000   0.000  -0.000   0.000   0.000   0.000   0.000  -0.000   0.000  -0.000
  0.000  -0.000  -0.000  -0.000  -0.000   0.000  -0.000   0.000   0.000   0.000   0.000  -0.000  -0.000   0.000   0.000  -0.000
 -0.000   0.000  -0.000   0.000  -0.000  -0.000   0.000   0.000   0.000   0.000  -0.000   0.000  -0.000   0.000  -0.000   0.000
 -0.000   0.000   0.000  -0.000   0.000   0.000  -0.000   0.000   0.000   0.000  -0.000  -0.000   0.000   0.000   0.000   0.000
 -0.000   0.000   0.000   0.000  -0.000  -0.000  -0.000  -0.000   0.000  -0.000   0.000   0.000   0.000   0.000   0.000   0.000
  0.000   0.000   0.000  -0.000   0.000  -0.000  -0.000  -0.000   0.000   0.000   0.000  -0.000   0.000   0.000   0.000   0.000
 -0.000  -0.000   0.000  -0.000   0.000   0.000   0.000  -0.000   0.000  -0.000  -0.000   0.000   0.000   0.000   0.000  -0.000
  0.000  -0.000  -0.000  -0.000  -0.000   0.000   0.000   0.000  -0.000  -0.000   0.000   0.000   0.000   0.000  -0.000   0.000
  0.000   0.000   0.000   0.000   0.000   0.000   0.000   0.000   0.000   0.000   0.000   0.000   0.000   0.000   0.000   0.000
  0.000   0.000   0.000   0.000   0.000   0.000   0.000   0.000   0.000   0.000   0.000   0.000   0.000   0.000   0.000   0.000
  0.000   0.000   0.000   0.000   0.000   0.000   0.000   0.000   0.000   0.000   0.000   0.000   0.000   0.000   0.000   0.000
  0.000   0.000   0.000   0.000   0.000   0.000   0.000   0.000   0.000   0.000   0.000   0.000   0.000   0.000   0.000   0.000
  0.000   0.000   0.000   0.000   0.000   0.000   0.000   0.000   0.000   0.000   0.000   0.000   0.000   0.000   0.000   0.000
  0.000   0.000   0.000   0.000   0.000   0.000   0.000   0.000   0.000   0.000   0.000   0.000   0.000   0.000   0.000   0.000
  0.000   0.000   0.000   0.000   0.000   0.000   0.000   0.000   0.000   0.000   0.000   0.000   0.000   0.000   0.000   0.000
  0.000   0.000   0.000   0.000   0.000   0.000   0.000   0.000   0.000   0.000   0.000   0.000   0.000   0.000   0.000   0.000
  0.000   0.000   0.000   0.000   0.000   0.000   0.000   0.000   0.000   0.000   0.000   0.000   0.000   0.000   0.000   0.000
  0.000   0.000   0.000   0.000   0.000   0.000   0.000   0.000   0.000   0.000   0.000   0.000   0.000   0.000   0.000   0.000
  0.000   0.000   0.000   0.000   0.000   0.000   0.000   0.000   0.000   0.000   0.000   0.000   0.000   0.000   0.000   0.000
  0.000   0.000   0.000   0.000   0.000   0.000   0.000   0.000   0.000   0.000   0.000   0.000   0.000   0.000   0.000   0.000
  0.000   0.000   0.000   0.000   0.000   0.000   0.000   0.000   0.000   0.000   0.000   0.000   0.000   0.000   0.000   0.000
  0.000   0.000   0.000   0.000   0.000   0.000   0.000   0.000   0.000   0.000   0.000   0.000   0.000   0.000   0.000   0.000
  0.000   0.000   0.000   0.000   0.000   0.000   0.000   0.000   0.000   0.000   0.000   0.000   0.000   0.000   0.000   0.000
  0.000   0.000   0.000   0.000   0.000   0.000   0.000   0.000   0.000   0.000   0.000   0.000   0.000   0.000   0.000   0.000
  0.000   0.000   0.000   0.000   0.000   0.000   0.000   0.000   0.000   0.000   0.000   0.000   0.000   0.000   0.000   0.000
  0.000   0.000   0.000   0.000   0.000   0.000   0.000   0.000   0.000   0.000   0.000   0.000   0.000   0.000   0.000   0.000
  0.000   0.000   0.000   0.000   0.000   0.000   0.000   0.000   0.000   0.000   0.000   0.000   0.000   0.000   0.000   0.000
  0.000   0.000   0.000   0.000   0.000   0.000   0.000   0.000   0.000   0.000   0.000   0.000   0.000   0.000   0.000   0.000
 total augmentation occupancy for first ion, spin component:           4
 -0.000  -0.000  -0.000  -0.000   0.000   0.000   0.000   0.000   0.000   0.000   0.000   0.000   0.000  -0.000  -0.000  -0.000
 -0.000  -0.000  -0.000   0.000   0.000   0.000   0.000   0.000  -0.000  -0.000   0.000   0.000  -0.000  -0.000  -0.000  -0.000
 -0.000  -0.000  -0.000  -0.000  -0.000  -0.000   0.000   0.000   0.000   0.000  -0.000   0.000   0.000   0.000   0.000  -0.000
 -0.000   0.000  -0.000  -0.000  -0.000   0.000  -0.000   0.000   0.000   0.000   0.000   0.000  -0.000   0.000   0.000  -0.000
  0.000   0.000  -0.000  -0.000  -0.000  -0.000  -0.000   0.000   0.000   0.000  -0.000  -0.000   0.000   0.000   0.000   0.000
  0.000   0.000  -0.000   0.000  -0.000   0.000  -0.000   0.000   0.000   0.000   0.000   0.000  -0.000   0.000   0.000   0.000
  0.000   0.000   0.000  -0.000  -0.000  -0.000   0.000  -0.000  -0.000   0.000  -0.000   0.000   0.000  -0.000   0.000   0.000
  0.000   0.000   0.000   0.000   0.000   0.000  -0.000   0.000  -0.000  -0.000   0.000  -0.000   0.000  -0.000  -0.000   0.000
  0.000  -0.000   0.000   0.000   0.000   0.000  -0.000  -0.000   0.000  -0.000  -0.000  -0.000   0.000   0.000  -0.000   0.000
  0.000  -0.000   0.000   0.000   0.000   0.000   0.000  -0.000  -0.000   0.000   0.000  -0.000  -0.000   0.000  -0.000  -0.000
  0.000   0.000  -0.000   0.000  -0.000   0.000  -0.000   0.000  -0.000   0.000   0.000  -0.000  -0.000   0.000   0.000   0.000
  0.000   0.000   0.000   0.000  -0.000   0.000   0.000  -0.000  -0.000  -0.000  -0.000   0.000   0.000  -0.000   0.000   0.000
  0.000  -0.000   0.000  -0.000   0.000  -0.000   0.000   0.000   0.000  -0.000  -0.000   0.000   0.000   0.000  -0.000  -0.000
 -0.000  -0.000   0.000   0.000   0.000   0.000  -0.000  -0.000   0.000   0.000   0.000  -0.000   0.000  -0.000   0.000   0.000
 -0.000  -0.000   0.000   0.000   0.000   0.000   0.000  -0.000  -0.000  -0.000   0.000   0.000  -0.000   0.000  -0.000  -0.000
 -0.000  -0.000  -0.000  -0.000   0.000   0.000   0.000   0.000   0.000  -0.000   0.000   0.000  -0.000   0.000  -0.000  -0.000
 -0.000   0.000   0.000   0.000   0.000   0.000   0.000   0.000   0.000  -0.000   0.000   0.000  -0.000   0.000  -0.000   0.000
  0.000   0.000   0.000   0.000   0.000   0.000   0.000   0.000   0.000   0.000   0.000   0.000   0.000   0.000   0.000   0.000
  0.000   0.000   0.000   0.000   0.000   0.000   0.000   0.000   0.000   0.000   0.000   0.000   0.000   0.000   0.000   0.000
  0.000   0.000   0.000   0.000   0.000   0.000   0.000   0.000   0.000   0.000   0.000   0.000   0.000   0.000   0.000   0.000
  0.000   0.000   0.000   0.000   0.000   0.000   0.000   0.000   0.000   0.000   0.000   0.000   0.000   0.000   0.000   0.000
  0.000   0.000   0.000   0.000   0.000   0.000   0.000   0.000   0.000   0.000   0.000   0.000   0.000   0.000   0.000   0.000
  0.000   0.000   0.000   0.000   0.000   0.000   0.000   0.000   0.000   0.000   0.000   0.000   0.000   0.000   0.000   0.000
  0.000   0.000   0.000   0.000   0.000   0.000   0.000   0.000   0.000   0.000   0.000   0.000   0.000   0.000   0.000   0.000
  0.000   0.000   0.000   0.000   0.000   0.000   0.000   0.000   0.000   0.000   0.000   0.000   0.000   0.000   0.000   0.000
  0.000   0.000   0.000   0.000   0.000   0.000   0.000   0.000   0.000   0.000   0.000   0.000   0.000   0.000   0.000   0.000
  0.000   0.000   0.000   0.000   0.000   0.000   0.000   0.000   0.000   0.000   0.000   0.000   0.000   0.000   0.000   0.000
  0.000   0.000   0.000   0.000   0.000   0.000   0.000   0.000   0.000   0.000   0.000   0.000   0.000   0.000   0.000   0.000
  0.000   0.000   0.000   0.000   0.000   0.000   0.000   0.000   0.000   0.000   0.000   0.000   0.000   0.000   0.000   0.000
  0.000   0.000   0.000   0.000   0.000   0.000   0.000   0.000   0.000   0.000   0.000   0.000   0.000   0.000   0.000   0.000
  0.000   0.000   0.000   0.000   0.000   0.000   0.000   0.000   0.000   0.000   0.000   0.000   0.000   0.000   0.000   0.000
  0.000   0.000   0.000   0.000   0.000   0.000   0.000   0.000   0.000   0.000   0.000   0.000   0.000   0.000   0.000   0.000
  0.000   0.000   0.000   0.000   0.000   0.000   0.000   0.000   0.000   0.000   0.000   0.000   0.000   0.000   0.000   0.000
  0.000   0.000   0.000   0.000   0.000   0.000   0.000   0.000   0.000   0.000   0.000   0.000   0.000   0.000   0.000   0.000
  0.000   0.000   0.000   0.000   0.000   0.000   0.000   0.000   0.000   0.000   0.000   0.000   0.000   0.000   0.000   0.000
  0.000   0.000   0.000   0.000   0.000   0.000   0.000   0.000   0.000   0.000   0.000   0.000   0.000   0.000   0.000   0.000
  0.000   0.000   0.000   0.000   0.000   0.000   0.000   0.000   0.000   0.000   0.000   0.000   0.000   0.000   0.000   0.000


------------------------ aborting loop because EDIFF is reached ----------------------------------------


    CHARGE:  cpu time    1.5020: real time    1.5009
    FORLOC:  cpu time    0.0055: real time    0.0055
    FORNL :  cpu time    3.0041: real time    3.0018
    STRESS:  cpu time    7.5981: real time    7.5925
    FORCOR:  cpu time    0.1866: real time    0.1864
    FORHAR:  cpu time    0.0170: real time    0.0170
    MIXING:  cpu time    0.0968: real time    0.0968
    OFIELD:  cpu time    0.0001: real time    0.0000

 ---------------------------------------------------------------------------------------------

         DFTD3 V3.0 Rev 1        
 Edisp (eV)   -0.20577

 E6    (eV) :    -0.1078
 E8    (eV) :    -0.0980
 % E8        : 47.62
    FORVDW:  cpu time    0.0150: real time    0.0153

  FORCE on cell =-STRESS in cart. coord.  units (eV):
  Direction    XX          YY          ZZ          XY          YZ          ZX
  --------------------------------------------------------------------------------------
  Alpha Z    64.91123    64.91123    64.91123
  Ewald    -557.65863  -557.65863  -557.65863    -0.00000    -0.00000    -0.00000
  Hartree   340.06718   340.06719   340.06719    -0.00001    -0.00000    -0.00001
  E(xc)     -99.19983   -99.19983   -99.19983     0.00000     0.00000     0.00000
  Local     -74.32772   -74.32773   -74.32773     0.00002     0.00001     0.00002
  n-local    65.96739    65.96738    65.96738    -0.00003    -0.00002    -0.00003
  augment    98.92600    98.92600    98.92600     0.00000     0.00000     0.00000
  Kinetic   161.55946   161.55946   161.55947     0.00000     0.00000     0.00000
  Fock        0.00000     0.00000     0.00000     0.00000     0.00000     0.00000
  vdW        -0.25139    -0.25139    -0.25139     0.00000    -0.00000     0.00000
  -------------------------------------------------------------------------------------
  Total      -0.00629    -0.00630    -0.00631    -0.00000    -0.00001    -0.00001
  in kB      -0.15426    -0.15464    -0.15470    -0.00007    -0.00016    -0.00022
  external pressure =       -0.15 kB  Pullay stress =        0.00 kB


 VOLUME and BASIS-vectors are now :
 -----------------------------------------------------------------------------
  energy-cutoff  :      600.00
  volume of cell :       65.32
      direct lattice vectors                 reciprocal lattice vectors
     4.520564769  0.000000000  0.000000000     0.221211298 -0.127716402 -0.090309134
     2.260282385  3.914923930 -0.000000000     0.000000000  0.255432805 -0.090309134
     2.260282385  1.304974643  3.691025678    -0.000000000  0.000000000  0.270927403

  length of vectors
     4.520564769  4.520564769  4.520564769     0.270927403  0.270927403  0.270927403


 FORCES acting on ions
    electron-ion (+dipol)            ewald-force                    non-local-force                 convergence-correction
 -----------------------------------------------------------------------------------------------
   0.336E-13 0.113E-12 -.110E-13   -.116E-14 0.583E-15 0.129E-14   0.529E-22 0.794E-22 -.529E-22   -.163E-12 0.935E-13 -.125E-12
 -----------------------------------------------------------------------------------------------
   0.336E-13 0.113E-12 -.110E-13   -.116E-14 0.583E-15 0.129E-14   0.529E-22 0.794E-22 -.529E-22   -.163E-12 0.935E-13 -.125E-12
 
 
 POSITION                                       TOTAL-FORCE (eV/Angst)
 -----------------------------------------------------------------------------------
      0.00000      0.00000      0.00000         0.000000      0.000000      0.000000
 -----------------------------------------------------------------------------------
    total drift:                               -0.000000      0.000000     -0.000000


--------------------------------------------------------------------------------------------------------



  FREE ENERGIE OF THE ION-ELECTRON SYSTEM (eV)
  ---------------------------------------------------
  free  energy   TOTEN  =        -2.02432897 eV

  energy  without entropy=       -2.02473112  energy(sigma->0) =       -2.02446302
 
 d Force = 0.0000000E+00[ 0.000E+00, 0.000E+00]  d Energy = 0.7067512E-05-0.707E-05
 d Force = 0.0000000E+00[ 0.000E+00, 0.000E+00]  d Ewald  = 0.2614461E+00-0.261E+00


--------------------------------------------------------------------------------------------------------


    POTLOK:  cpu time    0.4821: real time    0.4818


--------------------------------------------------------------------------------------------------------


 Quasi-Newton relaxation of ions (Broydens 2nd method)
  g(Force)  = 0.000E+00   g(Stress)= 0.115E-05

 retain information from N=  1 steps
 eigenvalues of (default step * inverse Hessian matrix)
  average eigenvalue of G=   1.6365
 eigenvalue spectrum of G is  1.6365


--------------------------------------------------------------------------------------------------------


  
 reached required accuracy - stopping structural energy minimisation
     LOOP+:  cpu time  127.7453: real time  127.6591
    4ORBIT:  cpu time    0.0000: real time    0.0000

 Spin-Orbit-Coupling matrix elements

 Ion:    1  E_soc:     -3.7099035
 l=   1
     0.0000000    -0.4916304    -0.4916304
    -0.4916304     0.0000000    -0.4916304
    -0.4916304    -0.4916304     0.0000000
 l=   2
     0.0000000    -0.0253371     0.0000000    -0.0253371    -0.1013495
    -0.0253371     0.0000000    -0.0760122    -0.0253367    -0.0253371
     0.0000000    -0.0760122     0.0000000    -0.0760122     0.0000000
    -0.0253371    -0.0253367    -0.0760122     0.0000000    -0.0253371
    -0.1013495    -0.0253371     0.0000000    -0.0253371     0.0000000
 l=   3
     0.0000000    -0.0000000     0.0000000     0.0000000     0.0000000    -0.0000000    -0.0000004
    -0.0000000     0.0000000    -0.0000001     0.0000000    -0.0000001    -0.0000001    -0.0000001
     0.0000000    -0.0000001     0.0000000    -0.0000002    -0.0000001    -0.0000001     0.0000000
     0.0000000     0.0000000    -0.0000002     0.0000000    -0.0000002     0.0000000     0.0000000
     0.0000000    -0.0000001    -0.0000001    -0.0000002     0.0000000    -0.0000001     0.0000000
    -0.0000000    -0.0000001    -0.0000001     0.0000000    -0.0000001     0.0000000    -0.0000001
    -0.0000004    -0.0000001     0.0000000     0.0000000     0.0000000    -0.0000001     0.0000000

 total amount of memory used by VASP MPI-rank0   333774. kBytes
=======================================================================

   base      :      30000. kBytes
   nonl-proj :      59971. kBytes
   fftplans  :      27540. kBytes
   grid      :      22394. kBytes
   one-center:        262. kBytes
   wavefun   :     193607. kBytes
 
  
  
 General timing and accounting informations for this job:
 ========================================================
  
                  Total CPU time used (sec):      467.464
                            User time (sec):      464.881
                          System time (sec):        2.583
                         Elapsed time (sec):      467.282
  
                   Maximum memory used (kb):      505360.
                   Average memory used (kb):           0.
  
                          Minor page faults:       150603
                          Major page faults:            0
                 Voluntary context switches:          954
