Cn_FCC                                  
           1
     4.521271    0.000000    0.000000
     2.260636    3.915536   -0.000000
     2.260636    1.305179    3.691603
   Rn
   1
Direct configuration=     1
   0.00000000  0.00000000  0.00000000
Cn_FCC                                  
           1
     4.520565    0.000000    0.000000
     2.260282    3.914924   -0.000000
     2.260282    1.304975    3.691026
   Rn
   1
Direct configuration=     2
   0.00000000  0.00000000  0.00000000
