Cn_FCC                                  
           1
     4.522006    0.000000    0.000000
     2.261003    3.916172   -0.000000
     2.261003    1.305391    3.692202
   Rn
   1
Direct configuration=     1
   0.00000000  0.00000000  0.00000000
Cn_FCC                                  
           1
     4.521271    0.000000    0.000000
     2.260636    3.915536   -0.000000
     2.260636    1.305179    3.691603
   Rn
   1
Direct configuration=     2
   0.00000000  0.00000000  0.00000000
