   1   1   0   0
  0.3298244E+02  0.3599697E-09  0.3599697E-09  0.3599697E-09  0.1000000E-15
  1.000000000000000E-004
  CAR 
 Og_FCC                                  
     92.67026966    -26.02613286  301     -4.85860774      1.00000000
    -26.026  0.0000E+00  0.0000E+00
    -25.630  0.0000E+00  0.0000E+00
    -25.235  0.0000E+00  0.0000E+00
    -24.839  0.0000E+00  0.0000E+00
    -24.444  0.0000E+00  0.0000E+00
    -24.048  0.0000E+00  0.0000E+00
    -23.652  0.0000E+00  0.0000E+00
    -23.257  0.0000E+00  0.0000E+00
    -22.861  0.0000E+00  0.0000E+00
    -22.465  0.0000E+00  0.0000E+00
    -22.070  0.0000E+00  0.0000E+00
    -21.674  0.0000E+00  0.0000E+00
    -21.278  0.0000E+00  0.0000E+00
    -20.883  0.0000E+00  0.0000E+00
    -20.487  0.0000E+00  0.1389E+00
    -20.091  0.0000E+00  0.2000E+01
    -19.696  0.0000E+00  0.2000E+01
    -19.300  0.0000E+00  0.2000E+01
    -18.904  0.0000E+00  0.2000E+01
    -18.509  0.0000E+00  0.2000E+01
    -18.113  0.0000E+00  0.2000E+01
    -17.717  0.0000E+00  0.2000E+01
    -17.322  0.0000E+00  0.2000E+01
    -16.926  0.0000E+00  0.2000E+01
    -16.530  0.0000E+00  0.2000E+01
    -16.135  0.0000E+00  0.2000E+01
    -15.739  0.0000E+00  0.2000E+01
    -15.343  0.0000E+00  0.2000E+01
    -14.948  0.0000E+00  0.2000E+01
    -14.552  0.0000E+00  0.2000E+01
    -14.156  0.0000E+00  0.2000E+01
    -13.761  0.0000E+00  0.2000E+01
    -13.365  0.0000E+00  0.2000E+01
    -12.970  0.0000E+00  0.2000E+01
    -12.574  0.0000E+00  0.2000E+01
    -12.178  0.0000E+00  0.2000E+01
    -11.783  0.0000E+00  0.2000E+01
    -11.387  0.0000E+00  0.2000E+01
    -10.991  0.0000E+00  0.2000E+01
    -10.596  0.0000E+00  0.2000E+01
    -10.200  0.0000E+00  0.2000E+01
     -9.804  0.0000E+00  0.2000E+01
     -9.409  0.0000E+00  0.2000E+01
     -9.013  0.0000E+00  0.2000E+01
     -8.617  0.0000E+00  0.2000E+01
     -8.222  0.0000E+00  0.2000E+01
     -7.826  0.0000E+00  0.2000E+01
     -7.430  0.0000E+00  0.2000E+01
     -7.035  0.0000E+00  0.2000E+01
     -6.639  0.0000E+00  0.2000E+01
     -6.243  0.0000E+00  0.2731E+01
     -5.848  0.0000E+00  0.3861E+01
     -5.452  0.0000E+00  0.5111E+01
     -5.056  0.0000E+00  0.7593E+01
     -4.661  0.0000E+00  0.8000E+01
     -4.265  0.0000E+00  0.8000E+01
     -3.869  0.0000E+00  0.8000E+01
     -3.474  0.0000E+00  0.8000E+01
     -3.078  0.0000E+00  0.8000E+01
     -2.683  0.0000E+00  0.8000E+01
     -2.287  0.0000E+00  0.8000E+01
     -1.891  0.0000E+00  0.8000E+01
     -1.496  0.0000E+00  0.8000E+01
     -1.100  0.0000E+00  0.8000E+01
     -0.704  0.0000E+00  0.8000E+01
     -0.309  0.0000E+00  0.8000E+01
      0.087  0.0000E+00  0.8000E+01
      0.483  0.0000E+00  0.8000E+01
      0.878  0.0000E+00  0.8000E+01
      1.274  0.0000E+00  0.8000E+01
      1.670  0.0000E+00  0.8000E+01
      2.065  0.0000E+00  0.8000E+01
      2.461  0.0000E+00  0.8000E+01
      2.857  0.0000E+00  0.8000E+01
      3.252  0.0000E+00  0.8000E+01
      3.648  0.0000E+00  0.8000E+01
      4.044  0.0000E+00  0.8000E+01
      4.439  0.0000E+00  0.8000E+01
      4.835  0.0000E+00  0.8009E+01
      5.231  0.0000E+00  0.8009E+01
      5.626  0.0000E+00  0.8083E+01
      6.022  0.0000E+00  0.8139E+01
      6.418  0.0000E+00  0.8139E+01
      6.813  0.0000E+00  0.8250E+01
      7.209  0.0000E+00  0.8630E+01
      7.605  0.0000E+00  0.8889E+01
      8.000  0.0000E+00  0.9444E+01
      8.396  0.0000E+00  0.9667E+01
      8.791  0.0000E+00  0.1003E+02
      9.187  0.6420E-01  0.1033E+02
      9.583  0.0000E+00  0.1097E+02
      9.978  0.0000E+00  0.1164E+02
     10.374  0.0000E+00  0.1208E+02
     10.770  0.0000E+00  0.1269E+02
     11.165  0.1543E-01  0.1333E+02
     11.561  0.0000E+00  0.1379E+02
     11.957  0.2340E-01  0.1396E+02
     12.352  0.0000E+00  0.1458E+02
     12.748  0.0000E+00  0.1497E+02
     13.144  0.0000E+00  0.1542E+02
     13.539  0.0000E+00  0.1586E+02
     13.935  0.0000E+00  0.1586E+02
     14.331  0.0000E+00  0.1656E+02
     14.726  0.0000E+00  0.1703E+02
     15.122  0.0000E+00  0.1723E+02
     15.518  0.5730E-14  0.1745E+02
     15.913  0.0000E+00  0.1851E+02
     16.309  0.0000E+00  0.1861E+02
     16.705  0.0000E+00  0.1913E+02
     17.100  0.0000E+00  0.1978E+02
     17.496  0.0000E+00  0.2006E+02
     17.892  0.0000E+00  0.2051E+02
     18.287  0.0000E+00  0.2103E+02
     18.683  0.0000E+00  0.2136E+02
     19.079  0.0000E+00  0.2218E+02
     19.474  0.0000E+00  0.2240E+02
     19.870  0.0000E+00  0.2297E+02
     20.265  0.0000E+00  0.2303E+02
     20.661  0.0000E+00  0.2419E+02
     21.057  0.0000E+00  0.2460E+02
     21.452  0.0000E+00  0.2477E+02
     21.848  0.0000E+00  0.2544E+02
     22.244  0.0000E+00  0.2585E+02
     22.639  0.0000E+00  0.2644E+02
     23.035  0.0000E+00  0.2700E+02
     23.431  0.4909E-04  0.2725E+02
     23.826  0.0000E+00  0.2753E+02
     24.222  0.0000E+00  0.2818E+02
     24.618  0.0000E+00  0.2825E+02
     25.013  0.0000E+00  0.2858E+02
     25.409  0.0000E+00  0.2888E+02
     25.805  0.5617E+00  0.2981E+02
     26.200  0.0000E+00  0.3014E+02
     26.596  0.0000E+00  0.3017E+02
     26.992  0.0000E+00  0.3039E+02
     27.387  0.0000E+00  0.3122E+02
     27.783  0.0000E+00  0.3188E+02
     28.179  0.1048E-02  0.3273E+02
     28.574  0.2808E+00  0.3342E+02
     28.970  0.0000E+00  0.3386E+02
     29.366  0.0000E+00  0.3425E+02
     29.761  0.0000E+00  0.3436E+02
     30.157  0.0000E+00  0.3458E+02
     30.552  0.0000E+00  0.3483E+02
     30.948  0.5617E+00  0.3569E+02
     31.344  0.0000E+00  0.3618E+02
     31.739  0.0000E+00  0.3662E+02
     32.135  0.0000E+00  0.3736E+02
     32.531  0.0000E+00  0.3758E+02
     32.926  0.0000E+00  0.3874E+02
     33.322  0.5072E+00  0.3913E+02
     33.718  0.0000E+00  0.3937E+02
     34.113  0.0000E+00  0.4006E+02
     34.509  0.0000E+00  0.4018E+02
     34.905  0.0000E+00  0.4125E+02
     35.300  0.0000E+00  0.4155E+02
     35.696  0.0000E+00  0.4156E+02
     36.092  0.0000E+00  0.4234E+02
     36.487  0.0000E+00  0.4262E+02
     36.883  0.0000E+00  0.4406E+02
     37.279  0.9388E-01  0.4482E+02
     37.674  0.0000E+00  0.4541E+02
     38.070  0.0000E+00  0.4563E+02
     38.466  0.0000E+00  0.4619E+02
     38.861  0.0000E+00  0.4670E+02
     39.257  0.0000E+00  0.4693E+02
     39.653  0.0000E+00  0.4744E+02
     40.048  0.3744E+00  0.4801E+02
     40.444  0.0000E+00  0.4845E+02
     40.840  0.2998E-02  0.4890E+02
     41.235  0.0000E+00  0.4975E+02
     41.631  0.0000E+00  0.5056E+02
     42.026  0.0000E+00  0.5112E+02
     42.422  0.0000E+00  0.5146E+02
     42.818  0.7017E-01  0.5219E+02
     43.213  0.1872E+00  0.5307E+02
     43.609  0.5617E+00  0.5376E+02
     44.005  0.0000E+00  0.5459E+02
     44.400  0.0000E+00  0.5528E+02
     44.796  0.3176E-01  0.5573E+02
     45.192  0.0000E+00  0.5598E+02
     45.587  0.0000E+00  0.5643E+02
     45.983  0.0000E+00  0.5687E+02
     46.379  0.0000E+00  0.5706E+02
     46.774  0.0000E+00  0.5780E+02
     47.170  0.0000E+00  0.5882E+02
     47.566  0.5617E+00  0.5949E+02
     47.961  0.0000E+00  0.6027E+02
     48.357  0.0000E+00  0.6064E+02
     48.753  0.0000E+00  0.6147E+02
     49.148  0.0000E+00  0.6210E+02
     49.544  0.0000E+00  0.6294E+02
     49.940  0.7020E-01  0.6371E+02
     50.335  0.3717E-08  0.6419E+02
     50.731  0.2808E+00  0.6496E+02
     51.127  0.0000E+00  0.6550E+02
     51.522  0.0000E+00  0.6606E+02
     51.918  0.1338E-07  0.6650E+02
     52.313  0.5919E-09  0.6765E+02
     52.709  0.7318E-01  0.6818E+02
     53.105  0.0000E+00  0.6900E+02
     53.500  0.5617E+00  0.6961E+02
     53.896  0.0000E+00  0.6985E+02
     54.292  0.0000E+00  0.7007E+02
     54.687  0.0000E+00  0.7119E+02
     55.083  0.0000E+00  0.7161E+02
     55.479  0.0000E+00  0.7203E+02
     55.874  0.0000E+00  0.7253E+02
     56.270  0.0000E+00  0.7331E+02
     56.666  0.0000E+00  0.7408E+02
     57.061  0.0000E+00  0.7497E+02
     57.457  0.0000E+00  0.7580E+02
     57.853  0.0000E+00  0.7664E+02
     58.248  0.4680E-01  0.7675E+02
     58.644  0.9590E-01  0.7720E+02
     59.040  0.0000E+00  0.7816E+02
     59.435  0.4584E-03  0.7905E+02
     59.831  0.0000E+00  0.7932E+02
     60.227  0.5616E+00  0.8053E+02
     60.622  0.0000E+00  0.8134E+02
     61.018  0.0000E+00  0.8217E+02
     61.414  0.0000E+00  0.8300E+02
     61.809  0.0000E+00  0.8325E+02
     62.205  0.0000E+00  0.8336E+02
     62.601  0.0000E+00  0.8358E+02
     62.996  0.0000E+00  0.8422E+02
     63.392  0.0000E+00  0.8568E+02
     63.787  0.0000E+00  0.8669E+02
     64.183  0.0000E+00  0.8754E+02
     64.579  0.0000E+00  0.8787E+02
     64.974  0.0000E+00  0.8811E+02
     65.370  0.0000E+00  0.8926E+02
     65.766  0.0000E+00  0.9087E+02
     66.161  0.0000E+00  0.9104E+02
     66.557  0.2300E-01  0.9156E+02
     66.953  0.0000E+00  0.9210E+02
     67.348  0.0000E+00  0.9330E+02
     67.744  0.0000E+00  0.9398E+02
     68.140  0.0000E+00  0.9469E+02
     68.535  0.2854E+00  0.9542E+02
     68.931  0.0000E+00  0.9670E+02
     69.327  0.0000E+00  0.9764E+02
     69.722  0.0000E+00  0.9790E+02
     70.118  0.0000E+00  0.9831E+02
     70.514  0.0000E+00  0.9908E+02
     70.909  0.5570E+00  0.9986E+02
     71.305  0.0000E+00  0.1007E+03
     71.701  0.1551E+00  0.1014E+03
     72.096  0.0000E+00  0.1018E+03
     72.492  0.0000E+00  0.1028E+03
     72.888  0.0000E+00  0.1042E+03
     73.283  0.0000E+00  0.1048E+03
     73.679  0.5617E+00  0.1055E+03
     74.074  0.0000E+00  0.1061E+03
     74.470  0.0000E+00  0.1069E+03
     74.866  0.0000E+00  0.1072E+03
     75.261  0.0000E+00  0.1076E+03
     75.657  0.0000E+00  0.1082E+03
     76.053  0.6297E-05  0.1093E+03
     76.448  0.0000E+00  0.1098E+03
     76.844  0.0000E+00  0.1106E+03
     77.240  0.0000E+00  0.1114E+03
     77.635  0.0000E+00  0.1125E+03
     78.031  0.0000E+00  0.1133E+03
     78.427  0.0000E+00  0.1138E+03
     78.822  0.0000E+00  0.1146E+03
     79.218  0.6482E-01  0.1154E+03
     79.614  0.0000E+00  0.1169E+03
     80.009  0.5483E+00  0.1176E+03
     80.405  0.4474E+00  0.1191E+03
     80.801  0.0000E+00  0.1193E+03
     81.196  0.0000E+00  0.1203E+03
     81.592  0.4840E-01  0.1206E+03
     81.988  0.5617E+00  0.1216E+03
     82.383  0.0000E+00  0.1221E+03
     82.779  0.0000E+00  0.1226E+03
     83.175  0.0000E+00  0.1234E+03
     83.570  0.0000E+00  0.1238E+03
     83.966  0.5617E+00  0.1252E+03
     84.362  0.0000E+00  0.1258E+03
     84.757  0.0000E+00  0.1262E+03
     85.153  0.0000E+00  0.1272E+03
     85.548  0.0000E+00  0.1272E+03
     85.944  0.0000E+00  0.1275E+03
     86.340  0.0000E+00  0.1278E+03
     86.735  0.0000E+00  0.1279E+03
     87.131  0.0000E+00  0.1279E+03
     87.527  0.0000E+00  0.1280E+03
     87.922  0.0000E+00  0.1280E+03
     88.318  0.0000E+00  0.1280E+03
     88.714  0.0000E+00  0.1280E+03
     89.109  0.0000E+00  0.1280E+03
     89.505  0.0000E+00  0.1280E+03
     89.901  0.0000E+00  0.1280E+03
     90.296  0.0000E+00  0.1280E+03
     90.692  0.0000E+00  0.1280E+03
     91.088  0.0000E+00  0.1280E+03
     91.483  0.0000E+00  0.1280E+03
     91.879  0.0000E+00  0.1280E+03
     92.275  0.0000E+00  0.1280E+03
     92.670  0.0000E+00  0.1280E+03
