<?xml version="1.0" encoding="ISO-8859-1"?>
<modeling>
 <generator>
  <i name="program" type="string">vasp </i>
  <i name="version" type="string">5.4.4.18Apr17-6-g9f103f2a35  </i>
  <i name="subversion" type="string">(build Jul 09 2018 16:43:14) complex            parallel </i>
  <i name="platform" type="string">LinuxIFC </i>
  <i name="date" type="string">2018 11 29 </i>
  <i name="time" type="string">20:43:43 </i>
 </generator>
 <incar>
  <i type="string" name="SYSTEM">   Og_FCC</i>
  <i type="string" name="PREC">accurate</i>
  <i type="string" name="ALGO">   EXACT</i>
  <i type="logical" name="ADDGRID"> T  </i>
  <i type="logical" name="LSORBIT"> T  </i>
  <i type="int" name="ISPIN">     1</i>
  <i type="int" name="MAXMIX">    50</i>
  <i type="int" name="NELM">    50</i>
  <i type="int" name="NELMDL">    -5</i>
  <i type="int" name="NELMIN">     2</i>
  <i type="int" name="IBRION">    -1</i>
  <i type="int" name="NFREE">     5</i>
  <i name="EDIFF">      0.00000001</i>
  <i name="EDIFFG">      0.00001000</i>
  <i type="int" name="NSW">     1</i>
  <i type="int" name="ISIF">     3</i>
  <i type="int" name="ISYM">     0</i>
  <i name="SYMPREC">      0.00000010</i>
  <i name="ENCUT">    300.00000000</i>
  <i type="int" name="NBANDS">   128</i>
  <i name="POTIM">      0.10000000</i>
  <i type="logical" name="LREAL"> F  </i>
  <i type="int" name="ISMEAR">     0</i>
  <i name="SIGMA">      0.00100000</i>
  <i type="int" name="NWRITE">     2</i>
  <i type="logical" name="LWAVE"> T  </i>
  <i type="logical" name="LCHARG"> F  </i>
  <i type="logical" name="LVTOT"> F  </i>
  <i type="logical" name="LOPTICS"> T  </i>
  <i type="logical" name="GGA_COMPAT"> F  </i>
  <v type="int" name="KPOINT_BSE">    -1     0     0     0</v>
  <i type="int" name="NELM">    50</i>
  <i type="string" name="METAGGA"> SCAN</i>
 </incar>
 <structure name="primitive_cell" >
  <crystal>
   <varray name="basis" >
    <v>       3.59969675       0.00000000       0.00000000 </v>
    <v>       1.79984837       3.11742883      -0.00000000 </v>
    <v>       1.79984837       1.03914294       2.93914009 </v>
   </varray>
   <i name="volume">     32.98243751 </i>
   <varray name="rec_basis" >
    <v>       0.27780118      -0.16038859      -0.11341186 </v>
    <v>       0.00000000       0.32077717      -0.11341186 </v>
    <v>      -0.00000000       0.00000000       0.34023557 </v>
   </varray>
  </crystal>
  <varray name="positions" >
   <v>       0.00000000       0.00000000       0.00000000 </v>
  </varray>
 </structure>
 <varray name="primitive_index" >
  <v type="int" >        1 </v>
 </varray>
 <kpoints>
  <generation param="Gamma">
   <v type="int" name="divisions">       6        6        6 </v>
   <v name="usershift">      0.00000000       0.00000000       0.00000000 </v>
   <v name="genvec1">      0.16666667       0.00000000       0.00000000 </v>
   <v name="genvec2">      0.00000000       0.16666667      -0.00000000 </v>
   <v name="genvec3">      0.00000000       0.00000000       0.16666667 </v>
   <v name="shift">      0.00000000       0.00000000       0.00000000 </v>
  </generation>
  <varray name="kpointlist" >
   <v>       0.00000000       0.00000000       0.00000000 </v>
   <v>       0.16666667       0.00000000      -0.00000000 </v>
   <v>       0.33333333       0.00000000      -0.00000000 </v>
   <v>       0.50000000       0.00000000      -0.00000000 </v>
   <v>      -0.33333333      -0.00000000       0.00000000 </v>
   <v>      -0.16666667      -0.00000000       0.00000000 </v>
   <v>       0.00000000       0.16666667      -0.00000000 </v>
   <v>       0.16666667       0.16666667      -0.00000000 </v>
   <v>       0.33333333       0.16666667      -0.00000000 </v>
   <v>       0.50000000       0.16666667      -0.00000000 </v>
   <v>      -0.33333333       0.16666667      -0.00000000 </v>
   <v>      -0.16666667       0.16666667       0.00000000 </v>
   <v>       0.00000000       0.33333333       0.00000000 </v>
   <v>       0.16666667       0.33333333      -0.00000000 </v>
   <v>       0.33333333       0.33333333      -0.00000000 </v>
   <v>       0.50000000       0.33333333      -0.00000000 </v>
   <v>      -0.33333333       0.33333333       0.00000000 </v>
   <v>      -0.16666667       0.33333333       0.00000000 </v>
   <v>       0.00000000       0.50000000      -0.00000000 </v>
   <v>       0.16666667       0.50000000       0.00000000 </v>
   <v>       0.33333333       0.50000000       0.00000000 </v>
   <v>       0.50000000       0.50000000      -0.00000000 </v>
   <v>      -0.33333333       0.50000000      -0.00000000 </v>
   <v>      -0.16666667       0.50000000      -0.00000000 </v>
   <v>      -0.00000000      -0.33333333       0.00000000 </v>
   <v>       0.16666667      -0.33333333      -0.00000000 </v>
   <v>       0.33333333      -0.33333333      -0.00000000 </v>
   <v>       0.50000000      -0.33333333      -0.00000000 </v>
   <v>      -0.33333333      -0.33333333       0.00000000 </v>
   <v>      -0.16666667      -0.33333333       0.00000000 </v>
   <v>      -0.00000000      -0.16666667       0.00000000 </v>
   <v>       0.16666667      -0.16666667      -0.00000000 </v>
   <v>       0.33333333      -0.16666667      -0.00000000 </v>
   <v>       0.50000000      -0.16666667      -0.00000000 </v>
   <v>      -0.33333333      -0.16666667       0.00000000 </v>
   <v>      -0.16666667      -0.16666667       0.00000000 </v>
   <v>      -0.00000000       0.00000000       0.16666667 </v>
   <v>       0.16666667       0.00000000       0.16666667 </v>
   <v>       0.33333333      -0.00000000       0.16666667 </v>
   <v>       0.50000000       0.00000000       0.16666667 </v>
   <v>      -0.33333333      -0.00000000       0.16666667 </v>
   <v>      -0.16666667      -0.00000000       0.16666667 </v>
   <v>       0.00000000       0.16666667       0.16666667 </v>
   <v>       0.16666667       0.16666667       0.16666667 </v>
   <v>       0.33333333       0.16666667       0.16666667 </v>
   <v>       0.50000000       0.16666667       0.16666667 </v>
   <v>      -0.33333333       0.16666667       0.16666667 </v>
   <v>      -0.16666667       0.16666667       0.16666667 </v>
   <v>       0.00000000       0.33333333       0.16666667 </v>
   <v>       0.16666667       0.33333333       0.16666667 </v>
   <v>       0.33333333       0.33333333       0.16666667 </v>
   <v>       0.50000000       0.33333333       0.16666667 </v>
   <v>      -0.33333333       0.33333333       0.16666667 </v>
   <v>      -0.16666667       0.33333333       0.16666667 </v>
   <v>       0.00000000       0.50000000       0.16666667 </v>
   <v>       0.16666667       0.50000000       0.16666667 </v>
   <v>       0.33333333       0.50000000       0.16666667 </v>
   <v>       0.50000000       0.50000000       0.16666667 </v>
   <v>      -0.33333333       0.50000000       0.16666667 </v>
   <v>      -0.16666667       0.50000000       0.16666667 </v>
   <v>       0.00000000      -0.33333333       0.16666667 </v>
   <v>       0.16666667      -0.33333333       0.16666667 </v>
   <v>       0.33333333      -0.33333333       0.16666667 </v>
   <v>       0.50000000      -0.33333333       0.16666667 </v>
   <v>      -0.33333333      -0.33333333       0.16666667 </v>
   <v>      -0.16666667      -0.33333333       0.16666667 </v>
   <v>       0.00000000      -0.16666667       0.16666667 </v>
   <v>       0.16666667      -0.16666667       0.16666667 </v>
   <v>       0.33333333      -0.16666667       0.16666667 </v>
   <v>       0.50000000      -0.16666667       0.16666667 </v>
   <v>      -0.33333333      -0.16666667       0.16666667 </v>
   <v>      -0.16666667      -0.16666667       0.16666667 </v>
   <v>       0.00000000       0.00000000       0.33333333 </v>
   <v>       0.16666667       0.00000000       0.33333333 </v>
   <v>       0.33333333       0.00000000       0.33333333 </v>
   <v>       0.50000000      -0.00000000       0.33333333 </v>
   <v>      -0.33333333       0.00000000       0.33333333 </v>
   <v>      -0.16666667       0.00000000       0.33333333 </v>
   <v>      -0.00000000       0.16666667       0.33333333 </v>
   <v>       0.16666667       0.16666667       0.33333333 </v>
   <v>       0.33333333       0.16666667       0.33333333 </v>
   <v>       0.50000000       0.16666667       0.33333333 </v>
   <v>      -0.33333333       0.16666667       0.33333333 </v>
   <v>      -0.16666667       0.16666667       0.33333333 </v>
   <v>      -0.00000000       0.33333333       0.33333333 </v>
   <v>       0.16666667       0.33333333       0.33333333 </v>
   <v>       0.33333333       0.33333333       0.33333333 </v>
   <v>       0.50000000       0.33333333       0.33333333 </v>
   <v>      -0.33333333       0.33333333       0.33333333 </v>
   <v>      -0.16666667       0.33333333       0.33333333 </v>
   <v>      -0.00000000       0.50000000       0.33333333 </v>
   <v>       0.16666667       0.50000000       0.33333333 </v>
   <v>       0.33333333       0.50000000       0.33333333 </v>
   <v>       0.50000000       0.50000000       0.33333333 </v>
   <v>      -0.33333333       0.50000000       0.33333333 </v>
   <v>      -0.16666667       0.50000000       0.33333333 </v>
   <v>      -0.00000000      -0.33333333       0.33333333 </v>
   <v>       0.16666667      -0.33333333       0.33333333 </v>
   <v>       0.33333333      -0.33333333       0.33333333 </v>
   <v>       0.50000000      -0.33333333       0.33333333 </v>
   <v>      -0.33333333      -0.33333333       0.33333333 </v>
   <v>      -0.16666667      -0.33333333       0.33333333 </v>
   <v>      -0.00000000      -0.16666667       0.33333333 </v>
   <v>       0.16666667      -0.16666667       0.33333333 </v>
   <v>       0.33333333      -0.16666667       0.33333333 </v>
   <v>       0.50000000      -0.16666667       0.33333333 </v>
   <v>      -0.33333333      -0.16666667       0.33333333 </v>
   <v>      -0.16666667      -0.16666667       0.33333333 </v>
   <v>      -0.00000000       0.00000000       0.50000000 </v>
   <v>       0.16666667      -0.00000000       0.50000000 </v>
   <v>       0.33333333       0.00000000       0.50000000 </v>
   <v>       0.50000000       0.00000000       0.50000000 </v>
   <v>      -0.33333333       0.00000000       0.50000000 </v>
   <v>      -0.16666667      -0.00000000       0.50000000 </v>
   <v>       0.00000000       0.16666667       0.50000000 </v>
   <v>       0.16666667       0.16666667       0.50000000 </v>
   <v>       0.33333333       0.16666667       0.50000000 </v>
   <v>       0.50000000       0.16666667       0.50000000 </v>
   <v>      -0.33333333       0.16666667       0.50000000 </v>
   <v>      -0.16666667       0.16666667       0.50000000 </v>
   <v>      -0.00000000       0.33333333       0.50000000 </v>
   <v>       0.16666667       0.33333333       0.50000000 </v>
   <v>       0.33333333       0.33333333       0.50000000 </v>
   <v>       0.50000000       0.33333333       0.50000000 </v>
   <v>      -0.33333333       0.33333333       0.50000000 </v>
   <v>      -0.16666667       0.33333333       0.50000000 </v>
   <v>       0.00000000       0.50000000       0.50000000 </v>
   <v>       0.16666667       0.50000000       0.50000000 </v>
   <v>       0.33333333       0.50000000       0.50000000 </v>
   <v>       0.50000000       0.50000000       0.50000000 </v>
   <v>      -0.33333333       0.50000000       0.50000000 </v>
   <v>      -0.16666667       0.50000000       0.50000000 </v>
   <v>      -0.00000000      -0.33333333       0.50000000 </v>
   <v>       0.16666667      -0.33333333       0.50000000 </v>
   <v>       0.33333333      -0.33333333       0.50000000 </v>
   <v>       0.50000000      -0.33333333       0.50000000 </v>
   <v>      -0.33333333      -0.33333333       0.50000000 </v>
   <v>      -0.16666667      -0.33333333       0.50000000 </v>
   <v>      -0.00000000      -0.16666667       0.50000000 </v>
   <v>       0.16666667      -0.16666667       0.50000000 </v>
   <v>       0.33333333      -0.16666667       0.50000000 </v>
   <v>       0.50000000      -0.16666667       0.50000000 </v>
   <v>      -0.33333333      -0.16666667       0.50000000 </v>
   <v>      -0.16666667      -0.16666667       0.50000000 </v>
   <v>       0.00000000      -0.00000000      -0.33333333 </v>
   <v>       0.16666667      -0.00000000      -0.33333333 </v>
   <v>       0.33333333      -0.00000000      -0.33333333 </v>
   <v>       0.50000000       0.00000000      -0.33333333 </v>
   <v>      -0.33333333      -0.00000000      -0.33333333 </v>
   <v>      -0.16666667      -0.00000000      -0.33333333 </v>
   <v>       0.00000000       0.16666667      -0.33333333 </v>
   <v>       0.16666667       0.16666667      -0.33333333 </v>
   <v>       0.33333333       0.16666667      -0.33333333 </v>
   <v>       0.50000000       0.16666667      -0.33333333 </v>
   <v>      -0.33333333       0.16666667      -0.33333333 </v>
   <v>      -0.16666667       0.16666667      -0.33333333 </v>
   <v>       0.00000000       0.33333333      -0.33333333 </v>
   <v>       0.16666667       0.33333333      -0.33333333 </v>
   <v>       0.33333333       0.33333333      -0.33333333 </v>
   <v>       0.50000000       0.33333333      -0.33333333 </v>
   <v>      -0.33333333       0.33333333      -0.33333333 </v>
   <v>      -0.16666667       0.33333333      -0.33333333 </v>
   <v>       0.00000000       0.50000000      -0.33333333 </v>
   <v>       0.16666667       0.50000000      -0.33333333 </v>
   <v>       0.33333333       0.50000000      -0.33333333 </v>
   <v>       0.50000000       0.50000000      -0.33333333 </v>
   <v>      -0.33333333       0.50000000      -0.33333333 </v>
   <v>      -0.16666667       0.50000000      -0.33333333 </v>
   <v>       0.00000000      -0.33333333      -0.33333333 </v>
   <v>       0.16666667      -0.33333333      -0.33333333 </v>
   <v>       0.33333333      -0.33333333      -0.33333333 </v>
   <v>       0.50000000      -0.33333333      -0.33333333 </v>
   <v>      -0.33333333      -0.33333333      -0.33333333 </v>
   <v>      -0.16666667      -0.33333333      -0.33333333 </v>
   <v>       0.00000000      -0.16666667      -0.33333333 </v>
   <v>       0.16666667      -0.16666667      -0.33333333 </v>
   <v>       0.33333333      -0.16666667      -0.33333333 </v>
   <v>       0.50000000      -0.16666667      -0.33333333 </v>
   <v>      -0.33333333      -0.16666667      -0.33333333 </v>
   <v>      -0.16666667      -0.16666667      -0.33333333 </v>
   <v>       0.00000000      -0.00000000      -0.16666667 </v>
   <v>       0.16666667       0.00000000      -0.16666667 </v>
   <v>       0.33333333       0.00000000      -0.16666667 </v>
   <v>       0.50000000       0.00000000      -0.16666667 </v>
   <v>      -0.33333333       0.00000000      -0.16666667 </v>
   <v>      -0.16666667      -0.00000000      -0.16666667 </v>
   <v>       0.00000000       0.16666667      -0.16666667 </v>
   <v>       0.16666667       0.16666667      -0.16666667 </v>
   <v>       0.33333333       0.16666667      -0.16666667 </v>
   <v>       0.50000000       0.16666667      -0.16666667 </v>
   <v>      -0.33333333       0.16666667      -0.16666667 </v>
   <v>      -0.16666667       0.16666667      -0.16666667 </v>
   <v>       0.00000000       0.33333333      -0.16666667 </v>
   <v>       0.16666667       0.33333333      -0.16666667 </v>
   <v>       0.33333333       0.33333333      -0.16666667 </v>
   <v>       0.50000000       0.33333333      -0.16666667 </v>
   <v>      -0.33333333       0.33333333      -0.16666667 </v>
   <v>      -0.16666667       0.33333333      -0.16666667 </v>
   <v>       0.00000000       0.50000000      -0.16666667 </v>
   <v>       0.16666667       0.50000000      -0.16666667 </v>
   <v>       0.33333333       0.50000000      -0.16666667 </v>
   <v>       0.50000000       0.50000000      -0.16666667 </v>
   <v>      -0.33333333       0.50000000      -0.16666667 </v>
   <v>      -0.16666667       0.50000000      -0.16666667 </v>
   <v>       0.00000000      -0.33333333      -0.16666667 </v>
   <v>       0.16666667      -0.33333333      -0.16666667 </v>
   <v>       0.33333333      -0.33333333      -0.16666667 </v>
   <v>       0.50000000      -0.33333333      -0.16666667 </v>
   <v>      -0.33333333      -0.33333333      -0.16666667 </v>
   <v>      -0.16666667      -0.33333333      -0.16666667 </v>
   <v>       0.00000000      -0.16666667      -0.16666667 </v>
   <v>       0.16666667      -0.16666667      -0.16666667 </v>
   <v>       0.33333333      -0.16666667      -0.16666667 </v>
   <v>       0.50000000      -0.16666667      -0.16666667 </v>
   <v>      -0.33333333      -0.16666667      -0.16666667 </v>
   <v>      -0.16666667      -0.16666667      -0.16666667 </v>
  </varray>
  <varray name="weights" >
   <v>       0.00462963 </v>
   <v>       0.00462963 </v>
   <v>       0.00462963 </v>
   <v>       0.00462963 </v>
   <v>       0.00462963 </v>
   <v>       0.00462963 </v>
   <v>       0.00462963 </v>
   <v>       0.00462963 </v>
   <v>       0.00462963 </v>
   <v>       0.00462963 </v>
   <v>       0.00462963 </v>
   <v>       0.00462963 </v>
   <v>       0.00462963 </v>
   <v>       0.00462963 </v>
   <v>       0.00462963 </v>
   <v>       0.00462963 </v>
   <v>       0.00462963 </v>
   <v>       0.00462963 </v>
   <v>       0.00462963 </v>
   <v>       0.00462963 </v>
   <v>       0.00462963 </v>
   <v>       0.00462963 </v>
   <v>       0.00462963 </v>
   <v>       0.00462963 </v>
   <v>       0.00462963 </v>
   <v>       0.00462963 </v>
   <v>       0.00462963 </v>
   <v>       0.00462963 </v>
   <v>       0.00462963 </v>
   <v>       0.00462963 </v>
   <v>       0.00462963 </v>
   <v>       0.00462963 </v>
   <v>       0.00462963 </v>
   <v>       0.00462963 </v>
   <v>       0.00462963 </v>
   <v>       0.00462963 </v>
   <v>       0.00462963 </v>
   <v>       0.00462963 </v>
   <v>       0.00462963 </v>
   <v>       0.00462963 </v>
   <v>       0.00462963 </v>
   <v>       0.00462963 </v>
   <v>       0.00462963 </v>
   <v>       0.00462963 </v>
   <v>       0.00462963 </v>
   <v>       0.00462963 </v>
   <v>       0.00462963 </v>
   <v>       0.00462963 </v>
   <v>       0.00462963 </v>
   <v>       0.00462963 </v>
   <v>       0.00462963 </v>
   <v>       0.00462963 </v>
   <v>       0.00462963 </v>
   <v>       0.00462963 </v>
   <v>       0.00462963 </v>
   <v>       0.00462963 </v>
   <v>       0.00462963 </v>
   <v>       0.00462963 </v>
   <v>       0.00462963 </v>
   <v>       0.00462963 </v>
   <v>       0.00462963 </v>
   <v>       0.00462963 </v>
   <v>       0.00462963 </v>
   <v>       0.00462963 </v>
   <v>       0.00462963 </v>
   <v>       0.00462963 </v>
   <v>       0.00462963 </v>
   <v>       0.00462963 </v>
   <v>       0.00462963 </v>
   <v>       0.00462963 </v>
   <v>       0.00462963 </v>
   <v>       0.00462963 </v>
   <v>       0.00462963 </v>
   <v>       0.00462963 </v>
   <v>       0.00462963 </v>
   <v>       0.00462963 </v>
   <v>       0.00462963 </v>
   <v>       0.00462963 </v>
   <v>       0.00462963 </v>
   <v>       0.00462963 </v>
   <v>       0.00462963 </v>
   <v>       0.00462963 </v>
   <v>       0.00462963 </v>
   <v>       0.00462963 </v>
   <v>       0.00462963 </v>
   <v>       0.00462963 </v>
   <v>       0.00462963 </v>
   <v>       0.00462963 </v>
   <v>       0.00462963 </v>
   <v>       0.00462963 </v>
   <v>       0.00462963 </v>
   <v>       0.00462963 </v>
   <v>       0.00462963 </v>
   <v>       0.00462963 </v>
   <v>       0.00462963 </v>
   <v>       0.00462963 </v>
   <v>       0.00462963 </v>
   <v>       0.00462963 </v>
   <v>       0.00462963 </v>
   <v>       0.00462963 </v>
   <v>       0.00462963 </v>
   <v>       0.00462963 </v>
   <v>       0.00462963 </v>
   <v>       0.00462963 </v>
   <v>       0.00462963 </v>
   <v>       0.00462963 </v>
   <v>       0.00462963 </v>
   <v>       0.00462963 </v>
   <v>       0.00462963 </v>
   <v>       0.00462963 </v>
   <v>       0.00462963 </v>
   <v>       0.00462963 </v>
   <v>       0.00462963 </v>
   <v>       0.00462963 </v>
   <v>       0.00462963 </v>
   <v>       0.00462963 </v>
   <v>       0.00462963 </v>
   <v>       0.00462963 </v>
   <v>       0.00462963 </v>
   <v>       0.00462963 </v>
   <v>       0.00462963 </v>
   <v>       0.00462963 </v>
   <v>       0.00462963 </v>
   <v>       0.00462963 </v>
   <v>       0.00462963 </v>
   <v>       0.00462963 </v>
   <v>       0.00462963 </v>
   <v>       0.00462963 </v>
   <v>       0.00462963 </v>
   <v>       0.00462963 </v>
   <v>       0.00462963 </v>
   <v>       0.00462963 </v>
   <v>       0.00462963 </v>
   <v>       0.00462963 </v>
   <v>       0.00462963 </v>
   <v>       0.00462963 </v>
   <v>       0.00462963 </v>
   <v>       0.00462963 </v>
   <v>       0.00462963 </v>
   <v>       0.00462963 </v>
   <v>       0.00462963 </v>
   <v>       0.00462963 </v>
   <v>       0.00462963 </v>
   <v>       0.00462963 </v>
   <v>       0.00462963 </v>
   <v>       0.00462963 </v>
   <v>       0.00462963 </v>
   <v>       0.00462963 </v>
   <v>       0.00462963 </v>
   <v>       0.00462963 </v>
   <v>       0.00462963 </v>
   <v>       0.00462963 </v>
   <v>       0.00462963 </v>
   <v>       0.00462963 </v>
   <v>       0.00462963 </v>
   <v>       0.00462963 </v>
   <v>       0.00462963 </v>
   <v>       0.00462963 </v>
   <v>       0.00462963 </v>
   <v>       0.00462963 </v>
   <v>       0.00462963 </v>
   <v>       0.00462963 </v>
   <v>       0.00462963 </v>
   <v>       0.00462963 </v>
   <v>       0.00462963 </v>
   <v>       0.00462963 </v>
   <v>       0.00462963 </v>
   <v>       0.00462963 </v>
   <v>       0.00462963 </v>
   <v>       0.00462963 </v>
   <v>       0.00462963 </v>
   <v>       0.00462963 </v>
   <v>       0.00462963 </v>
   <v>       0.00462963 </v>
   <v>       0.00462963 </v>
   <v>       0.00462963 </v>
   <v>       0.00462963 </v>
   <v>       0.00462963 </v>
   <v>       0.00462963 </v>
   <v>       0.00462963 </v>
   <v>       0.00462963 </v>
   <v>       0.00462963 </v>
   <v>       0.00462963 </v>
   <v>       0.00462963 </v>
   <v>       0.00462963 </v>
   <v>       0.00462963 </v>
   <v>       0.00462963 </v>
   <v>       0.00462963 </v>
   <v>       0.00462963 </v>
   <v>       0.00462963 </v>
   <v>       0.00462963 </v>
   <v>       0.00462963 </v>
   <v>       0.00462963 </v>
   <v>       0.00462963 </v>
   <v>       0.00462963 </v>
   <v>       0.00462963 </v>
   <v>       0.00462963 </v>
   <v>       0.00462963 </v>
   <v>       0.00462963 </v>
   <v>       0.00462963 </v>
   <v>       0.00462963 </v>
   <v>       0.00462963 </v>
   <v>       0.00462963 </v>
   <v>       0.00462963 </v>
   <v>       0.00462963 </v>
   <v>       0.00462963 </v>
   <v>       0.00462963 </v>
   <v>       0.00462963 </v>
   <v>       0.00462963 </v>
   <v>       0.00462963 </v>
   <v>       0.00462963 </v>
   <v>       0.00462963 </v>
   <v>       0.00462963 </v>
   <v>       0.00462963 </v>
   <v>       0.00462963 </v>
   <v>       0.00462963 </v>
  </varray>
 </kpoints>
 <parameters>
  <separator name="general" >
   <i type="string" name="SYSTEM">Og_FCC</i>
   <i type="logical" name="LCOMPAT"> F  </i>
  </separator>
  <separator name="electronic" >
   <i type="string" name="PREC">accura</i>
   <i name="ENMAX">    300.00000000</i>
   <i name="ENAUG">    799.85900000</i>
   <i name="EDIFF">      0.00000001</i>
   <i type="int" name="IALGO">    90</i>
   <i type="int" name="IWAVPR">    10</i>
   <i type="int" name="NBANDS">   128</i>
   <i name="NELECT">      8.00000000</i>
   <i type="int" name="TURBO">     0</i>
   <i type="int" name="IRESTART">     0</i>
   <i type="int" name="NREBOOT">     0</i>
   <i type="int" name="NMIN">     0</i>
   <i name="EREF">      0.00000000</i>
   <separator name="electronic smearing" >
    <i type="int" name="ISMEAR">     0</i>
    <i name="SIGMA">      0.00100000</i>
    <i name="KSPACING">      0.50000000</i>
    <i type="logical" name="KGAMMA"> T  </i>
   </separator>
   <separator name="electronic projectors" >
    <i type="logical" name="LREAL"> F  </i>
    <v name="ROPT">      0.00000000</v>
    <i type="int" name="LMAXPAW">  -100</i>
    <i type="int" name="LMAXMIX">     2</i>
    <i type="logical" name="NLSPLINE"> F  </i>
   </separator>
   <separator name="electronic startup" >
    <i type="int" name="ISTART">     1</i>
    <i type="int" name="ICHARG">     0</i>
    <i type="int" name="INIWAV">     1</i>
   </separator>
   <separator name="electronic spin" >
    <i type="int" name="ISPIN">     1</i>
    <i type="logical" name="LNONCOLLINEAR"> T  </i>
    <v name="MAGMOM">      1.00000000      1.00000000      1.00000000</v>
    <i name="NUPDOWN">     -1.00000000</i>
    <i type="logical" name="LSORBIT"> T  </i>
    <v name="SAXIS">      0.00000000      0.00000000      1.00000000</v>
    <i type="logical" name="LSPIRAL"> F  </i>
    <v name="QSPIRAL">      0.00000000      0.00000000      0.00000000</v>
    <i type="logical" name="LZEROZ"> F  </i>
   </separator>
   <separator name="electronic exchange-correlation" >
    <i type="logical" name="LASPH"> F  </i>
    <i type="logical" name="LMETAGGA"> F  </i>
   </separator>
   <separator name="electronic convergence" >
    <i type="int" name="NELM">    50</i>
    <i type="int" name="NELMDL">    -5</i>
    <i type="int" name="NELMIN">     2</i>
    <i name="ENINI">    300.00000000</i>
    <separator name="electronic convergence detail" >
     <i type="logical" name="LDIAG"> T  </i>
     <i type="logical" name="LSUBROT"> F  </i>
     <i name="WEIMIN">      0.00000000</i>
     <i name="EBREAK">      0.00000000</i>
     <i name="DEPER">      0.30000000</i>
     <i type="int" name="NRMM">     4</i>
     <i name="TIME">      0.40000000</i>
    </separator>
   </separator>
   <separator name="electronic mixer" >
    <i name="AMIX">      0.40000000</i>
    <i name="BMIX">      1.00000000</i>
    <i name="AMIN">      0.10000000</i>
    <i name="AMIX_MAG">      1.60000000</i>
    <i name="BMIX_MAG">      1.00000000</i>
    <separator name="electronic mixer details" >
     <i type="int" name="IMIX">     4</i>
     <i type="logical" name="MIXFIRST"> F  </i>
     <i type="int" name="MAXMIX">    50</i>
     <i name="WC">    100.00000000</i>
     <i type="int" name="INIMIX">     1</i>
     <i type="int" name="MIXPRE">     1</i>
     <i type="int" name="MREMOVE">     5</i>
    </separator>
   </separator>
   <separator name="electronic dipolcorrection" >
    <i type="logical" name="LDIPOL"> F  </i>
    <i type="logical" name="LMONO"> F  </i>
    <i type="int" name="IDIPOL">     0</i>
    <i name="EPSILON">      1.00000000</i>
    <v name="DIPOL">   -100.00000000   -100.00000000   -100.00000000</v>
    <i name="EFIELD">      0.00000000</i>
   </separator>
  </separator>
  <separator name="grids" >
   <i type="int" name="NGX">    20</i>
   <i type="int" name="NGY">    20</i>
   <i type="int" name="NGZ">    20</i>
   <i type="int" name="NGXF">    40</i>
   <i type="int" name="NGYF">    40</i>
   <i type="int" name="NGZF">    40</i>
   <i type="logical" name="ADDGRID"> T  </i>
  </separator>
  <separator name="ionic" >
   <i type="int" name="NSW">     1</i>
   <i type="int" name="IBRION">    -1</i>
   <i type="int" name="MDALGO">     0</i>
   <i type="int" name="ISIF">     3</i>
   <i name="PSTRESS">      0.00000000</i>
   <i name="EDIFFG">      0.00001000</i>
   <i type="int" name="NFREE">     5</i>
   <i name="POTIM">      0.10000000</i>
   <i name="SMASS">     -3.00000000</i>
   <i name="SCALEE">      1.00000000</i>
  </separator>
  <separator name="ionic md" >
   <i name="TEBEG">      0.00010000</i>
   <i name="TEEND">      0.00010000</i>
   <i type="int" name="NBLOCK">     1</i>
   <i type="int" name="KBLOCK">     1</i>
   <i type="int" name="NPACO">   256</i>
   <i name="APACO">     16.00000000</i>
  </separator>
  <separator name="symmetry" >
   <i type="int" name="ISYM">     0</i>
   <i name="SYMPREC">      0.00000010</i>
  </separator>
  <separator name="dos" >
   <i type="int" name="LORBIT">     0</i>
   <v name="RWIGS">     -1.00000000</v>
   <i type="int" name="NEDOS">   301</i>
   <i name="EMIN">     10.00000000</i>
   <i name="EMAX">    -10.00000000</i>
   <i name="EFERMI">      0.00000000</i>
  </separator>
  <separator name="writing" >
   <i type="int" name="NWRITE">     2</i>
   <i type="logical" name="LWAVE"> T  </i>
   <i type="logical" name="LDOWNSAMPLE"> F  </i>
   <i type="logical" name="LCHARG"> F  </i>
   <i type="logical" name="LPARD"> F  </i>
   <i type="logical" name="LVTOT"> F  </i>
   <i type="logical" name="LVHAR"> F  </i>
   <i type="logical" name="LELF"> F  </i>
   <i type="logical" name="LOPTICS"> T  </i>
   <v name="STM">      0.00000000      0.00000000      0.00000000      0.00000000      0.00000000      0.00000000      0.00000000</v>
  </separator>
  <separator name="performance" >
   <i type="int" name="NPAR">     4</i>
   <i type="int" name="NSIM">     4</i>
   <i type="int" name="NBLK">    -1</i>
   <i type="logical" name="LPLANE"> T  </i>
   <i type="logical" name="LSCALAPACK"> T  </i>
   <i type="logical" name="LSCAAWARE"> T  </i>
   <i type="logical" name="LSCALU"> F  </i>
   <i type="logical" name="LASYNC"> F  </i>
   <i type="logical" name="LORBITALREAL"> F  </i>
  </separator>
  <separator name="miscellaneous" >
   <i type="int" name="IDIOT">     3</i>
   <i type="int" name="ISPECIAL">     0</i>
   <i type="logical" name="LMUSIC"> F  </i>
   <v name="POMASS">     39.94900000</v>
   <v name="DARWINR">      0.00000000</v>
   <v name="DARWINV">      1.00000000</v>
   <i type="logical" name="LCORR"> T  </i>
  </separator>
  <i type="logical" name="GGA_COMPAT"> F  </i>
  <i type="logical" name="LBERRY"> F  </i>
  <i type="int" name="ICORELEVEL">     0</i>
  <i type="logical" name="LDAU"> F  </i>
  <i type="int" name="I_CONSTRAINED_M">     0</i>
  <separator name="electronic exchange-correlation" >
   <i type="string" name="GGA">--</i>
   <i type="int" name="VOSKOWN">     0</i>
   <i type="logical" name="LHFCALC"> F  </i>
   <i type="string" name="PRECFOCK"></i>
   <i type="logical" name="LSYMGRAD"> F  </i>
   <i type="logical" name="LHFONE"> F  </i>
   <i type="logical" name="LRHFCALC"> F  </i>
   <i type="logical" name="LTHOMAS"> F  </i>
   <i type="logical" name="LMODELHF"> F  </i>
   <i name="ENCUT4O">     -1.00000000</i>
   <i type="int" name="EXXOEP">     0</i>
   <i type="int" name="FOURORBIT">     0</i>
   <i name="AEXX">      0.00000000</i>
   <i name="HFALPHA">      0.00000000</i>
   <i name="MCALPHA">      0.00000000</i>
   <i name="ALDAX">      1.00000000</i>
   <i name="AGGAX">      1.00000000</i>
   <i name="ALDAC">      1.00000000</i>
   <i name="AGGAC">      1.00000000</i>
   <i type="int" name="NKREDX">     1</i>
   <i type="int" name="NKREDY">     1</i>
   <i type="int" name="NKREDZ">     1</i>
   <i type="logical" name="SHIFTRED"> F  </i>
   <i type="logical" name="ODDONLY"> F  </i>
   <i type="logical" name="EVENONLY"> F  </i>
   <i type="int" name="LMAXFOCK">     0</i>
   <i type="int" name="NMAXFOCKAE">     0</i>
   <i type="logical" name="LFOCKAEDFT"> F  </i>
   <i name="HFSCREEN">      0.00000000</i>
   <i name="HFSCREENC">      0.00000000</i>
   <i type="int" name="NBANDSGWLOW">     0</i>
  </separator>
  <separator name="vdW DFT" >
   <i type="logical" name="LUSE_VDW"> F  </i>
   <i name="Zab_VDW">     -0.84910000</i>
   <i name="PARAM1">      0.12340000</i>
   <i name="PARAM2">      1.00000000</i>
   <i name="PARAM3">      0.00000000</i>
  </separator>
  <separator name="model GW" >
   <i type="int" name="MODEL_GW">     0</i>
   <i name="MODEL_EPS0">     19.78946251</i>
   <i name="MODEL_ALPHA">      1.00000000</i>
  </separator>
  <separator name="linear response parameters" >
   <i type="logical" name="LEPSILON"> F  </i>
   <i type="logical" name="LRPA"> F  </i>
   <i type="logical" name="LNABLA"> F  </i>
   <i type="logical" name="LVEL"> F  </i>
   <i type="int" name="KINTER">     0</i>
   <i name="CSHIFT">      0.10000000</i>
   <i name="OMEGAMAX">     -1.00000000</i>
   <i name="DEG_THRESHOLD">      0.00200000</i>
   <i name="RTIME">     -0.10000000</i>
   <i name="WPLASMAI">      0.00000000</i>
   <v name="DFIELD">      0.00000000      0.00000000      0.00000000</v>
   <v name="WPLASMA">      0.00000000      0.00000000      0.00000000      0.00000000      0.00000000      0.00000000      0.00000000      0.00000000      0.00000000</v>
  </separator>
  <separator name="orbital magnetization" >
   <i type="logical" name="NUCIND"> F  </i>
   <v name="MAGPOS">      0.00000000      0.00000000      0.00000000</v>
   <i type="logical" name="LNICSALL"> T  </i>
   <i type="logical" name="ORBITALMAG"> F  </i>
   <i type="logical" name="LMAGBLOCH"> F  </i>
   <i type="logical" name="LCHIMAG"> F  </i>
   <i type="logical" name="LGAUGE"> T  </i>
   <i type="int" name="MAGATOM">     0</i>
   <v name="MAGDIPOL">      0.00000000      0.00000000      0.00000000</v>
   <v name="AVECCONST">      0.00000000      0.00000000      0.00000000</v>
  </separator>
  <separator name="response functions" >
   <i type="logical" name="LADDER"> F  </i>
   <i type="logical" name="LRPAFORCE"> F  </i>
   <i type="logical" name="LFXC"> F  </i>
   <i type="logical" name="LHARTREE"> T  </i>
   <i type="int" name="IBSE">     0</i>
   <v type="int" name="KPOINT">    -1     0     0     0</v>
   <i type="logical" name="LTCTE"> F  </i>
   <i type="logical" name="LTETE"> F  </i>
   <i type="logical" name="LTRIPLET"> F  </i>
   <i type="logical" name="LFXCEPS"> F  </i>
   <i type="logical" name="LFXHEG"> F  </i>
   <i type="int" name="NATURALO">     2</i>
   <i type="logical" name="L2ORDER"> F  </i>
   <i type="logical" name="LMP2LT"> F  </i>
   <i type="logical" name="LUSEW"> F  </i>
   <i name="ENCUTGW">     -2.00000000</i>
   <i name="ENCUTGWSOFT">     -2.00000000</i>
   <i name="ENCUTLF">     -1.00000000</i>
   <i type="int" name="LMAXMP2">    -1</i>
   <i name="SCISSOR">      0.00000000</i>
   <i type="int" name="NOMEGA">     0</i>
   <i type="int" name="NOMEGAR">     0</i>
   <i type="int" name="NBANDSGW">    -1</i>
   <i type="int" name="NBANDSO">    -1</i>
   <i type="int" name="NBANDSV">    -1</i>
   <i type="int" name="NELM">    50</i>
   <i type="int" name="NELMHF">     1</i>
   <i type="int" name="DIM">     3</i>
   <i type="int" name="ANTIRES">     0</i>
   <i name="OMEGAMAX">    -30.00000000</i>
   <i name="OMEGAMIN">    -30.00000000</i>
   <i name="OMEGATL">   -200.00000000</i>
   <i type="int" name="OMEGAGRID">   140</i>
   <i name="CSHIFT">     -0.10000000</i>
   <i type="logical" name="SELFENERGY"> F  </i>
   <i type="logical" name="LSPECTRAL"> F  </i>
   <i type="logical" name="LSPECTRALGW"> F  </i>
   <i type="logical" name="LSINGLES"> F  </i>
   <i type="logical" name="LFERMIGW"> F  </i>
   <i type="logical" name="ODDONLYGW"> F  </i>
   <i type="logical" name="EVENONLYGW"> F  </i>
   <i type="int" name="NKREDLFX">     1</i>
   <i type="int" name="NKREDLFY">     1</i>
   <i type="int" name="NKREDLFZ">     1</i>
   <i type="int" name="MAXMEM">  2800</i>
   <i type="int" name="TELESCOPE">     0</i>
   <i type="int" name="TAUPAR">     1</i>
   <i type="int" name="OMEGAPAR">    -1</i>
   <i name="LAMBDA">      1.00000000</i>
  </separator>
  <separator name="External order field" >
   <i name="OFIELD_KAPPA">      0.00000000</i>
   <v name="OFIELD_K">      0.00000000      0.00000000      0.00000000</v>
   <i name="OFIELD_Q6_NEAR">      0.00000000</i>
   <i name="OFIELD_Q6_FAR">      0.00000000</i>
   <i name="OFIELD_A">      0.00000000</i>
  </separator>
 </parameters>
 <atominfo>
  <atoms>       1 </atoms>
  <types>       1 </types>
  <array name="atoms" >
   <dimension dim="1">ion</dimension>
   <field type="string">element</field>
   <field type="int">atomtype</field>
   <set>
    <rc><c>Ar</c><c>   1</c></rc>
   </set>
  </array>
  <array name="atomtypes" >
   <dimension dim="1">type</dimension>
   <field type="int">atomspertype</field>
   <field type="string">element</field>
   <field>mass</field>
   <field>valence</field>
   <field type="string">pseudopotential</field>
   <set>
    <rc><c>   1</c><c>Ar</c><c>     39.94900000</c><c>      8.00000000</c><c>  PAW_PBE Ar_GW 21Aug2013               </c></rc>
   </set>
  </array>
 </atominfo>
 <structure name="initialpos" >
  <crystal>
   <varray name="basis" >
    <v>       3.59969675       0.00000000       0.00000000 </v>
    <v>       1.79984837       3.11742883      -0.00000000 </v>
    <v>       1.79984837       1.03914294       2.93914009 </v>
   </varray>
   <i name="volume">     32.98243751 </i>
   <varray name="rec_basis" >
    <v>       0.27780118      -0.16038859      -0.11341186 </v>
    <v>       0.00000000       0.32077717      -0.11341186 </v>
    <v>      -0.00000000       0.00000000       0.34023557 </v>
   </varray>
  </crystal>
  <varray name="positions" >
   <v>       0.00000000       0.00000000       0.00000000 </v>
  </varray>
  <varray name="velocities" >
   <v>       0.00000000       0.00000000       0.00000000 </v>
  </varray>
 </structure>
 <calculation>
  <scstep>
   <time name="diag">   45.58   45.58</time>
   <time name="total">   45.69   45.69</time>
   <energy>
    <i name="alphaZ">      9.11079249 </i>
    <i name="ewald">   -415.00316949 </i>
    <i name="hartreedc">   -129.35110600 </i>
    <i name="XCdc">     34.28594799 </i>
    <i name="pawpsdc">    464.24611332 </i>
    <i name="pawaedc">   -474.76064731 </i>
    <i name="eentropy">     -0.00000000 </i>
    <i name="bandstr">    -74.45729088 </i>
    <i name="atom">    579.01336654 </i>
    <i name="e_fr_energy">     -6.91599334 </i>
    <i name="e_wo_entrp">     -6.91599334 </i>
    <i name="e_0_energy">     -6.91599334 </i>
   </energy>
  </scstep>
  <scstep>
   <time name="diag">   46.49   46.49</time>
   <time name="total">   46.52   46.52</time>
   <energy>
    <i name="e_fr_energy">     -6.91599334 </i>
    <i name="e_wo_entrp">     -6.91599334 </i>
    <i name="e_0_energy">     -6.91599334 </i>
   </energy>
  </scstep>
  <scstep>
   <time name="diag">   45.49   45.49</time>
   <time name="total">   45.52   45.52</time>
   <energy>
    <i name="e_fr_energy">     -6.91599334 </i>
    <i name="e_wo_entrp">     -6.91599334 </i>
    <i name="e_0_energy">     -6.91599334 </i>
   </energy>
  </scstep>
  <scstep>
   <time name="diag">   46.09   46.09</time>
   <time name="total">   46.12   46.12</time>
   <energy>
    <i name="e_fr_energy">     -6.91599334 </i>
    <i name="e_wo_entrp">     -6.91599334 </i>
    <i name="e_0_energy">     -6.91599334 </i>
   </energy>
  </scstep>
  <scstep>
   <time name="diag">   45.90   45.90</time>
   <time name="total">   47.52   47.52</time>
   <energy>
    <i name="e_fr_energy">     -6.91599334 </i>
    <i name="e_wo_entrp">     -6.91599334 </i>
    <i name="e_0_energy">     -6.91599334 </i>
   </energy>
  </scstep>
  <scstep>
   <time name="diag">   46.07   46.07</time>
   <time name="total">   46.15   46.15</time>
   <energy>
    <i name="alphaZ">      9.11079249 </i>
    <i name="ewald">   -415.00316949 </i>
    <i name="hartreedc">   -129.35111999 </i>
    <i name="XCdc">     34.28594937 </i>
    <i name="pawpsdc">    464.24614492 </i>
    <i name="pawaedc">   -474.76067906 </i>
    <i name="eentropy">     -0.00000000 </i>
    <i name="bandstr">    -74.45727812 </i>
    <i name="atom">    579.01336654 </i>
    <i name="e_fr_energy">     -6.91599334 </i>
    <i name="e_wo_entrp">     -6.91599334 </i>
    <i name="e_0_energy">     -6.91599334 </i>
   </energy>
  </scstep>
  <structure>
   <crystal>
    <varray name="basis" >
     <v>       3.59969675       0.00000000       0.00000000 </v>
     <v>       1.79984837       3.11742883      -0.00000000 </v>
     <v>       1.79984837       1.03914294       2.93914009 </v>
    </varray>
    <i name="volume">     32.98243751 </i>
    <varray name="rec_basis" >
     <v>       0.27780118      -0.16038859      -0.11341186 </v>
     <v>       0.00000000       0.32077717      -0.11341186 </v>
     <v>      -0.00000000       0.00000000       0.34023557 </v>
    </varray>
   </crystal>
   <varray name="positions" >
    <v>       0.00000000       0.00000000       0.00000000 </v>
   </varray>
  </structure>
  <varray name="forces" >
   <v>      -0.00000001      -0.00000007      -0.00000004 </v>
  </varray>
  <varray name="stress" >
   <v>       1.85153498      -0.00119603      -0.00116848 </v>
   <v>      -0.00119579       1.85255031      -0.00017634 </v>
   <v>      -0.00116800      -0.00017653       1.85660970 </v>
  </varray>
  <energy>
   <i name="e_fr_energy">     -6.91599334 </i>
   <i name="e_wo_entrp">     -6.91599334 </i>
   <i name="e_0_energy">     -0.00000000 </i>
  </energy>
  <time name="totalsc">  309.51  309.56</time>
  <eigenvalues>
   <array>
    <dimension dim="1">band</dimension>
    <dimension dim="2">kpoint</dimension>
    <dimension dim="3">spin</dimension>
    <field>eigene</field>
    <field>occ</field>
    <set>
     <set comment="spin 1">
      <set comment="kpoint 1">
       <r>  -20.6308    1.0000 </r>
       <r>  -20.6308    1.0000 </r>
       <r>   -5.0776    1.0000 </r>
       <r>   -5.0776    1.0000 </r>
       <r>   -4.8840    1.0000 </r>
       <r>   -4.8840    1.0000 </r>
       <r>   -4.8840    1.0000 </r>
       <r>   -4.8840    1.0000 </r>
       <r>    4.6900    0.0000 </r>
       <r>    4.6900    0.0000 </r>
       <r>   11.9471    0.0000 </r>
       <r>   11.9471    0.0000 </r>
       <r>   11.9471    0.0000 </r>
       <r>   11.9471    0.0000 </r>
       <r>   11.9499    0.0000 </r>
       <r>   11.9499    0.0000 </r>
       <r>   14.4403    0.0000 </r>
       <r>   14.4403    0.0000 </r>
       <r>   14.4403    0.0000 </r>
       <r>   14.4403    0.0000 </r>
       <r>   17.3300    0.0000 </r>
       <r>   17.3300    0.0000 </r>
       <r>   20.6317    0.0000 </r>
       <r>   20.6317    0.0000 </r>
       <r>   20.6435    0.0000 </r>
       <r>   20.6435    0.0000 </r>
       <r>   20.6436    0.0000 </r>
       <r>   20.6436    0.0000 </r>
       <r>   22.1873    0.0000 </r>
       <r>   22.1873    0.0000 </r>
       <r>   30.5615    0.0000 </r>
       <r>   30.5615    0.0000 </r>
       <r>   30.5616    0.0000 </r>
       <r>   30.5616    0.0000 </r>
       <r>   30.5686    0.0000 </r>
       <r>   30.5686    0.0000 </r>
       <r>   32.8839    0.0000 </r>
       <r>   32.8839    0.0000 </r>
       <r>   33.0176    0.0000 </r>
       <r>   33.0176    0.0000 </r>
       <r>   33.0176    0.0000 </r>
       <r>   33.0176    0.0000 </r>
       <r>   35.4052    0.0000 </r>
       <r>   35.4052    0.0000 </r>
       <r>   35.4052    0.0000 </r>
       <r>   35.4052    0.0000 </r>
       <r>   42.1380    0.0000 </r>
       <r>   42.1380    0.0000 </r>
       <r>   42.8154    0.0000 </r>
       <r>   42.8154    0.0000 </r>
       <r>   42.8154    0.0000 </r>
       <r>   42.8155    0.0000 </r>
       <r>   42.8155    0.0000 </r>
       <r>   42.8155    0.0000 </r>
       <r>   50.4186    0.0000 </r>
       <r>   50.4186    0.0000 </r>
       <r>   50.4186    0.0000 </r>
       <r>   50.4186    0.0000 </r>
       <r>   53.4706    0.0000 </r>
       <r>   53.4706    0.0000 </r>
       <r>   53.4810    0.0000 </r>
       <r>   53.4810    0.0000 </r>
       <r>   53.4810    0.0000 </r>
       <r>   53.4810    0.0000 </r>
       <r>   53.4836    0.0000 </r>
       <r>   53.4836    0.0000 </r>
       <r>   53.5238    0.0000 </r>
       <r>   53.5238    0.0000 </r>
       <r>   53.5238    0.0000 </r>
       <r>   53.5238    0.0000 </r>
       <r>   57.8952    0.0000 </r>
       <r>   57.8952    0.0000 </r>
       <r>   58.2357    0.0000 </r>
       <r>   58.2357    0.0000 </r>
       <r>   58.2416    0.0000 </r>
       <r>   58.2416    0.0000 </r>
       <r>   58.2416    0.0000 </r>
       <r>   58.2416    0.0000 </r>
       <r>   60.7146    0.0000 </r>
       <r>   60.7146    0.0000 </r>
       <r>   61.5668    0.0000 </r>
       <r>   61.5668    0.0000 </r>
       <r>   61.5668    0.0000 </r>
       <r>   61.5668    0.0000 </r>
       <r>   61.5669    0.0000 </r>
       <r>   61.5669    0.0000 </r>
       <r>   62.8317    0.0000 </r>
       <r>   62.8317    0.0000 </r>
       <r>   62.8317    0.0000 </r>
       <r>   62.8317    0.0000 </r>
       <r>   62.8317    0.0000 </r>
       <r>   62.8317    0.0000 </r>
       <r>   64.0341    0.0000 </r>
       <r>   64.0341    0.0000 </r>
       <r>   64.0342    0.0000 </r>
       <r>   64.0342    0.0000 </r>
       <r>   64.0342    0.0000 </r>
       <r>   64.0342    0.0000 </r>
       <r>   64.9055    0.0000 </r>
       <r>   64.9055    0.0000 </r>
       <r>   64.9055    0.0000 </r>
       <r>   64.9055    0.0000 </r>
       <r>   67.8727    0.0000 </r>
       <r>   67.8727    0.0000 </r>
       <r>   68.2176    0.0000 </r>
       <r>   68.2176    0.0000 </r>
       <r>   68.2176    0.0000 </r>
       <r>   68.2176    0.0000 </r>
       <r>   68.2179    0.0000 </r>
       <r>   68.2179    0.0000 </r>
       <r>   68.8037    0.0000 </r>
       <r>   68.8037    0.0000 </r>
       <r>   68.8083    0.0000 </r>
       <r>   68.8083    0.0000 </r>
       <r>   68.8083    0.0000 </r>
       <r>   68.8084    0.0000 </r>
       <r>   69.0326    0.0000 </r>
       <r>   69.0326    0.0000 </r>
       <r>   81.6084    0.0000 </r>
       <r>   81.6084    0.0000 </r>
       <r>   81.6084    0.0000 </r>
       <r>   81.6084    0.0000 </r>
       <r>   87.2674    0.0000 </r>
       <r>   87.2674    0.0000 </r>
       <r>   87.2675    0.0000 </r>
       <r>   87.2675    0.0000 </r>
       <r>   87.2750    0.0000 </r>
       <r>   87.2750    0.0000 </r>
      </set>
      <set comment="kpoint 2">
       <r>  -20.5608    1.0000 </r>
       <r>  -20.5608    1.0000 </r>
       <r>   -5.4341    1.0000 </r>
       <r>   -5.4341    1.0000 </r>
       <r>   -5.0396    1.0000 </r>
       <r>   -5.0395    1.0000 </r>
       <r>   -4.9316    1.0000 </r>
       <r>   -4.9316    1.0000 </r>
       <r>    5.5000    0.0000 </r>
       <r>    5.5000    0.0000 </r>
       <r>   11.0017    0.0000 </r>
       <r>   11.0017    0.0000 </r>
       <r>   12.1995    0.0000 </r>
       <r>   12.1995    0.0000 </r>
       <r>   12.2019    0.0000 </r>
       <r>   12.2019    0.0000 </r>
       <r>   14.0320    0.0000 </r>
       <r>   14.0320    0.0000 </r>
       <r>   14.0338    0.0000 </r>
       <r>   14.0338    0.0000 </r>
       <r>   18.0528    0.0000 </r>
       <r>   18.0528    0.0000 </r>
       <r>   19.5439    0.0000 </r>
       <r>   19.5439    0.0000 </r>
       <r>   22.2765    0.0000 </r>
       <r>   22.2765    0.0000 </r>
       <r>   22.2842    0.0000 </r>
       <r>   22.2842    0.0000 </r>
       <r>   25.0603    0.0000 </r>
       <r>   25.0603    0.0000 </r>
       <r>   27.7635    0.0000 </r>
       <r>   27.7635    0.0000 </r>
       <r>   28.1577    0.0000 </r>
       <r>   28.1577    0.0000 </r>
       <r>   28.1803    0.0000 </r>
       <r>   28.1803    0.0000 </r>
       <r>   32.7092    0.0000 </r>
       <r>   32.7092    0.0000 </r>
       <r>   32.7383    0.0000 </r>
       <r>   32.7383    0.0000 </r>
       <r>   35.0232    0.0000 </r>
       <r>   35.0232    0.0000 </r>
       <r>   36.5073    0.0000 </r>
       <r>   36.5074    0.0000 </r>
       <r>   36.5365    0.0000 </r>
       <r>   36.5365    0.0000 </r>
       <r>   42.9878    0.0000 </r>
       <r>   42.9878    0.0000 </r>
       <r>   42.9906    0.0000 </r>
       <r>   42.9906    0.0000 </r>
       <r>   43.2074    0.0000 </r>
       <r>   43.2074    0.0000 </r>
       <r>   43.5431    0.0000 </r>
       <r>   43.5431    0.0000 </r>
       <r>   47.5964    0.0000 </r>
       <r>   47.5964    0.0000 </r>
       <r>   49.2551    0.0000 </r>
       <r>   49.2551    0.0000 </r>
       <r>   49.2650    0.0000 </r>
       <r>   49.2650    0.0000 </r>
       <r>   51.9229    0.0000 </r>
       <r>   51.9229    0.0000 </r>
       <r>   51.9278    0.0000 </r>
       <r>   51.9278    0.0000 </r>
       <r>   53.3732    0.0000 </r>
       <r>   53.3732    0.0000 </r>
       <r>   54.8606    0.0000 </r>
       <r>   54.8606    0.0000 </r>
       <r>   54.8648    0.0000 </r>
       <r>   54.8648    0.0000 </r>
       <r>   56.8433    0.0000 </r>
       <r>   56.8433    0.0000 </r>
       <r>   57.0049    0.0000 </r>
       <r>   57.0049    0.0000 </r>
       <r>   57.0160    0.0000 </r>
       <r>   57.0160    0.0000 </r>
       <r>   57.3054    0.0000 </r>
       <r>   57.3054    0.0000 </r>
       <r>   58.1424    0.0000 </r>
       <r>   58.1424    0.0000 </r>
       <r>   59.1452    0.0000 </r>
       <r>   59.1452    0.0000 </r>
       <r>   59.1486    0.0000 </r>
       <r>   59.1486    0.0000 </r>
       <r>   60.4789    0.0000 </r>
       <r>   60.4790    0.0000 </r>
       <r>   63.1565    0.0000 </r>
       <r>   63.1565    0.0000 </r>
       <r>   63.1567    0.0000 </r>
       <r>   63.1567    0.0000 </r>
       <r>   63.7222    0.0000 </r>
       <r>   63.7222    0.0000 </r>
       <r>   65.0063    0.0000 </r>
       <r>   65.0063    0.0000 </r>
       <r>   65.0085    0.0000 </r>
       <r>   65.0085    0.0000 </r>
       <r>   66.4972    0.0000 </r>
       <r>   66.4972    0.0000 </r>
       <r>   67.6510    0.0000 </r>
       <r>   67.6510    0.0000 </r>
       <r>   67.8212    0.0000 </r>
       <r>   67.8212    0.0000 </r>
       <r>   67.8214    0.0000 </r>
       <r>   67.8214    0.0000 </r>
       <r>   68.6434    0.0000 </r>
       <r>   68.6435    0.0000 </r>
       <r>   72.6438    0.0000 </r>
       <r>   72.6438    0.0000 </r>
       <r>   72.6443    0.0000 </r>
       <r>   72.6443    0.0000 </r>
       <r>   72.9994    0.0000 </r>
       <r>   72.9994    0.0000 </r>
       <r>   73.4660    0.0000 </r>
       <r>   73.4660    0.0000 </r>
       <r>   73.4666    0.0000 </r>
       <r>   73.4666    0.0000 </r>
       <r>   77.4283    0.0000 </r>
       <r>   77.4283    0.0000 </r>
       <r>   77.4476    0.0000 </r>
       <r>   77.4476    0.0000 </r>
       <r>   79.9313    0.0000 </r>
       <r>   79.9313    0.0000 </r>
       <r>   82.3676    0.0000 </r>
       <r>   82.3677    0.0000 </r>
       <r>   83.0387    0.0000 </r>
       <r>   83.0387    0.0000 </r>
       <r>   83.4716    0.0000 </r>
       <r>   83.4716    0.0000 </r>
      </set>
      <set comment="kpoint 3">
       <r>  -20.4158    1.0000 </r>
       <r>  -20.4158    1.0000 </r>
       <r>   -6.2357    1.0000 </r>
       <r>   -6.2357    1.0000 </r>
       <r>   -5.1442    1.0000 </r>
       <r>   -5.1442    1.0000 </r>
       <r>   -5.0234    1.0000 </r>
       <r>   -5.0234    1.0000 </r>
       <r>    6.9797    0.0000 </r>
       <r>    6.9797    0.0000 </r>
       <r>   10.1213    0.0000 </r>
       <r>   10.1213    0.0000 </r>
       <r>   11.8341    0.0000 </r>
       <r>   11.8341    0.0000 </r>
       <r>   11.8370    0.0000 </r>
       <r>   11.8370    0.0000 </r>
       <r>   14.9826    0.0000 </r>
       <r>   14.9826    0.0000 </r>
       <r>   14.9864    0.0000 </r>
       <r>   14.9864    0.0000 </r>
       <r>   16.6915    0.0000 </r>
       <r>   16.6915    0.0000 </r>
       <r>   21.0212    0.0000 </r>
       <r>   21.0212    0.0000 </r>
       <r>   24.1044    0.0000 </r>
       <r>   24.1044    0.0000 </r>
       <r>   24.1357    0.0000 </r>
       <r>   24.1357    0.0000 </r>
       <r>   24.5718    0.0000 </r>
       <r>   24.5718    0.0000 </r>
       <r>   25.6901    0.0000 </r>
       <r>   25.6901    0.0000 </r>
       <r>   25.6914    0.0000 </r>
       <r>   25.6914    0.0000 </r>
       <r>   31.8413    0.0000 </r>
       <r>   31.8413    0.0000 </r>
       <r>   32.7396    0.0000 </r>
       <r>   32.7396    0.0000 </r>
       <r>   32.7632    0.0000 </r>
       <r>   32.7632    0.0000 </r>
       <r>   34.8494    0.0000 </r>
       <r>   34.8494    0.0000 </r>
       <r>   37.6088    0.0000 </r>
       <r>   37.6088    0.0000 </r>
       <r>   37.6434    0.0000 </r>
       <r>   37.6434    0.0000 </r>
       <r>   40.0431    0.0000 </r>
       <r>   40.0431    0.0000 </r>
       <r>   40.0454    0.0000 </r>
       <r>   40.0454    0.0000 </r>
       <r>   41.0608    0.0000 </r>
       <r>   41.0608    0.0000 </r>
       <r>   44.2574    0.0000 </r>
       <r>   44.2574    0.0000 </r>
       <r>   46.5106    0.0000 </r>
       <r>   46.5106    0.0000 </r>
       <r>   48.1880    0.0000 </r>
       <r>   48.1880    0.0000 </r>
       <r>   48.1894    0.0000 </r>
       <r>   48.1894    0.0000 </r>
       <r>   48.8964    0.0000 </r>
       <r>   48.8964    0.0000 </r>
       <r>   50.6947    0.0000 </r>
       <r>   50.6947    0.0000 </r>
       <r>   50.6952    0.0000 </r>
       <r>   50.6952    0.0000 </r>
       <r>   52.8510    0.0000 </r>
       <r>   52.8510    0.0000 </r>
       <r>   54.3019    0.0000 </r>
       <r>   54.3019    0.0000 </r>
       <r>   54.3223    0.0000 </r>
       <r>   54.3224    0.0000 </r>
       <r>   54.4309    0.0000 </r>
       <r>   54.4309    0.0000 </r>
       <r>   57.0007    0.0000 </r>
       <r>   57.0007    0.0000 </r>
       <r>   57.4854    0.0000 </r>
       <r>   57.4854    0.0000 </r>
       <r>   57.4864    0.0000 </r>
       <r>   57.4864    0.0000 </r>
       <r>   60.0266    0.0000 </r>
       <r>   60.0266    0.0000 </r>
       <r>   60.0349    0.0000 </r>
       <r>   60.0349    0.0000 </r>
       <r>   60.5256    0.0000 </r>
       <r>   60.5256    0.0000 </r>
       <r>   63.9005    0.0000 </r>
       <r>   63.9005    0.0000 </r>
       <r>   63.9011    0.0000 </r>
       <r>   63.9011    0.0000 </r>
       <r>   65.1517    0.0000 </r>
       <r>   65.1517    0.0000 </r>
       <r>   69.0286    0.0000 </r>
       <r>   69.0286    0.0000 </r>
       <r>   69.0299    0.0000 </r>
       <r>   69.0299    0.0000 </r>
       <r>   71.2258    0.0000 </r>
       <r>   71.2258    0.0000 </r>
       <r>   71.6741    0.0000 </r>
       <r>   71.6741    0.0000 </r>
       <r>   71.6999    0.0000 </r>
       <r>   71.6999    0.0000 </r>
       <r>   72.7828    0.0000 </r>
       <r>   72.7828    0.0000 </r>
       <r>   73.7983    0.0000 </r>
       <r>   73.7983    0.0000 </r>
       <r>   73.8052    0.0000 </r>
       <r>   73.8052    0.0000 </r>
       <r>   76.0556    0.0000 </r>
       <r>   76.0556    0.0000 </r>
       <r>   76.1410    0.0000 </r>
       <r>   76.1410    0.0000 </r>
       <r>   76.1423    0.0000 </r>
       <r>   76.1423    0.0000 </r>
       <r>   76.8823    0.0000 </r>
       <r>   76.8823    0.0000 </r>
       <r>   77.7383    0.0000 </r>
       <r>   77.7383    0.0000 </r>
       <r>   79.4228    0.0000 </r>
       <r>   79.4228    0.0000 </r>
       <r>   79.4238    0.0000 </r>
       <r>   79.4238    0.0000 </r>
       <r>   79.7435    0.0000 </r>
       <r>   79.7435    0.0000 </r>
       <r>   83.5971    0.0000 </r>
       <r>   83.5971    0.0000 </r>
       <r>   83.5973    0.0000 </r>
       <r>   83.5973    0.0000 </r>
      </set>
      <set comment="kpoint 4">
       <r>  -20.3406    1.0000 </r>
       <r>  -20.3406    1.0000 </r>
       <r>   -6.6018    1.0000 </r>
       <r>   -6.6018    1.0000 </r>
       <r>   -5.1900    1.0000 </r>
       <r>   -5.1900    1.0000 </r>
       <r>   -5.0682    1.0000 </r>
       <r>   -5.0682    1.0000 </r>
       <r>    7.4958    0.0000 </r>
       <r>    7.4958    0.0000 </r>
       <r>   10.1805    0.0000 </r>
       <r>   10.1805    0.0000 </r>
       <r>   11.4971    0.0000 </r>
       <r>   11.4971    0.0000 </r>
       <r>   11.5000    0.0000 </r>
       <r>   11.5000    0.0000 </r>
       <r>   16.2527    0.0000 </r>
       <r>   16.2527    0.0000 </r>
       <r>   16.2552    0.0000 </r>
       <r>   16.2552    0.0000 </r>
       <r>   16.7842    0.0000 </r>
       <r>   16.7842    0.0000 </r>
       <r>   18.9288    0.0000 </r>
       <r>   18.9288    0.0000 </r>
       <r>   21.8961    0.0000 </r>
       <r>   21.8961    0.0000 </r>
       <r>   21.9267    0.0000 </r>
       <r>   21.9267    0.0000 </r>
       <r>   27.9330    0.0000 </r>
       <r>   27.9330    0.0000 </r>
       <r>   27.9382    0.0000 </r>
       <r>   27.9382    0.0000 </r>
       <r>   28.0872    0.0000 </r>
       <r>   28.0872    0.0000 </r>
       <r>   31.2265    0.0000 </r>
       <r>   31.2265    0.0000 </r>
       <r>   32.5606    0.0000 </r>
       <r>   32.5606    0.0000 </r>
       <r>   32.6062    0.0000 </r>
       <r>   32.6062    0.0000 </r>
       <r>   36.8390    0.0000 </r>
       <r>   36.8390    0.0000 </r>
       <r>   36.8419    0.0000 </r>
       <r>   36.8419    0.0000 </r>
       <r>   38.4758    0.0000 </r>
       <r>   38.4758    0.0000 </r>
       <r>   38.8097    0.0000 </r>
       <r>   38.8097    0.0000 </r>
       <r>   39.3632    0.0000 </r>
       <r>   39.3632    0.0000 </r>
       <r>   39.3897    0.0000 </r>
       <r>   39.3897    0.0000 </r>
       <r>   41.5949    0.0000 </r>
       <r>   41.5949    0.0000 </r>
       <r>   45.0350    0.0000 </r>
       <r>   45.0350    0.0000 </r>
       <r>   46.3260    0.0000 </r>
       <r>   46.3260    0.0000 </r>
       <r>   46.3277    0.0000 </r>
       <r>   46.3277    0.0000 </r>
       <r>   47.6707    0.0000 </r>
       <r>   47.6707    0.0000 </r>
       <r>   49.7686    0.0000 </r>
       <r>   49.7686    0.0000 </r>
       <r>   49.7687    0.0000 </r>
       <r>   49.7687    0.0000 </r>
       <r>   51.0824    0.0000 </r>
       <r>   51.0824    0.0000 </r>
       <r>   56.8993    0.0000 </r>
       <r>   56.8993    0.0000 </r>
       <r>   56.9008    0.0000 </r>
       <r>   56.9008    0.0000 </r>
       <r>   56.9041    0.0000 </r>
       <r>   56.9041    0.0000 </r>
       <r>   56.9389    0.0000 </r>
       <r>   56.9389    0.0000 </r>
       <r>   58.4062    0.0000 </r>
       <r>   58.4062    0.0000 </r>
       <r>   58.4089    0.0000 </r>
       <r>   58.4089    0.0000 </r>
       <r>   59.2438    0.0000 </r>
       <r>   59.2438    0.0000 </r>
       <r>   59.2633    0.0000 </r>
       <r>   59.2633    0.0000 </r>
       <r>   60.7539    0.0000 </r>
       <r>   60.7539    0.0000 </r>
       <r>   65.2126    0.0000 </r>
       <r>   65.2126    0.0000 </r>
       <r>   66.1991    0.0000 </r>
       <r>   66.1991    0.0000 </r>
       <r>   66.2290    0.0000 </r>
       <r>   66.2290    0.0000 </r>
       <r>   68.8104    0.0000 </r>
       <r>   68.8104    0.0000 </r>
       <r>   68.8130    0.0000 </r>
       <r>   68.8130    0.0000 </r>
       <r>   69.5377    0.0000 </r>
       <r>   69.5377    0.0000 </r>
       <r>   69.9980    0.0000 </r>
       <r>   69.9980    0.0000 </r>
       <r>   70.0038    0.0000 </r>
       <r>   70.0038    0.0000 </r>
       <r>   73.3620    0.0000 </r>
       <r>   73.3620    0.0000 </r>
       <r>   76.7866    0.0000 </r>
       <r>   76.7866    0.0000 </r>
       <r>   76.7877    0.0000 </r>
       <r>   76.7877    0.0000 </r>
       <r>   78.3304    0.0000 </r>
       <r>   78.3304    0.0000 </r>
       <r>   79.2176    0.0000 </r>
       <r>   79.2176    0.0000 </r>
       <r>   79.2334    0.0000 </r>
       <r>   79.2334    0.0000 </r>
       <r>   80.2788    0.0000 </r>
       <r>   80.2788    0.0000 </r>
       <r>   80.2797    0.0000 </r>
       <r>   80.2797    0.0000 </r>
       <r>   81.9008    0.0000 </r>
       <r>   81.9008    0.0000 </r>
       <r>   81.9046    0.0000 </r>
       <r>   81.9046    0.0000 </r>
       <r>   82.8005    0.0000 </r>
       <r>   82.8005    0.0000 </r>
       <r>   83.5444    0.0000 </r>
       <r>   83.5444    0.0000 </r>
       <r>   84.1486    0.0000 </r>
       <r>   84.1486    0.0000 </r>
      </set>
      <set comment="kpoint 5">
       <r>  -20.4158    1.0000 </r>
       <r>  -20.4158    1.0000 </r>
       <r>   -6.2357    1.0000 </r>
       <r>   -6.2357    1.0000 </r>
       <r>   -5.1442    1.0000 </r>
       <r>   -5.1442    1.0000 </r>
       <r>   -5.0234    1.0000 </r>
       <r>   -5.0234    1.0000 </r>
       <r>    6.9797    0.0000 </r>
       <r>    6.9797    0.0000 </r>
       <r>   10.1213    0.0000 </r>
       <r>   10.1213    0.0000 </r>
       <r>   11.8341    0.0000 </r>
       <r>   11.8341    0.0000 </r>
       <r>   11.8370    0.0000 </r>
       <r>   11.8370    0.0000 </r>
       <r>   14.9826    0.0000 </r>
       <r>   14.9826    0.0000 </r>
       <r>   14.9864    0.0000 </r>
       <r>   14.9864    0.0000 </r>
       <r>   16.6915    0.0000 </r>
       <r>   16.6915    0.0000 </r>
       <r>   21.0212    0.0000 </r>
       <r>   21.0212    0.0000 </r>
       <r>   24.1044    0.0000 </r>
       <r>   24.1044    0.0000 </r>
       <r>   24.1357    0.0000 </r>
       <r>   24.1357    0.0000 </r>
       <r>   24.5718    0.0000 </r>
       <r>   24.5718    0.0000 </r>
       <r>   25.6901    0.0000 </r>
       <r>   25.6901    0.0000 </r>
       <r>   25.6914    0.0000 </r>
       <r>   25.6914    0.0000 </r>
       <r>   31.8413    0.0000 </r>
       <r>   31.8413    0.0000 </r>
       <r>   32.7396    0.0000 </r>
       <r>   32.7396    0.0000 </r>
       <r>   32.7632    0.0000 </r>
       <r>   32.7632    0.0000 </r>
       <r>   34.8494    0.0000 </r>
       <r>   34.8494    0.0000 </r>
       <r>   37.6088    0.0000 </r>
       <r>   37.6088    0.0000 </r>
       <r>   37.6434    0.0000 </r>
       <r>   37.6434    0.0000 </r>
       <r>   40.0431    0.0000 </r>
       <r>   40.0431    0.0000 </r>
       <r>   40.0454    0.0000 </r>
       <r>   40.0454    0.0000 </r>
       <r>   41.0608    0.0000 </r>
       <r>   41.0608    0.0000 </r>
       <r>   44.2574    0.0000 </r>
       <r>   44.2574    0.0000 </r>
       <r>   46.5106    0.0000 </r>
       <r>   46.5106    0.0000 </r>
       <r>   48.1880    0.0000 </r>
       <r>   48.1880    0.0000 </r>
       <r>   48.1894    0.0000 </r>
       <r>   48.1894    0.0000 </r>
       <r>   48.8964    0.0000 </r>
       <r>   48.8964    0.0000 </r>
       <r>   50.6947    0.0000 </r>
       <r>   50.6947    0.0000 </r>
       <r>   50.6952    0.0000 </r>
       <r>   50.6952    0.0000 </r>
       <r>   52.8510    0.0000 </r>
       <r>   52.8510    0.0000 </r>
       <r>   54.3019    0.0000 </r>
       <r>   54.3019    0.0000 </r>
       <r>   54.3223    0.0000 </r>
       <r>   54.3224    0.0000 </r>
       <r>   54.4309    0.0000 </r>
       <r>   54.4309    0.0000 </r>
       <r>   57.0007    0.0000 </r>
       <r>   57.0007    0.0000 </r>
       <r>   57.4854    0.0000 </r>
       <r>   57.4854    0.0000 </r>
       <r>   57.4864    0.0000 </r>
       <r>   57.4864    0.0000 </r>
       <r>   60.0266    0.0000 </r>
       <r>   60.0266    0.0000 </r>
       <r>   60.0349    0.0000 </r>
       <r>   60.0349    0.0000 </r>
       <r>   60.5256    0.0000 </r>
       <r>   60.5256    0.0000 </r>
       <r>   63.9005    0.0000 </r>
       <r>   63.9005    0.0000 </r>
       <r>   63.9011    0.0000 </r>
       <r>   63.9011    0.0000 </r>
       <r>   65.1517    0.0000 </r>
       <r>   65.1517    0.0000 </r>
       <r>   69.0286    0.0000 </r>
       <r>   69.0286    0.0000 </r>
       <r>   69.0299    0.0000 </r>
       <r>   69.0299    0.0000 </r>
       <r>   71.2258    0.0000 </r>
       <r>   71.2258    0.0000 </r>
       <r>   71.6741    0.0000 </r>
       <r>   71.6741    0.0000 </r>
       <r>   71.6999    0.0000 </r>
       <r>   71.6999    0.0000 </r>
       <r>   72.7828    0.0000 </r>
       <r>   72.7828    0.0000 </r>
       <r>   73.7983    0.0000 </r>
       <r>   73.7983    0.0000 </r>
       <r>   73.8052    0.0000 </r>
       <r>   73.8052    0.0000 </r>
       <r>   76.0556    0.0000 </r>
       <r>   76.0556    0.0000 </r>
       <r>   76.1410    0.0000 </r>
       <r>   76.1410    0.0000 </r>
       <r>   76.1423    0.0000 </r>
       <r>   76.1423    0.0000 </r>
       <r>   76.8823    0.0000 </r>
       <r>   76.8823    0.0000 </r>
       <r>   77.7383    0.0000 </r>
       <r>   77.7383    0.0000 </r>
       <r>   79.4228    0.0000 </r>
       <r>   79.4228    0.0000 </r>
       <r>   79.4238    0.0000 </r>
       <r>   79.4238    0.0000 </r>
       <r>   79.7435    0.0000 </r>
       <r>   79.7435    0.0000 </r>
       <r>   83.5971    0.0000 </r>
       <r>   83.5971    0.0000 </r>
       <r>   83.5973    0.0000 </r>
       <r>   83.5973    0.0000 </r>
      </set>
      <set comment="kpoint 6">
       <r>  -20.5608    1.0000 </r>
       <r>  -20.5608    1.0000 </r>
       <r>   -5.4341    1.0000 </r>
       <r>   -5.4341    1.0000 </r>
       <r>   -5.0396    1.0000 </r>
       <r>   -5.0395    1.0000 </r>
       <r>   -4.9316    1.0000 </r>
       <r>   -4.9316    1.0000 </r>
       <r>    5.5000    0.0000 </r>
       <r>    5.5000    0.0000 </r>
       <r>   11.0017    0.0000 </r>
       <r>   11.0017    0.0000 </r>
       <r>   12.1995    0.0000 </r>
       <r>   12.1995    0.0000 </r>
       <r>   12.2019    0.0000 </r>
       <r>   12.2019    0.0000 </r>
       <r>   14.0320    0.0000 </r>
       <r>   14.0320    0.0000 </r>
       <r>   14.0338    0.0000 </r>
       <r>   14.0338    0.0000 </r>
       <r>   18.0528    0.0000 </r>
       <r>   18.0528    0.0000 </r>
       <r>   19.5439    0.0000 </r>
       <r>   19.5439    0.0000 </r>
       <r>   22.2765    0.0000 </r>
       <r>   22.2765    0.0000 </r>
       <r>   22.2842    0.0000 </r>
       <r>   22.2842    0.0000 </r>
       <r>   25.0603    0.0000 </r>
       <r>   25.0603    0.0000 </r>
       <r>   27.7635    0.0000 </r>
       <r>   27.7635    0.0000 </r>
       <r>   28.1577    0.0000 </r>
       <r>   28.1577    0.0000 </r>
       <r>   28.1803    0.0000 </r>
       <r>   28.1803    0.0000 </r>
       <r>   32.7092    0.0000 </r>
       <r>   32.7092    0.0000 </r>
       <r>   32.7383    0.0000 </r>
       <r>   32.7383    0.0000 </r>
       <r>   35.0232    0.0000 </r>
       <r>   35.0232    0.0000 </r>
       <r>   36.5073    0.0000 </r>
       <r>   36.5074    0.0000 </r>
       <r>   36.5365    0.0000 </r>
       <r>   36.5365    0.0000 </r>
       <r>   42.9878    0.0000 </r>
       <r>   42.9878    0.0000 </r>
       <r>   42.9906    0.0000 </r>
       <r>   42.9906    0.0000 </r>
       <r>   43.2074    0.0000 </r>
       <r>   43.2074    0.0000 </r>
       <r>   43.5431    0.0000 </r>
       <r>   43.5431    0.0000 </r>
       <r>   47.5964    0.0000 </r>
       <r>   47.5964    0.0000 </r>
       <r>   49.2551    0.0000 </r>
       <r>   49.2551    0.0000 </r>
       <r>   49.2650    0.0000 </r>
       <r>   49.2650    0.0000 </r>
       <r>   51.9229    0.0000 </r>
       <r>   51.9229    0.0000 </r>
       <r>   51.9278    0.0000 </r>
       <r>   51.9278    0.0000 </r>
       <r>   53.3732    0.0000 </r>
       <r>   53.3732    0.0000 </r>
       <r>   54.8606    0.0000 </r>
       <r>   54.8606    0.0000 </r>
       <r>   54.8648    0.0000 </r>
       <r>   54.8648    0.0000 </r>
       <r>   56.8433    0.0000 </r>
       <r>   56.8433    0.0000 </r>
       <r>   57.0049    0.0000 </r>
       <r>   57.0049    0.0000 </r>
       <r>   57.0160    0.0000 </r>
       <r>   57.0160    0.0000 </r>
       <r>   57.3054    0.0000 </r>
       <r>   57.3054    0.0000 </r>
       <r>   58.1424    0.0000 </r>
       <r>   58.1424    0.0000 </r>
       <r>   59.1452    0.0000 </r>
       <r>   59.1452    0.0000 </r>
       <r>   59.1486    0.0000 </r>
       <r>   59.1486    0.0000 </r>
       <r>   60.4789    0.0000 </r>
       <r>   60.4790    0.0000 </r>
       <r>   63.1565    0.0000 </r>
       <r>   63.1565    0.0000 </r>
       <r>   63.1567    0.0000 </r>
       <r>   63.1567    0.0000 </r>
       <r>   63.7222    0.0000 </r>
       <r>   63.7222    0.0000 </r>
       <r>   65.0063    0.0000 </r>
       <r>   65.0063    0.0000 </r>
       <r>   65.0085    0.0000 </r>
       <r>   65.0085    0.0000 </r>
       <r>   66.4972    0.0000 </r>
       <r>   66.4972    0.0000 </r>
       <r>   67.6510    0.0000 </r>
       <r>   67.6510    0.0000 </r>
       <r>   67.8212    0.0000 </r>
       <r>   67.8212    0.0000 </r>
       <r>   67.8214    0.0000 </r>
       <r>   67.8214    0.0000 </r>
       <r>   68.6434    0.0000 </r>
       <r>   68.6435    0.0000 </r>
       <r>   72.6438    0.0000 </r>
       <r>   72.6438    0.0000 </r>
       <r>   72.6443    0.0000 </r>
       <r>   72.6443    0.0000 </r>
       <r>   72.9994    0.0000 </r>
       <r>   72.9994    0.0000 </r>
       <r>   73.4660    0.0000 </r>
       <r>   73.4660    0.0000 </r>
       <r>   73.4666    0.0000 </r>
       <r>   73.4666    0.0000 </r>
       <r>   77.4283    0.0000 </r>
       <r>   77.4283    0.0000 </r>
       <r>   77.4476    0.0000 </r>
       <r>   77.4476    0.0000 </r>
       <r>   79.9313    0.0000 </r>
       <r>   79.9313    0.0000 </r>
       <r>   82.3676    0.0000 </r>
       <r>   82.3677    0.0000 </r>
       <r>   83.0387    0.0000 </r>
       <r>   83.0387    0.0000 </r>
       <r>   83.4716    0.0000 </r>
       <r>   83.4716    0.0000 </r>
      </set>
      <set comment="kpoint 7">
       <r>  -20.5608    1.0000 </r>
       <r>  -20.5608    1.0000 </r>
       <r>   -5.4341    1.0000 </r>
       <r>   -5.4341    1.0000 </r>
       <r>   -5.0396    1.0000 </r>
       <r>   -5.0395    1.0000 </r>
       <r>   -4.9316    1.0000 </r>
       <r>   -4.9316    1.0000 </r>
       <r>    5.5000    0.0000 </r>
       <r>    5.5000    0.0000 </r>
       <r>   11.0017    0.0000 </r>
       <r>   11.0017    0.0000 </r>
       <r>   12.1995    0.0000 </r>
       <r>   12.1995    0.0000 </r>
       <r>   12.2019    0.0000 </r>
       <r>   12.2019    0.0000 </r>
       <r>   14.0320    0.0000 </r>
       <r>   14.0320    0.0000 </r>
       <r>   14.0338    0.0000 </r>
       <r>   14.0338    0.0000 </r>
       <r>   18.0528    0.0000 </r>
       <r>   18.0528    0.0000 </r>
       <r>   19.5439    0.0000 </r>
       <r>   19.5439    0.0000 </r>
       <r>   22.2765    0.0000 </r>
       <r>   22.2765    0.0000 </r>
       <r>   22.2842    0.0000 </r>
       <r>   22.2842    0.0000 </r>
       <r>   25.0603    0.0000 </r>
       <r>   25.0603    0.0000 </r>
       <r>   27.7635    0.0000 </r>
       <r>   27.7635    0.0000 </r>
       <r>   28.1577    0.0000 </r>
       <r>   28.1577    0.0000 </r>
       <r>   28.1803    0.0000 </r>
       <r>   28.1803    0.0000 </r>
       <r>   32.7092    0.0000 </r>
       <r>   32.7092    0.0000 </r>
       <r>   32.7383    0.0000 </r>
       <r>   32.7383    0.0000 </r>
       <r>   35.0232    0.0000 </r>
       <r>   35.0232    0.0000 </r>
       <r>   36.5073    0.0000 </r>
       <r>   36.5073    0.0000 </r>
       <r>   36.5365    0.0000 </r>
       <r>   36.5365    0.0000 </r>
       <r>   42.9878    0.0000 </r>
       <r>   42.9878    0.0000 </r>
       <r>   42.9906    0.0000 </r>
       <r>   42.9906    0.0000 </r>
       <r>   43.2074    0.0000 </r>
       <r>   43.2074    0.0000 </r>
       <r>   43.5431    0.0000 </r>
       <r>   43.5431    0.0000 </r>
       <r>   47.5964    0.0000 </r>
       <r>   47.5964    0.0000 </r>
       <r>   49.2551    0.0000 </r>
       <r>   49.2551    0.0000 </r>
       <r>   49.2650    0.0000 </r>
       <r>   49.2650    0.0000 </r>
       <r>   51.9229    0.0000 </r>
       <r>   51.9229    0.0000 </r>
       <r>   51.9278    0.0000 </r>
       <r>   51.9278    0.0000 </r>
       <r>   53.3732    0.0000 </r>
       <r>   53.3732    0.0000 </r>
       <r>   54.8605    0.0000 </r>
       <r>   54.8606    0.0000 </r>
       <r>   54.8648    0.0000 </r>
       <r>   54.8648    0.0000 </r>
       <r>   56.8433    0.0000 </r>
       <r>   56.8433    0.0000 </r>
       <r>   57.0049    0.0000 </r>
       <r>   57.0049    0.0000 </r>
       <r>   57.0160    0.0000 </r>
       <r>   57.0160    0.0000 </r>
       <r>   57.3054    0.0000 </r>
       <r>   57.3054    0.0000 </r>
       <r>   58.1424    0.0000 </r>
       <r>   58.1424    0.0000 </r>
       <r>   59.1452    0.0000 </r>
       <r>   59.1452    0.0000 </r>
       <r>   59.1486    0.0000 </r>
       <r>   59.1486    0.0000 </r>
       <r>   60.4790    0.0000 </r>
       <r>   60.4790    0.0000 </r>
       <r>   63.1565    0.0000 </r>
       <r>   63.1565    0.0000 </r>
       <r>   63.1567    0.0000 </r>
       <r>   63.1567    0.0000 </r>
       <r>   63.7222    0.0000 </r>
       <r>   63.7222    0.0000 </r>
       <r>   65.0063    0.0000 </r>
       <r>   65.0063    0.0000 </r>
       <r>   65.0085    0.0000 </r>
       <r>   65.0085    0.0000 </r>
       <r>   66.4972    0.0000 </r>
       <r>   66.4972    0.0000 </r>
       <r>   67.6510    0.0000 </r>
       <r>   67.6510    0.0000 </r>
       <r>   67.8212    0.0000 </r>
       <r>   67.8212    0.0000 </r>
       <r>   67.8214    0.0000 </r>
       <r>   67.8214    0.0000 </r>
       <r>   68.6434    0.0000 </r>
       <r>   68.6434    0.0000 </r>
       <r>   72.6438    0.0000 </r>
       <r>   72.6438    0.0000 </r>
       <r>   72.6443    0.0000 </r>
       <r>   72.6443    0.0000 </r>
       <r>   72.9994    0.0000 </r>
       <r>   72.9994    0.0000 </r>
       <r>   73.4660    0.0000 </r>
       <r>   73.4660    0.0000 </r>
       <r>   73.4666    0.0000 </r>
       <r>   73.4666    0.0000 </r>
       <r>   77.4283    0.0000 </r>
       <r>   77.4283    0.0000 </r>
       <r>   77.4475    0.0000 </r>
       <r>   77.4476    0.0000 </r>
       <r>   79.9313    0.0000 </r>
       <r>   79.9313    0.0000 </r>
       <r>   82.3676    0.0000 </r>
       <r>   82.3677    0.0000 </r>
       <r>   83.0387    0.0000 </r>
       <r>   83.0387    0.0000 </r>
       <r>   83.4716    0.0000 </r>
       <r>   83.4716    0.0000 </r>
      </set>
      <set comment="kpoint 8">
       <r>  -20.5376    1.0000 </r>
       <r>  -20.5376    1.0000 </r>
       <r>   -5.4293    1.0000 </r>
       <r>   -5.4293    1.0000 </r>
       <r>   -5.1254    1.0000 </r>
       <r>   -5.1254    1.0000 </r>
       <r>   -5.0261    1.0000 </r>
       <r>   -5.0261    1.0000 </r>
       <r>    5.7473    0.0000 </r>
       <r>    5.7473    0.0000 </r>
       <r>   10.6347    0.0000 </r>
       <r>   10.6347    0.0000 </r>
       <r>   12.5400    0.0000 </r>
       <r>   12.5400    0.0000 </r>
       <r>   12.5467    0.0000 </r>
       <r>   12.5467    0.0000 </r>
       <r>   12.5711    0.0000 </r>
       <r>   12.5711    0.0000 </r>
       <r>   14.8280    0.0000 </r>
       <r>   14.8280    0.0000 </r>
       <r>   19.7190    0.0000 </r>
       <r>   19.7190    0.0000 </r>
       <r>   19.8759    0.0000 </r>
       <r>   19.8759    0.0000 </r>
       <r>   21.4021    0.0000 </r>
       <r>   21.4021    0.0000 </r>
       <r>   21.4143    0.0000 </r>
       <r>   21.4143    0.0000 </r>
       <r>   27.0978    0.0000 </r>
       <r>   27.0978    0.0000 </r>
       <r>   27.1407    0.0000 </r>
       <r>   27.1407    0.0000 </r>
       <r>   27.1619    0.0000 </r>
       <r>   27.1619    0.0000 </r>
       <r>   28.4920    0.0000 </r>
       <r>   28.4920    0.0000 </r>
       <r>   30.8948    0.0000 </r>
       <r>   30.8948    0.0000 </r>
       <r>   32.9360    0.0000 </r>
       <r>   32.9360    0.0000 </r>
       <r>   36.0059    0.0000 </r>
       <r>   36.0059    0.0000 </r>
       <r>   36.0663    0.0000 </r>
       <r>   36.0663    0.0000 </r>
       <r>   37.0604    0.0000 </r>
       <r>   37.0604    0.0000 </r>
       <r>   43.2865    0.0000 </r>
       <r>   43.2865    0.0000 </r>
       <r>   43.6610    0.0000 </r>
       <r>   43.6610    0.0000 </r>
       <r>   43.6628    0.0000 </r>
       <r>   43.6628    0.0000 </r>
       <r>   44.0885    0.0000 </r>
       <r>   44.0885    0.0000 </r>
       <r>   46.1331    0.0000 </r>
       <r>   46.1331    0.0000 </r>
       <r>   48.6274    0.0000 </r>
       <r>   48.6274    0.0000 </r>
       <r>   48.6422    0.0000 </r>
       <r>   48.6422    0.0000 </r>
       <r>   50.3391    0.0000 </r>
       <r>   50.3391    0.0000 </r>
       <r>   52.5637    0.0000 </r>
       <r>   52.5637    0.0000 </r>
       <r>   52.5784    0.0000 </r>
       <r>   52.5784    0.0000 </r>
       <r>   53.3273    0.0000 </r>
       <r>   53.3273    0.0000 </r>
       <r>   54.6934    0.0000 </r>
       <r>   54.6934    0.0000 </r>
       <r>   55.1559    0.0000 </r>
       <r>   55.1559    0.0000 </r>
       <r>   57.5093    0.0000 </r>
       <r>   57.5093    0.0000 </r>
       <r>   57.5096    0.0000 </r>
       <r>   57.5096    0.0000 </r>
       <r>   59.4372    0.0000 </r>
       <r>   59.4372    0.0000 </r>
       <r>   60.1089    0.0000 </r>
       <r>   60.1089    0.0000 </r>
       <r>   60.1150    0.0000 </r>
       <r>   60.1151    0.0000 </r>
       <r>   60.3934    0.0000 </r>
       <r>   60.3934    0.0000 </r>
       <r>   61.1095    0.0000 </r>
       <r>   61.1095    0.0000 </r>
       <r>   62.9204    0.0000 </r>
       <r>   62.9204    0.0000 </r>
       <r>   62.9253    0.0000 </r>
       <r>   62.9253    0.0000 </r>
       <r>   62.9303    0.0000 </r>
       <r>   62.9303    0.0000 </r>
       <r>   63.3743    0.0000 </r>
       <r>   63.3743    0.0000 </r>
       <r>   63.4966    0.0000 </r>
       <r>   63.4966    0.0000 </r>
       <r>   65.9931    0.0000 </r>
       <r>   65.9931    0.0000 </r>
       <r>   66.8905    0.0000 </r>
       <r>   66.8905    0.0000 </r>
       <r>   66.8905    0.0000 </r>
       <r>   66.8905    0.0000 </r>
       <r>   68.6795    0.0000 </r>
       <r>   68.6795    0.0000 </r>
       <r>   71.3760    0.0000 </r>
       <r>   71.3760    0.0000 </r>
       <r>   71.3765    0.0000 </r>
       <r>   71.3765    0.0000 </r>
       <r>   72.4765    0.0000 </r>
       <r>   72.4765    0.0000 </r>
       <r>   74.0033    0.0000 </r>
       <r>   74.0033    0.0000 </r>
       <r>   77.0760    0.0000 </r>
       <r>   77.0760    0.0000 </r>
       <r>   77.5243    0.0000 </r>
       <r>   77.5243    0.0000 </r>
       <r>   77.5245    0.0000 </r>
       <r>   77.5245    0.0000 </r>
       <r>   77.6771    0.0000 </r>
       <r>   77.6771    0.0000 </r>
       <r>   80.7428    0.0000 </r>
       <r>   80.7428    0.0000 </r>
       <r>   81.2251    0.0000 </r>
       <r>   81.2251    0.0000 </r>
       <r>   81.2607    0.0000 </r>
       <r>   81.2607    0.0000 </r>
       <r>   85.9221    0.0000 </r>
       <r>   85.9221    0.0000 </r>
      </set>
      <set comment="kpoint 9">
       <r>  -20.4176    1.0000 </r>
       <r>  -20.4176    1.0000 </r>
       <r>   -6.0045    1.0000 </r>
       <r>   -6.0045    1.0000 </r>
       <r>   -5.2643    1.0000 </r>
       <r>   -5.2643    1.0000 </r>
       <r>   -5.1482    1.0000 </r>
       <r>   -5.1482    1.0000 </r>
       <r>    7.0130    0.0000 </r>
       <r>    7.0131    0.0000 </r>
       <r>    9.8479    0.0000 </r>
       <r>    9.8479    0.0000 </r>
       <r>   11.1232    0.0000 </r>
       <r>   11.1232    0.0000 </r>
       <r>   12.7011    0.0000 </r>
       <r>   12.7011    0.0000 </r>
       <r>   13.9495    0.0000 </r>
       <r>   13.9495    0.0000 </r>
       <r>   15.5230    0.0000 </r>
       <r>   15.5230    0.0000 </r>
       <r>   18.7109    0.0000 </r>
       <r>   18.7109    0.0000 </r>
       <r>   21.5583    0.0000 </r>
       <r>   21.5583    0.0000 </r>
       <r>   22.2760    0.0000 </r>
       <r>   22.2760    0.0000 </r>
       <r>   22.6120    0.0000 </r>
       <r>   22.6120    0.0000 </r>
       <r>   25.4287    0.0000 </r>
       <r>   25.4287    0.0000 </r>
       <r>   25.8266    0.0000 </r>
       <r>   25.8266    0.0000 </r>
       <r>   27.1430    0.0000 </r>
       <r>   27.1430    0.0000 </r>
       <r>   30.0312    0.0000 </r>
       <r>   30.0312    0.0000 </r>
       <r>   31.5792    0.0000 </r>
       <r>   31.5792    0.0000 </r>
       <r>   32.3227    0.0000 </r>
       <r>   32.3227    0.0000 </r>
       <r>   35.2312    0.0000 </r>
       <r>   35.2312    0.0000 </r>
       <r>   36.9385    0.0000 </r>
       <r>   36.9385    0.0000 </r>
       <r>   38.3922    0.0000 </r>
       <r>   38.3922    0.0000 </r>
       <r>   40.3583    0.0000 </r>
[...]
       <r>    58.2483     0.0000     0.0000 </r>
       <r>    58.6440     0.0000     0.0000 </r>
       <r>    59.0396     0.0000     0.0000 </r>
       <r>    59.4353     0.0000     0.0000 </r>
       <r>    59.8309     0.0000     0.0000 </r>
       <r>    60.2266     0.0000     0.0000 </r>
       <r>    60.6222     0.0000     0.0000 </r>
       <r>    61.0179     0.0000     0.0000 </r>
       <r>    61.4136     0.0000     0.0000 </r>
       <r>    61.8092     0.0000     0.0000 </r>
       <r>    62.2049     0.0000     0.0000 </r>
       <r>    62.6005     0.0000     0.0000 </r>
       <r>    62.9962     0.0000     0.0000 </r>
       <r>    63.3918     0.0000     0.0000 </r>
       <r>    63.7875     0.0000     0.0000 </r>
       <r>    64.1831     0.0000     0.0000 </r>
       <r>    64.5788     0.0000     0.0000 </r>
       <r>    64.9744     0.0000     0.0000 </r>
       <r>    65.3701     0.0000     0.0000 </r>
       <r>    65.7658     0.0000     0.0000 </r>
       <r>    66.1614     0.0000     0.0000 </r>
       <r>    66.5571     0.0000     0.0000 </r>
       <r>    66.9527     0.0000     0.0000 </r>
       <r>    67.3484     0.0000     0.0000 </r>
       <r>    67.7440     0.0000     0.0000 </r>
       <r>    68.1397     0.0000     0.0000 </r>
       <r>    68.5353     0.0000     0.0000 </r>
       <r>    68.9310     0.0000     0.0000 </r>
       <r>    69.3266     0.0000     0.0000 </r>
       <r>    69.7223     0.0000     0.0000 </r>
       <r>    70.1180     0.0000     0.0000 </r>
       <r>    70.5136     0.0000     0.0000 </r>
       <r>    70.9093     0.0000     0.0000 </r>
       <r>    71.3049     0.0000     0.0000 </r>
       <r>    71.7006     0.0000     0.0000 </r>
       <r>    72.0962     0.0000     0.0000 </r>
       <r>    72.4919     0.0000     0.0000 </r>
       <r>    72.8875     0.0000     0.0000 </r>
       <r>    73.2832     0.0000     0.0000 </r>
       <r>    73.6788     0.0000     0.0000 </r>
       <r>    74.0745     0.0000     0.0000 </r>
       <r>    74.4702     0.0000     0.0000 </r>
       <r>    74.8658     0.0000     0.0000 </r>
       <r>    75.2615     0.0000     0.0000 </r>
       <r>    75.6571     0.0000     0.0000 </r>
       <r>    76.0528     0.0000     0.0000 </r>
       <r>    76.4484     0.0000     0.0000 </r>
       <r>    76.8441     0.0000     0.0000 </r>
       <r>    77.2397     0.0000     0.0000 </r>
       <r>    77.6354     0.0000     0.0000 </r>
       <r>    78.0310     0.0000     0.0000 </r>
       <r>    78.4267     0.0000     0.0000 </r>
       <r>    78.8224     0.0000     0.0000 </r>
       <r>    79.2180     0.0000     0.0000 </r>
       <r>    79.6137     0.0000     0.0000 </r>
       <r>    80.0093     0.0000     0.0000 </r>
       <r>    80.4050     0.0000     0.0000 </r>
       <r>    80.8006     0.0000     0.0000 </r>
       <r>    81.1963     0.0000     0.0000 </r>
       <r>    81.5919     0.0000     0.0000 </r>
       <r>    81.9876     0.0000     0.0000 </r>
       <r>    82.3832     0.0000     0.0000 </r>
       <r>    82.7789     0.0000     0.0000 </r>
       <r>    83.1746     0.0000     0.0000 </r>
       <r>    83.5702     0.0000     0.0000 </r>
       <r>    83.9659     0.0000     0.0000 </r>
       <r>    84.3615     0.0000     0.0000 </r>
       <r>    84.7572     0.0000     0.0000 </r>
       <r>    85.1528     0.0000     0.0000 </r>
       <r>    85.5485     0.0000     0.0000 </r>
       <r>    85.9441     0.0000     0.0000 </r>
       <r>    86.3398     0.0000     0.0000 </r>
       <r>    86.7354     0.0000     0.0000 </r>
       <r>    87.1311     0.0000     0.0000 </r>
       <r>    87.5268     0.0000     0.0000 </r>
       <r>    87.9224     0.0000     0.0000 </r>
       <r>    88.3181     0.0000     0.0000 </r>
       <r>    88.7137     0.0000     0.0000 </r>
       <r>    89.1094     0.0000     0.0000 </r>
       <r>    89.5050     0.0000     0.0000 </r>
       <r>    89.9007     0.0000     0.0000 </r>
       <r>    90.2963     0.0000     0.0000 </r>
       <r>    90.6920     0.0000     0.0000 </r>
       <r>    91.0877     0.0000     0.0000 </r>
       <r>    91.4833     0.0000     0.0000 </r>
       <r>    91.8790     0.0000     0.0000 </r>
       <r>    92.2746     0.0000     0.0000 </r>
       <r>    92.6703     0.0000     0.0000 </r>
      </set>
      <set comment="spin 4">
       <r>   -26.0261     0.0000     0.0000 </r>
       <r>   -25.6305     0.0000     0.0000 </r>
       <r>   -25.2348     0.0000     0.0000 </r>
       <r>   -24.8392     0.0000     0.0000 </r>
       <r>   -24.4435     0.0000     0.0000 </r>
       <r>   -24.0479     0.0000     0.0000 </r>
       <r>   -23.6522     0.0000     0.0000 </r>
       <r>   -23.2566     0.0000     0.0000 </r>
       <r>   -22.8609     0.0000     0.0000 </r>
       <r>   -22.4652     0.0000     0.0000 </r>
       <r>   -22.0696     0.0000     0.0000 </r>
       <r>   -21.6739     0.0000     0.0000 </r>
       <r>   -21.2783     0.0000     0.0000 </r>
       <r>   -20.8826     0.0000     0.0000 </r>
       <r>   -20.4870     0.0000     0.0000 </r>
       <r>   -20.0913     0.0000     0.0000 </r>
       <r>   -19.6957     0.0000     0.0000 </r>
       <r>   -19.3000     0.0000     0.0000 </r>
       <r>   -18.9043     0.0000     0.0000 </r>
       <r>   -18.5087     0.0000     0.0000 </r>
       <r>   -18.1130     0.0000     0.0000 </r>
       <r>   -17.7174     0.0000     0.0000 </r>
       <r>   -17.3217     0.0000     0.0000 </r>
       <r>   -16.9261     0.0000     0.0000 </r>
       <r>   -16.5304     0.0000     0.0000 </r>
       <r>   -16.1348     0.0000     0.0000 </r>
       <r>   -15.7391     0.0000     0.0000 </r>
       <r>   -15.3435     0.0000     0.0000 </r>
       <r>   -14.9478     0.0000     0.0000 </r>
       <r>   -14.5521     0.0000     0.0000 </r>
       <r>   -14.1565     0.0000     0.0000 </r>
       <r>   -13.7608     0.0000     0.0000 </r>
       <r>   -13.3652     0.0000     0.0000 </r>
       <r>   -12.9695     0.0000     0.0000 </r>
       <r>   -12.5739     0.0000     0.0000 </r>
       <r>   -12.1782     0.0000     0.0000 </r>
       <r>   -11.7826     0.0000     0.0000 </r>
       <r>   -11.3869     0.0000     0.0000 </r>
       <r>   -10.9913     0.0000     0.0000 </r>
       <r>   -10.5956     0.0000     0.0000 </r>
       <r>   -10.1999     0.0000     0.0000 </r>
       <r>    -9.8043     0.0000     0.0000 </r>
       <r>    -9.4086     0.0000     0.0000 </r>
       <r>    -9.0130     0.0000     0.0000 </r>
       <r>    -8.6173     0.0000     0.0000 </r>
       <r>    -8.2217     0.0000     0.0000 </r>
       <r>    -7.8260     0.0000     0.0000 </r>
       <r>    -7.4304     0.0000     0.0000 </r>
       <r>    -7.0347     0.0000     0.0000 </r>
       <r>    -6.6391     0.0000     0.0000 </r>
       <r>    -6.2434     0.0000     0.0000 </r>
       <r>    -5.8477     0.0000     0.0000 </r>
       <r>    -5.4521     0.0000     0.0000 </r>
       <r>    -5.0564     0.0000     0.0000 </r>
       <r>    -4.6608     0.0000     0.0000 </r>
       <r>    -4.2651     0.0000     0.0000 </r>
       <r>    -3.8695     0.0000     0.0000 </r>
       <r>    -3.4738     0.0000     0.0000 </r>
       <r>    -3.0782     0.0000     0.0000 </r>
       <r>    -2.6825     0.0000     0.0000 </r>
       <r>    -2.2869     0.0000     0.0000 </r>
       <r>    -1.8912     0.0000     0.0000 </r>
       <r>    -1.4955     0.0000     0.0000 </r>
       <r>    -1.0999     0.0000     0.0000 </r>
       <r>    -0.7042     0.0000     0.0000 </r>
       <r>    -0.3086     0.0000     0.0000 </r>
       <r>     0.0871     0.0000     0.0000 </r>
       <r>     0.4827     0.0000     0.0000 </r>
       <r>     0.8784     0.0000     0.0000 </r>
       <r>     1.2740     0.0000     0.0000 </r>
       <r>     1.6697     0.0000     0.0000 </r>
       <r>     2.0653     0.0000     0.0000 </r>
       <r>     2.4610     0.0000     0.0000 </r>
       <r>     2.8567     0.0000     0.0000 </r>
       <r>     3.2523     0.0000     0.0000 </r>
       <r>     3.6480     0.0000     0.0000 </r>
       <r>     4.0436     0.0000     0.0000 </r>
       <r>     4.4393     0.0000     0.0000 </r>
       <r>     4.8349     0.0000     0.0000 </r>
       <r>     5.2306     0.0000     0.0000 </r>
       <r>     5.6262     0.0000     0.0000 </r>
       <r>     6.0219     0.0000     0.0000 </r>
       <r>     6.4176     0.0000     0.0000 </r>
       <r>     6.8132     0.0000     0.0000 </r>
       <r>     7.2089     0.0000     0.0000 </r>
       <r>     7.6045     0.0000     0.0000 </r>
       <r>     8.0002     0.0000     0.0000 </r>
       <r>     8.3958     0.0000     0.0000 </r>
       <r>     8.7915     0.0000     0.0000 </r>
       <r>     9.1871     0.0000     0.0000 </r>
       <r>     9.5828     0.0000     0.0000 </r>
       <r>     9.9784     0.0000     0.0000 </r>
       <r>    10.3741     0.0000     0.0000 </r>
       <r>    10.7698     0.0000     0.0000 </r>
       <r>    11.1654     0.0000     0.0000 </r>
       <r>    11.5611     0.0000     0.0000 </r>
       <r>    11.9567     0.0000     0.0000 </r>
       <r>    12.3524     0.0000     0.0000 </r>
       <r>    12.7480     0.0000     0.0000 </r>
       <r>    13.1437     0.0000     0.0000 </r>
       <r>    13.5393     0.0000     0.0000 </r>
       <r>    13.9350     0.0000     0.0000 </r>
       <r>    14.3306     0.0000     0.0000 </r>
       <r>    14.7263     0.0000     0.0000 </r>
       <r>    15.1220     0.0000     0.0000 </r>
       <r>    15.5176     0.0000     0.0000 </r>
       <r>    15.9133     0.0000     0.0000 </r>
       <r>    16.3089     0.0000     0.0000 </r>
       <r>    16.7046     0.0000     0.0000 </r>
       <r>    17.1002     0.0000     0.0000 </r>
       <r>    17.4959     0.0000     0.0000 </r>
       <r>    17.8915     0.0000     0.0000 </r>
       <r>    18.2872     0.0000     0.0000 </r>
       <r>    18.6828     0.0000     0.0000 </r>
       <r>    19.0785     0.0000     0.0000 </r>
       <r>    19.4742     0.0000     0.0000 </r>
       <r>    19.8698     0.0000     0.0000 </r>
       <r>    20.2655     0.0000     0.0000 </r>
       <r>    20.6611     0.0000     0.0000 </r>
       <r>    21.0568     0.0000     0.0000 </r>
       <r>    21.4524     0.0000     0.0000 </r>
       <r>    21.8481     0.0000     0.0000 </r>
       <r>    22.2437     0.0000     0.0000 </r>
       <r>    22.6394     0.0000     0.0000 </r>
       <r>    23.0350     0.0000     0.0000 </r>
       <r>    23.4307     0.0000     0.0000 </r>
       <r>    23.8264     0.0000     0.0000 </r>
       <r>    24.2220     0.0000     0.0000 </r>
       <r>    24.6177     0.0000     0.0000 </r>
       <r>    25.0133     0.0000     0.0000 </r>
       <r>    25.4090     0.0000     0.0000 </r>
       <r>    25.8046     0.0000     0.0000 </r>
       <r>    26.2003     0.0000     0.0000 </r>
       <r>    26.5959     0.0000     0.0000 </r>
       <r>    26.9916     0.0000     0.0000 </r>
       <r>    27.3872     0.0000     0.0000 </r>
       <r>    27.7829     0.0000     0.0000 </r>
       <r>    28.1786     0.0000     0.0000 </r>
       <r>    28.5742     0.0000     0.0000 </r>
       <r>    28.9699     0.0000     0.0000 </r>
       <r>    29.3655     0.0000     0.0000 </r>
       <r>    29.7612     0.0000     0.0000 </r>
       <r>    30.1568     0.0000     0.0000 </r>
       <r>    30.5525     0.0000     0.0000 </r>
       <r>    30.9481     0.0000     0.0000 </r>
       <r>    31.3438     0.0000     0.0000 </r>
       <r>    31.7394     0.0000     0.0000 </r>
       <r>    32.1351     0.0000     0.0000 </r>
       <r>    32.5308     0.0000     0.0000 </r>
       <r>    32.9264     0.0000     0.0000 </r>
       <r>    33.3221     0.0000     0.0000 </r>
       <r>    33.7177     0.0000     0.0000 </r>
       <r>    34.1134     0.0000     0.0000 </r>
       <r>    34.5090     0.0000     0.0000 </r>
       <r>    34.9047     0.0000     0.0000 </r>
       <r>    35.3003     0.0000     0.0000 </r>
       <r>    35.6960     0.0000     0.0000 </r>
       <r>    36.0917     0.0000     0.0000 </r>
       <r>    36.4873     0.0000     0.0000 </r>
       <r>    36.8830     0.0000     0.0000 </r>
       <r>    37.2786     0.0000     0.0000 </r>
       <r>    37.6743     0.0000     0.0000 </r>
       <r>    38.0699     0.0000     0.0000 </r>
       <r>    38.4656     0.0000     0.0000 </r>
       <r>    38.8612     0.0000     0.0000 </r>
       <r>    39.2569     0.0000     0.0000 </r>
       <r>    39.6525     0.0000     0.0000 </r>
       <r>    40.0482     0.0000     0.0000 </r>
       <r>    40.4439     0.0000     0.0000 </r>
       <r>    40.8395     0.0000     0.0000 </r>
       <r>    41.2352     0.0000     0.0000 </r>
       <r>    41.6308     0.0000     0.0000 </r>
       <r>    42.0265     0.0000     0.0000 </r>
       <r>    42.4221     0.0000     0.0000 </r>
       <r>    42.8178     0.0000     0.0000 </r>
       <r>    43.2134     0.0000     0.0000 </r>
       <r>    43.6091     0.0000     0.0000 </r>
       <r>    44.0047     0.0000     0.0000 </r>
       <r>    44.4004     0.0000     0.0000 </r>
       <r>    44.7961     0.0000     0.0000 </r>
       <r>    45.1917     0.0000     0.0000 </r>
       <r>    45.5874     0.0000     0.0000 </r>
       <r>    45.9830     0.0000     0.0000 </r>
       <r>    46.3787     0.0000     0.0000 </r>
       <r>    46.7743     0.0000     0.0000 </r>
       <r>    47.1700     0.0000     0.0000 </r>
       <r>    47.5656     0.0000     0.0000 </r>
       <r>    47.9613     0.0000     0.0000 </r>
       <r>    48.3569     0.0000     0.0000 </r>
       <r>    48.7526     0.0000     0.0000 </r>
       <r>    49.1483     0.0000     0.0000 </r>
       <r>    49.5439     0.0000     0.0000 </r>
       <r>    49.9396     0.0000     0.0000 </r>
       <r>    50.3352     0.0000     0.0000 </r>
       <r>    50.7309     0.0000     0.0000 </r>
       <r>    51.1265     0.0000     0.0000 </r>
       <r>    51.5222     0.0000     0.0000 </r>
       <r>    51.9178     0.0000     0.0000 </r>
       <r>    52.3135     0.0000     0.0000 </r>
       <r>    52.7091     0.0000     0.0000 </r>
       <r>    53.1048     0.0000     0.0000 </r>
       <r>    53.5005     0.0000     0.0000 </r>
       <r>    53.8961     0.0000     0.0000 </r>
       <r>    54.2918     0.0000     0.0000 </r>
       <r>    54.6874     0.0000     0.0000 </r>
       <r>    55.0831     0.0000     0.0000 </r>
       <r>    55.4787     0.0000     0.0000 </r>
       <r>    55.8744     0.0000     0.0000 </r>
       <r>    56.2700     0.0000     0.0000 </r>
       <r>    56.6657     0.0000     0.0000 </r>
       <r>    57.0613     0.0000     0.0000 </r>
       <r>    57.4570     0.0000     0.0000 </r>
       <r>    57.8527     0.0000     0.0000 </r>
       <r>    58.2483     0.0000     0.0000 </r>
       <r>    58.6440     0.0000     0.0000 </r>
       <r>    59.0396     0.0000     0.0000 </r>
       <r>    59.4353     0.0000     0.0000 </r>
       <r>    59.8309     0.0000     0.0000 </r>
       <r>    60.2266     0.0000     0.0000 </r>
       <r>    60.6222     0.0000     0.0000 </r>
       <r>    61.0179     0.0000     0.0000 </r>
       <r>    61.4136     0.0000     0.0000 </r>
       <r>    61.8092     0.0000     0.0000 </r>
       <r>    62.2049     0.0000     0.0000 </r>
       <r>    62.6005     0.0000     0.0000 </r>
       <r>    62.9962     0.0000     0.0000 </r>
       <r>    63.3918     0.0000     0.0000 </r>
       <r>    63.7875     0.0000     0.0000 </r>
       <r>    64.1831     0.0000     0.0000 </r>
       <r>    64.5788     0.0000     0.0000 </r>
       <r>    64.9744     0.0000     0.0000 </r>
       <r>    65.3701     0.0000     0.0000 </r>
       <r>    65.7658     0.0000     0.0000 </r>
       <r>    66.1614     0.0000     0.0000 </r>
       <r>    66.5571     0.0000     0.0000 </r>
       <r>    66.9527     0.0000     0.0000 </r>
       <r>    67.3484     0.0000     0.0000 </r>
       <r>    67.7440     0.0000     0.0000 </r>
       <r>    68.1397     0.0000     0.0000 </r>
       <r>    68.5353     0.0000     0.0000 </r>
       <r>    68.9310     0.0000     0.0000 </r>
       <r>    69.3266     0.0000     0.0000 </r>
       <r>    69.7223     0.0000     0.0000 </r>
       <r>    70.1180     0.0000     0.0000 </r>
       <r>    70.5136     0.0000     0.0000 </r>
       <r>    70.9093     0.0000     0.0000 </r>
       <r>    71.3049     0.0000     0.0000 </r>
       <r>    71.7006     0.0000     0.0000 </r>
       <r>    72.0962     0.0000     0.0000 </r>
       <r>    72.4919     0.0000     0.0000 </r>
       <r>    72.8875     0.0000     0.0000 </r>
       <r>    73.2832     0.0000     0.0000 </r>
       <r>    73.6788     0.0000     0.0000 </r>
       <r>    74.0745     0.0000     0.0000 </r>
       <r>    74.4702     0.0000     0.0000 </r>
       <r>    74.8658     0.0000     0.0000 </r>
       <r>    75.2615     0.0000     0.0000 </r>
       <r>    75.6571     0.0000     0.0000 </r>
       <r>    76.0528     0.0000     0.0000 </r>
       <r>    76.4484     0.0000     0.0000 </r>
       <r>    76.8441     0.0000     0.0000 </r>
       <r>    77.2397     0.0000     0.0000 </r>
       <r>    77.6354     0.0000     0.0000 </r>
       <r>    78.0310     0.0000     0.0000 </r>
       <r>    78.4267     0.0000     0.0000 </r>
       <r>    78.8224     0.0000     0.0000 </r>
       <r>    79.2180     0.0000     0.0000 </r>
       <r>    79.6137     0.0000     0.0000 </r>
       <r>    80.0093     0.0000     0.0000 </r>
       <r>    80.4050     0.0000     0.0000 </r>
       <r>    80.8006     0.0000     0.0000 </r>
       <r>    81.1963     0.0000     0.0000 </r>
       <r>    81.5919     0.0000     0.0000 </r>
       <r>    81.9876     0.0000     0.0000 </r>
       <r>    82.3832     0.0000     0.0000 </r>
       <r>    82.7789     0.0000     0.0000 </r>
       <r>    83.1746     0.0000     0.0000 </r>
       <r>    83.5702     0.0000     0.0000 </r>
       <r>    83.9659     0.0000     0.0000 </r>
       <r>    84.3615     0.0000     0.0000 </r>
       <r>    84.7572     0.0000     0.0000 </r>
       <r>    85.1528     0.0000     0.0000 </r>
       <r>    85.5485     0.0000     0.0000 </r>
       <r>    85.9441     0.0000     0.0000 </r>
       <r>    86.3398     0.0000     0.0000 </r>
       <r>    86.7354     0.0000     0.0000 </r>
       <r>    87.1311     0.0000     0.0000 </r>
       <r>    87.5268     0.0000     0.0000 </r>
       <r>    87.9224     0.0000     0.0000 </r>
       <r>    88.3181     0.0000     0.0000 </r>
       <r>    88.7137     0.0000     0.0000 </r>
       <r>    89.1094     0.0000     0.0000 </r>
       <r>    89.5050     0.0000     0.0000 </r>
       <r>    89.9007     0.0000     0.0000 </r>
       <r>    90.2963     0.0000     0.0000 </r>
       <r>    90.6920     0.0000     0.0000 </r>
       <r>    91.0877     0.0000     0.0000 </r>
       <r>    91.4833     0.0000     0.0000 </r>
       <r>    91.8790     0.0000     0.0000 </r>
       <r>    92.2746     0.0000     0.0000 </r>
       <r>    92.6703     0.0000     0.0000 </r>
      </set>
     </set>
    </array>
   </total>
  </dos>
 </calculation>
 <structure name="finalpos" >
  <crystal>
   <varray name="basis" >
    <v>       3.59969675       0.00000000       0.00000000 </v>
    <v>       1.79984837       3.11742883      -0.00000000 </v>
    <v>       1.79984837       1.03914294       2.93914009 </v>
   </varray>
   <i name="volume">     32.98243751 </i>
   <varray name="rec_basis" >
    <v>       0.27780118      -0.16038859      -0.11341186 </v>
    <v>       0.00000000       0.32077717      -0.11341186 </v>
    <v>      -0.00000000       0.00000000       0.34023557 </v>
   </varray>
  </crystal>
  <varray name="positions" >
   <v>       0.00000000       0.00000000       0.00000000 </v>
  </varray>
  <varray name="velocities" >
   <v>       0.00000000       0.00000000       0.00000000 </v>
  </varray>
 </structure>
</modeling>
