   1   1   0   0
  0.1628488E+02  0.2845115E-09  0.2845115E-09  0.2845115E-09  0.1000000E-15
  1.000000000000000E-004
  CAR 
 Og_FCC                                  
    247.19462583    -36.87442848  301    -22.19752734      1.00000000
    -36.874  0.0000E+00  0.0000E+00
    -35.928  0.0000E+00  0.0000E+00
    -34.981  0.0000E+00  0.0000E+00
    -34.034  0.0000E+00  0.0000E+00
    -33.087  0.0000E+00  0.0000E+00
    -32.140  0.0000E+00  0.0000E+00
    -31.193  0.0000E+00  0.0000E+00
    -30.246  0.0000E+00  0.0000E+00
    -29.299  0.0000E+00  0.0000E+00
    -28.352  0.0000E+00  0.0000E+00
    -27.405  0.0000E+00  0.0000E+00
    -26.459  0.0000E+00  0.0000E+00
    -25.512  0.0000E+00  0.0000E+00
    -24.565  0.0000E+00  0.0000E+00
    -23.618  0.0000E+00  0.1389E+00
    -22.671  0.0000E+00  0.1861E+01
    -21.724  0.0000E+00  0.2000E+01
    -20.777  0.0000E+00  0.2000E+01
    -19.830  0.0000E+00  0.2000E+01
    -18.883  0.0000E+00  0.2000E+01
    -17.936  0.0000E+00  0.2000E+01
    -16.990  0.0000E+00  0.2000E+01
    -16.043  0.0000E+00  0.2000E+01
    -15.096  0.0000E+00  0.2000E+01
    -14.149  0.0000E+00  0.2000E+01
    -13.202  0.0000E+00  0.2000E+01
    -12.255  0.0000E+00  0.2000E+01
    -11.308  0.0000E+00  0.2000E+01
    -10.361  0.0000E+00  0.2000E+01
     -9.414  0.0000E+00  0.2000E+01
     -8.468  0.0000E+00  0.2000E+01
     -7.521  0.0000E+00  0.2000E+01
     -6.574  0.0000E+00  0.2000E+01
     -5.627  0.0000E+00  0.2000E+01
     -4.680  0.0000E+00  0.2000E+01
     -3.733  0.0000E+00  0.2000E+01
     -2.786  0.0000E+00  0.2000E+01
     -1.839  0.0000E+00  0.2000E+01
     -0.892  0.0000E+00  0.2000E+01
      0.055  0.0000E+00  0.2000E+01
      1.001  0.0000E+00  0.2000E+01
      1.948  0.0000E+00  0.2000E+01
      2.895  0.0000E+00  0.2000E+01
      3.842  0.0000E+00  0.2000E+01
      4.789  0.0000E+00  0.2000E+01
      5.736  0.0000E+00  0.2000E+01
      6.683  0.0000E+00  0.3019E+01
      7.630  0.0000E+00  0.3417E+01
      8.577  0.0000E+00  0.4333E+01
      9.524  0.0000E+00  0.5000E+01
     10.470  0.0000E+00  0.5509E+01
     11.417  0.0000E+00  0.5731E+01
     12.364  0.0000E+00  0.5806E+01
     13.311  0.0000E+00  0.6639E+01
     14.258  0.0000E+00  0.7139E+01
     15.205  0.0000E+00  0.7250E+01
     16.152  0.0000E+00  0.8241E+01
     17.099  0.0000E+00  0.8519E+01
     18.046  0.0000E+00  0.9519E+01
     18.992  0.0000E+00  0.9741E+01
     19.939  0.0000E+00  0.1017E+02
     20.886  0.0000E+00  0.1031E+02
     21.833  0.0000E+00  0.1092E+02
     22.780  0.0000E+00  0.1171E+02
     23.727  0.0000E+00  0.1256E+02
     24.674  0.0000E+00  0.1274E+02
     25.621  0.0000E+00  0.1331E+02
     26.568  0.0000E+00  0.1406E+02
     27.515  0.0000E+00  0.1429E+02
     28.461  0.0000E+00  0.1487E+02
     29.408  0.0000E+00  0.1572E+02
     30.355  0.0000E+00  0.1628E+02
     31.302  0.0000E+00  0.1739E+02
     32.249  0.0000E+00  0.1768E+02
     33.196  0.0000E+00  0.1843E+02
     34.143  0.0000E+00  0.1898E+02
     35.090  0.0000E+00  0.1965E+02
     36.037  0.0000E+00  0.2009E+02
     36.984  0.0000E+00  0.2070E+02
     37.930  0.0000E+00  0.2119E+02
     38.877  0.0000E+00  0.2207E+02
     39.824  0.0000E+00  0.2322E+02
     40.771  0.0000E+00  0.2403E+02
     41.718  0.0000E+00  0.2496E+02
     42.665  0.0000E+00  0.2502E+02
     43.612  0.0000E+00  0.2588E+02
     44.559  0.0000E+00  0.2651E+02
     45.506  0.0000E+00  0.2701E+02
     46.452  0.0000E+00  0.2756E+02
     47.399  0.0000E+00  0.2890E+02
     48.346  0.0000E+00  0.3000E+02
     49.293  0.0000E+00  0.3060E+02
     50.240  0.0000E+00  0.3105E+02
     51.187  0.0000E+00  0.3199E+02
     52.134  0.0000E+00  0.3321E+02
     53.081  0.0000E+00  0.3416E+02
     54.028  0.0000E+00  0.3416E+02
     54.975  0.0000E+00  0.3486E+02
     55.921  0.0000E+00  0.3575E+02
     56.868  0.0000E+00  0.3609E+02
     57.815  0.0000E+00  0.3754E+02
     58.762  0.0000E+00  0.3856E+02
     59.709  0.0000E+00  0.3965E+02
     60.656  0.0000E+00  0.3991E+02
     61.603  0.0000E+00  0.4141E+02
     62.550  0.7795E-08  0.4237E+02
     63.497  0.0000E+00  0.4326E+02
     64.444  0.1173E+00  0.4378E+02
     65.390  0.0000E+00  0.4433E+02
     66.337  0.0000E+00  0.4500E+02
     67.284  0.0000E+00  0.4547E+02
     68.231  0.1173E+00  0.4677E+02
     69.178  0.0000E+00  0.4788E+02
     70.125  0.0000E+00  0.4859E+02
     71.072  0.0000E+00  0.4957E+02
     72.019  0.0000E+00  0.5069E+02
     72.966  0.0000E+00  0.5243E+02
     73.913  0.3520E+00  0.5367E+02
     74.859  0.1173E+00  0.5422E+02
     75.806  0.0000E+00  0.5511E+02
     76.753  0.0000E+00  0.5556E+02
     77.700  0.0000E+00  0.5577E+02
     78.647  0.0000E+00  0.5674E+02
     79.594  0.0000E+00  0.5773E+02
     80.541  0.0000E+00  0.5892E+02
     81.488  0.0000E+00  0.6029E+02
     82.435  0.0000E+00  0.6132E+02
     83.381  0.0000E+00  0.6197E+02
     84.328  0.0000E+00  0.6364E+02
     85.275  0.0000E+00  0.6453E+02
     86.222  0.6101E-02  0.6503E+02
     87.169  0.0000E+00  0.6642E+02
     88.116  0.0000E+00  0.6798E+02
     89.063  0.0000E+00  0.6845E+02
     90.010  0.0000E+00  0.6928E+02
     90.957  0.0000E+00  0.7017E+02
     91.904  0.0000E+00  0.7074E+02
     92.850  0.0000E+00  0.7171E+02
     93.797  0.0000E+00  0.7303E+02
     94.744  0.0000E+00  0.7371E+02
     95.691  0.0000E+00  0.7484E+02
     96.638  0.0000E+00  0.7595E+02
     97.585  0.6578E-01  0.7800E+02
     98.532  0.0000E+00  0.7891E+02
     99.479  0.0000E+00  0.7994E+02
    100.426  0.0000E+00  0.8127E+02
    101.373  0.0000E+00  0.8232E+02
    102.319  0.0000E+00  0.8306E+02
    103.266  0.0000E+00  0.8432E+02
    104.213  0.0000E+00  0.8516E+02
    105.160  0.0000E+00  0.8612E+02
    106.107  0.0000E+00  0.8686E+02
    107.054  0.0000E+00  0.8808E+02
    108.001  0.0000E+00  0.8905E+02
    108.948  0.0000E+00  0.9074E+02
    109.895  0.0000E+00  0.9122E+02
    110.841  0.0000E+00  0.9194E+02
    111.788  0.0000E+00  0.9364E+02
    112.735  0.0000E+00  0.9451E+02
    113.682  0.0000E+00  0.9601E+02
    114.629  0.0000E+00  0.9784E+02
    115.576  0.0000E+00  0.9947E+02
    116.523  0.0000E+00  0.1007E+03
    117.470  0.0000E+00  0.1016E+03
    118.417  0.0000E+00  0.1025E+03
    119.364  0.0000E+00  0.1026E+03
    120.310  0.0000E+00  0.1031E+03
    121.257  0.0000E+00  0.1050E+03
    122.204  0.0000E+00  0.1066E+03
    123.151  0.0000E+00  0.1080E+03
    124.098  0.0000E+00  0.1084E+03
    125.045  0.0000E+00  0.1102E+03
    125.992  0.0000E+00  0.1113E+03
    126.939  0.1213E+00  0.1122E+03
    127.886  0.0000E+00  0.1138E+03
    128.833  0.0000E+00  0.1146E+03
    129.779  0.0000E+00  0.1162E+03
    130.726  0.0000E+00  0.1177E+03
    131.673  0.0000E+00  0.1189E+03
    132.620  0.2347E+00  0.1206E+03
    133.567  0.0000E+00  0.1214E+03
    134.514  0.0000E+00  0.1232E+03
    135.461  0.0000E+00  0.1237E+03
    136.408  0.0000E+00  0.1246E+03
    137.355  0.0000E+00  0.1259E+03
    138.301  0.0000E+00  0.1270E+03
    139.248  0.0000E+00  0.1280E+03
    140.195  0.0000E+00  0.1294E+03
    141.142  0.9260E-11  0.1304E+03
    142.089  0.0000E+00  0.1321E+03
    143.036  0.2342E+00  0.1330E+03
    143.983  0.0000E+00  0.1340E+03
    144.930  0.0000E+00  0.1351E+03
    145.877  0.0000E+00  0.1371E+03
    146.824  0.0000E+00  0.1388E+03
    147.770  0.0000E+00  0.1402E+03
    148.717  0.0000E+00  0.1419E+03
    149.664  0.0000E+00  0.1430E+03
    150.611  0.0000E+00  0.1441E+03
    151.558  0.0000E+00  0.1453E+03
    152.505  0.0000E+00  0.1462E+03
    153.452  0.9554E-01  0.1476E+03
    154.399  0.0000E+00  0.1494E+03
    155.346  0.0000E+00  0.1507E+03
    156.293  0.0000E+00  0.1520E+03
    157.239  0.0000E+00  0.1528E+03
    158.186  0.0000E+00  0.1539E+03
    159.133  0.0000E+00  0.1546E+03
    160.080  0.0000E+00  0.1561E+03
    161.027  0.5033E-01  0.1569E+03
    161.974  0.0000E+00  0.1593E+03
    162.921  0.0000E+00  0.1606E+03
    163.868  0.6197E-02  0.1623E+03
    164.815  0.0000E+00  0.1637E+03
    165.761  0.0000E+00  0.1657E+03
    166.708  0.0000E+00  0.1672E+03
    167.655  0.0000E+00  0.1680E+03
    168.602  0.0000E+00  0.1692E+03
    169.549  0.0000E+00  0.1699E+03
    170.496  0.0000E+00  0.1714E+03
    171.443  0.2265E+00  0.1731E+03
    172.390  0.0000E+00  0.1741E+03
    173.337  0.0000E+00  0.1756E+03
    174.284  0.0000E+00  0.1774E+03
    175.230  0.0000E+00  0.1791E+03
    176.177  0.0000E+00  0.1804E+03
    177.124  0.0000E+00  0.1822E+03
    178.071  0.0000E+00  0.1829E+03
    179.018  0.2347E+00  0.1841E+03
    179.965  0.1973E-01  0.1846E+03
    180.912  0.1173E+00  0.1861E+03
    181.859  0.0000E+00  0.1875E+03
    182.806  0.0000E+00  0.1893E+03
    183.753  0.0000E+00  0.1915E+03
    184.699  0.7823E-01  0.1928E+03
    185.646  0.0000E+00  0.1941E+03
    186.593  0.5695E-05  0.1957E+03
    187.540  0.0000E+00  0.1971E+03
    188.487  0.2347E+00  0.1992E+03
    189.434  0.0000E+00  0.2004E+03
    190.381  0.0000E+00  0.2018E+03
    191.328  0.0000E+00  0.2034E+03
    192.275  0.0000E+00  0.2046E+03
    193.222  0.0000E+00  0.2061E+03
    194.168  0.0000E+00  0.2069E+03
    195.115  0.2655E-04  0.2077E+03
    196.062  0.0000E+00  0.2101E+03
    197.009  0.2347E+00  0.2117E+03
    197.956  0.0000E+00  0.2131E+03
    198.903  0.0000E+00  0.2142E+03
    199.850  0.0000E+00  0.2163E+03
    200.797  0.0000E+00  0.2174E+03
    201.744  0.0000E+00  0.2186E+03
    202.690  0.0000E+00  0.2197E+03
    203.637  0.0000E+00  0.2211E+03
    204.584  0.1340E-12  0.2226E+03
    205.531  0.0000E+00  0.2249E+03
    206.478  0.0000E+00  0.2267E+03
    207.425  0.0000E+00  0.2280E+03
    208.372  0.0000E+00  0.2295E+03
    209.319  0.0000E+00  0.2312E+03
    210.266  0.5446E-07  0.2326E+03
    211.213  0.0000E+00  0.2340E+03
    212.159  0.0000E+00  0.2352E+03
    213.106  0.0000E+00  0.2367E+03
    214.053  0.0000E+00  0.2390E+03
    215.000  0.0000E+00  0.2400E+03
    215.947  0.2769E-05  0.2415E+03
    216.894  0.1139E+00  0.2441E+03
    217.841  0.0000E+00  0.2448E+03
    218.788  0.0000E+00  0.2456E+03
    219.735  0.0000E+00  0.2469E+03
    220.682  0.2347E+00  0.2484E+03
    221.628  0.0000E+00  0.2494E+03
    222.575  0.0000E+00  0.2504E+03
    223.522  0.0000E+00  0.2511E+03
    224.469  0.0000E+00  0.2521E+03
    225.416  0.0000E+00  0.2530E+03
    226.363  0.0000E+00  0.2546E+03
    227.310  0.0000E+00  0.2551E+03
    228.257  0.2753E-05  0.2552E+03
    229.204  0.0000E+00  0.2559E+03
    230.150  0.0000E+00  0.2559E+03
    231.097  0.0000E+00  0.2559E+03
    232.044  0.0000E+00  0.2559E+03
    232.991  0.0000E+00  0.2559E+03
    233.938  0.0000E+00  0.2559E+03
    234.885  0.0000E+00  0.2560E+03
    235.832  0.0000E+00  0.2560E+03
    236.779  0.0000E+00  0.2560E+03
    237.726  0.0000E+00  0.2560E+03
    238.673  0.0000E+00  0.2560E+03
    239.619  0.0000E+00  0.2560E+03
    240.566  0.0000E+00  0.2560E+03
    241.513  0.0000E+00  0.2560E+03
    242.460  0.0000E+00  0.2560E+03
    243.407  0.0000E+00  0.2560E+03
    244.354  0.0000E+00  0.2560E+03
    245.301  0.0000E+00  0.2560E+03
    246.248  0.0000E+00  0.2560E+03
    247.195  0.0000E+00  0.2560E+03
