 vasp.5.4.4.18Apr17-6-g9f103f2a35 (build Jul 09 2018 16:43:14) complex          
  
 executed on             LinuxIFC date 2018.11.22  03:47:32
 running on   16 total cores
 distrk:  each k-point on    1 cores,   16 groups
 distr:  one band on NCORES_PER_BAND=   1 cores,    1 groups


--------------------------------------------------------------------------------------------------------


 INCAR:
 POTCAR:    PAW_PBE He_GW 13May2007               

 ----------------------------------------------------------------------------- 
|                                                                             |
|           W    W    AA    RRRRR   N    N  II  N    N   GGGG   !!!           |
|           W    W   A  A   R    R  NN   N  II  NN   N  G    G  !!!           |
|           W    W  A    A  R    R  N N  N  II  N N  N  G       !!!           |
|           W WW W  AAAAAA  RRRRR   N  N N  II  N  N N  G  GGG   !            |
|           WW  WW  A    A  R   R   N   NN  II  N   NN  G    G                |
|           W    W  A    A  R    R  N    N  II  N    N   GGGG   !!!           |
|                                                                             |
|      For optimal performance we recommend to set                            |
|        NCORE= 4 - approx SQRT( number of cores)                             |
|      NCORE specifies how many cores store one orbital (NPAR=cpu/NCORE).     |
|      This setting can  greatly improve the performance of VASP for DFT.     |
|      The default,   NCORE=1            might be grossly inefficient         |
|      on modern multi-core architectures or massively parallel machines.     |
|      Do your own testing !!!!                                               |
|      Unfortunately you need to use the default for GW and RPA calculations. |
|      (for HF NCORE is supported but not extensively tested yet)             |
|                                                                             |
 ----------------------------------------------------------------------------- 


 ----------------------------------------------------------------------------- 
|                                                                             |
|           W    W    AA    RRRRR   N    N  II  N    N   GGGG   !!!           |
|           W    W   A  A   R    R  NN   N  II  NN   N  G    G  !!!           |
|           W    W  A    A  R    R  N N  N  II  N N  N  G       !!!           |
|           W WW W  AAAAAA  RRRRR   N  N N  II  N  N N  G  GGG   !            |
|           WW  WW  A    A  R   R   N   NN  II  N   NN  G    G                |
|           W    W  A    A  R    R  N    N  II  N    N   GGGG   !!!           |
|                                                                             |
|      You have enabled k-point parallelism (KPAR>1).                         |
|      This developmental code was originally  written by Paul Kent at ORNL,  |
|      and carefully double checked in Vienna.                                |
|      GW as well as linear response parallelism added by Martijn Marsman     |
|      and Georg Kresse.                                                      |
|      Carefully verify results versus KPAR=1.                                |
|      Report problems to Paul Kent and Vienna.                               |
|                                                                             |
 ----------------------------------------------------------------------------- 

 POTCAR:    PAW_PBE He_GW 13May2007               
  local pseudopotential read in
  kinetic energy density of atom read in
  atomic valenz-charges read in
  non local Contribution for L=           0  read in
    real space projection operators read in
  non local Contribution for L=           0  read in
    real space projection operators read in
  non local Contribution for L=           1  read in
    real space projection operators read in
  non local Contribution for L=           1  read in
    real space projection operators read in
  non local Contribution for L=           1  read in
    real space projection operators read in
  non local Contribution for L=           2  read in
    real space projection operators read in
    PAW grid and wavefunctions read in
 
   number of l-projection  operators is LMAX  =           6
   number of lm-projection operators is LMMAX =          16
 
  PAW_PBE He_GW 13May2007               :
 energy of atom  1       EATOM=  -78.7251
 kinetic energy error for atom=    0.3139 (will be added to EATOM!!)
 
 
 POSCAR: He_FCC                                  
  positions in direct lattice
  velocities in cartesian coordinates
 exchange correlation table for  LEXCH =        8
   RHO(1)=    0.500       N(1)  =     2000
   RHO(2)=  100.500       N(2)  =     4000
 


--------------------------------------------------------------------------------------------------------


 ion  position               nearest neighbor table
   1  0.000  0.000  0.000-
 

IMPORTANT INFORMATION: All symmetrisations will be switched off!
NOSYMM: (Re-)initialisation of all symmetry stuff for point group C_1.

 
 
 KPOINTS: k-points                                

Automatic generation of k-mesh.
Space group operators:
 irot       det(A)        alpha          n_x          n_y          n_z        tau_x        tau_y        tau_z
    1     1.000000     0.000000     1.000000     0.000000     0.000000     0.000000     0.000000     0.000000
 
 Subroutine IBZKPT returns following result:
 ===========================================
 
 Found    112 irreducible k-points:
 
 Following reciprocal coordinates:
            Coordinates               Weight
  0.000000  0.000000  0.000000      1.000000
  0.166667 -0.000000  0.000000      2.000000
  0.333333 -0.000000  0.000000      2.000000
  0.500000 -0.000000  0.000000      1.000000
  0.000000  0.166667 -0.000000      2.000000
  0.166667  0.166667  0.000000      2.000000
  0.333333  0.166667  0.000000      2.000000
  0.500000  0.166667  0.000000      2.000000
 -0.333333  0.166667 -0.000000      2.000000
 -0.166667  0.166667 -0.000000      2.000000
  0.000000  0.333333  0.000000      2.000000
  0.166667  0.333333  0.000000      2.000000
  0.333333  0.333333  0.000000      2.000000
  0.500000  0.333333  0.000000      2.000000
 -0.333333  0.333333 -0.000000      2.000000
 -0.166667  0.333333  0.000000      2.000000
  0.000000  0.500000  0.000000      1.000000
  0.166667  0.500000  0.000000      2.000000
  0.333333  0.500000  0.000000      2.000000
  0.500000  0.500000  0.000000      1.000000
  0.000000  0.000000  0.166667      2.000000
  0.166667 -0.000000  0.166667      2.000000
  0.333333 -0.000000  0.166667      2.000000
  0.500000 -0.000000  0.166667      2.000000
 -0.333333  0.000000  0.166667      2.000000
 -0.166667  0.000000  0.166667      2.000000
  0.000000  0.166667  0.166667      2.000000
  0.166667  0.166667  0.166667      2.000000
  0.333333  0.166667  0.166667      2.000000
  0.500000  0.166667  0.166667      2.000000
 -0.333333  0.166667  0.166667      2.000000
 -0.166667  0.166667  0.166667      2.000000
  0.000000  0.333333  0.166667      2.000000
  0.166667  0.333333  0.166667      2.000000
  0.333333  0.333333  0.166667      2.000000
  0.500000  0.333333  0.166667      2.000000
 -0.333333  0.333333  0.166667      2.000000
 -0.166667  0.333333  0.166667      2.000000
  0.000000  0.500000  0.166667      2.000000
  0.166667  0.500000  0.166667      2.000000
  0.333333  0.500000  0.166667      2.000000
  0.500000  0.500000  0.166667      2.000000
 -0.333333  0.500000  0.166667      2.000000
 -0.166667  0.500000  0.166667      2.000000
  0.000000 -0.333333  0.166667      2.000000
  0.166667 -0.333333  0.166667      2.000000
  0.333333 -0.333333  0.166667      2.000000
  0.500000 -0.333333  0.166667      2.000000
 -0.333333 -0.333333  0.166667      2.000000
 -0.166667 -0.333333  0.166667      2.000000
  0.000000 -0.166667  0.166667      2.000000
  0.166667 -0.166667  0.166667      2.000000
  0.333333 -0.166667  0.166667      2.000000
  0.500000 -0.166667  0.166667      2.000000
 -0.333333 -0.166667  0.166667      2.000000
 -0.166667 -0.166667  0.166667      2.000000
  0.000000  0.000000  0.333333      2.000000
  0.166667 -0.000000  0.333333      2.000000
  0.333333 -0.000000  0.333333      2.000000
  0.500000 -0.000000  0.333333      2.000000
 -0.333333  0.000000  0.333333      2.000000
 -0.166667  0.000000  0.333333      2.000000
  0.000000  0.166667  0.333333      2.000000
  0.166667  0.166667  0.333333      2.000000
  0.333333  0.166667  0.333333      2.000000
  0.500000  0.166667  0.333333      2.000000
 -0.333333  0.166667  0.333333      2.000000
 -0.166667  0.166667  0.333333      2.000000
  0.000000  0.333333  0.333333      2.000000
  0.166667  0.333333  0.333333      2.000000
  0.333333  0.333333  0.333333      2.000000
  0.500000  0.333333  0.333333      2.000000
 -0.333333  0.333333  0.333333      2.000000
 -0.166667  0.333333  0.333333      2.000000
  0.000000  0.500000  0.333333      2.000000
  0.166667  0.500000  0.333333      2.000000
  0.333333  0.500000  0.333333      2.000000
  0.500000  0.500000  0.333333      2.000000
 -0.333333  0.500000  0.333333      2.000000
 -0.166667  0.500000  0.333333      2.000000
  0.000000 -0.333333  0.333333      2.000000
  0.166667 -0.333333  0.333333      2.000000
  0.333333 -0.333333  0.333333      2.000000
  0.500000 -0.333333  0.333333      2.000000
 -0.333333 -0.333333  0.333333      2.000000
 -0.166667 -0.333333  0.333333      2.000000
  0.000000 -0.166667  0.333333      2.000000
  0.166667 -0.166667  0.333333      2.000000
  0.333333 -0.166667  0.333333      2.000000
  0.500000 -0.166667  0.333333      2.000000
 -0.333333 -0.166667  0.333333      2.000000
 -0.166667 -0.166667  0.333333      2.000000
  0.000000  0.000000  0.500000      1.000000
  0.166667 -0.000000  0.500000      2.000000
  0.333333 -0.000000  0.500000      2.000000
  0.500000 -0.000000  0.500000      1.000000
  0.000000  0.166667  0.500000      2.000000
  0.166667  0.166667  0.500000      2.000000
  0.333333  0.166667  0.500000      2.000000
  0.500000  0.166667  0.500000      2.000000
 -0.333333  0.166667  0.500000      2.000000
 -0.166667  0.166667  0.500000      2.000000
  0.000000  0.333333  0.500000      2.000000
  0.166667  0.333333  0.500000      2.000000
  0.333333  0.333333  0.500000      2.000000
  0.500000  0.333333  0.500000      2.000000
 -0.333333  0.333333  0.500000      2.000000
 -0.166667  0.333333  0.500000      2.000000
  0.000000  0.500000  0.500000      1.000000
  0.166667  0.500000  0.500000      2.000000
  0.333333  0.500000  0.500000      2.000000
  0.500000  0.500000  0.500000      1.000000
 
 Following cartesian coordinates:
            Coordinates               Weight
  0.000000  0.000000  0.000000      1.000000
  0.058580 -0.033821 -0.023915      2.000000
  0.117160 -0.067642 -0.047830      2.000000
  0.175740 -0.101463 -0.071745      1.000000
  0.000000  0.067642 -0.023915      2.000000
  0.058580  0.033821 -0.047830      2.000000
  0.117160  0.000000 -0.071745      2.000000
  0.175740 -0.033821 -0.095661      2.000000
 -0.117160  0.135285  0.023915      2.000000
 -0.058580  0.101463 -0.000000      2.000000
  0.000000  0.135285 -0.047830      2.000000
  0.058580  0.101463 -0.071745      2.000000
  0.117160  0.067642 -0.095661      2.000000
  0.175740  0.033821 -0.119576      2.000000
 -0.117160  0.202927 -0.000000      2.000000
 -0.058580  0.169106 -0.023915      2.000000
  0.000000  0.202927 -0.071745      1.000000
  0.058580  0.169106 -0.095661      2.000000
  0.117160  0.135285 -0.119576      2.000000
  0.175740  0.101463 -0.143491      1.000000
  0.000000  0.000000  0.071745      2.000000
  0.058580 -0.033821  0.047830      2.000000
  0.117160 -0.067642  0.023915      2.000000
  0.175740 -0.101463  0.000000      2.000000
 -0.117160  0.067642  0.119576      2.000000
 -0.058580  0.033821  0.095661      2.000000
  0.000000  0.067642  0.047830      2.000000
  0.058580  0.033821  0.023915      2.000000
  0.117160  0.000000  0.000000      2.000000
  0.175740 -0.033821 -0.023915      2.000000
 -0.117160  0.135285  0.095661      2.000000
 -0.058580  0.101463  0.071745      2.000000
  0.000000  0.135285  0.023915      2.000000
  0.058580  0.101463 -0.000000      2.000000
  0.117160  0.067642 -0.023915      2.000000
  0.175740  0.033821 -0.047830      2.000000
 -0.117160  0.202927  0.071745      2.000000
 -0.058580  0.169106  0.047830      2.000000
  0.000000  0.202927 -0.000000      2.000000
  0.058580  0.169106 -0.023915      2.000000
  0.117160  0.135285 -0.047830      2.000000
  0.175740  0.101463 -0.071745      2.000000
 -0.117160  0.270569  0.047830      2.000000
 -0.058580  0.236748  0.023915      2.000000
  0.000000 -0.135285  0.119576      2.000000
  0.058580 -0.169106  0.095661      2.000000
  0.117160 -0.202927  0.071745      2.000000
  0.175740 -0.236748  0.047830      2.000000
 -0.117160 -0.067642  0.167406      2.000000
 -0.058580 -0.101463  0.143491      2.000000
  0.000000 -0.067642  0.095661      2.000000
  0.058580 -0.101463  0.071745      2.000000
  0.117160 -0.135285  0.047830      2.000000
  0.175740 -0.169106  0.023915      2.000000
 -0.117160 -0.000000  0.143491      2.000000
 -0.058580 -0.033821  0.119576      2.000000
  0.000000  0.000000  0.143491      2.000000
  0.058580 -0.033821  0.119576      2.000000
  0.117160 -0.067642  0.095661      2.000000
  0.175740 -0.101463  0.071745      2.000000
 -0.117160  0.067642  0.191321      2.000000
 -0.058580  0.033821  0.167406      2.000000
  0.000000  0.067642  0.119576      2.000000
  0.058580  0.033821  0.095661      2.000000
  0.117160  0.000000  0.071745      2.000000
  0.175740 -0.033821  0.047830      2.000000
 -0.117160  0.135285  0.167406      2.000000
 -0.058580  0.101463  0.143491      2.000000
  0.000000  0.135285  0.095661      2.000000
  0.058580  0.101463  0.071745      2.000000
  0.117160  0.067642  0.047830      2.000000
  0.175740  0.033821  0.023915      2.000000
 -0.117160  0.202927  0.143491      2.000000
 -0.058580  0.169106  0.119576      2.000000
  0.000000  0.202927  0.071745      2.000000
  0.058580  0.169106  0.047830      2.000000
  0.117160  0.135285  0.023915      2.000000
  0.175740  0.101463 -0.000000      2.000000
 -0.117160  0.270569  0.119576      2.000000
 -0.058580  0.236748  0.095661      2.000000
  0.000000 -0.135285  0.191321      2.000000
  0.058580 -0.169106  0.167406      2.000000
  0.117160 -0.202927  0.143491      2.000000
  0.175740 -0.236748  0.119576      2.000000
 -0.117160 -0.067642  0.239152      2.000000
 -0.058580 -0.101463  0.215236      2.000000
  0.000000 -0.067642  0.167406      2.000000
  0.058580 -0.101463  0.143491      2.000000
  0.117160 -0.135285  0.119576      2.000000
  0.175740 -0.169106  0.095661      2.000000
 -0.117160 -0.000000  0.215236      2.000000
 -0.058580 -0.033821  0.191321      2.000000
  0.000000  0.000000  0.215236      1.000000
  0.058580 -0.033821  0.191321      2.000000
  0.117160 -0.067642  0.167406      2.000000
  0.175740 -0.101463  0.143491      1.000000
  0.000000  0.067642  0.191321      2.000000
  0.058580  0.033821  0.167406      2.000000
  0.117160  0.000000  0.143491      2.000000
  0.175740 -0.033821  0.119576      2.000000
 -0.117160  0.135285  0.239152      2.000000
 -0.058580  0.101463  0.215236      2.000000
  0.000000  0.135285  0.167406      2.000000
  0.058580  0.101463  0.143491      2.000000
  0.117160  0.067642  0.119576      2.000000
  0.175740  0.033821  0.095661      2.000000
 -0.117160  0.202927  0.215236      2.000000
 -0.058580  0.169106  0.191321      2.000000
  0.000000  0.202927  0.143491      1.000000
  0.058580  0.169106  0.119576      2.000000
  0.117160  0.135285  0.095661      2.000000
  0.175740  0.101463  0.071745      1.000000
 
 
 Subroutine IBZKPT_HF returns following result:
 ==============================================
 
 Found    216 k-points in 1st BZ
 the following    216 k-points will be used (e.g. in the exchange kernel)
 Following reciprocal coordinates:   # in IRBZ
  0.000000  0.000000  0.000000    0.00462963   1 t-inv F
  0.166667 -0.000000  0.000000    0.00462963   2 t-inv F
  0.333333 -0.000000  0.000000    0.00462963   3 t-inv F
  0.500000 -0.000000  0.000000    0.00462963   4 t-inv F
  0.000000  0.166667 -0.000000    0.00462963   5 t-inv F
  0.166667  0.166667  0.000000    0.00462963   6 t-inv F
  0.333333  0.166667  0.000000    0.00462963   7 t-inv F
  0.500000  0.166667  0.000000    0.00462963   8 t-inv F
 -0.333333  0.166667 -0.000000    0.00462963   9 t-inv F
 -0.166667  0.166667 -0.000000    0.00462963  10 t-inv F
  0.000000  0.333333  0.000000    0.00462963  11 t-inv F
  0.166667  0.333333  0.000000    0.00462963  12 t-inv F
  0.333333  0.333333  0.000000    0.00462963  13 t-inv F
  0.500000  0.333333  0.000000    0.00462963  14 t-inv F
 -0.333333  0.333333 -0.000000    0.00462963  15 t-inv F
 -0.166667  0.333333  0.000000    0.00462963  16 t-inv F
  0.000000  0.500000  0.000000    0.00462963  17 t-inv F
  0.166667  0.500000  0.000000    0.00462963  18 t-inv F
  0.333333  0.500000  0.000000    0.00462963  19 t-inv F
  0.500000  0.500000  0.000000    0.00462963  20 t-inv F
  0.000000  0.000000  0.166667    0.00462963  21 t-inv F
  0.166667 -0.000000  0.166667    0.00462963  22 t-inv F
  0.333333 -0.000000  0.166667    0.00462963  23 t-inv F
  0.500000 -0.000000  0.166667    0.00462963  24 t-inv F
 -0.333333  0.000000  0.166667    0.00462963  25 t-inv F
 -0.166667  0.000000  0.166667    0.00462963  26 t-inv F
  0.000000  0.166667  0.166667    0.00462963  27 t-inv F
  0.166667  0.166667  0.166667    0.00462963  28 t-inv F
  0.333333  0.166667  0.166667    0.00462963  29 t-inv F
  0.500000  0.166667  0.166667    0.00462963  30 t-inv F
 -0.333333  0.166667  0.166667    0.00462963  31 t-inv F
 -0.166667  0.166667  0.166667    0.00462963  32 t-inv F
  0.000000  0.333333  0.166667    0.00462963  33 t-inv F
  0.166667  0.333333  0.166667    0.00462963  34 t-inv F
  0.333333  0.333333  0.166667    0.00462963  35 t-inv F
  0.500000  0.333333  0.166667    0.00462963  36 t-inv F
 -0.333333  0.333333  0.166667    0.00462963  37 t-inv F
 -0.166667  0.333333  0.166667    0.00462963  38 t-inv F
  0.000000  0.500000  0.166667    0.00462963  39 t-inv F
  0.166667  0.500000  0.166667    0.00462963  40 t-inv F
  0.333333  0.500000  0.166667    0.00462963  41 t-inv F
  0.500000  0.500000  0.166667    0.00462963  42 t-inv F
 -0.333333  0.500000  0.166667    0.00462963  43 t-inv F
 -0.166667  0.500000  0.166667    0.00462963  44 t-inv F
  0.000000 -0.333333  0.166667    0.00462963  45 t-inv F
  0.166667 -0.333333  0.166667    0.00462963  46 t-inv F
  0.333333 -0.333333  0.166667    0.00462963  47 t-inv F
  0.500000 -0.333333  0.166667    0.00462963  48 t-inv F
 -0.333333 -0.333333  0.166667    0.00462963  49 t-inv F
 -0.166667 -0.333333  0.166667    0.00462963  50 t-inv F
  0.000000 -0.166667  0.166667    0.00462963  51 t-inv F
  0.166667 -0.166667  0.166667    0.00462963  52 t-inv F
  0.333333 -0.166667  0.166667    0.00462963  53 t-inv F
  0.500000 -0.166667  0.166667    0.00462963  54 t-inv F
 -0.333333 -0.166667  0.166667    0.00462963  55 t-inv F
 -0.166667 -0.166667  0.166667    0.00462963  56 t-inv F
  0.000000  0.000000  0.333333    0.00462963  57 t-inv F
  0.166667 -0.000000  0.333333    0.00462963  58 t-inv F
  0.333333 -0.000000  0.333333    0.00462963  59 t-inv F
  0.500000 -0.000000  0.333333    0.00462963  60 t-inv F
 -0.333333  0.000000  0.333333    0.00462963  61 t-inv F
 -0.166667  0.000000  0.333333    0.00462963  62 t-inv F
  0.000000  0.166667  0.333333    0.00462963  63 t-inv F
  0.166667  0.166667  0.333333    0.00462963  64 t-inv F
  0.333333  0.166667  0.333333    0.00462963  65 t-inv F
  0.500000  0.166667  0.333333    0.00462963  66 t-inv F
 -0.333333  0.166667  0.333333    0.00462963  67 t-inv F
 -0.166667  0.166667  0.333333    0.00462963  68 t-inv F
  0.000000  0.333333  0.333333    0.00462963  69 t-inv F
  0.166667  0.333333  0.333333    0.00462963  70 t-inv F
  0.333333  0.333333  0.333333    0.00462963  71 t-inv F
  0.500000  0.333333  0.333333    0.00462963  72 t-inv F
 -0.333333  0.333333  0.333333    0.00462963  73 t-inv F
 -0.166667  0.333333  0.333333    0.00462963  74 t-inv F
  0.000000  0.500000  0.333333    0.00462963  75 t-inv F
  0.166667  0.500000  0.333333    0.00462963  76 t-inv F
  0.333333  0.500000  0.333333    0.00462963  77 t-inv F
  0.500000  0.500000  0.333333    0.00462963  78 t-inv F
 -0.333333  0.500000  0.333333    0.00462963  79 t-inv F
 -0.166667  0.500000  0.333333    0.00462963  80 t-inv F
  0.000000 -0.333333  0.333333    0.00462963  81 t-inv F
  0.166667 -0.333333  0.333333    0.00462963  82 t-inv F
  0.333333 -0.333333  0.333333    0.00462963  83 t-inv F
  0.500000 -0.333333  0.333333    0.00462963  84 t-inv F
 -0.333333 -0.333333  0.333333    0.00462963  85 t-inv F
 -0.166667 -0.333333  0.333333    0.00462963  86 t-inv F
  0.000000 -0.166667  0.333333    0.00462963  87 t-inv F
  0.166667 -0.166667  0.333333    0.00462963  88 t-inv F
  0.333333 -0.166667  0.333333    0.00462963  89 t-inv F
  0.500000 -0.166667  0.333333    0.00462963  90 t-inv F
 -0.333333 -0.166667  0.333333    0.00462963  91 t-inv F
 -0.166667 -0.166667  0.333333    0.00462963  92 t-inv F
  0.000000  0.000000  0.500000    0.00462963  93 t-inv F
  0.166667 -0.000000  0.500000    0.00462963  94 t-inv F
  0.333333 -0.000000  0.500000    0.00462963  95 t-inv F
  0.500000 -0.000000  0.500000    0.00462963  96 t-inv F
  0.000000  0.166667  0.500000    0.00462963  97 t-inv F
  0.166667  0.166667  0.500000    0.00462963  98 t-inv F
  0.333333  0.166667  0.500000    0.00462963  99 t-inv F
  0.500000  0.166667  0.500000    0.00462963 100 t-inv F
 -0.333333  0.166667  0.500000    0.00462963 101 t-inv F
 -0.166667  0.166667  0.500000    0.00462963 102 t-inv F
  0.000000  0.333333  0.500000    0.00462963 103 t-inv F
  0.166667  0.333333  0.500000    0.00462963 104 t-inv F
  0.333333  0.333333  0.500000    0.00462963 105 t-inv F
  0.500000  0.333333  0.500000    0.00462963 106 t-inv F
 -0.333333  0.333333  0.500000    0.00462963 107 t-inv F
 -0.166667  0.333333  0.500000    0.00462963 108 t-inv F
  0.000000  0.500000  0.500000    0.00462963 109 t-inv F
  0.166667  0.500000  0.500000    0.00462963 110 t-inv F
  0.333333  0.500000  0.500000    0.00462963 111 t-inv F
  0.500000  0.500000  0.500000    0.00462963 112 t-inv F
 -0.166667  0.000000 -0.000000    0.00462963   2 t-inv T
 -0.333333  0.000000 -0.000000    0.00462963   3 t-inv T
  0.000000 -0.166667  0.000000    0.00462963   5 t-inv T
 -0.166667 -0.166667 -0.000000    0.00462963   6 t-inv T
 -0.333333 -0.166667 -0.000000    0.00462963   7 t-inv T
 -0.500000 -0.166667  0.000000    0.00462963   8 t-inv T
  0.333333 -0.166667  0.000000    0.00462963   9 t-inv T
  0.166667 -0.166667  0.000000    0.00462963  10 t-inv T
  0.000000 -0.333333  0.000000    0.00462963  11 t-inv T
 -0.166667 -0.333333  0.000000    0.00462963  12 t-inv T
 -0.333333 -0.333333 -0.000000    0.00462963  13 t-inv T
 -0.500000 -0.333333 -0.000000    0.00462963  14 t-inv T
  0.333333 -0.333333  0.000000    0.00462963  15 t-inv T
  0.166667 -0.333333 -0.000000    0.00462963  16 t-inv T
 -0.166667 -0.500000 -0.000000    0.00462963  18 t-inv T
 -0.333333 -0.500000 -0.000000    0.00462963  19 t-inv T
  0.000000  0.000000 -0.166667    0.00462963  21 t-inv T
 -0.166667  0.000000 -0.166667    0.00462963  22 t-inv T
 -0.333333  0.000000 -0.166667    0.00462963  23 t-inv T
 -0.500000  0.000000 -0.166667    0.00462963  24 t-inv T
  0.333333 -0.000000 -0.166667    0.00462963  25 t-inv T
  0.166667 -0.000000 -0.166667    0.00462963  26 t-inv T
  0.000000 -0.166667 -0.166667    0.00462963  27 t-inv T
 -0.166667 -0.166667 -0.166667    0.00462963  28 t-inv T
 -0.333333 -0.166667 -0.166667    0.00462963  29 t-inv T
 -0.500000 -0.166667 -0.166667    0.00462963  30 t-inv T
  0.333333 -0.166667 -0.166667    0.00462963  31 t-inv T
  0.166667 -0.166667 -0.166667    0.00462963  32 t-inv T
  0.000000 -0.333333 -0.166667    0.00462963  33 t-inv T
 -0.166667 -0.333333 -0.166667    0.00462963  34 t-inv T
 -0.333333 -0.333333 -0.166667    0.00462963  35 t-inv T
 -0.500000 -0.333333 -0.166667    0.00462963  36 t-inv T
  0.333333 -0.333333 -0.166667    0.00462963  37 t-inv T
  0.166667 -0.333333 -0.166667    0.00462963  38 t-inv T
  0.000000 -0.500000 -0.166667    0.00462963  39 t-inv T
 -0.166667 -0.500000 -0.166667    0.00462963  40 t-inv T
 -0.333333 -0.500000 -0.166667    0.00462963  41 t-inv T
 -0.500000 -0.500000 -0.166667    0.00462963  42 t-inv T
  0.333333 -0.500000 -0.166667    0.00462963  43 t-inv T
  0.166667 -0.500000 -0.166667    0.00462963  44 t-inv T
  0.000000  0.333333 -0.166667    0.00462963  45 t-inv T
 -0.166667  0.333333 -0.166667    0.00462963  46 t-inv T
 -0.333333  0.333333 -0.166667    0.00462963  47 t-inv T
 -0.500000  0.333333 -0.166667    0.00462963  48 t-inv T
  0.333333  0.333333 -0.166667    0.00462963  49 t-inv T
  0.166667  0.333333 -0.166667    0.00462963  50 t-inv T
  0.000000  0.166667 -0.166667    0.00462963  51 t-inv T
 -0.166667  0.166667 -0.166667    0.00462963  52 t-inv T
 -0.333333  0.166667 -0.166667    0.00462963  53 t-inv T
 -0.500000  0.166667 -0.166667    0.00462963  54 t-inv T
  0.333333  0.166667 -0.166667    0.00462963  55 t-inv T
  0.166667  0.166667 -0.166667    0.00462963  56 t-inv T
  0.000000  0.000000 -0.333333    0.00462963  57 t-inv T
 -0.166667  0.000000 -0.333333    0.00462963  58 t-inv T
 -0.333333  0.000000 -0.333333    0.00462963  59 t-inv T
 -0.500000  0.000000 -0.333333    0.00462963  60 t-inv T
  0.333333 -0.000000 -0.333333    0.00462963  61 t-inv T
  0.166667 -0.000000 -0.333333    0.00462963  62 t-inv T
  0.000000 -0.166667 -0.333333    0.00462963  63 t-inv T
 -0.166667 -0.166667 -0.333333    0.00462963  64 t-inv T
 -0.333333 -0.166667 -0.333333    0.00462963  65 t-inv T
 -0.500000 -0.166667 -0.333333    0.00462963  66 t-inv T
  0.333333 -0.166667 -0.333333    0.00462963  67 t-inv T
  0.166667 -0.166667 -0.333333    0.00462963  68 t-inv T
  0.000000 -0.333333 -0.333333    0.00462963  69 t-inv T
 -0.166667 -0.333333 -0.333333    0.00462963  70 t-inv T
 -0.333333 -0.333333 -0.333333    0.00462963  71 t-inv T
 -0.500000 -0.333333 -0.333333    0.00462963  72 t-inv T
  0.333333 -0.333333 -0.333333    0.00462963  73 t-inv T
  0.166667 -0.333333 -0.333333    0.00462963  74 t-inv T
  0.000000 -0.500000 -0.333333    0.00462963  75 t-inv T
 -0.166667 -0.500000 -0.333333    0.00462963  76 t-inv T
 -0.333333 -0.500000 -0.333333    0.00462963  77 t-inv T
 -0.500000 -0.500000 -0.333333    0.00462963  78 t-inv T
  0.333333 -0.500000 -0.333333    0.00462963  79 t-inv T
  0.166667 -0.500000 -0.333333    0.00462963  80 t-inv T
  0.000000  0.333333 -0.333333    0.00462963  81 t-inv T
 -0.166667  0.333333 -0.333333    0.00462963  82 t-inv T
 -0.333333  0.333333 -0.333333    0.00462963  83 t-inv T
 -0.500000  0.333333 -0.333333    0.00462963  84 t-inv T
  0.333333  0.333333 -0.333333    0.00462963  85 t-inv T
  0.166667  0.333333 -0.333333    0.00462963  86 t-inv T
  0.000000  0.166667 -0.333333    0.00462963  87 t-inv T
 -0.166667  0.166667 -0.333333    0.00462963  88 t-inv T
 -0.333333  0.166667 -0.333333    0.00462963  89 t-inv T
 -0.500000  0.166667 -0.333333    0.00462963  90 t-inv T
  0.333333  0.166667 -0.333333    0.00462963  91 t-inv T
  0.166667  0.166667 -0.333333    0.00462963  92 t-inv T
 -0.166667  0.000000 -0.500000    0.00462963  94 t-inv T
 -0.333333  0.000000 -0.500000    0.00462963  95 t-inv T
  0.000000 -0.166667 -0.500000    0.00462963  97 t-inv T
 -0.166667 -0.166667 -0.500000    0.00462963  98 t-inv T
 -0.333333 -0.166667 -0.500000    0.00462963  99 t-inv T
 -0.500000 -0.166667 -0.500000    0.00462963 100 t-inv T
  0.333333 -0.166667 -0.500000    0.00462963 101 t-inv T
  0.166667 -0.166667 -0.500000    0.00462963 102 t-inv T
  0.000000 -0.333333 -0.500000    0.00462963 103 t-inv T
 -0.166667 -0.333333 -0.500000    0.00462963 104 t-inv T
 -0.333333 -0.333333 -0.500000    0.00462963 105 t-inv T
 -0.500000 -0.333333 -0.500000    0.00462963 106 t-inv T
  0.333333 -0.333333 -0.500000    0.00462963 107 t-inv T
  0.166667 -0.333333 -0.500000    0.00462963 108 t-inv T
 -0.166667 -0.500000 -0.500000    0.00462963 110 t-inv T
 -0.333333 -0.500000 -0.500000    0.00462963 111 t-inv T


--------------------------------------------------------------------------------------------------------




 Dimension of arrays:
   k-points           NKPTS =    112   k-points in BZ     NKDIM =    216   number of bands    NBANDS=    128
   number of dos      NEDOS =    301   number of ions     NIONS =      1
   non local maximal  LDIM  =      6   non local SUM 2l+1 LMDIM =     16
   total plane-waves  NPLWV =   4096
   max r-space proj   IRMAX =      1   max aug-charges    IRDMAX=  14265
   dimension x,y,z NGX =    16 NGY =   16 NGZ =   16
   dimension x,y,z NGXF=    32 NGYF=   32 NGZF=   32
   support grid    NGXF=    64 NGYF=   64 NGZF=   64
   ions per type =               1
   NGX,Y,Z   is equivalent  to a cutoff of   9.35,  9.35,  9.35 a.u.
   NGXF,Y,Z  is equivalent  to a cutoff of  18.70, 18.70, 18.70 a.u.

 SYSTEM =  Og_FCC                                  
 POSCAR =  He_FCC                                  

 Startparameter for this run:
   NWRITE =      1    write-flag & timer
   PREC   = accura    normal or accurate (medium, high low for compatibility)
   ISTART =      1    job   : 0-new  1-cont  2-samecut
   ICHARG =      0    charge: 1-file 2-atom 10-const
   ISPIN  =      1    spin polarized calculation?
   LNONCOLLINEAR =      F non collinear calculations
   LSORBIT =      F    spin-orbit coupling
   INIWAV =      1    electr: 0-lowe 1-rand  2-diag
   LASPH  =      F    aspherical Exc in radial PAW
   METAGGA=      F    non-selfconsistent MetaGGA calc.

 Electronic Relaxation 1
   ENCUT  =  300.0 eV  22.05 Ry    4.70 a.u.   4.02  4.02  4.02*2*pi/ulx,y,z
   ENINI  =  300.0     initial cutoff
   ENAUG  = 1514.2 eV  augmentation charge cutoff
   NELM   =      1;   NELMIN=  2; NELMDL=  0     # of ELM steps 
   EDIFF  = 0.1E-07   stopping-criterion for ELM
   LREAL  =      F    real-space projection
   NLSPLINE    = F    spline interpolate recip. space projectors
   LCOMPAT=      F    compatible to vasp.4.4
   GGA_COMPAT  = F    GGA compatible to vasp.4.4-vasp.4.6
   LMAXPAW     = -100 max onsite density
   LMAXMIX     =    2 max onsite mixed and CHGCAR
   VOSKOWN=      0    Vosko Wilk Nusair interpolation
   ROPT   =    0.00000
 Ionic relaxation
   EDIFFG = 0.1E-04   stopping-criterion for IOM
   NSW    =      1    number of steps for IOM
   NBLOCK =      1;   KBLOCK =      1    inner block; outer block 
   IBRION =     -1    ionic relax: 0-MD 1-quasi-New 2-CG
   NFREE  =      5    steps in history (QN), initial steepest desc. (CG)
   ISIF   =      3    stress and relaxation
   IWAVPR =     10    prediction:  0-non 1-charg 2-wave 3-comb
   ISYM   =      0    0-nonsym 1-usesym 2-fastsym
   LCORR  =      T    Harris-Foulkes like correction to forces

   POTIM  = 0.1000    time-step for ionic-motion
   TEIN   =    0.0    initial temperature
   TEBEG  =    0.0;   TEEND  =   0.0 temperature during run
   SMASS  =  -3.00    Nose mass-parameter (am)
   estimated Nose-frequenzy (Omega)   =  0.10E-29 period in steps =****** mass=  -0.185E-27a.u.
   SCALEE = 1.0000    scale energy and forces
   NPACO  =    256;   APACO  = 16.0  distance and # of slots for P.C.
   PSTRESS=    0.0 pullay stress

  Mass of Ions in am
   POMASS =   4.00
  Ionic Valenz
   ZVAL   =   2.00
  Atomic Wigner-Seitz radii
   RWIGS  =  -1.00
  virtual crystal weights 
   VCA    =   1.00
   NELECT =       2.0000    total number of electrons
   NUPDOWN=      -1.0000    fix difference up-down

 DOS related values:
   EMIN   =  10.00;   EMAX   =-10.00  energy-range for DOS
   EFERMI =   0.00
   ISMEAR =     0;   SIGMA  =   0.00  broadening in eV -4-tet -1-fermi 0-gaus

 Electronic relaxation 2 (details)
   IALGO  =     38    algorithm
   LDIAG  =      T    sub-space diagonalisation (order eigenvalues)
   LSUBROT=      F    optimize rotation matrix (better conditioning)
   TURBO    =      0    0=normal 1=particle mesh
   IRESTART =      0    0=no restart 2=restart with 2 vectors
   NREBOOT  =      0    no. of reboots
   NMIN     =      0    reboot dimension
   EREF     =   0.00    reference energy to select bands
   IMIX   =      1    mixing-type and parameters
     AMIX     =   0.40;   BMIX     =  1.00
     AMIX_MAG =   1.60;   BMIX_MAG =  1.00
     AMIN     =   0.10
     WC   =   100.;   INIMIX=   1;  MIXPRE=   1;  MAXMIX=  50

 Intra band minimization:
   WEIMIN = 0.0000     energy-eigenvalue tresh-hold
   EBREAK =  0.20E-10  absolut break condition
   DEPER  =   0.30     relativ break condition  

   TIME   =   0.40     timestep for ELM

  volume/ion in A,a.u.               =      16.28       109.90
  Fermi-wavevector in a.u.,A,eV,Ry     =   0.813748  1.537761  9.009588  0.662186
  Thomas-Fermi vector in A             =   1.923530
 
 Write flags
   LWAVE        =      T    write WAVECAR
   LDOWNSAMPLE  =      F    k-point downsampling of WAVECAR
   LCHARG       =      F    write CHGCAR
   LVTOT        =      F    write LOCPOT, total local potential
   LVHAR        =      F    write LOCPOT, Hartree potential only
   LELF         =      F    write electronic localiz. function (ELF)
   LORBIT       =      0    0 simple, 1 ext, 2 COOP (PROOUT), +10 PAW based schemes


 Dipole corrections
   LMONO  =      F    monopole corrections only (constant potential shift)
   LDIPOL =      F    correct potential (dipole corrections)
   IDIPOL =      0    1-x, 2-y, 3-z, 4-all directions 
   EPSILON=  1.0000000 bulk dielectric constant

 Exchange correlation treatment:
   GGA     =    PE    GGA type
   LEXCH   =     8    internal setting for exchange type
   VOSKOWN=      0    Vosko Wilk Nusair interpolation
   EXXOEP  =     0    0=HF, 1=EXX-LHF (local Hartree Fock) 2=EXX OEP
   LHFCALC =     T    Hartree Fock is set to
   LSYMGRAD=     F    symmetrize gradient (conserves proper symmetry)
   PRECFOCK=normal    Normal, Fast or Accurate (Low or Medium for compatibility)
   LRHFCALC=     F    long range Hartree Fock
   LRSCOR  =     F    long range correlation only (use DFT for short range part)
   LTHOMAS =     F    Thomas Fermi screening in HF
   LMODELHF=     F    short range full HF, long range fraction AEXX
   ENCUT4O =  -1.0   cutoff for four orbital integrals eV
   LMAXFOCK=     4    L truncation for augmentation on plane wave grid
   LMAXFOCKAE=   4    L truncation for all-electron charge restoration on plane wave grid
   NMAXFOCKAE=   1    number of basis functions for all-electron charge restoration
   LFOCKAEDFT=     F  apply the AE augmentation even for DFT
   NKREDX  =     1    reduce k-point grid by
   NKREDY  =     1    reduce k-point grid by
   NKREDZ  =     1    reduce k-point grid by
   SHIFTRED=     F    shift reduced grid of Gamma
   HFKIDENT=     F    idential grid for each k-point
   ODDONLY =     F    use only odd q-grid points
   EVENONLY=     F    use only even q-grid points
   HFALPHA =   -1.0000 decay constant for conv. correction
   MCALPHA =    0.0000 extent of test-charge in conv. correction in multipole expansion
   AEXX    =    1.0000 exact exchange contribution
   HFSCREEN=    0.0000 screening length (either q_TF or 0.3 A-1)
   HFSCREENC=   0.0000 screening length for correlation (either q_TF or 0.3 A-1)
   HFRCUT  =    0.0000 spherical cutoff for potential kernel
   ALDAX   =    0.0000 LDA exchange part
   AGGAX   =    0.0000 GGA exchange part
   ALDAC   =    0.0000 LDA correlation
   AGGAC   =    0.0000 GGA correlation
   ENCUTFOCK=  -1.0 apply spherical cutoff to Coloumb kernel
   NBANDSGWLOW=     1    first orbital included in HF term
   NBLOCK_FOCK=    64    blocking factor in FOCK_ACC
 Linear response parameters
   LEPSILON=     F    determine dielectric tensor
   LRPA    =     F    only Hartree local field effects (RPA)
   LNABLA  =     F    use nabla operator in PAW spheres
   LVEL    =     F    velocity operator in full k-point grid
   LINTERFAST=   F  fast interpolation
   KINTER  =     0    interpolate to denser k-point grid
   CSHIFT  =0.1000    complex shift for real part using Kramers Kronig
   OMEGAMAX=  -1.0    maximum frequency
   DEG_THRESHOLD= 0.2000000E-02 threshold for treating states as degnerate
   RTIME   =   -0.100 relaxation time in fs
  (WPLASMAI=    0.000 imaginary part of plasma frequency in eV, 0.658/RTIME)
   DFIELD  = 0.0000000 0.0000000 0.0000000 field for delta impulse in time
 
 Orbital magnetization related:
   ORBITALMAG=     F  switch on orbital magnetization
   LCHIMAG   =     F  perturbation theory with respect to B field
   DQ        =  0.001000  dq finite difference perturbation B field
   LLRAUG    =     F  two centre corrections for induced B field

 Response functions by sum over occupied states:
   ALGO    =QPGW       execute GW part
   LFXC    =     F    include DFT xc kernel in TD-HF and W
   LADDER  =     F    particle hole ladder diagrams for BSE/TD-HF and W (Nano-quanta)
   LRPAFORCE=     F   calculate RPA forces
   LHARTREE=     T    include Hartree terms (bubbles-RPA) in BSE/TD-HF
   IBSE    =     0    BSE modus: 0 exact, 1 time-evolution (store matrix), 10 time-evolution (implicit)
   KPOINT  =    -1   0   0   0    k-point index at which BSE equation is solved (and G at which response is eval.)
   LTRIPLET=     F    triplet instead of singlet excitation (BSE only)
   LRSRPA  =     F    range separated RPA (total - short) in ACFDT
   LTCTE   =     F    use test-charge test-electron dielectric function
   LTETE   =     F    use test-electron test-electron dielectric function
   LFXCEPS =     F    determine f_xc=epsilon-1/Xi Sharma and Gross kernel
   LFXHEG  =     F    model exchange using f_x(G,k_F) from free electron gas
   NATURALO=     2    0 natural orbitals, 1 only virtual, 2 only occupied-virtual rotation
   L2ORDER =     F    2nd order terms only
   LMP2LT   =     F    use LT MP2
   LUSEW   =     F    use screened W from WXXXX.tmp files instead of (screened) HF kernel
   ENCUTGW = 200.0    cutoff for response function in eV
   ENCUTGWSOFT = 200.0 soft cutoff for Coulomb kernel in GW response function in eV
   ENCUTLF =  -1.0    cutoff for local field effects
   LMAXMP2 =    -1    maximum L for one center terms
   SCISSOR =   0.0    scissor correction
   NOMEGA  =    50    number of frequencies
   NOMEGAR =    50    number of frequencies along real axis
   NBANDSGW=    -1    number of bands for which selfenergy shift is calculated
   NBANDSGWLOW=     1 lowest band included in GW (to exclude core correlation)
   NBANDSO =    -1    number of bands for electron-hole treatment (occupied)
   NBANDSV =    -1    number of bands for electron-hole treatment (virtual)
   NELM    =     1    number of iterations in solving QP/BSE equation
   NELMHF  =     1    number of iterations in the inner HF iteration
   DIM     =     3    dimensionality of system (0=0D molecules, 3=3D)
   ANTIRES =     0    antiresonant part (0) no TDA (1) w=0 exact (2) accurate
   OMEGAMAX= -30.0    maximum frequency
   OMEGAMIN= -30.000    minimum frequency
   OMEGATL =-200.0    maximum frequency of tail
   OMEGAGRID=     0    grid type (0 default)
   CSHIFT  =-0.100    complex shift used in evaluation of response functions
   SELFENERGY=   F    calculate selfenergy instead of QP shifts
   LSPECTRAL =   T    use spectral functions                   
   LSPECTRALGW=   F   use spectral functions to calculate int dz G(w-z) W(z) (more accurate)
   LSINGLES  =   F   calculate the singles contribution to the correlation energy
   LFERMIGW  =   F   update Fermi-energy in the Greens function

   ODDONLYGW =   F    avoid all even points for polarizability 
   EVENONLYGW=   F    avoid all odd  points for polarizability 
   NKREDLFX  =   1   NKREDLFY  =   1   NKREDLFZ  =   1

   TELESCOPE =   0   use telescope k-point sampling
   TAUPAR    =   1   number of TAU groups used in imaginary time calculation
   OMEGAPAR  =  -1   number of OMEGA groups used in imaginary frequency calculation



--------------------------------------------------------------------------------------------------------


 Static calculation
 charge density and potential will be updated during run
 non-spin polarized calculation
 Variant of blocked Davidson
 Davidson routine will perform the subspace rotation
 perform sub-space diagonalisation
    after iterative eigenvector-optimisation
 Kerker-like  mixing scheme
 using additional bands          127
 reciprocal scheme for non local part
 calculate Harris-corrections to forces 
   (improved forces if not selfconsistent)
 use gradient corrections 
 use of overlap-Matrix (Vanderbilt PP)
 Gauss-broadening in eV      SIGMA  =   0.00


--------------------------------------------------------------------------------------------------------


  energy-cutoff  :      300.00
  volume of cell :       16.28
      direct lattice vectors                 reciprocal lattice vectors
     2.845115027  0.000000000  0.000000000     0.351479638 -0.202926864 -0.143490961
     1.422557513  2.463941890  0.000000000     0.000000000  0.405853727 -0.143490961
     1.422557513  0.821313963  2.323026692     0.000000000  0.000000000  0.430472884

  length of vectors
     2.845115027  2.845115027  2.845115027     0.430472884  0.430472884  0.430472884


 
 old parameters found on file WAVECAR:
  energy-cutoff  :      300.00
  volume of cell :       16.28
      direct lattice vectors                 reciprocal lattice vectors
     2.845115027  0.000000000  0.000000000     0.351479638 -0.202926864 -0.143490961
     1.422557513  2.463941890  0.000000000     0.000000000  0.405853727 -0.143490961
     1.422557513  0.821313963  2.323026692     0.000000000  0.000000000  0.430472884

  length of vectors

 
 k-points in units of 2pi/SCALE and weight: k-points                                
   0.00000000  0.00000000  0.00000000       0.005
   0.05857994 -0.03382114 -0.02391516       0.009
   0.11715988 -0.06764229 -0.04783032       0.009
   0.17573982 -0.10146343 -0.07174548       0.005
   0.00000000  0.06764229 -0.02391516       0.009
   0.05857994  0.03382114 -0.04783032       0.009
   0.11715988  0.00000000 -0.07174548       0.009
   0.17573982 -0.03382114 -0.09566064       0.009
  -0.11715988  0.13528458  0.02391516       0.009
  -0.05857994  0.10146343 -0.00000000       0.009
   0.00000000  0.13528458 -0.04783032       0.009
   0.05857994  0.10146343 -0.07174548       0.009
   0.11715988  0.06764229 -0.09566064       0.009
   0.17573982  0.03382114 -0.11957580       0.009
  -0.11715988  0.20292686 -0.00000000       0.009
  -0.05857994  0.16910572 -0.02391516       0.009
   0.00000000  0.20292686 -0.07174548       0.005
   0.05857994  0.16910572 -0.09566064       0.009
   0.11715988  0.13528458 -0.11957580       0.009
   0.17573982  0.10146343 -0.14349096       0.005
   0.00000000  0.00000000  0.07174548       0.009
   0.05857994 -0.03382114  0.04783032       0.009
   0.11715988 -0.06764229  0.02391516       0.009
   0.17573982 -0.10146343  0.00000000       0.009
  -0.11715988  0.06764229  0.11957580       0.009
  -0.05857994  0.03382114  0.09566064       0.009
   0.00000000  0.06764229  0.04783032       0.009
   0.05857994  0.03382114  0.02391516       0.009
   0.11715988  0.00000000  0.00000000       0.009
   0.17573982 -0.03382114 -0.02391516       0.009
  -0.11715988  0.13528458  0.09566064       0.009
  -0.05857994  0.10146343  0.07174548       0.009
   0.00000000  0.13528458  0.02391516       0.009
   0.05857994  0.10146343 -0.00000000       0.009
   0.11715988  0.06764229 -0.02391516       0.009
   0.17573982  0.03382114 -0.04783032       0.009
  -0.11715988  0.20292686  0.07174548       0.009
  -0.05857994  0.16910572  0.04783032       0.009
   0.00000000  0.20292686 -0.00000000       0.009
   0.05857994  0.16910572 -0.02391516       0.009
   0.11715988  0.13528458 -0.04783032       0.009
   0.17573982  0.10146343 -0.07174548       0.009
  -0.11715988  0.27056915  0.04783032       0.009
  -0.05857994  0.23674801  0.02391516       0.009
   0.00000000 -0.13528458  0.11957580       0.009
   0.05857994 -0.16910572  0.09566064       0.009
   0.11715988 -0.20292686  0.07174548       0.009
   0.17573982 -0.23674801  0.04783032       0.009
  -0.11715988 -0.06764229  0.16740612       0.009
  -0.05857994 -0.10146343  0.14349096       0.009
   0.00000000 -0.06764229  0.09566064       0.009
   0.05857994 -0.10146343  0.07174548       0.009
   0.11715988 -0.13528458  0.04783032       0.009
   0.17573982 -0.16910572  0.02391516       0.009
  -0.11715988 -0.00000000  0.14349096       0.009
  -0.05857994 -0.03382114  0.11957580       0.009
   0.00000000  0.00000000  0.14349096       0.009
   0.05857994 -0.03382114  0.11957580       0.009
   0.11715988 -0.06764229  0.09566064       0.009
   0.17573982 -0.10146343  0.07174548       0.009
  -0.11715988  0.06764229  0.19132128       0.009
  -0.05857994  0.03382114  0.16740612       0.009
   0.00000000  0.06764229  0.11957580       0.009
   0.05857994  0.03382114  0.09566064       0.009
   0.11715988  0.00000000  0.07174548       0.009
   0.17573982 -0.03382114  0.04783032       0.009
  -0.11715988  0.13528458  0.16740612       0.009
  -0.05857994  0.10146343  0.14349096       0.009
   0.00000000  0.13528458  0.09566064       0.009
   0.05857994  0.10146343  0.07174548       0.009
   0.11715988  0.06764229  0.04783032       0.009
   0.17573982  0.03382114  0.02391516       0.009
  -0.11715988  0.20292686  0.14349096       0.009
  -0.05857994  0.16910572  0.11957580       0.009
   0.00000000  0.20292686  0.07174548       0.009
   0.05857994  0.16910572  0.04783032       0.009
   0.11715988  0.13528458  0.02391516       0.009
   0.17573982  0.10146343 -0.00000000       0.009
  -0.11715988  0.27056915  0.11957580       0.009
  -0.05857994  0.23674801  0.09566064       0.009
   0.00000000 -0.13528458  0.19132128       0.009
   0.05857994 -0.16910572  0.16740612       0.009
   0.11715988 -0.20292686  0.14349096       0.009
   0.17573982 -0.23674801  0.11957580       0.009
  -0.11715988 -0.06764229  0.23915160       0.009
  -0.05857994 -0.10146343  0.21523644       0.009
   0.00000000 -0.06764229  0.16740612       0.009
   0.05857994 -0.10146343  0.14349096       0.009
   0.11715988 -0.13528458  0.11957580       0.009
   0.17573982 -0.16910572  0.09566064       0.009
  -0.11715988 -0.00000000  0.21523644       0.009
  -0.05857994 -0.03382114  0.19132128       0.009
   0.00000000  0.00000000  0.21523644       0.005
   0.05857994 -0.03382114  0.19132128       0.009
   0.11715988 -0.06764229  0.16740612       0.009
   0.17573982 -0.10146343  0.14349096       0.005
   0.00000000  0.06764229  0.19132128       0.009
   0.05857994  0.03382114  0.16740612       0.009
   0.11715988  0.00000000  0.14349096       0.009
   0.17573982 -0.03382114  0.11957580       0.009
  -0.11715988  0.13528458  0.23915160       0.009
  -0.05857994  0.10146343  0.21523644       0.009
   0.00000000  0.13528458  0.16740612       0.009
   0.05857994  0.10146343  0.14349096       0.009
   0.11715988  0.06764229  0.11957580       0.009
   0.17573982  0.03382114  0.09566064       0.009
  -0.11715988  0.20292686  0.21523644       0.009
  -0.05857994  0.16910572  0.19132128       0.009
   0.00000000  0.20292686  0.14349096       0.005
   0.05857994  0.16910572  0.11957580       0.009
   0.11715988  0.13528458  0.09566064       0.009
   0.17573982  0.10146343  0.07174548       0.005
 
 k-points in reciprocal lattice and weights: k-points                                
   0.00000000  0.00000000  0.00000000       0.005
   0.16666667 -0.00000000  0.00000000       0.009
   0.33333333 -0.00000000  0.00000000       0.009
   0.50000000 -0.00000000  0.00000000       0.005
   0.00000000  0.16666667 -0.00000000       0.009
   0.16666667  0.16666667  0.00000000       0.009
   0.33333333  0.16666667  0.00000000       0.009
   0.50000000  0.16666667  0.00000000       0.009
  -0.33333333  0.16666667 -0.00000000       0.009
  -0.16666667  0.16666667 -0.00000000       0.009
   0.00000000  0.33333333  0.00000000       0.009
   0.16666667  0.33333333  0.00000000       0.009
   0.33333333  0.33333333  0.00000000       0.009
   0.50000000  0.33333333  0.00000000       0.009
  -0.33333333  0.33333333 -0.00000000       0.009
  -0.16666667  0.33333333  0.00000000       0.009
   0.00000000  0.50000000  0.00000000       0.005
   0.16666667  0.50000000  0.00000000       0.009
   0.33333333  0.50000000  0.00000000       0.009
   0.50000000  0.50000000  0.00000000       0.005
   0.00000000  0.00000000  0.16666667       0.009
   0.16666667 -0.00000000  0.16666667       0.009
   0.33333333 -0.00000000  0.16666667       0.009
   0.50000000 -0.00000000  0.16666667       0.009
  -0.33333333  0.00000000  0.16666667       0.009
  -0.16666667  0.00000000  0.16666667       0.009
   0.00000000  0.16666667  0.16666667       0.009
   0.16666667  0.16666667  0.16666667       0.009
   0.33333333  0.16666667  0.16666667       0.009
   0.50000000  0.16666667  0.16666667       0.009
  -0.33333333  0.16666667  0.16666667       0.009
  -0.16666667  0.16666667  0.16666667       0.009
   0.00000000  0.33333333  0.16666667       0.009
   0.16666667  0.33333333  0.16666667       0.009
   0.33333333  0.33333333  0.16666667       0.009
   0.50000000  0.33333333  0.16666667       0.009
  -0.33333333  0.33333333  0.16666667       0.009
  -0.16666667  0.33333333  0.16666667       0.009
   0.00000000  0.50000000  0.16666667       0.009
   0.16666667  0.50000000  0.16666667       0.009
   0.33333333  0.50000000  0.16666667       0.009
   0.50000000  0.50000000  0.16666667       0.009
  -0.33333333  0.50000000  0.16666667       0.009
  -0.16666667  0.50000000  0.16666667       0.009
   0.00000000 -0.33333333  0.16666667       0.009
   0.16666667 -0.33333333  0.16666667       0.009
   0.33333333 -0.33333333  0.16666667       0.009
   0.50000000 -0.33333333  0.16666667       0.009
  -0.33333333 -0.33333333  0.16666667       0.009
  -0.16666667 -0.33333333  0.16666667       0.009
   0.00000000 -0.16666667  0.16666667       0.009
   0.16666667 -0.16666667  0.16666667       0.009
   0.33333333 -0.16666667  0.16666667       0.009
   0.50000000 -0.16666667  0.16666667       0.009
  -0.33333333 -0.16666667  0.16666667       0.009
  -0.16666667 -0.16666667  0.16666667       0.009
   0.00000000  0.00000000  0.33333333       0.009
   0.16666667 -0.00000000  0.33333333       0.009
   0.33333333 -0.00000000  0.33333333       0.009
   0.50000000 -0.00000000  0.33333333       0.009
  -0.33333333  0.00000000  0.33333333       0.009
  -0.16666667  0.00000000  0.33333333       0.009
   0.00000000  0.16666667  0.33333333       0.009
   0.16666667  0.16666667  0.33333333       0.009
   0.33333333  0.16666667  0.33333333       0.009
   0.50000000  0.16666667  0.33333333       0.009
  -0.33333333  0.16666667  0.33333333       0.009
  -0.16666667  0.16666667  0.33333333       0.009
   0.00000000  0.33333333  0.33333333       0.009
   0.16666667  0.33333333  0.33333333       0.009
   0.33333333  0.33333333  0.33333333       0.009
   0.50000000  0.33333333  0.33333333       0.009
  -0.33333333  0.33333333  0.33333333       0.009
  -0.16666667  0.33333333  0.33333333       0.009
   0.00000000  0.50000000  0.33333333       0.009
   0.16666667  0.50000000  0.33333333       0.009
   0.33333333  0.50000000  0.33333333       0.009
   0.50000000  0.50000000  0.33333333       0.009
  -0.33333333  0.50000000  0.33333333       0.009
  -0.16666667  0.50000000  0.33333333       0.009
   0.00000000 -0.33333333  0.33333333       0.009
   0.16666667 -0.33333333  0.33333333       0.009
   0.33333333 -0.33333333  0.33333333       0.009
   0.50000000 -0.33333333  0.33333333       0.009
  -0.33333333 -0.33333333  0.33333333       0.009
  -0.16666667 -0.33333333  0.33333333       0.009
   0.00000000 -0.16666667  0.33333333       0.009
   0.16666667 -0.16666667  0.33333333       0.009
   0.33333333 -0.16666667  0.33333333       0.009
   0.50000000 -0.16666667  0.33333333       0.009
  -0.33333333 -0.16666667  0.33333333       0.009
  -0.16666667 -0.16666667  0.33333333       0.009
   0.00000000  0.00000000  0.50000000       0.005
   0.16666667 -0.00000000  0.50000000       0.009
   0.33333333 -0.00000000  0.50000000       0.009
   0.50000000 -0.00000000  0.50000000       0.005
   0.00000000  0.16666667  0.50000000       0.009
   0.16666667  0.16666667  0.50000000       0.009
   0.33333333  0.16666667  0.50000000       0.009
   0.50000000  0.16666667  0.50000000       0.009
  -0.33333333  0.16666667  0.50000000       0.009
  -0.16666667  0.16666667  0.50000000       0.009
   0.00000000  0.33333333  0.50000000       0.009
   0.16666667  0.33333333  0.50000000       0.009
   0.33333333  0.33333333  0.50000000       0.009
   0.50000000  0.33333333  0.50000000       0.009
  -0.33333333  0.33333333  0.50000000       0.009
  -0.16666667  0.33333333  0.50000000       0.009
   0.00000000  0.50000000  0.50000000       0.005
   0.16666667  0.50000000  0.50000000       0.009
   0.33333333  0.50000000  0.50000000       0.009
   0.50000000  0.50000000  0.50000000       0.005
 
 position of ions in fractional coordinates (direct lattice) 
   0.00000000  0.00000000  0.00000000
 
 position of ions in cartesian coordinates  (Angst):
   0.00000000  0.00000000  0.00000000
 


--------------------------------------------------------------------------------------------------------


 k-point  1 :   0.0000 0.0000 0.0000  plane waves:     181
 k-point  2 :   0.1667-0.0000 0.0000  plane waves:     184
 k-point  3 :   0.3333-0.0000 0.0000  plane waves:     186
 k-point  4 :   0.5000-0.0000 0.0000  plane waves:     180
 k-point  5 :   0.0000 0.1667-0.0000  plane waves:     184
 k-point  6 :   0.1667 0.1667 0.0000  plane waves:     186
 k-point  7 :   0.3333 0.1667 0.0000  plane waves:     190
 k-point  8 :   0.5000 0.1667 0.0000  plane waves:     190
 k-point  9 :  -0.3333 0.1667-0.0000  plane waves:     190
 k-point 10 :  -0.1667 0.1667-0.0000  plane waves:     192
 k-point 11 :   0.0000 0.3333 0.0000  plane waves:     186
 k-point 12 :   0.1667 0.3333 0.0000  plane waves:     190
 k-point 13 :   0.3333 0.3333 0.0000  plane waves:     194
 k-point 14 :   0.5000 0.3333 0.0000  plane waves:     196
 k-point 15 :  -0.3333 0.3333-0.0000  plane waves:     186
 k-point 16 :  -0.1667 0.3333 0.0000  plane waves:     190
 k-point 17 :   0.0000 0.5000 0.0000  plane waves:     180
 k-point 18 :   0.1667 0.5000 0.0000  plane waves:     190
 k-point 19 :   0.3333 0.5000 0.0000  plane waves:     196
 k-point 20 :   0.5000 0.5000 0.0000  plane waves:     190
 k-point 21 :   0.0000 0.0000 0.1667  plane waves:     184
 k-point 22 :   0.1667-0.0000 0.1667  plane waves:     186
 k-point 23 :   0.3333-0.0000 0.1667  plane waves:     190
 k-point 24 :   0.5000-0.0000 0.1667  plane waves:     190
 k-point 25 :  -0.3333 0.0000 0.1667  plane waves:     190
 k-point 26 :  -0.1667 0.0000 0.1667  plane waves:     192
 k-point 27 :   0.0000 0.1667 0.1667  plane waves:     186
 k-point 28 :   0.1667 0.1667 0.1667  plane waves:     184
 k-point 29 :   0.3333 0.1667 0.1667  plane waves:     192
 k-point 30 :   0.5000 0.1667 0.1667  plane waves:     190
 k-point 31 :  -0.3333 0.1667 0.1667  plane waves:     190
 k-point 32 :  -0.1667 0.1667 0.1667  plane waves:     190
 k-point 33 :   0.0000 0.3333 0.1667  plane waves:     190
 k-point 34 :   0.1667 0.3333 0.1667  plane waves:     192
 k-point 35 :   0.3333 0.3333 0.1667  plane waves:     190
 k-point 36 :   0.5000 0.3333 0.1667  plane waves:     195
 k-point 37 :  -0.3333 0.3333 0.1667  plane waves:     194
 k-point 38 :  -0.1667 0.3333 0.1667  plane waves:     195
 k-point 39 :   0.0000 0.5000 0.1667  plane waves:     190
 k-point 40 :   0.1667 0.5000 0.1667  plane waves:     190
 k-point 41 :   0.3333 0.5000 0.1667  plane waves:     195
 k-point 42 :   0.5000 0.5000 0.1667  plane waves:     196
 k-point 43 :  -0.3333 0.5000 0.1667  plane waves:     202
 k-point 44 :  -0.1667 0.5000 0.1667  plane waves:     194
 k-point 45 :   0.0000-0.3333 0.1667  plane waves:     190
 k-point 46 :   0.1667-0.3333 0.1667  plane waves:     190
 k-point 47 :   0.3333-0.3333 0.1667  plane waves:     194
 k-point 48 :   0.5000-0.3333 0.1667  plane waves:     202
 k-point 49 :  -0.3333-0.3333 0.1667  plane waves:     196
 k-point 50 :  -0.1667-0.3333 0.1667  plane waves:     195
 k-point 51 :   0.0000-0.1667 0.1667  plane waves:     192
 k-point 52 :   0.1667-0.1667 0.1667  plane waves:     190
 k-point 53 :   0.3333-0.1667 0.1667  plane waves:     195
 k-point 54 :   0.5000-0.1667 0.1667  plane waves:     194
 k-point 55 :  -0.3333-0.1667 0.1667  plane waves:     195
 k-point 56 :  -0.1667-0.1667 0.1667  plane waves:     190
 k-point 57 :   0.0000 0.0000 0.3333  plane waves:     186
 k-point 58 :   0.1667-0.0000 0.3333  plane waves:     190
 k-point 59 :   0.3333-0.0000 0.3333  plane waves:     194
 k-point 60 :   0.5000-0.0000 0.3333  plane waves:     196
 k-point 61 :  -0.3333 0.0000 0.3333  plane waves:     186
 k-point 62 :  -0.1667 0.0000 0.3333  plane waves:     190
 k-point 63 :   0.0000 0.1667 0.3333  plane waves:     190
 k-point 64 :   0.1667 0.1667 0.3333  plane waves:     192
 k-point 65 :   0.3333 0.1667 0.3333  plane waves:     190
 k-point 66 :   0.5000 0.1667 0.3333  plane waves:     195
 k-point 67 :  -0.3333 0.1667 0.3333  plane waves:     194
 k-point 68 :  -0.1667 0.1667 0.3333  plane waves:     195
 k-point 69 :   0.0000 0.3333 0.3333  plane waves:     194
 k-point 70 :   0.1667 0.3333 0.3333  plane waves:     190
 k-point 71 :   0.3333 0.3333 0.3333  plane waves:     186
 k-point 72 :   0.5000 0.3333 0.3333  plane waves:     190
 k-point 73 :  -0.3333 0.3333 0.3333  plane waves:     186
 k-point 74 :  -0.1667 0.3333 0.3333  plane waves:     196
 k-point 75 :   0.0000 0.5000 0.3333  plane waves:     196
 k-point 76 :   0.1667 0.5000 0.3333  plane waves:     195
 k-point 77 :   0.3333 0.5000 0.3333  plane waves:     190
 k-point 78 :   0.5000 0.5000 0.3333  plane waves:     190
 k-point 79 :  -0.3333 0.5000 0.3333  plane waves:     194
 k-point 80 :  -0.1667 0.5000 0.3333  plane waves:     202
 k-point 81 :   0.0000-0.3333 0.3333  plane waves:     186
 k-point 82 :   0.1667-0.3333 0.3333  plane waves:     194
 k-point 83 :   0.3333-0.3333 0.3333  plane waves:     186
 k-point 84 :   0.5000-0.3333 0.3333  plane waves:     194
 k-point 85 :  -0.3333-0.3333 0.3333  plane waves:     186
 k-point 86 :  -0.1667-0.3333 0.3333  plane waves:     194
 k-point 87 :   0.0000-0.1667 0.3333  plane waves:     190
 k-point 88 :   0.1667-0.1667 0.3333  plane waves:     195
 k-point 89 :   0.3333-0.1667 0.3333  plane waves:     196
 k-point 90 :   0.5000-0.1667 0.3333  plane waves:     202
 k-point 91 :  -0.3333-0.1667 0.3333  plane waves:     194
 k-point 92 :  -0.1667-0.1667 0.3333  plane waves:     190
 k-point 93 :   0.0000 0.0000 0.5000  plane waves:     180
 k-point 94 :   0.1667-0.0000 0.5000  plane waves:     190
 k-point 95 :   0.3333-0.0000 0.5000  plane waves:     196
 k-point 96 :   0.5000-0.0000 0.5000  plane waves:     190
 k-point 97 :   0.0000 0.1667 0.5000  plane waves:     190
 k-point 98 :   0.1667 0.1667 0.5000  plane waves:     190
 k-point 99 :   0.3333 0.1667 0.5000  plane waves:     195
 k-point ** :   0.5000 0.1667 0.5000  plane waves:     196
 k-point ** :  -0.3333 0.1667 0.5000  plane waves:     202
 k-point ** :  -0.1667 0.1667 0.5000  plane waves:     194
 k-point ** :   0.0000 0.3333 0.5000  plane waves:     196
 k-point ** :   0.1667 0.3333 0.5000  plane waves:     195
 k-point ** :   0.3333 0.3333 0.5000  plane waves:     190
 k-point ** :   0.5000 0.3333 0.5000  plane waves:     190
 k-point ** :  -0.3333 0.3333 0.5000  plane waves:     194
 k-point ** :  -0.1667 0.3333 0.5000  plane waves:     202
 k-point ** :   0.0000 0.5000 0.5000  plane waves:     190
 k-point ** :   0.1667 0.5000 0.5000  plane waves:     196
 k-point ** :   0.3333 0.5000 0.5000  plane waves:     190
 k-point ** :   0.5000 0.5000 0.5000  plane waves:     180

 maximum and minimum number of plane-waves per node :       202      180

 maximum number of plane-waves:       202
 maximum index in each direction: 
   IXMAX=    4   IYMAX=    4   IZMAX=    4
   IXMIN=   -4   IYMIN=   -4   IZMIN=   -4


 serial   3D FFT for wavefunctions
 parallel 3D FFT for charge:
    minimum data exchange during FFTs selected (reduces bandwidth)


 FFT grid for exact exchange (Hartree Fock) 
  NGX = 14; NGY = 14; NGZ = 14

 
 Radii for the augmentation spheres in the non-local exchange
 for species   1 augmentation radius   0.587 (default was   0.587)
 error exchange integrals (PW-AE in eV) (mean, max) 0.756 6.776 density error[0,qmax] 0.0011
 Maximum index for augmentation-charges in exchange          141
  SETUP_FOCK is finished

 total amount of memory used by VASP MPI-rank0    95396. kBytes
=======================================================================

   base      :      30000. kBytes
   nonl-proj :       2899. kBytes
   fftplans  :       9564. kBytes
   grid      :       2752. kBytes
   one-center:         12. kBytes
   HF        :        102. kBytes
   nonlr-proj:         64. kBytes
   wavefun   :      50003. kBytes
 
     INWAV:  cpu time    0.7161: real time    0.7162
 charge density for first step will be calculated from the start-wavefunctions


--------------------------------------------------------------------------------------------------------


 Maximum index for augmentation-charges        13571 (set IRDMAX)


--------------------------------------------------------------------------------------------------------


 initial charge from wavefunction
    FEWALD:  cpu time    0.0009: real time    0.0009

 The Fermi energy was updated, please check that it is located mid-gap
 values below the HOMO (VB) or above the LUMO (CB) will cause erroneous energies
 E-fermi :  -7.9078

 Response functions by sum over occupied states:
 ===============================================
   NOMEGA  =    50    number of frequencies
   NOMEGAR =    50    number of frequencies along real axis
   OMEGAMAX=  30.00   maximum frequency
   OMEGAMIN=  13.51   minimum frequency
   OMEGATL = 282.76   maximum frequency of tail
   CSHIFT  =  0.780   complex shift used in evaluation of response functions


 Energies iw= 
 ============
   0.000   0.000   1.294   0.000   2.583   0.000   3.863   0.000   5.130   0.000
   6.381   0.000   7.612   0.000   8.823   0.000  10.013   0.000  11.183   0.000
  12.332   0.000  13.462   0.000  14.575   0.000  15.675   0.000  16.762   0.000
  17.842   0.000  18.916   0.000  19.989   0.000  21.065   0.000  22.147   0.000
  23.240   0.000  24.350   0.000  25.481   0.000  26.639   0.000  27.832   0.000
  29.065   0.000  30.347   0.000  31.688   0.000  33.099   0.000  34.592   0.000
  36.181   0.000  37.885   0.000  39.726   0.000  41.727   0.000  43.922   0.000
  46.351   0.000  49.062   0.000  52.121   0.000  55.610   0.000  59.640   0.000
  64.359   0.000  69.973   0.000  76.779   0.000  85.207   0.000  95.926   0.000
 110.012   0.000 129.334   0.000 157.430   0.000 201.918   0.000 282.763   0.000
 

IMPORTANT INFORMATION: All symmetrisations will be switched off!
NOSYMM: (Re-)initialisation of all symmetry stuff for point group C_1.

 
 KPOINTS: k-points                                

Automatic generation of k-mesh.
Space group operators:
 irot       det(A)        alpha          n_x          n_y          n_z        tau_x        tau_y        tau_z
    1     1.000000     0.000000     1.000000     0.000000     0.000000     0.000000     0.000000     0.000000
 
 Subroutine IBZKPT returns following result:
 ===========================================
 
 Found    216 irreducible k-points:
 
 Following reciprocal coordinates:
            Coordinates               Weight
  0.000000  0.000000  0.000000      1.000000
  0.166667 -0.000000  0.000000      1.000000
  0.333333 -0.000000  0.000000      1.000000
  0.500000 -0.000000  0.000000      1.000000
 -0.333333  0.000000 -0.000000      1.000000
 -0.166667  0.000000 -0.000000      1.000000
  0.000000  0.166667 -0.000000      1.000000
  0.166667  0.166667  0.000000      1.000000
  0.333333  0.166667  0.000000      1.000000
  0.500000  0.166667  0.000000      1.000000
 -0.333333  0.166667 -0.000000      1.000000
 -0.166667  0.166667 -0.000000      1.000000
  0.000000  0.333333  0.000000      1.000000
  0.166667  0.333333  0.000000      1.000000
  0.333333  0.333333  0.000000      1.000000
  0.500000  0.333333  0.000000      1.000000
 -0.333333  0.333333 -0.000000      1.000000
 -0.166667  0.333333  0.000000      1.000000
  0.000000  0.500000  0.000000      1.000000
  0.166667  0.500000  0.000000      1.000000
  0.333333  0.500000  0.000000      1.000000
  0.500000  0.500000  0.000000      1.000000
 -0.333333  0.500000 -0.000000      1.000000
 -0.166667  0.500000 -0.000000      1.000000
  0.000000 -0.333333  0.000000      1.000000
  0.166667 -0.333333 -0.000000      1.000000
  0.333333 -0.333333  0.000000      1.000000
  0.500000 -0.333333 -0.000000      1.000000
 -0.333333 -0.333333 -0.000000      1.000000
 -0.166667 -0.333333  0.000000      1.000000
  0.000000 -0.166667  0.000000      1.000000
  0.166667 -0.166667  0.000000      1.000000
  0.333333 -0.166667  0.000000      1.000000
  0.500000 -0.166667  0.000000      1.000000
 -0.333333 -0.166667 -0.000000      1.000000
 -0.166667 -0.166667 -0.000000      1.000000
  0.000000  0.000000  0.166667      1.000000
  0.166667 -0.000000  0.166667      1.000000
  0.333333 -0.000000  0.166667      1.000000
  0.500000 -0.000000  0.166667      1.000000
 -0.333333  0.000000  0.166667      1.000000
 -0.166667  0.000000  0.166667      1.000000
  0.000000  0.166667  0.166667      1.000000
  0.166667  0.166667  0.166667      1.000000
  0.333333  0.166667  0.166667      1.000000
  0.500000  0.166667  0.166667      1.000000
 -0.333333  0.166667  0.166667      1.000000
 -0.166667  0.166667  0.166667      1.000000
  0.000000  0.333333  0.166667      1.000000
  0.166667  0.333333  0.166667      1.000000
  0.333333  0.333333  0.166667      1.000000
  0.500000  0.333333  0.166667      1.000000
 -0.333333  0.333333  0.166667      1.000000
 -0.166667  0.333333  0.166667      1.000000
  0.000000  0.500000  0.166667      1.000000
  0.166667  0.500000  0.166667      1.000000
  0.333333  0.500000  0.166667      1.000000
  0.500000  0.500000  0.166667      1.000000
 -0.333333  0.500000  0.166667      1.000000
 -0.166667  0.500000  0.166667      1.000000
  0.000000 -0.333333  0.166667      1.000000
  0.166667 -0.333333  0.166667      1.000000
  0.333333 -0.333333  0.166667      1.000000
  0.500000 -0.333333  0.166667      1.000000
 -0.333333 -0.333333  0.166667      1.000000
 -0.166667 -0.333333  0.166667      1.000000
  0.000000 -0.166667  0.166667      1.000000
  0.166667 -0.166667  0.166667      1.000000
  0.333333 -0.166667  0.166667      1.000000
  0.500000 -0.166667  0.166667      1.000000
 -0.333333 -0.166667  0.166667      1.000000
 -0.166667 -0.166667  0.166667      1.000000
  0.000000  0.000000  0.333333      1.000000
  0.166667 -0.000000  0.333333      1.000000
  0.333333 -0.000000  0.333333      1.000000
  0.500000 -0.000000  0.333333      1.000000
 -0.333333  0.000000  0.333333      1.000000
 -0.166667  0.000000  0.333333      1.000000
  0.000000  0.166667  0.333333      1.000000
  0.166667  0.166667  0.333333      1.000000
  0.333333  0.166667  0.333333      1.000000
  0.500000  0.166667  0.333333      1.000000
 -0.333333  0.166667  0.333333      1.000000
 -0.166667  0.166667  0.333333      1.000000
  0.000000  0.333333  0.333333      1.000000
  0.166667  0.333333  0.333333      1.000000
  0.333333  0.333333  0.333333      1.000000
  0.500000  0.333333  0.333333      1.000000
 -0.333333  0.333333  0.333333      1.000000
 -0.166667  0.333333  0.333333      1.000000
  0.000000  0.500000  0.333333      1.000000
  0.166667  0.500000  0.333333      1.000000
  0.333333  0.500000  0.333333      1.000000
  0.500000  0.500000  0.333333      1.000000
 -0.333333  0.500000  0.333333      1.000000
 -0.166667  0.500000  0.333333      1.000000
  0.000000 -0.333333  0.333333      1.000000
  0.166667 -0.333333  0.333333      1.000000
  0.333333 -0.333333  0.333333      1.000000
  0.500000 -0.333333  0.333333      1.000000
 -0.333333 -0.333333  0.333333      1.000000
 -0.166667 -0.333333  0.333333      1.000000
  0.000000 -0.166667  0.333333      1.000000
  0.166667 -0.166667  0.333333      1.000000
  0.333333 -0.166667  0.333333      1.000000
  0.500000 -0.166667  0.333333      1.000000
 -0.333333 -0.166667  0.333333      1.000000
 -0.166667 -0.166667  0.333333      1.000000
  0.000000  0.000000  0.500000      1.000000
  0.166667 -0.000000  0.500000      1.000000
  0.333333 -0.000000  0.500000      1.000000
  0.500000 -0.000000  0.500000      1.000000
 -0.333333  0.000000  0.500000      1.000000
 -0.166667  0.000000  0.500000      1.000000
  0.000000  0.166667  0.500000      1.000000
  0.166667  0.166667  0.500000      1.000000
  0.333333  0.166667  0.500000      1.000000
  0.500000  0.166667  0.500000      1.000000
 -0.333333  0.166667  0.500000      1.000000
 -0.166667  0.166667  0.500000      1.000000
  0.000000  0.333333  0.500000      1.000000
  0.166667  0.333333  0.500000      1.000000
  0.333333  0.333333  0.500000      1.000000
  0.500000  0.333333  0.500000      1.000000
 -0.333333  0.333333  0.500000      1.000000
 -0.166667  0.333333  0.500000      1.000000
  0.000000  0.500000  0.500000      1.000000
  0.166667  0.500000  0.500000      1.000000
  0.333333  0.500000  0.500000      1.000000
  0.500000  0.500000  0.500000      1.000000
 -0.333333  0.500000  0.500000      1.000000
 -0.166667  0.500000  0.500000      1.000000
  0.000000 -0.333333  0.500000      1.000000
  0.166667 -0.333333  0.500000      1.000000
  0.333333 -0.333333  0.500000      1.000000
  0.500000 -0.333333  0.500000      1.000000
 -0.333333 -0.333333  0.500000      1.000000
 -0.166667 -0.333333  0.500000      1.000000
  0.000000 -0.166667  0.500000      1.000000
  0.166667 -0.166667  0.500000      1.000000
  0.333333 -0.166667  0.500000      1.000000
  0.500000 -0.166667  0.500000      1.000000
 -0.333333 -0.166667  0.500000      1.000000
 -0.166667 -0.166667  0.500000      1.000000
  0.000000  0.000000 -0.333333      1.000000
  0.166667 -0.000000 -0.333333      1.000000
  0.333333 -0.000000 -0.333333      1.000000
  0.500000 -0.000000 -0.333333      1.000000
 -0.333333  0.000000 -0.333333      1.000000
 -0.166667  0.000000 -0.333333      1.000000
  0.000000  0.166667 -0.333333      1.000000
  0.166667  0.166667 -0.333333      1.000000
  0.333333  0.166667 -0.333333      1.000000
  0.500000  0.166667 -0.333333      1.000000
 -0.333333  0.166667 -0.333333      1.000000
 -0.166667  0.166667 -0.333333      1.000000
  0.000000  0.333333 -0.333333      1.000000
  0.166667  0.333333 -0.333333      1.000000
  0.333333  0.333333 -0.333333      1.000000
  0.500000  0.333333 -0.333333      1.000000
 -0.333333  0.333333 -0.333333      1.000000
 -0.166667  0.333333 -0.333333      1.000000
  0.000000  0.500000 -0.333333      1.000000
  0.166667  0.500000 -0.333333      1.000000
  0.333333  0.500000 -0.333333      1.000000
  0.500000  0.500000 -0.333333      1.000000
 -0.333333  0.500000 -0.333333      1.000000
 -0.166667  0.500000 -0.333333      1.000000
  0.000000 -0.333333 -0.333333      1.000000
  0.166667 -0.333333 -0.333333      1.000000
  0.333333 -0.333333 -0.333333      1.000000
  0.500000 -0.333333 -0.333333      1.000000
 -0.333333 -0.333333 -0.333333      1.000000
 -0.166667 -0.333333 -0.333333      1.000000
  0.000000 -0.166667 -0.333333      1.000000
  0.166667 -0.166667 -0.333333      1.000000
  0.333333 -0.166667 -0.333333      1.000000
  0.500000 -0.166667 -0.333333      1.000000
 -0.333333 -0.166667 -0.333333      1.000000
 -0.166667 -0.166667 -0.333333      1.000000
  0.000000  0.000000 -0.166667      1.000000
  0.166667 -0.000000 -0.166667      1.000000
  0.333333 -0.000000 -0.166667      1.000000
  0.500000 -0.000000 -0.166667      1.000000
 -0.333333  0.000000 -0.166667      1.000000
 -0.166667  0.000000 -0.166667      1.000000
  0.000000  0.166667 -0.166667      1.000000
  0.166667  0.166667 -0.166667      1.000000
  0.333333  0.166667 -0.166667      1.000000
  0.500000  0.166667 -0.166667      1.000000
 -0.333333  0.166667 -0.166667      1.000000
 -0.166667  0.166667 -0.166667      1.000000
  0.000000  0.333333 -0.166667      1.000000
  0.166667  0.333333 -0.166667      1.000000
  0.333333  0.333333 -0.166667      1.000000
  0.500000  0.333333 -0.166667      1.000000
 -0.333333  0.333333 -0.166667      1.000000
 -0.166667  0.333333 -0.166667      1.000000
  0.000000  0.500000 -0.166667      1.000000
  0.166667  0.500000 -0.166667      1.000000
  0.333333  0.500000 -0.166667      1.000000
  0.500000  0.500000 -0.166667      1.000000
 -0.333333  0.500000 -0.166667      1.000000
 -0.166667  0.500000 -0.166667      1.000000
  0.000000 -0.333333 -0.166667      1.000000
  0.166667 -0.333333 -0.166667      1.000000
  0.333333 -0.333333 -0.166667      1.000000
  0.500000 -0.333333 -0.166667      1.000000
 -0.333333 -0.333333 -0.166667      1.000000
 -0.166667 -0.333333 -0.166667      1.000000
  0.000000 -0.166667 -0.166667      1.000000
  0.166667 -0.166667 -0.166667      1.000000
  0.333333 -0.166667 -0.166667      1.000000
  0.500000 -0.166667 -0.166667      1.000000
 -0.333333 -0.166667 -0.166667      1.000000
 -0.166667 -0.166667 -0.166667      1.000000
 
 Following cartesian coordinates:
            Coordinates               Weight
  0.000000  0.000000  0.000000      1.000000
  0.058580 -0.033821 -0.023915      1.000000
  0.117160 -0.067642 -0.047830      1.000000
  0.175740 -0.101463 -0.071745      1.000000
 -0.117160  0.067642  0.047830      1.000000
 -0.058580  0.033821  0.023915      1.000000
  0.000000  0.067642 -0.023915      1.000000
  0.058580  0.033821 -0.047830      1.000000
  0.117160  0.000000 -0.071745      1.000000
  0.175740 -0.033821 -0.095661      1.000000
 -0.117160  0.135285  0.023915      1.000000
 -0.058580  0.101463 -0.000000      1.000000
  0.000000  0.135285 -0.047830      1.000000
  0.058580  0.101463 -0.071745      1.000000
  0.117160  0.067642 -0.095661      1.000000
  0.175740  0.033821 -0.119576      1.000000
 -0.117160  0.202927 -0.000000      1.000000
 -0.058580  0.169106 -0.023915      1.000000
  0.000000  0.202927 -0.071745      1.000000
  0.058580  0.169106 -0.095661      1.000000
  0.117160  0.135285 -0.119576      1.000000
  0.175740  0.101463 -0.143491      1.000000
 -0.117160  0.270569 -0.023915      1.000000
 -0.058580  0.236748 -0.047830      1.000000
  0.000000 -0.135285  0.047830      1.000000
  0.058580 -0.169106  0.023915      1.000000
  0.117160 -0.202927  0.000000      1.000000
  0.175740 -0.236748 -0.023915      1.000000
 -0.117160 -0.067642  0.095661      1.000000
 -0.058580 -0.101463  0.071745      1.000000
  0.000000 -0.067642  0.023915      1.000000
  0.058580 -0.101463  0.000000      1.000000
  0.117160 -0.135285 -0.023915      1.000000
  0.175740 -0.169106 -0.047830      1.000000
 -0.117160 -0.000000  0.071745      1.000000
 -0.058580 -0.033821  0.047830      1.000000
  0.000000  0.000000  0.071745      1.000000
  0.058580 -0.033821  0.047830      1.000000
  0.117160 -0.067642  0.023915      1.000000
  0.175740 -0.101463  0.000000      1.000000
 -0.117160  0.067642  0.119576      1.000000
 -0.058580  0.033821  0.095661      1.000000
  0.000000  0.067642  0.047830      1.000000
  0.058580  0.033821  0.023915      1.000000
  0.117160  0.000000  0.000000      1.000000
  0.175740 -0.033821 -0.023915      1.000000
 -0.117160  0.135285  0.095661      1.000000
 -0.058580  0.101463  0.071745      1.000000
  0.000000  0.135285  0.023915      1.000000
  0.058580  0.101463 -0.000000      1.000000
  0.117160  0.067642 -0.023915      1.000000
  0.175740  0.033821 -0.047830      1.000000
 -0.117160  0.202927  0.071745      1.000000
 -0.058580  0.169106  0.047830      1.000000
  0.000000  0.202927 -0.000000      1.000000
  0.058580  0.169106 -0.023915      1.000000
  0.117160  0.135285 -0.047830      1.000000
  0.175740  0.101463 -0.071745      1.000000
 -0.117160  0.270569  0.047830      1.000000
 -0.058580  0.236748  0.023915      1.000000
  0.000000 -0.135285  0.119576      1.000000
  0.058580 -0.169106  0.095661      1.000000
  0.117160 -0.202927  0.071745      1.000000
  0.175740 -0.236748  0.047830      1.000000
 -0.117160 -0.067642  0.167406      1.000000
 -0.058580 -0.101463  0.143491      1.000000
  0.000000 -0.067642  0.095661      1.000000
  0.058580 -0.101463  0.071745      1.000000
  0.117160 -0.135285  0.047830      1.000000
  0.175740 -0.169106  0.023915      1.000000
 -0.117160 -0.000000  0.143491      1.000000
 -0.058580 -0.033821  0.119576      1.000000
  0.000000  0.000000  0.143491      1.000000
  0.058580 -0.033821  0.119576      1.000000
  0.117160 -0.067642  0.095661      1.000000
  0.175740 -0.101463  0.071745      1.000000
 -0.117160  0.067642  0.191321      1.000000
 -0.058580  0.033821  0.167406      1.000000
  0.000000  0.067642  0.119576      1.000000
  0.058580  0.033821  0.095661      1.000000
  0.117160  0.000000  0.071745      1.000000
  0.175740 -0.033821  0.047830      1.000000
 -0.117160  0.135285  0.167406      1.000000
 -0.058580  0.101463  0.143491      1.000000
  0.000000  0.135285  0.095661      1.000000
  0.058580  0.101463  0.071745      1.000000
  0.117160  0.067642  0.047830      1.000000
  0.175740  0.033821  0.023915      1.000000
 -0.117160  0.202927  0.143491      1.000000
 -0.058580  0.169106  0.119576      1.000000
  0.000000  0.202927  0.071745      1.000000
  0.058580  0.169106  0.047830      1.000000
  0.117160  0.135285  0.023915      1.000000
  0.175740  0.101463 -0.000000      1.000000
 -0.117160  0.270569  0.119576      1.000000
 -0.058580  0.236748  0.095661      1.000000
  0.000000 -0.135285  0.191321      1.000000
  0.058580 -0.169106  0.167406      1.000000
  0.117160 -0.202927  0.143491      1.000000
  0.175740 -0.236748  0.119576      1.000000
 -0.117160 -0.067642  0.239152      1.000000
 -0.058580 -0.101463  0.215236      1.000000
  0.000000 -0.067642  0.167406      1.000000
  0.058580 -0.101463  0.143491      1.000000
  0.117160 -0.135285  0.119576      1.000000
  0.175740 -0.169106  0.095661      1.000000
 -0.117160 -0.000000  0.215236      1.000000
 -0.058580 -0.033821  0.191321      1.000000
  0.000000  0.000000  0.215236      1.000000
  0.058580 -0.033821  0.191321      1.000000
  0.117160 -0.067642  0.167406      1.000000
  0.175740 -0.101463  0.143491      1.000000
 -0.117160  0.067642  0.263067      1.000000
 -0.058580  0.033821  0.239152      1.000000
  0.000000  0.067642  0.191321      1.000000
  0.058580  0.033821  0.167406      1.000000
  0.117160  0.000000  0.143491      1.000000
  0.175740 -0.033821  0.119576      1.000000
 -0.117160  0.135285  0.239152      1.000000
 -0.058580  0.101463  0.215236      1.000000
  0.000000  0.135285  0.167406      1.000000
  0.058580  0.101463  0.143491      1.000000
  0.117160  0.067642  0.119576      1.000000
  0.175740  0.033821  0.095661      1.000000
 -0.117160  0.202927  0.215236      1.000000
 -0.058580  0.169106  0.191321      1.000000
  0.000000  0.202927  0.143491      1.000000
  0.058580  0.169106  0.119576      1.000000
  0.117160  0.135285  0.095661      1.000000
  0.175740  0.101463  0.071745      1.000000
 -0.117160  0.270569  0.191321      1.000000
 -0.058580  0.236748  0.167406      1.000000
  0.000000 -0.135285  0.263067      1.000000
  0.058580 -0.169106  0.239152      1.000000
  0.117160 -0.202927  0.215236      1.000000
  0.175740 -0.236748  0.191321      1.000000
 -0.117160 -0.067642  0.310897      1.000000
[...]
      2       7.7077       7.9721       7.9721       7.9784       0.9766       0.0000
 

 k-point  55 :      -0.3333   -0.1667    0.1667
  band No. DFT-energies  QP-energies  QP-e(diag)   sigma(DFT)    Z            occupation

      1     -21.6650     -22.7789     -22.7789     -22.8540       0.9368       2.0000
      2       6.7506       7.0121       7.0106       7.0170       0.9761       0.0000
 

 k-point  56 :      -0.1667   -0.1667    0.1667
  band No. DFT-energies  QP-energies  QP-e(diag)   sigma(DFT)    Z            occupation

      1     -21.9991     -23.1160     -23.1158     -23.1931       0.9353       2.0000
      2       6.1670       6.4285       6.4241       6.4307       0.9751       0.0000
 

 k-point  57 :       0.0000    0.0000    0.3333
  band No. DFT-energies  QP-energies  QP-e(diag)   sigma(DFT)    Z            occupation

      1     -21.9857     -23.0975     -23.0974     -23.1730       0.9364       2.0000
      2       5.8263       6.0859       6.0823       6.0887       0.9755       0.0000
 

 k-point  58 :       0.1667   -0.0000    0.3333
  band No. DFT-energies  QP-energies  QP-e(diag)   sigma(DFT)    Z            occupation

      1     -21.9972     -23.1159     -23.1157     -23.1930       0.9354       2.0000
      2       6.1668       6.4284       6.4240       6.4306       0.9751       0.0000
 

 k-point  59 :       0.3333   -0.0000    0.3333
  band No. DFT-energies  QP-energies  QP-e(diag)   sigma(DFT)    Z            occupation

      1     -21.7590     -22.8767     -22.8765     -22.9519       0.9368       2.0000
      2       6.5820       6.8448       6.8422       6.8486       0.9758       0.0000
 

 k-point  60 :       0.5000   -0.0000    0.3333
  band No. DFT-energies  QP-energies  QP-e(diag)   sigma(DFT)    Z            occupation

      1     -21.5007     -22.6136     -22.6136     -22.6890       0.9365       2.0000
      2       7.4595       7.7213       7.7205       7.7270       0.9759       0.0000
 

 k-point  61 :      -0.3333    0.0000    0.3333
  band No. DFT-energies  QP-energies  QP-e(diag)   sigma(DFT)    Z            occupation

      1     -21.4877     -22.5877     -22.5877     -22.6615       0.9372       2.0000
      2       7.9898       8.2548       8.2545       8.2609       0.9762       0.0000
 

 k-point  62 :      -0.1667    0.0000    0.3333
  band No. DFT-energies  QP-energies  QP-e(diag)   sigma(DFT)    Z            occupation

      1     -21.7241     -22.8455     -22.8454     -22.9208       0.9370       2.0000
      2       6.2257       6.4867       6.4853       6.4915       0.9766       0.0000
 

 k-point  63 :       0.0000    0.1667    0.3333
  band No. DFT-energies  QP-energies  QP-e(diag)   sigma(DFT)    Z            occupation

      1     -21.9958     -23.1160     -23.1158     -23.1931       0.9355       2.0000
      2       6.1667       6.4284       6.4240       6.4306       0.9751       0.0000
 

 k-point  64 :       0.1667    0.1667    0.3333
  band No. DFT-energies  QP-energies  QP-e(diag)   sigma(DFT)    Z            occupation

      1     -22.1731     -23.2860     -23.2858     -23.3627       0.9354       2.0000
      2       6.1114       6.3721       6.3664       6.3730       0.9746       0.0000
 

 k-point  65 :       0.3333    0.1667    0.3333
  band No. DFT-energies  QP-energies  QP-e(diag)   sigma(DFT)    Z            occupation

      1     -22.0013     -23.1155     -23.1154     -23.1926       0.9352       2.0000
      2       6.1666       6.4284       6.4240       6.4305       0.9751       0.0000
 

 k-point  66 :       0.5000    0.1667    0.3333
  band No. DFT-energies  QP-energies  QP-e(diag)   sigma(DFT)    Z            occupation

      1     -21.6640     -22.7785     -22.7785     -22.8537       0.9368       2.0000
      2       6.7507       7.0121       7.0105       7.0169       0.9761       0.0000
 

 k-point  67 :      -0.3333    0.1667    0.3333
  band No. DFT-energies  QP-energies  QP-e(diag)   sigma(DFT)    Z            occupation

      1     -21.4922     -22.5989     -22.5989     -22.6736       0.9368       2.0000
      2       7.7079       7.9721       7.9721       7.9785       0.9766       0.0000
 

 k-point  68 :      -0.1667    0.1667    0.3333
  band No. DFT-energies  QP-energies  QP-e(diag)   sigma(DFT)    Z            occupation

      1     -21.6655     -22.7788     -22.7788     -22.8538       0.9369       2.0000
      2       6.7507       7.0121       7.0105       7.0169       0.9761       0.0000
 

 k-point  69 :       0.0000    0.3333    0.3333
  band No. DFT-energies  QP-energies  QP-e(diag)   sigma(DFT)    Z            occupation

      1     -21.7586     -22.8767     -22.8765     -22.9519       0.9368       2.0000
      2       6.5820       6.8447       6.8421       6.8486       0.9758       0.0000
 

 k-point  70 :       0.1667    0.3333    0.3333
  band No. DFT-energies  QP-energies  QP-e(diag)   sigma(DFT)    Z            occupation

      1     -22.0008     -23.1155     -23.1154     -23.1926       0.9352       2.0000
      2       6.1665       6.4284       6.4240       6.4305       0.9752       0.0000
 

 k-point  71 :       0.3333    0.3333    0.3333
  band No. DFT-energies  QP-energies  QP-e(diag)   sigma(DFT)    Z            occupation

      1     -21.9868     -23.0962     -23.0961     -23.1726       0.9355       2.0000
      2       5.8263       6.0858       6.0821       6.0886       0.9755       0.0000
 

 k-point  72 :       0.5000    0.3333    0.3333
  band No. DFT-energies  QP-energies  QP-e(diag)   sigma(DFT)    Z            occupation

      1     -21.7272     -22.8450     -22.8449     -22.9203       0.9368       2.0000
      2       6.2258       6.4866       6.4852       6.4914       0.9765       0.0000
 

 k-point  73 :      -0.3333    0.3333    0.3333
  band No. DFT-energies  QP-energies  QP-e(diag)   sigma(DFT)    Z            occupation

      1     -21.4857     -22.5878     -22.5878     -22.6615       0.9373       2.0000
      2       7.9898       8.2548       8.2545       8.2610       0.9762       0.0000
 

 k-point  74 :      -0.1667    0.3333    0.3333
  band No. DFT-energies  QP-energies  QP-e(diag)   sigma(DFT)    Z            occupation

      1     -21.5037     -22.6134     -22.6134     -22.6889       0.9363       2.0000
      2       7.4596       7.7213       7.7205       7.7269       0.9759       0.0000
 

 k-point  75 :       0.0000    0.5000    0.3333
  band No. DFT-energies  QP-energies  QP-e(diag)   sigma(DFT)    Z            occupation

      1     -21.4998     -22.6136     -22.6136     -22.6891       0.9365       2.0000
      2       7.4595       7.7213       7.7205       7.7269       0.9759       0.0000
 

 k-point  76 :       0.1667    0.5000    0.3333
  band No. DFT-energies  QP-energies  QP-e(diag)   sigma(DFT)    Z            occupation

      1     -21.6635     -22.7785     -22.7785     -22.8537       0.9368       2.0000
      2       6.7506       7.0121       7.0105       7.0169       0.9761       0.0000
 

 k-point  77 :       0.3333    0.5000    0.3333
  band No. DFT-energies  QP-energies  QP-e(diag)   sigma(DFT)    Z            occupation

      1     -21.7266     -22.8450     -22.8449     -22.9203       0.9369       2.0000
      2       6.2256       6.4866       6.4852       6.4915       0.9766       0.0000
 

 k-point  78 :       0.5000    0.5000    0.3333
  band No. DFT-energies  QP-energies  QP-e(diag)   sigma(DFT)    Z            occupation

      1     -21.6466     -22.7566     -22.7566     -22.8309       0.9373       2.0000
      2       6.2845       6.5456       6.5452       6.5514       0.9769       0.0000
 

 k-point  79 :      -0.3333    0.5000    0.3333
  band No. DFT-energies  QP-energies  QP-e(diag)   sigma(DFT)    Z            occupation

      1     -21.4879     -22.5991     -22.5991     -22.6738       0.9370       2.0000
      2       7.7077       7.9720       7.9720       7.9783       0.9766       0.0000
 

 k-point  80 :      -0.1667    0.5000    0.3333
  band No. DFT-energies  QP-energies  QP-e(diag)   sigma(DFT)    Z            occupation

      1     -21.4294     -22.5341     -22.5341     -22.6083       0.9370       2.0000
      2       8.7378       9.0031       9.0031       9.0097       0.9759       0.0000
 

 k-point  81 :       0.0000   -0.3333    0.3333
  band No. DFT-energies  QP-energies  QP-e(diag)   sigma(DFT)    Z            occupation

      1     -21.4867     -22.5878     -22.5878     -22.6615       0.9372       2.0000
      2       7.9898       8.2548       8.2545       8.2609       0.9762       0.0000
 

 k-point  82 :       0.1667   -0.3333    0.3333
  band No. DFT-energies  QP-energies  QP-e(diag)   sigma(DFT)    Z            occupation

      1     -21.4916     -22.5989     -22.5989     -22.6736       0.9368       2.0000
      2       7.7079       7.9721       7.9721       7.9785       0.9766       0.0000
 

 k-point  83 :       0.3333   -0.3333    0.3333
  band No. DFT-energies  QP-energies  QP-e(diag)   sigma(DFT)    Z            occupation

      1     -21.4862     -22.5877     -22.5877     -22.6615       0.9373       2.0000
      2       7.9897       8.2548       8.2545       8.2610       0.9763       0.0000
 

 k-point  84 :       0.5000   -0.3333    0.3333
  band No. DFT-energies  QP-energies  QP-e(diag)   sigma(DFT)    Z            occupation

      1     -21.4884     -22.5991     -22.5991     -22.6738       0.9370       2.0000
      2       7.7078       7.9720       7.9720       7.9783       0.9766       0.0000
 

 k-point  85 :      -0.3333   -0.3333    0.3333
  band No. DFT-energies  QP-energies  QP-e(diag)   sigma(DFT)    Z            occupation

      1     -21.4852     -22.5879     -22.5879     -22.6617       0.9373       2.0000
      2       7.9898       8.2547       8.2544       8.2608       0.9762       0.0000
 

 k-point  86 :      -0.1667   -0.3333    0.3333
  band No. DFT-energies  QP-energies  QP-e(diag)   sigma(DFT)    Z            occupation

      1     -21.4897     -22.5992     -22.5992     -22.6739       0.9369       2.0000
      2       7.7078       7.9719       7.9719       7.9783       0.9766       0.0000
 

 k-point  87 :       0.0000   -0.1667    0.3333
  band No. DFT-energies  QP-energies  QP-e(diag)   sigma(DFT)    Z            occupation

      1     -21.7235     -22.8456     -22.8455     -22.9209       0.9370       2.0000
      2       6.2258       6.4867       6.4853       6.4915       0.9765       0.0000
 

 k-point  88 :       0.1667   -0.1667    0.3333
  band No. DFT-energies  QP-energies  QP-e(diag)   sigma(DFT)    Z            occupation

      1     -21.6664     -22.7788     -22.7787     -22.8537       0.9368       2.0000
      2       6.7507       7.0121       7.0105       7.0169       0.9761       0.0000
 

 k-point  89 :       0.3333   -0.1667    0.3333
  band No. DFT-energies  QP-energies  QP-e(diag)   sigma(DFT)    Z            occupation

      1     -21.5042     -22.6134     -22.6134     -22.6889       0.9363       2.0000
      2       7.4596       7.7213       7.7205       7.7270       0.9759       0.0000
 

 k-point  90 :       0.5000   -0.1667    0.3333
  band No. DFT-energies  QP-energies  QP-e(diag)   sigma(DFT)    Z            occupation

      1     -21.4308     -22.5339     -22.5339     -22.6082       0.9369       2.0000
      2       8.7378       9.0031       9.0031       9.0096       0.9759       0.0000
 

 k-point  91 :      -0.3333   -0.1667    0.3333
  band No. DFT-energies  QP-energies  QP-e(diag)   sigma(DFT)    Z            occupation

      1     -21.4907     -22.5992     -22.5992     -22.6738       0.9369       2.0000
      2       7.7079       7.9720       7.9720       7.9783       0.9766       0.0000
 

 k-point  92 :      -0.1667   -0.1667    0.3333
  band No. DFT-energies  QP-energies  QP-e(diag)   sigma(DFT)    Z            occupation

      1     -21.6489     -22.7568     -22.7568     -22.8312       0.9371       2.0000
      2       6.2847       6.5457       6.5453       6.5514       0.9768       0.0000
 

 k-point  93 :       0.0000    0.0000    0.5000
  band No. DFT-energies  QP-energies  QP-e(diag)   sigma(DFT)    Z            occupation

      1     -21.6982     -22.8143     -22.8143     -22.8892       0.9371       2.0000
      2       5.6132       5.8725       5.8725       5.8784       0.9776       0.0000
 

 k-point  94 :       0.1667   -0.0000    0.5000
  band No. DFT-energies  QP-energies  QP-e(diag)   sigma(DFT)    Z            occupation

      1     -21.6449     -22.7569     -22.7569     -22.8312       0.9373       2.0000
      2       6.2845       6.5457       6.5453       6.5515       0.9769       0.0000
 

 k-point  95 :       0.3333   -0.0000    0.5000
  band No. DFT-energies  QP-energies  QP-e(diag)   sigma(DFT)    Z            occupation

      1     -21.4999     -22.6136     -22.6136     -22.6891       0.9365       2.0000
      2       7.4594       7.7213       7.7205       7.7270       0.9759       0.0000
 

 k-point  96 :       0.5000   -0.0000    0.5000
  band No. DFT-energies  QP-energies  QP-e(diag)   sigma(DFT)    Z            occupation

      1     -21.4296     -22.5277     -22.5277     -22.6013       0.9371       2.0000
      2       7.6878       7.9523       7.9523       7.9588       0.9763       0.0000
 

 k-point  97 :       0.0000    0.1667    0.5000
  band No. DFT-energies  QP-energies  QP-e(diag)   sigma(DFT)    Z            occupation

      1     -21.6441     -22.7570     -22.7570     -22.8313       0.9374       2.0000
      2       6.2843       6.5458       6.5454       6.5515       0.9769       0.0000
 

 k-point  98 :       0.1667    0.1667    0.5000
  band No. DFT-energies  QP-energies  QP-e(diag)   sigma(DFT)    Z            occupation

      1     -21.7280     -22.8451     -22.8450     -22.9204       0.9368       2.0000
      2       6.2257       6.4867       6.4853       6.4916       0.9766       0.0000
 

 k-point  99 :       0.3333    0.1667    0.5000
  band No. DFT-energies  QP-energies  QP-e(diag)   sigma(DFT)    Z            occupation

      1     -21.6630     -22.7786     -22.7785     -22.8537       0.9368       2.0000
      2       6.7506       7.0121       7.0105       7.0169       0.9761       0.0000
 

 k-point 100 :       0.5000    0.1667    0.5000
  band No. DFT-energies  QP-energies  QP-e(diag)   sigma(DFT)    Z            occupation

      1     -21.5023     -22.6134     -22.6134     -22.6888       0.9364       2.0000
      2       7.4592       7.7213       7.7206       7.7270       0.9759       0.0000
 

 k-point 101 :      -0.3333    0.1667    0.5000
  band No. DFT-energies  QP-energies  QP-e(diag)   sigma(DFT)    Z            occupation

      1     -21.4315     -22.5339     -22.5339     -22.6081       0.9369       2.0000
      2       8.7379       9.0032       9.0032       9.0097       0.9759       0.0000
 

 k-point 102 :      -0.1667    0.1667    0.5000
  band No. DFT-energies  QP-energies  QP-e(diag)   sigma(DFT)    Z            occupation

      1     -21.4934     -22.5989     -22.5989     -22.6736       0.9367       2.0000
      2       7.7077       7.9721       7.9721       7.9784       0.9766       0.0000
 

 k-point 103 :       0.0000    0.3333    0.5000
  band No. DFT-energies  QP-energies  QP-e(diag)   sigma(DFT)    Z            occupation

      1     -21.4985     -22.6137     -22.6136     -22.6891       0.9366       2.0000
      2       7.4594       7.7213       7.7205       7.7269       0.9759       0.0000
 

 k-point 104 :       0.1667    0.3333    0.5000
  band No. DFT-energies  QP-energies  QP-e(diag)   sigma(DFT)    Z            occupation

      1     -21.6615     -22.7786     -22.7785     -22.8538       0.9369       2.0000
      2       6.7506       7.0121       7.0105       7.0169       0.9761       0.0000
 

 k-point 105 :       0.3333    0.3333    0.5000
  band No. DFT-energies  QP-energies  QP-e(diag)   sigma(DFT)    Z            occupation

      1     -21.7260     -22.8451     -22.8450     -22.9203       0.9369       2.0000
      2       6.2257       6.4866       6.4852       6.4915       0.9766       0.0000
 

 k-point 106 :       0.5000    0.3333    0.5000
  band No. DFT-energies  QP-energies  QP-e(diag)   sigma(DFT)    Z            occupation

      1     -21.6482     -22.7565     -22.7564     -22.8308       0.9371       2.0000
      2       6.2846       6.5457       6.5453       6.5514       0.9768       0.0000
 

 k-point 107 :      -0.3333    0.3333    0.5000
  band No. DFT-energies  QP-energies  QP-e(diag)   sigma(DFT)    Z            occupation

      1     -21.4890     -22.5991     -22.5991     -22.6738       0.9370       2.0000
      2       7.7077       7.9720       7.9720       7.9783       0.9766       0.0000
 

 k-point 108 :      -0.1667    0.3333    0.5000
  band No. DFT-energies  QP-energies  QP-e(diag)   sigma(DFT)    Z            occupation

      1     -21.4303     -22.5340     -22.5340     -22.6082       0.9370       2.0000
      2       8.7379       9.0031       9.0031       9.0097       0.9759       0.0000
 

 k-point 109 :       0.0000    0.5000    0.5000
  band No. DFT-energies  QP-energies  QP-e(diag)   sigma(DFT)    Z            occupation

      1     -21.4295     -22.5277     -22.5277     -22.6014       0.9371       2.0000
      2       7.6879       7.9524       7.9524       7.9588       0.9763       0.0000
 

 k-point 110 :       0.1667    0.5000    0.5000
  band No. DFT-energies  QP-energies  QP-e(diag)   sigma(DFT)    Z            occupation

      1     -21.5018     -22.6134     -22.6134     -22.6888       0.9364       2.0000
      2       7.4592       7.7213       7.7205       7.7270       0.9759       0.0000
 

 k-point 111 :       0.3333    0.5000    0.5000
  band No. DFT-energies  QP-energies  QP-e(diag)   sigma(DFT)    Z            occupation

      1     -21.6474     -22.7565     -22.7565     -22.8308       0.9372       2.0000
      2       6.2843       6.5457       6.5453       6.5514       0.9769       0.0000
 

 k-point 112 :       0.5000    0.5000    0.5000
  band No. DFT-energies  QP-energies  QP-e(diag)   sigma(DFT)    Z            occupation

      1     -21.6990     -22.8143     -22.8143     -22.8892       0.9371       2.0000
      2       5.6136       5.8728       5.8728       5.8787       0.9776       0.0000
 


--------------------------------------------------------------------------------------------------------



IMPORTANT INFORMATION: All symmetrisations will be switched off!
NOSYMM: (Re-)initialisation of all symmetry stuff for point group C_1.

   GW_DIAG:  cpu time    0.3942: real time    0.3942
    GWLOOP:  cpu time  100.6257: real time  100.6599
 writing wavefunctions
    --------------------------------------------
   GWTOTAL:  cpu time  100.9849: real time  101.0212
    4ORBIT:  cpu time    0.0000: real time    0.0000

 total amount of memory used by VASP MPI-rank0    95396. kBytes
=======================================================================

   base      :      30000. kBytes
   nonl-proj :       2899. kBytes
   fftplans  :       9564. kBytes
   grid      :       2752. kBytes
   one-center:         12. kBytes
   HF        :        102. kBytes
   nonlr-proj:         64. kBytes
   wavefun   :      50003. kBytes
   2eintegral:          0. kBytes
   fockhandle:          0. kBytes
   response  :          0. kBytes
   cacher    :          0. kBytes
 
  
  
 General timing and accounting informations for this job:
 ========================================================
  
                  Total CPU time used (sec):      102.854
                            User time (sec):      101.660
                          System time (sec):        1.194
                         Elapsed time (sec):      103.090
  
                   Maximum memory used (kb):      496144.
                   Average memory used (kb):           0.
  
                          Minor page faults:       515162
                          Major page faults:            0
                 Voluntary context switches:         1584
