    1    1    1    1
  0.1860393E+02  0.2974221E-09  0.2974221E-09  0.2974221E-09  0.1000000E-15
  1.000000000000000E-004
  CAR 
 Og_FCC                                  
      8    216     20
 
  0.0000000E+00  0.0000000E+00  0.0000000E+00  0.4629630E-02
    1      -37.323775   1.000000
    2      -37.323775   1.000000
    3      -11.605589   1.000000
    4      -11.605589   1.000000
    5      -11.506642   1.000000
    6      -11.506642   1.000000
    7      -11.506593   1.000000
    8      -11.506593   1.000000
    9        1.683272   0.000000
   10        1.683272   0.000000
   11       21.784575   0.000000
   12       21.784575   0.000000
   13       21.784610   0.000000
   14       21.784610   0.000000
   15       21.784843   0.000000
   16       21.784843   0.000000
   17       23.549629   0.000000
   18       23.549629   0.000000
   19       27.005845   0.000000
   20       27.006659   0.000000
 
  0.1666667E+00  0.0000000E+00  0.6938894E-17  0.4629630E-02
    1      -37.275208   1.000000
    2      -37.275207   1.000000
    3      -11.670766   1.000000
    4      -11.670765   1.000000
    5      -11.219193   1.000000
    6      -11.219193   1.000000
    7      -11.160892   1.000000
    8      -11.160892   1.000000
    9        2.620385   0.000000
   10        2.620386   0.000000
   11       17.199122   0.000000
   12       17.199123   0.000000
   13       21.591952   0.000000
   14       21.591952   0.000000
   15       21.593232   0.000000
   16       21.593232   0.000000
   17       23.809117   0.000000
   18       23.809118   0.000000
   19       25.794232   0.000000
   20       25.794293   0.000000
 
  0.3333333E+00 -0.2775558E-16  0.0000000E+00  0.4629630E-02
    1      -37.238458   1.000000
    2      -37.238458   1.000000
    3      -12.230224   1.000000
    4      -12.230223   1.000000
    5      -11.625106   1.000000
    6      -11.625106   1.000000
    7      -11.563273   1.000000
    8      -11.563273   1.000000
    9        4.982420   0.000000
   10        4.982421   0.000000
   11       12.340324   0.000000
   12       12.340325   0.000000
   13       20.656813   0.000000
   14       20.656813   0.000000
   15       20.657423   0.000000
   16       20.657423   0.000000
   17       22.337048   0.000000
   18       22.337049   0.000000
   19       25.998189   0.000000
   20       26.002799   0.000000
 
  0.5000000E+00  0.0000000E+00 -0.2775558E-16  0.4629630E-02
    1      -37.219213   1.000000
    2      -37.219212   1.000000
    3      -12.674953   1.000000
    4      -12.674952   1.000000
    5      -11.712323   1.000000
    6      -11.712323   1.000000
    7      -11.649035   1.000000
    8      -11.649035   1.000000
    9        8.031740   0.000000
   10        8.031741   0.000000
   11        8.442906   0.000000
   12        8.442906   0.000000
   13       20.154087   0.000000
   14       20.154088   0.000000
   15       20.154408   0.000000
   16       20.154408   0.000000
   17       22.009781   0.000000
   18       22.009782   0.000000
   19       26.410103   0.000000
   20       26.410362   0.000000
 
 -0.3333333E+00  0.2775558E-16  0.0000000E+00  0.4629630E-02
    1      -37.238458   1.000000
    2      -37.238458   1.000000
    3      -12.230224   1.000000
    4      -12.230223   1.000000
    5      -11.625106   1.000000
    6      -11.625106   1.000000
    7      -11.563273   1.000000
    8      -11.563273   1.000000
    9        4.982420   0.000000
   10        4.982421   0.000000
   11       12.340324   0.000000
   12       12.340325   0.000000
   13       20.656813   0.000000
   14       20.656813   0.000000
   15       20.657423   0.000000
   16       20.657423   0.000000
   17       22.337048   0.000000
   18       22.337049   0.000000
   19       25.998599   0.000000
   20       25.998934   0.000000
 
 -0.1666667E+00  0.0000000E+00 -0.6938894E-17  0.4629630E-02
    1      -37.275208   1.000000
    2      -37.275207   1.000000
    3      -11.670766   1.000000
    4      -11.670765   1.000000
    5      -11.219193   1.000000
    6      -11.219193   1.000000
    7      -11.160892   1.000000
    8      -11.160892   1.000000
    9        2.620385   0.000000
   10        2.620386   0.000000
   11       17.199122   0.000000
   12       17.199123   0.000000
   13       21.591952   0.000000
   14       21.591952   0.000000
   15       21.593232   0.000000
   16       21.593232   0.000000
   17       23.809117   0.000000
   18       23.809118   0.000000
   19       25.794183   0.000000
   20       25.794274   0.000000
 
  0.0000000E+00  0.1666667E+00  0.6938894E-17  0.4629630E-02
    1      -37.275208   1.000000
    2      -37.275207   1.000000
    3      -11.670766   1.000000
    4      -11.670766   1.000000
    5      -11.219193   1.000000
    6      -11.219193   1.000000
    7      -11.160892   1.000000
    8      -11.160892   1.000000
    9        2.620385   0.000000
   10        2.620386   0.000000
   11       17.199122   0.000000
   12       17.199123   0.000000
   13       21.591952   0.000000
   14       21.591952   0.000000
   15       21.593232   0.000000
   16       21.593232   0.000000
   17       23.809116   0.000000
   18       23.809117   0.000000
   19       25.794199   0.000000
   20       25.794250   0.000000
 
  0.1666667E+00  0.1666667E+00  0.0000000E+00  0.4629630E-02
    1      -37.275887   1.000000
    2      -37.275887   1.000000
    3      -11.662458   1.000000
    4      -11.662457   1.000000
    5      -11.448935   1.000000
    6      -11.448935   1.000000
    7      -11.394981   1.000000
    8      -11.394981   1.000000
    9        2.908748   0.000000
   10        2.908749   0.000000
   11       17.844319   0.000000
   12       17.844319   0.000000
   13       20.490687   0.000000
   14       20.490688   0.000000
   15       20.556175   0.000000
   16       20.556175   0.000000
   17       20.561475   0.000000
   18       20.561475   0.000000
   19       28.817855   0.000000
   20       28.817856   0.000000
 
  0.3333333E+00  0.1666667E+00  0.2775558E-16  0.4629630E-02
    1      -37.236637   1.000000
    2      -37.236637   1.000000
    3      -12.107671   1.000000
    4      -12.107671   1.000000
    5      -11.628597   1.000000
    6      -11.628597   1.000000
    7      -11.565347   1.000000
    8      -11.565347   1.000000
    9        4.728679   0.000000
   10        4.728680   0.000000
   11       14.189931   0.000000
   12       14.189931   0.000000
   13       17.433779   0.000000
   14       17.433780   0.000000
   15       19.919176   0.000000
   16       19.919176   0.000000
   17       21.817915   0.000000
   18       21.817915   0.000000
   19       27.907217   0.000000
   20       27.907218   0.000000
 
  0.5000000E+00  0.1666667E+00  0.5551115E-16  0.4629630E-02
    1      -37.187628   1.000000
    2      -37.187628   1.000000
    3      -12.414020   1.000000
    4      -12.414019   1.000000
    5      -11.512036   1.000000
    6      -11.512036   1.000000
    7      -11.451989   1.000000
    8      -11.451989   1.000000
    9        7.609080   0.000000
   10        7.609081   0.000000
   11       10.140443   0.000000
   12       10.140443   0.000000
   13       16.245436   0.000000
   14       16.245437   0.000000
   15       19.786407   0.000000
   16       19.786408   0.000000
   17       22.782781   0.000000
   18       22.782782   0.000000
   19       27.636606   0.000000
   20       27.636606   0.000000
 
 -0.3333333E+00  0.1666667E+00 -0.2081668E-16  0.4629630E-02
    1      -37.206331   1.000000
    2      -37.206331   1.000000
    3      -12.370095   1.000000
    4      -12.370095   1.000000
    5      -11.704411   1.000000
    6      -11.704411   1.000000
    7      -11.506378   1.000000
    8      -11.506378   1.000000
    9        6.561191   0.000000
   10        6.561192   0.000000
   11       11.427651   0.000000
   12       11.427651   0.000000
   13       15.898335   0.000000
   14       15.898336   0.000000
   15       20.480394   0.000000
   16       20.480394   0.000000
   17       24.126292   0.000000
   18       24.126292   0.000000
   19       26.155116   0.000000
   20       26.155117   0.000000
 
 -0.1666667E+00  0.1666667E+00 -0.5503056E-17  0.4629630E-02
    1      -37.249899   1.000000
    2      -37.249899   1.000000
    3      -11.963637   1.000000
    4      -11.963637   1.000000
    5      -11.555303   1.000000
    6      -11.555303   1.000000
    7      -11.363431   1.000000
    8      -11.363431   1.000000
    9        3.987634   0.000000
   10        3.987635   0.000000
   11       15.284573   0.000000
   12       15.284574   0.000000
   13       17.182321   0.000000
   14       17.182322   0.000000
   15       22.329308   0.000000
   16       22.329309   0.000000
   17       23.673504   0.000000
   18       23.673504   0.000000
   19       25.320160   0.000000
   20       25.320161   0.000000
 
  0.0000000E+00  0.3333333E+00  0.1387779E-16  0.4629630E-02
    1      -37.238458   1.000000
    2      -37.238458   1.000000
    3      -12.230224   1.000000
    4      -12.230224   1.000000
    5      -11.625106   1.000000
    6      -11.625106   1.000000
    7      -11.563273   1.000000
    8      -11.563273   1.000000
    9        4.982420   0.000000
   10        4.982421   0.000000
   11       12.340324   0.000000
   12       12.340325   0.000000
   13       20.656813   0.000000
   14       20.656814   0.000000
   15       20.657424   0.000000
   16       20.657424   0.000000
   17       22.337047   0.000000
   18       22.337048   0.000000
   19       25.998430   0.000000
   20       25.999378   0.000000
 
  0.1666667E+00  0.3333333E+00  0.2775558E-16  0.4629630E-02
    1      -37.236637   1.000000
    2      -37.236637   1.000000
    3      -12.107671   1.000000
    4      -12.107671   1.000000
    5      -11.628597   1.000000
    6      -11.628597   1.000000
    7      -11.565347   1.000000
    8      -11.565347   1.000000
    9        4.728679   0.000000
   10        4.728680   0.000000
   11       14.189931   0.000000
   12       14.189931   0.000000
   13       17.433779   0.000000
   14       17.433780   0.000000
   15       19.919176   0.000000
   16       19.919177   0.000000
   17       21.817914   0.000000
   18       21.817915   0.000000
   19       27.907216   0.000000
   20       27.907217   0.000000
 
  0.3333333E+00  0.3333333E+00  0.2775558E-16  0.4629630E-02
    1      -37.206308   1.000000
    2      -37.206308   1.000000
    3      -12.191086   1.000000
    4      -12.191086   1.000000
    5      -11.644197   1.000000
    6      -11.644197   1.000000
    7      -11.584994   1.000000
    8      -11.584994   1.000000
    9        5.860879   0.000000
   10        5.860879   0.000000
   11       14.467796   0.000000
   12       14.467797   0.000000
   13       15.022982   0.000000
   14       15.022983   0.000000
   15       19.377904   0.000000
   16       19.377904   0.000000
   17       19.389022   0.000000
   18       19.389023   0.000000
   19       26.386905   0.000000
   20       26.386905   0.000000
 
  0.5000000E+00  0.3333333E+00  0.5551115E-16  0.4629630E-02
    1      -37.174732   1.000000
    2      -37.174732   1.000000
    3      -12.228271   1.000000
    4      -12.228271   1.000000
    5      -11.757281   1.000000
    6      -11.757281   1.000000
    7      -11.698733   1.000000
    8      -11.698733   1.000000
    9        8.101135   0.000000
   10        8.101136   0.000000
   11       12.027223   0.000000
   12       12.027223   0.000000
   13       13.336862   0.000000
   14       13.336863   0.000000
   15       19.213956   0.000000
   16       19.213956   0.000000
   17       19.757724   0.000000
   18       19.757724   0.000000
   19       27.333805   0.000000
   20       27.333806   0.000000
 
 -0.3333333E+00  0.3333333E+00 -0.3137409E-17  0.4629630E-02
    1      -37.177430   1.000000
    2      -37.177430   1.000000
    3      -12.135941   1.000000
    4      -12.135941   1.000000
    5      -12.033619   1.000000
    6      -12.033618   1.000000
    7      -11.674061   1.000000
    8      -11.674060   1.000000
    9        8.963746   0.000000
   10        8.963747   0.000000
   11       11.558928   0.000000
   12       11.558928   0.000000
   13       12.012040   0.000000
   14       12.012040   0.000000
   15       19.601511   0.000000
   16       19.601511   0.000000
   17       21.314626   0.000000
   18       21.314627   0.000000
   19       29.288650   0.000000
   20       29.288650   0.000000
 
 -0.1666667E+00  0.3333333E+00  0.0000000E+00  0.4629630E-02
    1      -37.206331   1.000000
    2      -37.206331   1.000000
    3      -12.370095   1.000000
    4      -12.370095   1.000000
    5      -11.704411   1.000000
    6      -11.704410   1.000000
    7      -11.506378   1.000000
    8      -11.506378   1.000000
    9        6.561191   0.000000
   10        6.561192   0.000000
   11       11.427651   0.000000
   12       11.427651   0.000000
   13       15.898335   0.000000
   14       15.898336   0.000000
   15       20.480394   0.000000
   16       20.480395   0.000000
   17       24.126292   0.000000
   18       24.126292   0.000000
   19       26.155115   0.000000
   20       26.155116   0.000000
 
  0.0000000E+00  0.5000000E+00  0.2775558E-16  0.4629630E-02
    1      -37.219213   1.000000
    2      -37.219212   1.000000
    3      -12.674953   1.000000
    4      -12.674953   1.000000
    5      -11.712323   1.000000
    6      -11.712323   1.000000
    7      -11.649035   1.000000
    8      -11.649035   1.000000
    9        8.031740   0.000000
   10        8.031741   0.000000
   11        8.442906   0.000000
   12        8.442906   0.000000
   13       20.154088   0.000000
   14       20.154088   0.000000
   15       20.154409   0.000000
   16       20.154409   0.000000
   17       22.009780   0.000000
   18       22.009781   0.000000
   19       26.410054   0.000000
   20       26.410311   0.000000
 
  0.1666667E+00  0.5000000E+00  0.5551115E-16  0.4629630E-02
    1      -37.187628   1.000000
    2      -37.187628   1.000000
    3      -12.414020   1.000000
    4      -12.414020   1.000000
    5      -11.512036   1.000000
    6      -11.512036   1.000000
    7      -11.451989   1.000000
    8      -11.451989   1.000000
    9        7.609080   0.000000
   10        7.609081   0.000000
   11       10.140443   0.000000
   12       10.140443   0.000000
   13       16.245436   0.000000
   14       16.245437   0.000000
   15       19.786407   0.000000
   16       19.786408   0.000000
   17       22.782781   0.000000
   18       22.782782   0.000000
   19       27.636605   0.000000
   20       27.636606   0.000000
 
  0.3333333E+00  0.5000000E+00  0.0000000E+00  0.4629630E-02
    1      -37.174732   1.000000
    2      -37.174732   1.000000
    3      -12.228271   1.000000
    4      -12.228271   1.000000
    5      -11.757281   1.000000
    6      -11.757281   1.000000
    7      -11.698733   1.000000
    8      -11.698733   1.000000
    9        8.101135   0.000000
   10        8.101136   0.000000
   11       12.027223   0.000000
   12       12.027223   0.000000
   13       13.336862   0.000000
   14       13.336863   0.000000
   15       19.213956   0.000000
   16       19.213956   0.000000
   17       19.757723   0.000000
   18       19.757724   0.000000
   19       27.333805   0.000000
   20       27.333806   0.000000
 
  0.5000000E+00  0.5000000E+00  0.0000000E+00  0.4629630E-02
    1      -37.176748   1.000000
    2      -37.176748   1.000000
    3      -12.460076   1.000000
    4      -12.460076   1.000000
    5      -11.837135   1.000000
    6      -11.837135   1.000000
    7      -11.777081   1.000000
    8      -11.777081   1.000000
    9        9.070764   0.000000
   10        9.070765   0.000000
   11       10.482717   0.000000
   12       10.482718   0.000000
   13       14.076366   0.000000
   14       14.076367   0.000000
   15       18.997565   0.000000
   16       18.997565   0.000000
   17       19.011357   0.000000
   18       19.011357   0.000000
   19       24.884986   0.000000
   20       24.884986   0.000000
 
 -0.3333333E+00  0.5000000E+00  0.1387779E-16  0.4629630E-02
    1      -37.174732   1.000000
    2      -37.174732   1.000000
    3      -12.228271   1.000000
    4      -12.228271   1.000000
    5      -11.757281   1.000000
    6      -11.757281   1.000000
    7      -11.698733   1.000000
    8      -11.698733   1.000000
    9        8.101135   0.000000
   10        8.101136   0.000000
   11       12.027223   0.000000
   12       12.027223   0.000000
   13       13.336862   0.000000
   14       13.336863   0.000000
   15       19.213956   0.000000
   16       19.213956   0.000000
   17       19.757723   0.000000
   18       19.757724   0.000000
   19       27.333805   0.000000
   20       27.333806   0.000000
 
 -0.1666667E+00  0.5000000E+00  0.5551115E-16  0.4629630E-02
    1      -37.187628   1.000000
    2      -37.187628   1.000000
    3      -12.414020   1.000000
    4      -12.414020   1.000000
    5      -11.512036   1.000000
    6      -11.512036   1.000000
    7      -11.451989   1.000000
    8      -11.451989   1.000000
    9        7.609080   0.000000
   10        7.609081   0.000000
   11       10.140443   0.000000
   12       10.140443   0.000000
   13       16.245436   0.000000
   14       16.245437   0.000000
   15       19.786407   0.000000
   16       19.786408   0.000000
   17       22.782781   0.000000
   18       22.782782   0.000000
   19       27.636605   0.000000
   20       27.636606   0.000000
 
  0.0000000E+00 -0.3333333E+00 -0.1387779E-16  0.4629630E-02
    1      -37.238458   1.000000
    2      -37.238458   1.000000
    3      -12.230224   1.000000
    4      -12.230224   1.000000
    5      -11.625106   1.000000
    6      -11.625106   1.000000
    7      -11.563273   1.000000
    8      -11.563273   1.000000
    9        4.982420   0.000000
   10        4.982421   0.000000
   11       12.340324   0.000000
   12       12.340325   0.000000
   13       20.656813   0.000000
   14       20.656814   0.000000
   15       20.657424   0.000000
   16       20.657424   0.000000
   17       22.337047   0.000000
   18       22.337048   0.000000
   19       25.998451   0.000000
   20       25.999718   0.000000
 
  0.1666667E+00 -0.3333333E+00 -0.1387779E-16  0.4629630E-02
    1      -37.206331   1.000000
    2      -37.206331   1.000000
    3      -12.370095   1.000000
    4      -12.370095   1.000000
    5      -11.704411   1.000000
    6      -11.704410   1.000000
    7      -11.506378   1.000000
    8      -11.506378   1.000000
    9        6.561191   0.000000
   10        6.561192   0.000000
   11       11.427651   0.000000
   12       11.427651   0.000000
   13       15.898335   0.000000
   14       15.898336   0.000000
   15       20.480394   0.000000
   16       20.480395   0.000000
   17       24.126292   0.000000
   18       24.126292   0.000000
   19       26.155115   0.000000
   20       26.155116   0.000000
 
  0.3333333E+00 -0.3333333E+00  0.3137409E-17  0.4629630E-02
    1      -37.177430   1.000000
    2      -37.177430   1.000000
    3      -12.135941   1.000000
    4      -12.135941   1.000000
    5      -12.033619   1.000000
    6      -12.033618   1.000000
    7      -11.674061   1.000000
    8      -11.674060   1.000000
    9        8.963746   0.000000
   10        8.963747   0.000000
   11       11.558928   0.000000
   12       11.558928   0.000000
   13       12.012040   0.000000
   14       12.012040   0.000000
   15       19.601511   0.000000
   16       19.601511   0.000000
   17       21.314626   0.000000
   18       21.314627   0.000000
   19       29.288650   0.000000
   20       29.288650   0.000000
 
  0.5000000E+00 -0.3333333E+00  0.2081668E-16  0.4629630E-02
    1      -37.174732   1.000000
    2      -37.174732   1.000000
    3      -12.228271   1.000000
    4      -12.228271   1.000000
    5      -11.757281   1.000000
    6      -11.757281   1.000000
    7      -11.698733   1.000000
    8      -11.698733   1.000000
    9        8.101135   0.000000
   10        8.101136   0.000000
   11       12.027223   0.000000
   12       12.027223   0.000000
   13       13.336862   0.000000
   14       13.336863   0.000000
   15       19.213956   0.000000
   16       19.213956   0.000000
   17       19.757724   0.000000
   18       19.757724   0.000000
   19       27.333805   0.000000
   20       27.333806   0.000000
 
 -0.3333333E+00 -0.3333333E+00 -0.2775558E-16  0.4629630E-02
    1      -37.206308   1.000000
    2      -37.206308   1.000000
    3      -12.191086   1.000000
    4      -12.191086   1.000000
    5      -11.644197   1.000000
    6      -11.644197   1.000000
    7      -11.584994   1.000000
    8      -11.584994   1.000000
    9        5.860879   0.000000
   10        5.860879   0.000000
   11       14.467796   0.000000
   12       14.467797   0.000000
   13       15.022982   0.000000
   14       15.022983   0.000000
   15       19.377904   0.000000
   16       19.377904   0.000000
   17       19.389022   0.000000
   18       19.389023   0.000000
   19       26.386905   0.000000
   20       26.386905   0.000000
 
 -0.1666667E+00 -0.3333333E+00 -0.2775558E-16  0.4629630E-02
    1      -37.236637   1.000000
    2      -37.236637   1.000000
    3      -12.107671   1.000000
    4      -12.107671   1.000000
    5      -11.628597   1.000000
    6      -11.628597   1.000000
    7      -11.565347   1.000000
    8      -11.565347   1.000000
    9        4.728679   0.000000
   10        4.728680   0.000000
   11       14.189931   0.000000
   12       14.189931   0.000000
   13       17.433779   0.000000
   14       17.433780   0.000000
   15       19.919176   0.000000
   16       19.919177   0.000000
   17       21.817914   0.000000
   18       21.817915   0.000000
   19       27.907216   0.000000
   20       27.907217   0.000000
 
  0.0000000E+00 -0.1666667E+00 -0.6938894E-17  0.4629630E-02
    1      -37.275208   1.000000
    2      -37.275207   1.000000
    3      -11.670766   1.000000
    4      -11.670766   1.000000
    5      -11.219193   1.000000
    6      -11.219193   1.000000
    7      -11.160892   1.000000
    8      -11.160892   1.000000
    9        2.620385   0.000000
   10        2.620386   0.000000
   11       17.199122   0.000000
   12       17.199123   0.000000
   13       21.591952   0.000000
   14       21.591952   0.000000
   15       21.593232   0.000000
   16       21.593232   0.000000
   17       23.809116   0.000000
   18       23.809117   0.000000
   19       25.794186   0.000000
   20       25.794301   0.000000
 
  0.1666667E+00 -0.1666667E+00  0.2192365E-16  0.4629630E-02
    1      -37.249899   1.000000
    2      -37.249899   1.000000
    3      -11.963637   1.000000
    4      -11.963637   1.000000
    5      -11.555303   1.000000
    6      -11.555303   1.000000
    7      -11.363431   1.000000
    8      -11.363431   1.000000
    9        3.987634   0.000000
   10        3.987635   0.000000
   11       15.284573   0.000000
   12       15.284574   0.000000
   13       17.182321   0.000000
   14       17.182322   0.000000
   15       22.329308   0.000000
   16       22.329309   0.000000
   17       23.673504   0.000000
   18       23.673504   0.000000
   19       25.320160   0.000000
   20       25.320161   0.000000
 
  0.3333333E+00 -0.1666667E+00  0.2775558E-16  0.4629630E-02
    1      -37.206331   1.000000
    2      -37.206331   1.000000
    3      -12.370095   1.000000
    4      -12.370095   1.000000
    5      -11.704411   1.000000
    6      -11.704411   1.000000
    7      -11.506378   1.000000
    8      -11.506378   1.000000
    9        6.561191   0.000000
   10        6.561192   0.000000
   11       11.427651   0.000000
   12       11.427651   0.000000
   13       15.898335   0.000000
   14       15.898336   0.000000
   15       20.480394   0.000000
   16       20.480394   0.000000
   17       24.126292   0.000000
   18       24.126292   0.000000
   19       26.155116   0.000000
   20       26.155117   0.000000
 
  0.5000000E+00 -0.1666667E+00  0.1387779E-16  0.4629630E-02
    1      -37.187628   1.000000
    2      -37.187628   1.000000
    3      -12.414020   1.000000
    4      -12.414019   1.000000
    5      -11.512036   1.000000
    6      -11.512036   1.000000
    7      -11.451989   1.000000
    8      -11.451989   1.000000
    9        7.609080   0.000000
   10        7.609081   0.000000
   11       10.140443   0.000000
   12       10.140443   0.000000
   13       16.245436   0.000000
   14       16.245437   0.000000
   15       19.786407   0.000000
   16       19.786408   0.000000
   17       22.782781   0.000000
   18       22.782782   0.000000
   19       27.636606   0.000000
   20       27.636606   0.000000
 
 -0.3333333E+00 -0.1666667E+00 -0.2775558E-16  0.4629630E-02
    1      -37.236637   1.000000
    2      -37.236637   1.000000
    3      -12.107671   1.000000
    4      -12.107671   1.000000
    5      -11.628597   1.000000
    6      -11.628597   1.000000
    7      -11.565347   1.000000
    8      -11.565347   1.000000
    9        4.728679   0.000000
   10        4.728680   0.000000
   11       14.189931   0.000000
   12       14.189931   0.000000
   13       17.433779   0.000000
   14       17.433780   0.000000
   15       19.919176   0.000000
   16       19.919176   0.000000
   17       21.817915   0.000000
   18       21.817915   0.000000
   19       27.907217   0.000000
   20       27.907218   0.000000
 
 -0.1666667E+00 -0.1666667E+00 -0.1387779E-16  0.4629630E-02
    1      -37.275887   1.000000
    2      -37.275887   1.000000
    3      -11.662458   1.000000
    4      -11.662457   1.000000
    5      -11.448935   1.000000
    6      -11.448935   1.000000
    7      -11.394981   1.000000
    8      -11.394981   1.000000
    9        2.908748   0.000000
   10        2.908749   0.000000
   11       17.844319   0.000000
   12       17.844319   0.000000
   13       20.490687   0.000000
   14       20.490688   0.000000
   15       20.556175   0.000000
   16       20.556175   0.000000
   17       20.561475   0.000000
   18       20.561475   0.000000
   19       28.817855   0.000000
   20       28.817856   0.000000
 
  0.0000000E+00  0.0000000E+00  0.1666667E+00  0.4629630E-02
    1      -37.275208   1.000000
    2      -37.275207   1.000000
    3      -11.670762   1.000000
    4      -11.670762   1.000000
    5      -11.219195   1.000000
    6      -11.219195   1.000000
    7      -11.160893   1.000000
    8      -11.160893   1.000000
    9        2.620385   0.000000
   10        2.620386   0.000000
   11       17.199120   0.000000
   12       17.199121   0.000000
   13       21.591958   0.000000
   14       21.591958   0.000000
   15       21.593239   0.000000
   16       21.593239   0.000000
   17       23.809109   0.000000
   18       23.809110   0.000000
   19       25.794214   0.000000
   20       25.794335   0.000000
 
  0.1666667E+00  0.0000000E+00  0.1666667E+00  0.4629630E-02
    1      -37.275887   1.000000
    2      -37.275887   1.000000
    3      -11.662458   1.000000
    4      -11.662458   1.000000
    5      -11.448935   1.000000
    6      -11.448935   1.000000
    7      -11.394981   1.000000
    8      -11.394981   1.000000
    9        2.908748   0.000000
   10        2.908749   0.000000
   11       17.844319   0.000000
   12       17.844319   0.000000
   13       20.490688   0.000000
   14       20.490689   0.000000
   15       20.556174   0.000000
   16       20.556175   0.000000
   17       20.561475   0.000000
   18       20.561475   0.000000
   19       28.817856   0.000000
   20       28.817857   0.000000
 
  0.3333333E+00 -0.2775558E-16  0.1666667E+00  0.4629630E-02
    1      -37.236637   1.000000
    2      -37.236637   1.000000
    3      -12.107672   1.000000
    4      -12.107672   1.000000
    5      -11.628596   1.000000
    6      -11.628595   1.000000
    7      -11.565348   1.000000
    8      -11.565348   1.000000
    9        4.728679   0.000000
   10        4.728680   0.000000
   11       14.189930   0.000000
   12       14.189931   0.000000
   13       17.433777   0.000000
   14       17.433778   0.000000
   15       19.919183   0.000000
   16       19.919183   0.000000
   17       21.817906   0.000000
   18       21.817906   0.000000
   19       27.907218   0.000000
   20       27.907218   0.000000
 
  0.5000000E+00  0.0000000E+00  0.1666667E+00  0.4629630E-02
    1      -37.187628   1.000000
    2      -37.187628   1.000000
    3      -12.414020   1.000000
    4      -12.414020   1.000000
    5      -11.512036   1.000000
    6      -11.512036   1.000000
    7      -11.451989   1.000000
    8      -11.451989   1.000000
    9        7.609080   0.000000
   10        7.609081   0.000000
   11       10.140442   0.000000
   12       10.140442   0.000000
   13       16.245437   0.000000
   14       16.245438   0.000000
   15       19.786412   0.000000
   16       19.786413   0.000000
   17       22.782768   0.000000
   18       22.782768   0.000000
   19       27.636606   0.000000
   20       27.636607   0.000000
 
 -0.3333333E+00  0.2775558E-16  0.1666667E+00  0.4629630E-02
    1      -37.206331   1.000000
    2      -37.206331   1.000000
    3      -12.370094   1.000000
    4      -12.370093   1.000000
    5      -11.704409   1.000000
    6      -11.704409   1.000000
    7      -11.506381   1.000000
    8      -11.506381   1.000000
    9        6.561191   0.000000
   10        6.561192   0.000000
   11       11.427651   0.000000
   12       11.427652   0.000000
   13       15.898337   0.000000
   14       15.898338   0.000000
   15       20.480398   0.000000
   16       20.480399   0.000000
   17       24.126275   0.000000
   18       24.126276   0.000000
   19       26.155127   0.000000
   20       26.155127   0.000000
 
 -0.1666667E+00  0.0000000E+00  0.1666667E+00  0.4629630E-02
    1      -37.249899   1.000000
    2      -37.249899   1.000000
    3      -11.963634   1.000000