   1   1   0   0
  0.4928368E+02  0.4115343E-09  0.4115343E-09  0.4115343E-09  0.1000000E-15
  1.000000000000000E-004
  CAR 
 Og_FCC                                  
     15.88743936    -20.28685312  301     -3.94813102      1.00000000
    -20.287  0.0000E+00  0.0000E+00
    -20.166  0.0000E+00  0.0000E+00
    -20.046  0.0000E+00  0.0000E+00
    -19.925  0.0000E+00  0.0000E+00
    -19.805  0.0000E+00  0.0000E+00
    -19.684  0.0000E+00  0.0000E+00
    -19.563  0.0000E+00  0.0000E+00
    -19.443  0.0000E+00  0.0000E+00
    -19.322  0.0000E+00  0.0000E+00
    -19.202  0.0000E+00  0.0000E+00
    -19.081  0.0000E+00  0.0000E+00
    -18.960  0.0000E+00  0.0000E+00
    -18.840  0.0000E+00  0.0000E+00
    -18.719  0.0000E+00  0.0000E+00
    -18.599  0.9330E-01  0.9458E-01
    -18.478  0.9374E-10  0.1306E+01
    -18.358  0.0000E+00  0.2000E+01
    -18.237  0.0000E+00  0.2000E+01
    -18.116  0.0000E+00  0.2000E+01
    -17.996  0.0000E+00  0.2000E+01
    -17.875  0.0000E+00  0.2000E+01
    -17.755  0.0000E+00  0.2000E+01
    -17.634  0.0000E+00  0.2000E+01
    -17.513  0.0000E+00  0.2000E+01
    -17.393  0.0000E+00  0.2000E+01
    -17.272  0.0000E+00  0.2000E+01
    -17.152  0.0000E+00  0.2000E+01
    -17.031  0.0000E+00  0.2000E+01
    -16.911  0.0000E+00  0.2000E+01
    -16.790  0.0000E+00  0.2000E+01
    -16.669  0.0000E+00  0.2000E+01
    -16.549  0.0000E+00  0.2000E+01
    -16.428  0.0000E+00  0.2000E+01
    -16.308  0.0000E+00  0.2000E+01
    -16.187  0.0000E+00  0.2000E+01
    -16.067  0.0000E+00  0.2000E+01
    -15.946  0.0000E+00  0.2000E+01
    -15.825  0.0000E+00  0.2000E+01
    -15.705  0.0000E+00  0.2000E+01
    -15.584  0.0000E+00  0.2000E+01
    -15.464  0.0000E+00  0.2000E+01
    -15.343  0.0000E+00  0.2000E+01
    -15.222  0.0000E+00  0.2000E+01
    -15.102  0.0000E+00  0.2000E+01
    -14.981  0.0000E+00  0.2000E+01
    -14.861  0.0000E+00  0.2000E+01
    -14.740  0.0000E+00  0.2000E+01
    -14.620  0.0000E+00  0.2000E+01
    -14.499  0.0000E+00  0.2000E+01
    -14.378  0.0000E+00  0.2000E+01
    -14.258  0.0000E+00  0.2000E+01
    -14.137  0.0000E+00  0.2000E+01
    -14.017  0.0000E+00  0.2000E+01
    -13.896  0.0000E+00  0.2000E+01
    -13.775  0.0000E+00  0.2000E+01
    -13.655  0.0000E+00  0.2000E+01
    -13.534  0.0000E+00  0.2000E+01
    -13.414  0.0000E+00  0.2000E+01
    -13.293  0.0000E+00  0.2000E+01
    -13.173  0.0000E+00  0.2000E+01
    -13.052  0.0000E+00  0.2000E+01
    -12.931  0.0000E+00  0.2000E+01
    -12.811  0.0000E+00  0.2000E+01
    -12.690  0.0000E+00  0.2000E+01
    -12.570  0.0000E+00  0.2000E+01
    -12.449  0.0000E+00  0.2000E+01
    -12.329  0.0000E+00  0.2000E+01
    -12.208  0.0000E+00  0.2000E+01
    -12.087  0.0000E+00  0.2000E+01
    -11.967  0.0000E+00  0.2000E+01
    -11.846  0.0000E+00  0.2000E+01
    -11.726  0.0000E+00  0.2000E+01
    -11.605  0.0000E+00  0.2000E+01
    -11.484  0.0000E+00  0.2000E+01
    -11.364  0.0000E+00  0.2000E+01
    -11.243  0.0000E+00  0.2000E+01
    -11.123  0.0000E+00  0.2000E+01
    -11.002  0.0000E+00  0.2000E+01
    -10.882  0.0000E+00  0.2000E+01
    -10.761  0.0000E+00  0.2000E+01
    -10.640  0.0000E+00  0.2000E+01
    -10.520  0.0000E+00  0.2000E+01
    -10.399  0.0000E+00  0.2000E+01
    -10.279  0.0000E+00  0.2000E+01
    -10.158  0.0000E+00  0.2000E+01
    -10.037  0.0000E+00  0.2000E+01
     -9.917  0.0000E+00  0.2000E+01
     -9.796  0.0000E+00  0.2000E+01
     -9.676  0.0000E+00  0.2000E+01
     -9.555  0.0000E+00  0.2000E+01
     -9.435  0.0000E+00  0.2000E+01
     -9.314  0.0000E+00  0.2000E+01
     -9.193  0.0000E+00  0.2000E+01
     -9.073  0.0000E+00  0.2000E+01
     -8.952  0.0000E+00  0.2000E+01
     -8.832  0.0000E+00  0.2000E+01
     -8.711  0.0000E+00  0.2000E+01
     -8.590  0.0000E+00  0.2000E+01
     -8.470  0.0000E+00  0.2000E+01
     -8.349  0.0000E+00  0.2000E+01
     -8.229  0.0000E+00  0.2000E+01
     -8.108  0.0000E+00  0.2000E+01
     -7.988  0.0000E+00  0.2000E+01
     -7.867  0.0000E+00  0.2000E+01
     -7.746  0.0000E+00  0.2000E+01
     -7.626  0.0000E+00  0.2000E+01
     -7.505  0.0000E+00  0.2000E+01
     -7.385  0.0000E+00  0.2000E+01
     -7.264  0.0000E+00  0.2000E+01
     -7.144  0.0000E+00  0.2000E+01
     -7.023  0.0000E+00  0.2000E+01
     -6.902  0.0000E+00  0.2000E+01
     -6.782  0.0000E+00  0.2000E+01
     -6.661  0.0000E+00  0.2000E+01
     -6.541  0.0000E+00  0.2000E+01
     -6.420  0.0000E+00  0.2000E+01
     -6.299  0.0000E+00  0.2000E+01
     -6.179  0.0000E+00  0.2000E+01
     -6.058  0.0000E+00  0.2000E+01
     -5.938  0.0000E+00  0.2000E+01
     -5.817  0.0000E+00  0.2000E+01
     -5.697  0.0000E+00  0.2000E+01
     -5.576  0.0000E+00  0.2000E+01
     -5.455  0.0000E+00  0.2065E+01
     -5.335  0.9215E+00  0.3176E+01
     -5.214  0.0000E+00  0.3528E+01
     -5.094  0.0000E+00  0.3750E+01
     -4.973  0.0000E+00  0.3861E+01
     -4.852  0.0000E+00  0.3917E+01
     -4.732  0.0000E+00  0.4435E+01
     -4.611  0.3686E+01  0.5361E+01
     -4.491  0.0000E+00  0.5565E+01
     -4.370  0.0000E+00  0.6556E+01
     -4.250  0.4435E+00  0.7109E+01
     -4.129  0.3072E+00  0.7667E+01
     -4.008  0.0000E+00  0.7981E+01
     -3.888  0.0000E+00  0.8000E+01
     -3.767  0.0000E+00  0.8000E+01
     -3.647  0.0000E+00  0.8000E+01
     -3.526  0.0000E+00  0.8000E+01
     -3.406  0.0000E+00  0.8000E+01
     -3.285  0.0000E+00  0.8000E+01
     -3.164  0.0000E+00  0.8000E+01
     -3.044  0.0000E+00  0.8000E+01
     -2.923  0.0000E+00  0.8000E+01
     -2.803  0.0000E+00  0.8000E+01
     -2.682  0.0000E+00  0.8000E+01
     -2.561  0.0000E+00  0.8000E+01
     -2.441  0.0000E+00  0.8000E+01
     -2.320  0.0000E+00  0.8000E+01
     -2.200  0.0000E+00  0.8000E+01
     -2.079  0.0000E+00  0.8000E+01
     -1.959  0.0000E+00  0.8000E+01
     -1.838  0.0000E+00  0.8000E+01
     -1.717  0.0000E+00  0.8000E+01
     -1.597  0.0000E+00  0.8000E+01
     -1.476  0.0000E+00  0.8000E+01
     -1.356  0.0000E+00  0.8000E+01
     -1.235  0.0000E+00  0.8000E+01
     -1.114  0.0000E+00  0.8000E+01
     -0.994  0.0000E+00  0.8000E+01
     -0.873  0.0000E+00  0.8000E+01
     -0.753  0.0000E+00  0.8000E+01
     -0.632  0.0000E+00  0.8000E+01
     -0.512  0.0000E+00  0.8000E+01
     -0.391  0.0000E+00  0.8000E+01
     -0.270  0.0000E+00  0.8000E+01
     -0.150  0.0000E+00  0.8000E+01
     -0.029  0.0000E+00  0.8000E+01
      0.091  0.0000E+00  0.8000E+01
      0.212  0.0000E+00  0.8000E+01
      0.332  0.0000E+00  0.8000E+01
      0.453  0.0000E+00  0.8000E+01
      0.574  0.0000E+00  0.8000E+01
      0.694  0.0000E+00  0.8000E+01
      0.815  0.0000E+00  0.8000E+01
      0.935  0.0000E+00  0.8000E+01
      1.056  0.0000E+00  0.8000E+01
      1.177  0.0000E+00  0.8000E+01
      1.297  0.0000E+00  0.8000E+01
      1.418  0.0000E+00  0.8000E+01
      1.538  0.0000E+00  0.8000E+01
      1.659  0.0000E+00  0.8000E+01
      1.779  0.0000E+00  0.8000E+01
      1.900  0.0000E+00  0.8000E+01
      2.021  0.0000E+00  0.8000E+01
      2.141  0.0000E+00  0.8000E+01
      2.262  0.0000E+00  0.8000E+01
      2.382  0.0000E+00  0.8000E+01
      2.503  0.0000E+00  0.8000E+01
      2.624  0.0000E+00  0.8000E+01
      2.744  0.0000E+00  0.8000E+01
      2.865  0.0000E+00  0.8000E+01
      2.985  0.0000E+00  0.8000E+01
      3.106  0.0000E+00  0.8009E+01
      3.226  0.0000E+00  0.8009E+01
      3.347  0.0000E+00  0.8009E+01
      3.468  0.0000E+00  0.8009E+01
      3.588  0.0000E+00  0.8009E+01
      3.709  0.0000E+00  0.8083E+01
      3.829  0.0000E+00  0.8083E+01
      3.950  0.0000E+00  0.8139E+01
      4.071  0.0000E+00  0.8139E+01
      4.191  0.0000E+00  0.8139E+01
      4.312  0.0000E+00  0.8139E+01
      4.432  0.0000E+00  0.8139E+01
      4.553  0.0000E+00  0.8139E+01
      4.673  0.0000E+00  0.8250E+01
      4.794  0.0000E+00  0.8250E+01
      4.915  0.0000E+00  0.8250E+01
      5.035  0.0000E+00  0.8546E+01
      5.156  0.0000E+00  0.8546E+01
      5.276  0.0000E+00  0.8546E+01
      5.397  0.0000E+00  0.8630E+01
      5.517  0.0000E+00  0.8667E+01
      5.638  0.0000E+00  0.8667E+01
      5.759  0.0000E+00  0.8889E+01
      5.879  0.0000E+00  0.9111E+01
      6.000  0.0000E+00  0.9556E+01
      6.120  0.0000E+00  0.9667E+01
      6.241  0.0000E+00  0.9667E+01
      6.362  0.0000E+00  0.9667E+01
      6.482  0.0000E+00  0.9667E+01
      6.603  0.0000E+00  0.9806E+01
      6.723  0.0000E+00  0.1003E+02
      6.844  0.0000E+00  0.1003E+02
      6.964  0.0000E+00  0.1025E+02
      7.085  0.0000E+00  0.1064E+02
      7.206  0.0000E+00  0.1075E+02
      7.326  0.0000E+00  0.1097E+02
      7.447  0.0000E+00  0.1119E+02
      7.567  0.0000E+00  0.1142E+02
      7.688  0.0000E+00  0.1164E+02
      7.809  0.0000E+00  0.1186E+02
      7.929  0.0000E+00  0.1197E+02
      8.050  0.1843E+01  0.1231E+02
      8.170  0.0000E+00  0.1231E+02
      8.291  0.0000E+00  0.1247E+02
      8.411  0.0000E+00  0.1269E+02
      8.532  0.2354E+01  0.1337E+02
      8.653  0.0000E+00  0.1360E+02
      8.773  0.0000E+00  0.1360E+02
      8.894  0.4680E-04  0.1360E+02
      9.014  0.0000E+00  0.1379E+02
      9.135  0.0000E+00  0.1379E+02
      9.255  0.2387E-09  0.1379E+02
      9.376  0.7496E-01  0.1399E+02
      9.497  0.0000E+00  0.1399E+02
      9.617  0.0000E+00  0.1458E+02
      9.738  0.0000E+00  0.1458E+02
      9.858  0.9215E+00  0.1475E+02
      9.979  0.0000E+00  0.1519E+02
     10.100  0.0000E+00  0.1531E+02
     10.220  0.0000E+00  0.1553E+02
     10.341  0.0000E+00  0.1575E+02
     10.461  0.0000E+00  0.1586E+02
     10.582  0.0000E+00  0.1586E+02
     10.702  0.0000E+00  0.1586E+02
     10.823  0.0000E+00  0.1586E+02
     10.944  0.0000E+00  0.1586E+02
     11.064  0.0000E+00  0.1608E+02
     11.185  0.4606E+00  0.1636E+02
     11.305  0.0000E+00  0.1656E+02
     11.426  0.0000E+00  0.1656E+02
     11.547  0.0000E+00  0.1679E+02
     11.667  0.0000E+00  0.1679E+02
     11.788  0.0000E+00  0.1714E+02
     11.908  0.0000E+00  0.1714E+02
     12.029  0.1843E+01  0.1736E+02
     12.149  0.3512E-06  0.1756E+02
     12.270  0.0000E+00  0.1779E+02
     12.391  0.0000E+00  0.1790E+02
     12.511  0.0000E+00  0.1823E+02
     12.632  0.0000E+00  0.1823E+02
     12.752  0.0000E+00  0.1849E+02
     12.873  0.0000E+00  0.1852E+02
     12.993  0.0000E+00  0.1860E+02
     13.114  0.0000E+00  0.1860E+02
     13.235  0.0000E+00  0.1860E+02
     13.355  0.0000E+00  0.1871E+02
     13.476  0.0000E+00  0.1871E+02
     13.596  0.1843E+01  0.1897E+02
     13.717  0.0000E+00  0.1922E+02
     13.838  0.0000E+00  0.1922E+02
     13.958  0.3839E-01  0.1960E+02
     14.079  0.3839E-01  0.1989E+02
     14.199  0.0000E+00  0.1999E+02
     14.320  0.0000E+00  0.2000E+02
     14.440  0.0000E+00  0.2000E+02
     14.561  0.0000E+00  0.2000E+02
     14.682  0.0000E+00  0.2000E+02
     14.802  0.0000E+00  0.2000E+02
     14.923  0.0000E+00  0.2000E+02
     15.043  0.0000E+00  0.2000E+02
     15.164  0.0000E+00  0.2000E+02
     15.285  0.0000E+00  0.2000E+02
     15.405  0.0000E+00  0.2000E+02
     15.526  0.0000E+00  0.2000E+02
     15.646  0.0000E+00  0.2000E+02
     15.767  0.0000E+00  0.2000E+02
     15.887  0.0000E+00  0.2000E+02
