   1   1   0   0
  0.4928368E+02  0.4115343E-09  0.4115343E-09  0.4115343E-09  0.1000000E-15
  1.000000000000000E-004
  CAR 
 Og_FCC                                  
     15.45623810    -20.26631748  301     -3.92324830      1.00000000
    -20.266  0.0000E+00  0.0000E+00
    -20.147  0.0000E+00  0.0000E+00
    -20.028  0.0000E+00  0.0000E+00
    -19.909  0.0000E+00  0.0000E+00
    -19.790  0.0000E+00  0.0000E+00
    -19.671  0.0000E+00  0.0000E+00
    -19.552  0.0000E+00  0.0000E+00
    -19.433  0.0000E+00  0.0000E+00
    -19.314  0.0000E+00  0.0000E+00
    -19.195  0.0000E+00  0.0000E+00
    -19.076  0.0000E+00  0.0000E+00
    -18.956  0.0000E+00  0.0000E+00
    -18.837  0.0000E+00  0.0000E+00
    -18.718  0.0000E+00  0.0000E+00
    -18.599  0.0000E+00  0.8746E-01
    -18.480  0.2350E+01  0.1475E+01
    -18.361  0.0000E+00  0.2000E+01
    -18.242  0.0000E+00  0.2000E+01
    -18.123  0.0000E+00  0.2000E+01
    -18.004  0.0000E+00  0.2000E+01
    -17.885  0.0000E+00  0.2000E+01
    -17.766  0.0000E+00  0.2000E+01
    -17.647  0.0000E+00  0.2000E+01
    -17.528  0.0000E+00  0.2000E+01
    -17.409  0.0000E+00  0.2000E+01
    -17.289  0.0000E+00  0.2000E+01
    -17.170  0.0000E+00  0.2000E+01
    -17.051  0.0000E+00  0.2000E+01
    -16.932  0.0000E+00  0.2000E+01
    -16.813  0.0000E+00  0.2000E+01
    -16.694  0.0000E+00  0.2000E+01
    -16.575  0.0000E+00  0.2000E+01
    -16.456  0.0000E+00  0.2000E+01
    -16.337  0.0000E+00  0.2000E+01
    -16.218  0.0000E+00  0.2000E+01
    -16.099  0.0000E+00  0.2000E+01
    -15.980  0.0000E+00  0.2000E+01
    -15.861  0.0000E+00  0.2000E+01
    -15.741  0.0000E+00  0.2000E+01
    -15.622  0.0000E+00  0.2000E+01
    -15.503  0.0000E+00  0.2000E+01
    -15.384  0.0000E+00  0.2000E+01
    -15.265  0.0000E+00  0.2000E+01
    -15.146  0.0000E+00  0.2000E+01
    -15.027  0.0000E+00  0.2000E+01
    -14.908  0.0000E+00  0.2000E+01
    -14.789  0.0000E+00  0.2000E+01
    -14.670  0.0000E+00  0.2000E+01
    -14.551  0.0000E+00  0.2000E+01
    -14.432  0.0000E+00  0.2000E+01
    -14.313  0.0000E+00  0.2000E+01
    -14.193  0.0000E+00  0.2000E+01
    -14.074  0.0000E+00  0.2000E+01
    -13.955  0.0000E+00  0.2000E+01
    -13.836  0.0000E+00  0.2000E+01
    -13.717  0.0000E+00  0.2000E+01
    -13.598  0.0000E+00  0.2000E+01
    -13.479  0.0000E+00  0.2000E+01
    -13.360  0.0000E+00  0.2000E+01
    -13.241  0.0000E+00  0.2000E+01
    -13.122  0.0000E+00  0.2000E+01
    -13.003  0.0000E+00  0.2000E+01
    -12.884  0.0000E+00  0.2000E+01
    -12.765  0.0000E+00  0.2000E+01
    -12.646  0.0000E+00  0.2000E+01
    -12.526  0.0000E+00  0.2000E+01
    -12.407  0.0000E+00  0.2000E+01
    -12.288  0.0000E+00  0.2000E+01
    -12.169  0.0000E+00  0.2000E+01
    -12.050  0.0000E+00  0.2000E+01
    -11.931  0.0000E+00  0.2000E+01
    -11.812  0.0000E+00  0.2000E+01
    -11.693  0.0000E+00  0.2000E+01
    -11.574  0.0000E+00  0.2000E+01
    -11.455  0.0000E+00  0.2000E+01
    -11.336  0.0000E+00  0.2000E+01
    -11.217  0.0000E+00  0.2000E+01
    -11.098  0.0000E+00  0.2000E+01
    -10.978  0.0000E+00  0.2000E+01
    -10.859  0.0000E+00  0.2000E+01
    -10.740  0.0000E+00  0.2000E+01
    -10.621  0.0000E+00  0.2000E+01
    -10.502  0.0000E+00  0.2000E+01
    -10.383  0.0000E+00  0.2000E+01
    -10.264  0.0000E+00  0.2000E+01
    -10.145  0.0000E+00  0.2000E+01
    -10.026  0.0000E+00  0.2000E+01
     -9.907  0.0000E+00  0.2000E+01
     -9.788  0.0000E+00  0.2000E+01
     -9.669  0.0000E+00  0.2000E+01
     -9.550  0.0000E+00  0.2000E+01
     -9.430  0.0000E+00  0.2000E+01
     -9.311  0.0000E+00  0.2000E+01
     -9.192  0.0000E+00  0.2000E+01
     -9.073  0.0000E+00  0.2000E+01
     -8.954  0.0000E+00  0.2000E+01
     -8.835  0.0000E+00  0.2000E+01
     -8.716  0.0000E+00  0.2000E+01
     -8.597  0.0000E+00  0.2000E+01
     -8.478  0.0000E+00  0.2000E+01
     -8.359  0.0000E+00  0.2000E+01
     -8.240  0.0000E+00  0.2000E+01
     -8.121  0.0000E+00  0.2000E+01
     -8.002  0.0000E+00  0.2000E+01
     -7.882  0.0000E+00  0.2000E+01
     -7.763  0.0000E+00  0.2000E+01
     -7.644  0.0000E+00  0.2000E+01
     -7.525  0.0000E+00  0.2000E+01
     -7.406  0.0000E+00  0.2000E+01
     -7.287  0.0000E+00  0.2000E+01
     -7.168  0.0000E+00  0.2000E+01
     -7.049  0.0000E+00  0.2000E+01
     -6.930  0.0000E+00  0.2000E+01
     -6.811  0.0000E+00  0.2000E+01
     -6.692  0.0000E+00  0.2000E+01
     -6.573  0.0000E+00  0.2000E+01
     -6.454  0.0000E+00  0.2000E+01
     -6.335  0.0000E+00  0.2000E+01
     -6.215  0.0000E+00  0.2000E+01
     -6.096  0.0000E+00  0.2000E+01
     -5.977  0.0000E+00  0.2000E+01
     -5.858  0.0000E+00  0.2000E+01
     -5.739  0.0000E+00  0.2000E+01
     -5.620  0.0000E+00  0.2000E+01
     -5.501  0.0000E+00  0.2000E+01
     -5.382  0.0000E+00  0.2292E+01
     -5.263  0.0000E+00  0.3481E+01
     -5.144  0.0000E+00  0.3703E+01
     -5.025  0.0000E+00  0.3843E+01
     -4.906  0.0000E+00  0.3913E+01
     -4.787  0.1263E-01  0.4136E+01
     -4.667  0.0000E+00  0.4875E+01
     -4.548  0.1175E+01  0.5434E+01
     -4.429  0.0000E+00  0.6006E+01
     -4.310  0.2035E+00  0.6881E+01
     -4.191  0.2938E+00  0.7417E+01
     -4.072  0.2938E+00  0.7942E+01
     -3.953  0.0000E+00  0.8000E+01
     -3.834  0.0000E+00  0.8000E+01
     -3.715  0.0000E+00  0.8000E+01
     -3.596  0.0000E+00  0.8000E+01
     -3.477  0.0000E+00  0.8000E+01
     -3.358  0.0000E+00  0.8000E+01
     -3.239  0.0000E+00  0.8000E+01
     -3.119  0.0000E+00  0.8000E+01
     -3.000  0.0000E+00  0.8000E+01
     -2.881  0.0000E+00  0.8000E+01
     -2.762  0.0000E+00  0.8000E+01
     -2.643  0.0000E+00  0.8000E+01
     -2.524  0.0000E+00  0.8000E+01
     -2.405  0.0000E+00  0.8000E+01
     -2.286  0.0000E+00  0.8000E+01
     -2.167  0.0000E+00  0.8000E+01
     -2.048  0.0000E+00  0.8000E+01
     -1.929  0.0000E+00  0.8000E+01
     -1.810  0.0000E+00  0.8000E+01
     -1.691  0.0000E+00  0.8000E+01
     -1.572  0.0000E+00  0.8000E+01
     -1.452  0.0000E+00  0.8000E+01
     -1.333  0.0000E+00  0.8000E+01
     -1.214  0.0000E+00  0.8000E+01
     -1.095  0.0000E+00  0.8000E+01
     -0.976  0.0000E+00  0.8000E+01
     -0.857  0.0000E+00  0.8000E+01
     -0.738  0.0000E+00  0.8000E+01
     -0.619  0.0000E+00  0.8000E+01
     -0.500  0.0000E+00  0.8000E+01
     -0.381  0.0000E+00  0.8000E+01
     -0.262  0.0000E+00  0.8000E+01
     -0.143  0.0000E+00  0.8000E+01
     -0.024  0.0000E+00  0.8000E+01
      0.096  0.0000E+00  0.8000E+01
      0.215  0.0000E+00  0.8000E+01
      0.334  0.0000E+00  0.8000E+01
      0.453  0.0000E+00  0.8000E+01
      0.572  0.0000E+00  0.8000E+01
      0.691  0.0000E+00  0.8000E+01
      0.810  0.0000E+00  0.8000E+01
      0.929  0.0000E+00  0.8000E+01
      1.048  0.0000E+00  0.8000E+01
      1.167  0.0000E+00  0.8000E+01
      1.286  0.0000E+00  0.8000E+01
      1.405  0.0000E+00  0.8000E+01
      1.524  0.0000E+00  0.8000E+01
      1.644  0.0000E+00  0.8000E+01
      1.763  0.0000E+00  0.8000E+01
      1.882  0.0000E+00  0.8000E+01
      2.001  0.0000E+00  0.8000E+01
      2.120  0.0000E+00  0.8000E+01
      2.239  0.0000E+00  0.8000E+01
      2.358  0.0000E+00  0.8000E+01
      2.477  0.0000E+00  0.8000E+01
      2.596  0.0000E+00  0.8000E+01
      2.715  0.0000E+00  0.8000E+01
      2.834  0.0000E+00  0.8000E+01
      2.953  0.0000E+00  0.8000E+01
      3.072  0.0000E+00  0.8006E+01
      3.191  0.0000E+00  0.8006E+01
      3.311  0.0000E+00  0.8006E+01
      3.430  0.0000E+00  0.8006E+01
      3.549  0.0000E+00  0.8052E+01
      3.668  0.0000E+00  0.8052E+01
      3.787  0.0000E+00  0.8087E+01
      3.906  0.0000E+00  0.8087E+01
      4.025  0.0000E+00  0.8087E+01
      4.144  0.0000E+00  0.8087E+01
      4.263  0.5876E+00  0.8157E+01
      4.382  0.0000E+00  0.8157E+01
      4.501  0.0000E+00  0.8157E+01
      4.620  0.3669E+00  0.8341E+01
      4.739  0.0000E+00  0.8344E+01
      4.859  0.0000E+00  0.8344E+01
      4.978  0.0000E+00  0.8344E+01
      5.097  0.0000E+00  0.8379E+01
      5.216  0.0000E+00  0.8379E+01
      5.335  0.3917E+00  0.8426E+01
      5.454  0.0000E+00  0.8601E+01
      5.573  0.1175E+01  0.8880E+01
      5.692  0.0000E+00  0.9090E+01
      5.811  0.0000E+00  0.9090E+01
      5.930  0.0000E+00  0.9370E+01
      6.049  0.0000E+00  0.9370E+01
      6.168  0.0000E+00  0.9370E+01
      6.287  0.0000E+00  0.9510E+01
      6.407  0.0000E+00  0.9930E+01
      6.526  0.0000E+00  0.1000E+02
      6.645  0.0000E+00  0.1000E+02
      6.764  0.0000E+00  0.1003E+02
      6.883  0.0000E+00  0.1010E+02
      7.002  0.0000E+00  0.1010E+02
      7.121  0.0000E+00  0.1080E+02
      7.240  0.0000E+00  0.1087E+02
      7.359  0.0000E+00  0.1105E+02
      7.478  0.0000E+00  0.1119E+02
      7.597  0.0000E+00  0.1147E+02
      7.716  0.0000E+00  0.1147E+02
      7.835  0.0000E+00  0.1175E+02
      7.955  0.0000E+00  0.1191E+02
      8.074  0.1175E+01  0.1233E+02
      8.193  0.0000E+00  0.1254E+02
      8.312  0.1175E+01  0.1282E+02
      8.431  0.0000E+00  0.1296E+02
      8.550  0.0000E+00  0.1328E+02
      8.669  0.0000E+00  0.1345E+02
      8.788  0.0000E+00  0.1350E+02
      8.907  0.0000E+00  0.1350E+02
      9.026  0.0000E+00  0.1374E+02
      9.145  0.0000E+00  0.1384E+02
      9.264  0.0000E+00  0.1391E+02
      9.383  0.0000E+00  0.1406E+02
      9.502  0.0000E+00  0.1416E+02
      9.622  0.0000E+00  0.1453E+02
      9.741  0.0000E+00  0.1460E+02
      9.860  0.0000E+00  0.1474E+02
      9.979  0.5876E+00  0.1523E+02
     10.098  0.0000E+00  0.1530E+02
     10.217  0.0000E+00  0.1534E+02
     10.336  0.0000E+00  0.1555E+02
     10.455  0.0000E+00  0.1569E+02
     10.574  0.0000E+00  0.1569E+02
     10.693  0.0000E+00  0.1597E+02
     10.812  0.4905E-06  0.1603E+02
     10.931  0.0000E+00  0.1617E+02
     11.050  0.0000E+00  0.1631E+02
     11.170  0.0000E+00  0.1631E+02
     11.289  0.0000E+00  0.1655E+02
     11.408  0.0000E+00  0.1655E+02
     11.527  0.0000E+00  0.1655E+02
     11.646  0.0000E+00  0.1659E+02
     11.765  0.0000E+00  0.1693E+02
     11.884  0.0000E+00  0.1707E+02
     12.003  0.0000E+00  0.1732E+02
     12.122  0.0000E+00  0.1767E+02
     12.241  0.0000E+00  0.1767E+02
     12.360  0.0000E+00  0.1784E+02
     12.479  0.0000E+00  0.1788E+02
     12.598  0.0000E+00  0.1806E+02
     12.718  0.0000E+00  0.1824E+02
     12.837  0.0000E+00  0.1831E+02
     12.956  0.9571E-01  0.1832E+02
     13.075  0.0000E+00  0.1845E+02
     13.194  0.0000E+00  0.1892E+02
     13.313  0.0000E+00  0.1892E+02
     13.432  0.0000E+00  0.1934E+02
     13.551  0.0000E+00  0.1965E+02
     13.670  0.0000E+00  0.1979E+02
     13.789  0.6524E-16  0.1979E+02
     13.908  0.0000E+00  0.2000E+02
     14.027  0.0000E+00  0.2000E+02
     14.146  0.0000E+00  0.2000E+02
     14.265  0.0000E+00  0.2000E+02
     14.385  0.0000E+00  0.2000E+02
     14.504  0.0000E+00  0.2000E+02
     14.623  0.0000E+00  0.2000E+02
     14.742  0.0000E+00  0.2000E+02
     14.861  0.0000E+00  0.2000E+02
     14.980  0.0000E+00  0.2000E+02
     15.099  0.0000E+00  0.2000E+02
     15.218  0.0000E+00  0.2000E+02
     15.337  0.0000E+00  0.2000E+02
     15.456  0.0000E+00  0.2000E+02
