    1    1    1    1
  0.4928368E+02  0.4115343E-09  0.4115343E-09  0.4115343E-09  0.1000000E-15
  1.000000000000000E-004
  CAR 
 Og_FCC                                  
      8    343     20
 
  0.0000000E+00  0.0000000E+00  0.0000000E+00  0.2915452E-02
    1      -18.642565   1.000000
    2      -18.642530   1.000000
    3       -4.682456   1.000000
    4       -4.682446   1.000000
    5       -3.990755   1.000000
    6       -3.990742   1.000000
    7       -3.990735   1.000000
    8       -3.990722   1.000000
    9        3.022062   0.000000
   10        3.022224   0.000000
   11        9.358084   0.000000
   12        9.358090   0.000000
   13        9.358098   0.000000
   14        9.358102   0.000000
   15        9.374648   0.000000
   16        9.374654   0.000000
   17       11.696572   0.000000
   18       11.696572   0.000000
   19       11.696583   0.000000
   20       11.696583   0.000000
 
  0.1428571E+00 -0.1246062E-16 -0.1387779E-16  0.2915452E-02
    1      -18.617467   1.000000
    2      -18.617432   1.000000
    3       -4.800374   1.000000
    4       -4.800358   1.000000
    5       -4.169154   1.000000
    6       -4.169137   1.000000
    7       -4.019168   1.000000
    8       -4.019166   1.000000
    9        3.532331   0.000000
   10        3.532491   0.000000
   11        8.689423   0.000000
   12        8.689447   0.000000
   13        9.536581   0.000000
   14        9.536584   0.000000
   15        9.550442   0.000000
   16        9.550445   0.000000
   17       11.271699   0.000000
   18       11.271701   0.000000
   19       11.279662   0.000000
   20       11.279664   0.000000
 
  0.2857143E+00 -0.2492125E-16 -0.2775558E-16  0.2915452E-02
    1      -18.560163   1.000000
    2      -18.560127   1.000000
    3       -5.161232   1.000000
    4       -5.161204   1.000000
    5       -4.395511   1.000000
    6       -4.395504   1.000000
    7       -4.081303   1.000000
    8       -4.081301   1.000000
    9        4.619245   0.000000
   10        4.619378   0.000000
   11        7.935569   0.000000
   12        7.935674   0.000000
   13        9.403689   0.000000
   14        9.403692   0.000000
   15        9.421554   0.000000
   16        9.421556   0.000000
   17       11.637287   0.000000
   18       11.637289   0.000000
   19       11.657214   0.000000
   20       11.657216   0.000000
 
  0.4285714E+00 -0.2350408E-16  0.0000000E+00  0.2915452E-02
    1      -18.513261   1.000000
    2      -18.513225   1.000000
    3       -5.481501   1.000000
    4       -5.481469   1.000000
    5       -4.491555   1.000000
    6       -4.491552   1.000000
    7       -4.129758   1.000000
    8       -4.129755   1.000000
    9        5.329897   0.000000
   10        5.329931   0.000000
   11        7.865941   0.000000
   12        7.866266   0.000000
   13        9.038304   0.000000
   14        9.038306   0.000000
   15        9.055306   0.000000
   16        9.055308   0.000000
   17       12.556861   0.000000
   18       12.557187   0.000000
   19       13.119429   0.000000
   20       13.120868   0.000000
 
 -0.4285714E+00  0.2350408E-16  0.0000000E+00  0.2915452E-02
    1      -18.513261   1.000000
    2      -18.513225   1.000000
    3       -5.481501   1.000000
    4       -5.481469   1.000000
    5       -4.491555   1.000000
    6       -4.491552   1.000000
    7       -4.129758   1.000000
    8       -4.129755   1.000000
    9        5.329897   0.000000
   10        5.329931   0.000000
   11        7.865941   0.000000
   12        7.866266   0.000000
   13        9.038304   0.000000
   14        9.038306   0.000000
   15        9.055306   0.000000
   16        9.055308   0.000000
   17       12.556861   0.000000
   18       12.557187   0.000000
   19       13.117244   0.000000
   20       13.121232   0.000000
 
 -0.2857143E+00  0.2492125E-16  0.2775558E-16  0.2915452E-02
    1      -18.560163   1.000000
    2      -18.560127   1.000000
    3       -5.161232   1.000000
    4       -5.161204   1.000000
    5       -4.395511   1.000000
    6       -4.395504   1.000000
    7       -4.081303   1.000000
    8       -4.081301   1.000000
    9        4.619245   0.000000
   10        4.619378   0.000000
   11        7.935569   0.000000
   12        7.935674   0.000000
   13        9.403689   0.000000
   14        9.403692   0.000000
   15        9.421554   0.000000
   16        9.421556   0.000000
   17       11.637287   0.000000
   18       11.637289   0.000000
   19       11.657214   0.000000
   20       11.657216   0.000000
 
 -0.1428571E+00  0.1246062E-16 -0.1387779E-16  0.2915452E-02
    1      -18.617467   1.000000
    2      -18.617432   1.000000
    3       -4.800374   1.000000
    4       -4.800358   1.000000
    5       -4.169154   1.000000
    6       -4.169137   1.000000
    7       -4.019168   1.000000
    8       -4.019166   1.000000
    9        3.532331   0.000000
   10        3.532491   0.000000
   11        8.689423   0.000000
   12        8.689447   0.000000
   13        9.536581   0.000000
   14        9.536584   0.000000
   15        9.550442   0.000000
   16        9.550445   0.000000
   17       11.271699   0.000000
   18       11.271701   0.000000
   19       11.279662   0.000000
   20       11.279663   0.000000
 
 -0.3851860E-33  0.1428571E+00  0.0000000E+00  0.2915452E-02
    1      -18.617467   1.000000
    2      -18.617432   1.000000
    3       -4.800374   1.000000
    4       -4.800359   1.000000
    5       -4.169153   1.000000
    6       -4.169138   1.000000
    7       -4.019172   1.000000
    8       -4.019161   1.000000
    9        3.532331   0.000000
   10        3.532491   0.000000
   11        8.689423   0.000000
   12        8.689447   0.000000
   13        9.536580   0.000000
   14        9.536585   0.000000
   15        9.550441   0.000000
   16        9.550446   0.000000
   17       11.271699   0.000000
   18       11.271702   0.000000
   19       11.279661   0.000000
   20       11.279664   0.000000
 
  0.1428571E+00  0.1428571E+00 -0.1387779E-16  0.2915452E-02
    1      -18.609154   1.000000
    2      -18.609119   1.000000
    3       -4.823493   1.000000
    4       -4.823479   1.000000
    5       -4.194386   1.000000
    6       -4.194368   1.000000
    7       -4.075281   1.000000
    8       -4.075270   1.000000
    9        3.699333   0.000000
   10        3.699498   0.000000
   11        8.451058   0.000000
   12        8.451073   0.000000
   13        9.700753   0.000000
   14        9.700761   0.000000
   15        9.726242   0.000000
   16        9.726250   0.000000
   17       10.196674   0.000000
   18       10.196709   0.000000
   19       11.959430   0.000000
   20       11.959441   0.000000
 
  0.2857143E+00  0.1428571E+00 -0.2775558E-16  0.2915452E-02
    1      -18.562645   1.000000
    2      -18.562609   1.000000
    3       -5.068327   1.000000
    4       -5.068304   1.000000
    5       -4.407501   1.000000
    6       -4.407490   1.000000
    7       -4.149162   1.000000
    8       -4.149156   1.000000
    9        4.610947   0.000000
   10        4.611114   0.000000
   11        7.823290   0.000000
   12        7.823320   0.000000
   13        8.967180   0.000000
   14        8.967252   0.000000
   15        9.893863   0.000000
   16        9.893877   0.000000
   17       10.664287   0.000000
   18       10.664298   0.000000
   19       12.297626   0.000000
   20       12.297632   0.000000
 
  0.4285714E+00  0.1428571E+00  0.5551115E-16  0.2915452E-02
    1      -18.512128   1.000000
    2      -18.512093   1.000000
    3       -5.372212   1.000000
    4       -5.372183   1.000000
    5       -4.551391   1.000000
    6       -4.551382   1.000000
    7       -4.220838   1.000000
    8       -4.220834   1.000000
    9        5.567135   0.000000
   10        5.567234   0.000000
   11        7.500316   0.000000
   12        7.500533   0.000000
   13        8.512302   0.000000
   14        8.512321   0.000000
   15        9.564758   0.000000
   16        9.564763   0.000000
   17       11.975414   0.000000
   18       11.975465   0.000000
   19       13.451223   0.000000
   20       13.451228   0.000000
 
 -0.4285714E+00  0.1428571E+00 -0.2775558E-16  0.2915452E-02
    1      -18.496321   1.000000
    2      -18.496286   1.000000
    3       -5.464227   1.000000
    4       -5.464196   1.000000
    5       -4.600643   1.000000
    6       -4.600629   1.000000
    7       -4.234762   1.000000
    8       -4.234752   1.000000
    9        5.866364   0.000000
   10        5.866379   0.000000
   11        7.443413   0.000000
   12        7.443770   0.000000
   13        8.596994   0.000000
   14        8.597009   0.000000
   15        9.351505   0.000000
   16        9.351509   0.000000
   17       12.956642   0.000000
   18       12.956650   0.000000
   19       13.145532   0.000000
   20       13.145601   0.000000
 
 -0.2857143E+00  0.1428571E+00  0.2081668E-16  0.2915452E-02
    1      -18.527666   1.000000
    2      -18.527631   1.000000
    3       -5.277774   1.000000
    4       -5.277745   1.000000
    5       -4.538974   1.000000
    6       -4.538955   1.000000
    7       -4.176966   1.000000
    8       -4.176953   1.000000
    9        5.350933   0.000000
   10        5.351055   0.000000
   11        7.724394   0.000000
   12        7.724534   0.000000
   13        8.502834   0.000000
   14        8.502908   0.000000
   15        9.563762   0.000000
   16        9.563765   0.000000
   17       11.227032   0.000000
   18       11.227043   0.000000
   19       13.368894   0.000000
   20       13.368900   0.000000
 
 -0.1428571E+00  0.1428571E+00 -0.2213560E-16  0.2915452E-02
    1      -18.581632   1.000000
    2      -18.581596   1.000000
    3       -4.979077   1.000000
    4       -4.979054   1.000000
    5       -4.348723   1.000000
    6       -4.348702   1.000000
    7       -4.087372   1.000000
    8       -4.087360   1.000000
    9        4.258896   0.000000
   10        4.259056   0.000000
   11        8.157503   0.000000
   12        8.157518   0.000000
   13        9.189989   0.000000
   14        9.190073   0.000000
   15        9.974327   0.000000
   16        9.974345   0.000000
   17       10.304935   0.000000
   18       10.304944   0.000000
   19       11.959921   0.000000
   20       11.959936   0.000000
 
 -0.1155558E-32  0.2857143E+00 -0.2775558E-16  0.2915452E-02
    1      -18.560163   1.000000
    2      -18.560127   1.000000
    3       -5.161232   1.000000
    4       -5.161204   1.000000
    5       -4.395512   1.000000
    6       -4.395503   1.000000
    7       -4.081307   1.000000
    8       -4.081296   1.000000
    9        4.619245   0.000000
   10        4.619378   0.000000
   11        7.935569   0.000000
   12        7.935675   0.000000
   13        9.403689   0.000000
   14        9.403692   0.000000
   15        9.421554   0.000000
   16        9.421556   0.000000
   17       11.637287   0.000000
   18       11.637289   0.000000
   19       11.657213   0.000000
   20       11.657217   0.000000
 
  0.1428571E+00  0.2857143E+00 -0.2775558E-16  0.2915452E-02
    1      -18.562645   1.000000
    2      -18.562609   1.000000
    3       -5.068327   1.000000
    4       -5.068304   1.000000
    5       -4.407500   1.000000
    6       -4.407491   1.000000
    7       -4.149165   1.000000
    8       -4.149153   1.000000
    9        4.610947   0.000000
   10        4.611114   0.000000
   11        7.823290   0.000000
   12        7.823320   0.000000
   13        8.967180   0.000000
   14        8.967252   0.000000
   15        9.893863   0.000000
   16        9.893876   0.000000
   17       10.664287   0.000000
   18       10.664298   0.000000
   19       12.297626   0.000000
   20       12.297632   0.000000
 
  0.2857143E+00  0.2857143E+00  0.0000000E+00  0.2915452E-02
    1      -18.533252   1.000000
    2      -18.533217   1.000000
    3       -5.162619   1.000000
    4       -5.162597   1.000000
    5       -4.512132   1.000000
    6       -4.512122   1.000000
    7       -4.257844   1.000000
    8       -4.257834   1.000000
    9        5.034989   0.000000
   10        5.035204   0.000000
   11        7.288403   0.000000
   12        7.288416   0.000000
   13        8.567989   0.000000
   14        8.568046   0.000000
   15       10.710035   0.000000
   16       10.710045   0.000000
   17       10.767900   0.000000
   18       10.767909   0.000000
   19       12.671825   0.000000
   20       12.671839   0.000000
 
  0.4285714E+00  0.2857143E+00  0.2775558E-16  0.2915452E-02
    1      -18.493634   1.000000
    2      -18.493599   1.000000
    3       -5.331909   1.000000
    4       -5.331885   1.000000
    5       -4.645934   1.000000
    6       -4.645920   1.000000
    7       -4.354994   1.000000
    8       -4.354985   1.000000
    9        5.623260   0.000000
   10        5.623511   0.000000
   11        7.058929   0.000000
   12        7.058956   0.000000
   13        8.279156   0.000000
   14        8.279195   0.000000
   15       10.815786   0.000000
   16       10.815795   0.000000
   17       11.743162   0.000000
   18       11.743198   0.000000
   19       13.617872   0.000000
   20       13.617878   0.000000
 
 -0.4285714E+00  0.2857143E+00 -0.4163336E-16  0.2915452E-02
    1      -18.473828   1.000000
    2      -18.473793   1.000000
    3       -5.372505   1.000000
    4       -5.372481   1.000000
    5       -4.784930   1.000000
    6       -4.784905   1.000000
    7       -4.390519   1.000000
    8       -4.390499   1.000000
    9        6.270093   0.000000
   10        6.270312   0.000000
   11        7.026828   0.000000
   12        7.026951   0.000000
   13        8.306973   0.000000
   14        8.306992   0.000000
   15       10.364224   0.000000
   16       10.364227   0.000000
   17       11.792793   0.000000
   18       11.792837   0.000000
   19       13.154402   0.000000
   20       13.154414   0.000000
 
 -0.2857143E+00  0.2857143E+00  0.2710029E-16  0.2915452E-02
    1      -18.489149   1.000000
    2      -18.489114   1.000000
    3       -5.324071   1.000000
    4       -5.324046   1.000000
    5       -4.771604   1.000000
    6       -4.771577   1.000000
    7       -4.309974   1.000000
    8       -4.309952   1.000000
    9        6.485772   0.000000
   10        6.485881   0.000000
   11        7.149981   0.000000
   12        7.150233   0.000000
   13        7.916096   0.000000
   14        7.916115   0.000000
   15        9.984421   0.000000
   16        9.984428   0.000000
   17       11.689180   0.000000
   18       11.689198   0.000000
   19       12.741519   0.000000
   20       12.741527   0.000000
 
 -0.1428571E+00  0.2857143E+00 -0.2081668E-16  0.2915452E-02
    1      -18.527666   1.000000
    2      -18.527631   1.000000
    3       -5.277774   1.000000
    4       -5.277746   1.000000
    5       -4.538974   1.000000
    6       -4.538955   1.000000
    7       -4.176967   1.000000
    8       -4.176952   1.000000
    9        5.350933   0.000000
   10        5.351055   0.000000
   11        7.724394   0.000000
   12        7.724534   0.000000
   13        8.502834   0.000000
   14        8.502908   0.000000
   15        9.563762   0.000000
   16        9.563765   0.000000
   17       11.227032   0.000000
   18       11.227043   0.000000
   19       13.368893   0.000000
   20       13.369072   0.000000
 
 -0.1540744E-32  0.4285714E+00  0.0000000E+00  0.2915452E-02
    1      -18.513261   1.000000
    2      -18.513225   1.000000
    3       -5.481501   1.000000
    4       -5.481469   1.000000
    5       -4.491558   1.000000
    6       -4.491549   1.000000
    7       -4.129762   1.000000
    8       -4.129751   1.000000
    9        5.329897   0.000000
   10        5.329931   0.000000
   11        7.865941   0.000000
   12        7.866266   0.000000
   13        9.038305   0.000000
   14        9.038306   0.000000
   15        9.055307   0.000000
   16        9.055308   0.000000
   17       12.556861   0.000000
   18       12.557187   0.000000
   19       13.116498   0.000000
   20       13.122145   0.000000
 
  0.1428571E+00  0.4285714E+00 -0.5551115E-16  0.2915452E-02
    1      -18.512128   1.000000
    2      -18.512093   1.000000
    3       -5.372212   1.000000
    4       -5.372183   1.000000
    5       -4.551392   1.000000
    6       -4.551381   1.000000
    7       -4.220841   1.000000
    8       -4.220830   1.000000
    9        5.567135   0.000000
   10        5.567234   0.000000
   11        7.500316   0.000000
   12        7.500533   0.000000
   13        8.512301   0.000000
   14        8.512321   0.000000
   15        9.564758   0.000000
   16        9.564763   0.000000
   17       11.975414   0.000000
   18       11.975465   0.000000
   19       13.451223   0.000000
   20       13.451317   0.000000
 
  0.2857143E+00  0.4285714E+00 -0.2775558E-16  0.2915452E-02
    1      -18.493634   1.000000
    2      -18.493599   1.000000
    3       -5.331908   1.000000
    4       -5.331885   1.000000
    5       -4.645934   1.000000
    6       -4.645919   1.000000
    7       -4.354995   1.000000
    8       -4.354983   1.000000
    9        5.623260   0.000000
   10        5.623511   0.000000
   11        7.058929   0.000000
   12        7.058956   0.000000
   13        8.279156   0.000000
   14        8.279195   0.000000
   15       10.815786   0.000000
   16       10.815795   0.000000
   17       11.743162   0.000000
   18       11.743198   0.000000
   19       13.617872   0.000000
   20       13.617878   0.000000
 
  0.4285714E+00  0.4285714E+00  0.5551115E-16  0.2915452E-02
    1      -18.471542   1.000000
    2      -18.471506   1.000000
    3       -5.427093   1.000000
    4       -5.427070   1.000000
    5       -4.694397   1.000000
    6       -4.694389   1.000000
    7       -4.397625   1.000000
    8       -4.397615   1.000000
    9        5.362147   0.000000
   10        5.362430   0.000000
   11        6.652746   0.000000
   12        6.652759   0.000000
   13        8.998106   0.000000
   14        8.998131   0.000000
   15       12.267919   0.000000
   16       12.267931   0.000000
   17       12.374964   0.000000
   18       12.374974   0.000000
   19       13.462320   0.000000
   20       13.462340   0.000000
 
 -0.4285714E+00  0.4285714E+00 -0.4448017E-16  0.2915452E-02
    1      -18.462690   1.000000
    2      -18.462655   1.000000
    3       -5.423654   1.000000
    4       -5.423632   1.000000
    5       -4.753698   1.000000
    6       -4.753680   1.000000
    7       -4.446592   1.000000
    8       -4.446578   1.000000
    9        5.600663   0.000000
   10        5.600952   0.000000
   11        6.788869   0.000000
   12        6.788888   0.000000
   13        8.968775   0.000000
   14        8.968799   0.000000
   15       11.708165   0.000000
   16       11.708169   0.000000
   17       12.068751   0.000000
   18       12.068801   0.000000
   19       13.794987   0.000000
   20       13.795002   0.000000
 
 -0.2857143E+00  0.4285714E+00 -0.6938894E-17  0.2915452E-02
    1      -18.473828   1.000000
    2      -18.473793   1.000000
    3       -5.372505   1.000000
    4       -5.372481   1.000000
    5       -4.784930   1.000000
    6       -4.784905   1.000000
    7       -4.390520   1.000000
    8       -4.390499   1.000000
    9        6.270093   0.000000
   10        6.270312   0.000000
   11        7.026828   0.000000
   12        7.026951   0.000000
   13        8.306973   0.000000
   14        8.306992   0.000000
   15       10.364224   0.000000
   16       10.364226   0.000000
   17       11.792793   0.000000
   18       11.792837   0.000000
   19       13.154402   0.000000
   20       13.154414   0.000000
 
 -0.1428571E+00  0.4285714E+00  0.0000000E+00  0.2915452E-02
    1      -18.496321   1.000000
    2      -18.496286   1.000000
    3       -5.464227   1.000000
    4       -5.464196   1.000000
    5       -4.600644   1.000000
    6       -4.600628   1.000000
    7       -4.234764   1.000000
    8       -4.234751   1.000000
    9        5.866364   0.000000
   10        5.866378   0.000000
   11        7.443413   0.000000
   12        7.443770   0.000000
   13        8.596994   0.000000
   14        8.597009   0.000000
   15        9.351506   0.000000
   16        9.351508   0.000000
   17       12.956642   0.000000
   18       12.956651   0.000000
   19       13.145531   0.000000
   20       13.145601   0.000000
 
  0.1540744E-32 -0.4285714E+00  0.0000000E+00  0.2915452E-02
    1      -18.513261   1.000000
    2      -18.513225   1.000000
    3       -5.481501   1.000000
    4       -5.481469   1.000000
    5       -4.491558   1.000000
    6       -4.491549   1.000000
    7       -4.129762   1.000000
    8       -4.129751   1.000000
    9        5.329897   0.000000
   10        5.329931   0.000000
   11        7.865941   0.000000
   12        7.866266   0.000000
   13        9.038305   0.000000
   14        9.038306   0.000000
   15        9.055307   0.000000
   16        9.055308   0.000000
   17       12.556861   0.000000
   18       12.557187   0.000000
   19       13.116482   0.000000
   20       13.124316   0.000000
 
  0.1428571E+00 -0.4285714E+00 -0.5551115E-16  0.2915452E-02
    1      -18.496321   1.000000
    2      -18.496286   1.000000
    3       -5.464227   1.000000
    4       -5.464196   1.000000
    5       -4.600644   1.000000
    6       -4.600628   1.000000
    7       -4.234764   1.000000
    8       -4.234751   1.000000
    9        5.866364   0.000000
   10        5.866378   0.000000
   11        7.443413   0.000000
   12        7.443770   0.000000
   13        8.596994   0.000000
   14        8.597009   0.000000
   15        9.351506   0.000000
   16        9.351508   0.000000
   17       12.956642   0.000000
   18       12.956651   0.000000
   19       13.145531   0.000000
   20       13.145601   0.000000
 
  0.2857143E+00 -0.4285714E+00  0.6938894E-17  0.2915452E-02
    1      -18.473828   1.000000
    2      -18.473793   1.000000
    3       -5.372505   1.000000
    4       -5.372481   1.000000
    5       -4.784930   1.000000
    6       -4.784905   1.000000
    7       -4.390520   1.000000
    8       -4.390499   1.000000
    9        6.270093   0.000000
   10        6.270312   0.000000
   11        7.026828   0.000000
   12        7.026951   0.000000
   13        8.306973   0.000000
   14        8.306992   0.000000
   15       10.364224   0.000000
   16       10.364226   0.000000
   17       11.792793   0.000000
   18       11.792837   0.000000
   19       13.154402   0.000000
   20       13.154414   0.000000
 
  0.4285714E+00 -0.4285714E+00  0.4448017E-16  0.2915452E-02
    1      -18.462690   1.000000
    2      -18.462655   1.000000
    3       -5.423654   1.000000
    4       -5.423632   1.000000
    5       -4.753698   1.000000
    6       -4.753680   1.000000
    7       -4.446592   1.000000
    8       -4.446578   1.000000
    9        5.600663   0.000000
   10        5.600952   0.000000
   11        6.788869   0.000000
   12        6.788888   0.000000
   13        8.968775   0.000000
   14        8.968799   0.000000
   15       11.708165   0.000000
   16       11.708169   0.000000
   17       12.068751   0.000000
   18       12.068801   0.000000
   19       13.794987   0.000000
   20       13.795002   0.000000
 
 -0.4285714E+00 -0.4285714E+00 -0.5551115E-16  0.2915452E-02
    1      -18.471542   1.000000
    2      -18.471506   1.000000
    3       -5.427093   1.000000
    4       -5.427070   1.000000
    5       -4.694397   1.000000
    6       -4.694389   1.000000
    7       -4.397625   1.000000
    8       -4.397615   1.000000
    9        5.362147   0.000000
   10        5.362430   0.000000
   11        6.652746   0.000000
   12        6.652759   0.000000
   13        8.998106   0.000000
   14        8.998131   0.000000
   15       12.267919   0.000000
   16       12.267931   0.000000
   17       12.374964   0.000000
   18       12.374974   0.000000
   19       13.462320   0.000000
   20       13.462340   0.000000
 
 -0.2857143E+00 -0.4285714E+00  0.2775558E-16  0.2915452E-02
    1      -18.493634   1.000000
    2      -18.493599   1.000000
    3       -5.331908   1.000000
    4       -5.331885   1.000000
    5       -4.645934   1.000000
    6       -4.645919   1.000000
    7       -4.354995   1.000000
    8       -4.354983   1.000000
    9        5.623260   0.000000
   10        5.623511   0.000000
   11        7.058929   0.000000
   12        7.058956   0.000000
   13        8.279156   0.000000
   14        8.279195   0.000000
   15       10.815786   0.000000
   16       10.815795   0.000000
   17       11.743162   0.000000
   18       11.743198   0.000000
   19       13.617872   0.000000
   20       13.617878   0.000000
 
 -0.1428571E+00 -0.4285714E+00 -0.5551115E-16  0.2915452E-02
    1      -18.512128   1.000000
    2      -18.512093   1.000000
    3       -5.372212   1.000000
    4       -5.372183   1.000000
    5       -4.551392   1.000000
    6       -4.551381   1.000000
    7       -4.220841   1.000000
    8       -4.220830   1.000000
    9        5.567135   0.000000
   10        5.567234   0.000000
   11        7.500316   0.000000
   12        7.500533   0.000000
   13        8.512301   0.000000
   14        8.512321   0.000000
   15        9.564758   0.000000
   16        9.564763   0.000000
   17       11.975414   0.000000
   18       11.975465   0.000000
   19       13.451222   0.000000
   20       13.451225   0.000000
 
  0.1155558E-32 -0.2857143E+00  0.2775558E-16  0.2915452E-02
    1      -18.560163   1.000000
    2      -18.560127   1.000000
    3       -5.161232   1.000000
    4       -5.161204   1.000000
    5       -4.395512   1.000000
    6       -4.395503   1.000000
    7       -4.081307   1.000000
    8       -4.081296   1.000000
    9        4.619245   0.000000
   10        4.619378   0.000000
   11        7.935569   0.000000
   12        7.935675   0.000000
   13        9.403689   0.000000
   14        9.403692   0.000000
   15        9.421554   0.000000
   16        9.421556   0.000000
   17       11.637287   0.000000
   18       11.637289   0.000000
   19       11.657213   0.000000
   20       11.657217   0.000000
 
  0.1428571E+00 -0.2857143E+00 -0.6938894E-17  0.2915452E-02
    1      -18.527666   1.000000
    2      -18.527631   1.000000
    3       -5.277774   1.000000
    4       -5.277746   1.000000
    5       -4.538974   1.000000
    6       -4.538955   1.000000
    7       -4.176967   1.000000
    8       -4.176952   1.000000
    9        5.350933   0.000000
   10        5.351055   0.000000
   11        7.724394   0.000000
   12        7.724534   0.000000
   13        8.502834   0.000000
   14        8.502908   0.000000
   15        9.563762   0.000000
   16        9.563765   0.000000
   17       11.227032   0.000000
   18       11.227043   0.000000
   19       13.368893   0.000000
   20       13.369047   0.000000
 
  0.2857143E+00 -0.2857143E+00 -0.2710029E-16  0.2915452E-02
    1      -18.489149   1.000000
    2      -18.489114   1.000000
    3       -5.324071   1.000000
    4       -5.324046   1.000000
    5       -4.771604   1.000000
    6       -4.771577   1.000000
    7       -4.309974   1.000000
    8       -4.309952   1.000000
    9        6.485772   0.000000
   10        6.485881   0.000000
   11        7.149981   0.000000
   12        7.150233   0.000000
   13        7.916096   0.000000
   14        7.916115   0.000000
   15        9.984421   0.000000
   16        9.984428   0.000000
   17       11.689180   0.000000
   18       11.689198   0.000000
   19       12.741519   0.000000
   20       12.741527   0.000000
 
  0.4285714E+00 -0.2857143E+00  0.4163336E-16  0.2915452E-02
    1      -18.473828   1.000000
    2      -18.473793   1.000000
    3       -5.372505   1.000000
    4       -5.372481   1.000000
    5       -4.784930   1.000000
    6       -4.784905   1.000000
    7       -4.390519   1.000000
    8       -4.390499   1.000000
    9        6.270093   0.000000
   10        6.270312   0.000000
   11        7.026828   0.000000
   12        7.026951   0.000000
   13        8.306973   0.000000
   14        8.306992   0.000000
   15       10.364224   0.000000
   16       10.364227   0.000000
   17       11.792793   0.000000
   18       11.792837   0.000000
   19       13.154402   0.000000
   20       13.154414   0.000000
 
 -0.4285714E+00 -0.2857143E+00 -0.2775558E-16  0.2915452E-02
    1      -18.493634   1.000000
    2      -18.493599   1.000000
    3       -5.331909   1.000000
    4       -5.331885   1.000000
    5       -4.645934   1.000000
    6       -4.645920   1.000000
    7       -4.354994   1.000000
    8       -4.354985   1.000000
    9        5.623260   0.000000
   10        5.623511   0.000000
   11        7.058929   0.000000
   12        7.058956   0.000000
   13        8.279156   0.000000
   14        8.279195   0.000000
   15       10.815786   0.000000
   16       10.815795   0.000000
   17       11.743162   0.000000
   18       11.743198   0.000000
   19       13.617872   0.000000
   20       13.617878   0.000000
 
 -0.2857143E+00 -0.2857143E+00  0.0000000E+00  0.2915452E-02
    1      -18.533252   1.000000
    2      -18.533217   1.000000
    3       -5.162619   1.000000
    4       -5.162597   1.000000
    5       -4.512132   1.000000
    6       -4.512122   1.000000
    7       -4.257844   1.000000
    8       -4.257834   1.000000
    9        5.034989   0.000000
   10        5.035204   0.000000
   11        7.288403   0.000000
   12        7.288416   0.000000
   13        8.567989   0.000000
   14        8.568046   0.000000
   15       10.710035   0.000000
   16       10.710044   0.000000
   17       10.767900   0.000000
   18       10.767909   0.000000
   19       12.671825   0.000000
   20       12.671839   0.000000
 
 -0.1428571E+00 -0.2857143E+00  0.0000000E+00  0.2915452E-02
    1      -18.562645   1.000000
    2      -18.562609   1.000000
    3       -5.068327   1.000000