<?xml version="1.0" encoding="ISO-8859-1"?>
<modeling>
 <generator>
  <i name="program" type="string">vasp </i>
  <i name="version" type="string">5.4.4.18Apr17-6-g9f103f2a35  </i>
  <i name="subversion" type="string">(build Nov 03 2018 10:20:46) complex            parallel </i>
  <i name="platform" type="string">LinuxIFC </i>
  <i name="date" type="string">2018 12 05 </i>
  <i name="time" type="string">20:14:55 </i>
 </generator>
 <incar>
  <i type="string" name="SYSTEM">   Og_FCC</i>
  <i type="string" name="PREC">accurate</i>
  <i type="string" name="ALGO">   Normal</i>
  <i type="logical" name="ADDGRID"> T  </i>
  <i type="logical" name="LSORBIT"> T  </i>
  <i type="int" name="ISPIN">     1</i>
  <i type="int" name="MAXMIX">    50</i>
  <i type="int" name="NELM">    50</i>
  <i type="int" name="NELMDL">    -5</i>
  <i type="int" name="NELMIN">     2</i>
  <i type="int" name="IBRION">    -1</i>
  <i type="int" name="NFREE">     5</i>
  <i name="EDIFF">      0.00000001</i>
  <i name="EDIFFG">      0.00001000</i>
  <i type="int" name="NSW">     1</i>
  <i type="int" name="ISIF">     3</i>
  <i type="int" name="ISYM">     0</i>
  <i name="SYMPREC">      0.00000010</i>
  <i name="ENCUT">    300.00000000</i>
  <i name="POTIM">      0.10000000</i>
  <i type="logical" name="LREAL"> F  </i>
  <i type="int" name="ISMEAR">     0</i>
  <i name="SIGMA">      0.00100000</i>
  <i type="int" name="NWRITE">     2</i>
  <i type="logical" name="LWAVE"> T  </i>
  <i type="logical" name="LCHARG"> F  </i>
  <i type="logical" name="LVTOT"> F  </i>
  <i type="logical" name="LOPTICS"> T  </i>
  <i type="logical" name="GGA_COMPAT"> F  </i>
  <v type="int" name="KPOINT_BSE">    -1     0     0     0</v>
  <i type="int" name="NELM">    50</i>
  <i type="string" name="GGA"> PE</i>
 </incar>
 <structure name="primitive_cell" >
  <crystal>
   <varray name="basis" >
    <v>       4.11534301       0.00000000       0.00000000 </v>
    <v>       2.05767151       3.56399159      -0.00000000 </v>
    <v>       2.05767151       1.18799720       3.36016350 </v>
   </varray>
   <i name="volume">     49.28367901 </i>
   <varray name="rec_basis" >
    <v>       0.24299311      -0.14029214      -0.09920152 </v>
    <v>       0.00000000       0.28058428      -0.09920152 </v>
    <v>      -0.00000000       0.00000000       0.29760457 </v>
   </varray>
  </crystal>
  <varray name="positions" >
   <v>       0.00000000       0.00000000       0.00000000 </v>
  </varray>
 </structure>
 <varray name="primitive_index" >
  <v type="int" >        1 </v>
 </varray>
 <kpoints>
  <generation param="Gamma">
   <v type="int" name="divisions">       7        7        7 </v>
   <v name="usershift">      0.00000000       0.00000000       0.00000000 </v>
   <v name="genvec1">      0.14285714       0.00000000       0.00000000 </v>
   <v name="genvec2">     -0.00000000       0.14285714       0.00000000 </v>
   <v name="genvec3">     -0.00000000       0.00000000       0.14285714 </v>
   <v name="shift">      0.00000000       0.00000000       0.00000000 </v>
  </generation>
  <varray name="kpointlist" >
   <v>       0.00000000       0.00000000       0.00000000 </v>
   <v>       0.14285714      -0.00000000      -0.00000000 </v>
   <v>       0.28571429      -0.00000000      -0.00000000 </v>
   <v>       0.42857143      -0.00000000       0.00000000 </v>
   <v>      -0.42857143       0.00000000       0.00000000 </v>
   <v>      -0.28571429       0.00000000       0.00000000 </v>
   <v>      -0.14285714       0.00000000      -0.00000000 </v>
   <v>      -0.00000000       0.14285714       0.00000000 </v>
   <v>       0.14285714       0.14285714      -0.00000000 </v>
   <v>       0.28571429       0.14285714      -0.00000000 </v>
   <v>       0.42857143       0.14285714       0.00000000 </v>
   <v>      -0.42857143       0.14285714      -0.00000000 </v>
   <v>      -0.28571429       0.14285714       0.00000000 </v>
   <v>      -0.14285714       0.14285714      -0.00000000 </v>
   <v>      -0.00000000       0.28571429      -0.00000000 </v>
   <v>       0.14285714       0.28571429      -0.00000000 </v>
   <v>       0.28571429       0.28571429       0.00000000 </v>
   <v>       0.42857143       0.28571429       0.00000000 </v>
   <v>      -0.42857143       0.28571429      -0.00000000 </v>
   <v>      -0.28571429       0.28571429       0.00000000 </v>
   <v>      -0.14285714       0.28571429      -0.00000000 </v>
   <v>      -0.00000000       0.42857143       0.00000000 </v>
   <v>       0.14285714       0.42857143      -0.00000000 </v>
   <v>       0.28571429       0.42857143      -0.00000000 </v>
   <v>       0.42857143       0.42857143       0.00000000 </v>
   <v>      -0.42857143       0.42857143      -0.00000000 </v>
   <v>      -0.28571429       0.42857143      -0.00000000 </v>
   <v>      -0.14285714       0.42857143       0.00000000 </v>
   <v>       0.00000000      -0.42857143       0.00000000 </v>
   <v>       0.14285714      -0.42857143      -0.00000000 </v>
   <v>       0.28571429      -0.42857143       0.00000000 </v>
   <v>       0.42857143      -0.42857143       0.00000000 </v>
   <v>      -0.42857143      -0.42857143      -0.00000000 </v>
   <v>      -0.28571429      -0.42857143       0.00000000 </v>
   <v>      -0.14285714      -0.42857143      -0.00000000 </v>
   <v>       0.00000000      -0.28571429       0.00000000 </v>
   <v>       0.14285714      -0.28571429      -0.00000000 </v>
   <v>       0.28571429      -0.28571429      -0.00000000 </v>
   <v>       0.42857143      -0.28571429       0.00000000 </v>
   <v>      -0.42857143      -0.28571429      -0.00000000 </v>
   <v>      -0.28571429      -0.28571429       0.00000000 </v>
   <v>      -0.14285714      -0.28571429       0.00000000 </v>
   <v>       0.00000000      -0.14285714       0.00000000 </v>
   <v>       0.14285714      -0.14285714       0.00000000 </v>
   <v>       0.28571429      -0.14285714      -0.00000000 </v>
   <v>       0.42857143      -0.14285714       0.00000000 </v>
   <v>      -0.42857143      -0.14285714      -0.00000000 </v>
   <v>      -0.28571429      -0.14285714       0.00000000 </v>
   <v>      -0.14285714      -0.14285714       0.00000000 </v>
   <v>       0.00000000      -0.00000000       0.14285714 </v>
   <v>       0.14285714       0.00000000       0.14285714 </v>
   <v>       0.28571429      -0.00000000       0.14285714 </v>
   <v>       0.42857143      -0.00000000       0.14285714 </v>
   <v>      -0.42857143       0.00000000       0.14285714 </v>
   <v>      -0.28571429       0.00000000       0.14285714 </v>
   <v>      -0.14285714       0.00000000       0.14285714 </v>
   <v>       0.00000000       0.14285714       0.14285714 </v>
   <v>       0.14285714       0.14285714       0.14285714 </v>
   <v>       0.28571429       0.14285714       0.14285714 </v>
   <v>       0.42857143       0.14285714       0.14285714 </v>
   <v>      -0.42857143       0.14285714       0.14285714 </v>
   <v>      -0.28571429       0.14285714       0.14285714 </v>
   <v>      -0.14285714       0.14285714       0.14285714 </v>
   <v>       0.00000000       0.28571429       0.14285714 </v>
   <v>       0.14285714       0.28571429       0.14285714 </v>
   <v>       0.28571429       0.28571429       0.14285714 </v>
   <v>       0.42857143       0.28571429       0.14285714 </v>
   <v>      -0.42857143       0.28571429       0.14285714 </v>
   <v>      -0.28571429       0.28571429       0.14285714 </v>
   <v>      -0.14285714       0.28571429       0.14285714 </v>
   <v>      -0.00000000       0.42857143       0.14285714 </v>
   <v>       0.14285714       0.42857143       0.14285714 </v>
   <v>       0.28571429       0.42857143       0.14285714 </v>
   <v>       0.42857143       0.42857143       0.14285714 </v>
   <v>      -0.42857143       0.42857143       0.14285714 </v>
   <v>      -0.28571429       0.42857143       0.14285714 </v>
   <v>      -0.14285714       0.42857143       0.14285714 </v>
   <v>       0.00000000      -0.42857143       0.14285714 </v>
   <v>       0.14285714      -0.42857143       0.14285714 </v>
   <v>       0.28571429      -0.42857143       0.14285714 </v>
   <v>       0.42857143      -0.42857143       0.14285714 </v>
   <v>      -0.42857143      -0.42857143       0.14285714 </v>
   <v>      -0.28571429      -0.42857143       0.14285714 </v>
   <v>      -0.14285714      -0.42857143       0.14285714 </v>
   <v>       0.00000000      -0.28571429       0.14285714 </v>
   <v>       0.14285714      -0.28571429       0.14285714 </v>
   <v>       0.28571429      -0.28571429       0.14285714 </v>
   <v>       0.42857143      -0.28571429       0.14285714 </v>
   <v>      -0.42857143      -0.28571429       0.14285714 </v>
   <v>      -0.28571429      -0.28571429       0.14285714 </v>
   <v>      -0.14285714      -0.28571429       0.14285714 </v>
   <v>       0.00000000      -0.14285714       0.14285714 </v>
   <v>       0.14285714      -0.14285714       0.14285714 </v>
   <v>       0.28571429      -0.14285714       0.14285714 </v>
   <v>       0.42857143      -0.14285714       0.14285714 </v>
   <v>      -0.42857143      -0.14285714       0.14285714 </v>
   <v>      -0.28571429      -0.14285714       0.14285714 </v>
   <v>      -0.14285714      -0.14285714       0.14285714 </v>
   <v>       0.00000000      -0.00000000       0.28571429 </v>
   <v>       0.14285714       0.00000000       0.28571429 </v>
   <v>       0.28571429       0.00000000       0.28571429 </v>
   <v>       0.42857143       0.00000000       0.28571429 </v>
   <v>      -0.42857143       0.00000000       0.28571429 </v>
   <v>      -0.28571429       0.00000000       0.28571429 </v>
   <v>      -0.14285714       0.00000000       0.28571429 </v>
   <v>       0.00000000       0.14285714       0.28571429 </v>
   <v>       0.14285714       0.14285714       0.28571429 </v>
   <v>       0.28571429       0.14285714       0.28571429 </v>
   <v>       0.42857143       0.14285714       0.28571429 </v>
   <v>      -0.42857143       0.14285714       0.28571429 </v>
   <v>      -0.28571429       0.14285714       0.28571429 </v>
   <v>      -0.14285714       0.14285714       0.28571429 </v>
   <v>       0.00000000       0.28571429       0.28571429 </v>
   <v>       0.14285714       0.28571429       0.28571429 </v>
   <v>       0.28571429       0.28571429       0.28571429 </v>
   <v>       0.42857143       0.28571429       0.28571429 </v>
   <v>      -0.42857143       0.28571429       0.28571429 </v>
   <v>      -0.28571429       0.28571429       0.28571429 </v>
   <v>      -0.14285714       0.28571429       0.28571429 </v>
   <v>       0.00000000       0.42857143       0.28571429 </v>
   <v>       0.14285714       0.42857143       0.28571429 </v>
   <v>       0.28571429       0.42857143       0.28571429 </v>
   <v>       0.42857143       0.42857143       0.28571429 </v>
   <v>      -0.42857143       0.42857143       0.28571429 </v>
   <v>      -0.28571429       0.42857143       0.28571429 </v>
   <v>      -0.14285714       0.42857143       0.28571429 </v>
   <v>       0.00000000      -0.42857143       0.28571429 </v>
   <v>       0.14285714      -0.42857143       0.28571429 </v>
   <v>       0.28571429      -0.42857143       0.28571429 </v>
   <v>       0.42857143      -0.42857143       0.28571429 </v>
   <v>      -0.42857143      -0.42857143       0.28571429 </v>
   <v>      -0.28571429      -0.42857143       0.28571429 </v>
   <v>      -0.14285714      -0.42857143       0.28571429 </v>
   <v>       0.00000000      -0.28571429       0.28571429 </v>
   <v>       0.14285714      -0.28571429       0.28571429 </v>
   <v>       0.28571429      -0.28571429       0.28571429 </v>
   <v>       0.42857143      -0.28571429       0.28571429 </v>
   <v>      -0.42857143      -0.28571429       0.28571429 </v>
   <v>      -0.28571429      -0.28571429       0.28571429 </v>
   <v>      -0.14285714      -0.28571429       0.28571429 </v>
   <v>       0.00000000      -0.14285714       0.28571429 </v>
   <v>       0.14285714      -0.14285714       0.28571429 </v>
   <v>       0.28571429      -0.14285714       0.28571429 </v>
   <v>       0.42857143      -0.14285714       0.28571429 </v>
   <v>      -0.42857143      -0.14285714       0.28571429 </v>
   <v>      -0.28571429      -0.14285714       0.28571429 </v>
   <v>      -0.14285714      -0.14285714       0.28571429 </v>
   <v>       0.00000000       0.00000000       0.42857143 </v>
   <v>       0.14285714       0.00000000       0.42857143 </v>
   <v>       0.28571429       0.00000000       0.42857143 </v>
   <v>       0.42857143       0.00000000       0.42857143 </v>
   <v>      -0.42857143       0.00000000       0.42857143 </v>
   <v>      -0.28571429       0.00000000       0.42857143 </v>
   <v>      -0.14285714       0.00000000       0.42857143 </v>
   <v>      -0.00000000       0.14285714       0.42857143 </v>
   <v>       0.14285714       0.14285714       0.42857143 </v>
   <v>       0.28571429       0.14285714       0.42857143 </v>
   <v>       0.42857143       0.14285714       0.42857143 </v>
   <v>      -0.42857143       0.14285714       0.42857143 </v>
   <v>      -0.28571429       0.14285714       0.42857143 </v>
   <v>      -0.14285714       0.14285714       0.42857143 </v>
   <v>       0.00000000       0.28571429       0.42857143 </v>
   <v>       0.14285714       0.28571429       0.42857143 </v>
   <v>       0.28571429       0.28571429       0.42857143 </v>
   <v>       0.42857143       0.28571429       0.42857143 </v>
   <v>      -0.42857143       0.28571429       0.42857143 </v>
   <v>      -0.28571429       0.28571429       0.42857143 </v>
   <v>      -0.14285714       0.28571429       0.42857143 </v>
   <v>       0.00000000       0.42857143       0.42857143 </v>
   <v>       0.14285714       0.42857143       0.42857143 </v>
   <v>       0.28571429       0.42857143       0.42857143 </v>
   <v>       0.42857143       0.42857143       0.42857143 </v>
   <v>      -0.42857143       0.42857143       0.42857143 </v>
   <v>      -0.28571429       0.42857143       0.42857143 </v>
   <v>      -0.14285714       0.42857143       0.42857143 </v>
   <v>       0.00000000      -0.42857143       0.42857143 </v>
   <v>       0.14285714      -0.42857143       0.42857143 </v>
   <v>       0.28571429      -0.42857143       0.42857143 </v>
   <v>       0.42857143      -0.42857143       0.42857143 </v>
   <v>      -0.42857143      -0.42857143       0.42857143 </v>
   <v>      -0.28571429      -0.42857143       0.42857143 </v>
   <v>      -0.14285714      -0.42857143       0.42857143 </v>
   <v>       0.00000000      -0.28571429       0.42857143 </v>
   <v>       0.14285714      -0.28571429       0.42857143 </v>
   <v>       0.28571429      -0.28571429       0.42857143 </v>
   <v>       0.42857143      -0.28571429       0.42857143 </v>
   <v>      -0.42857143      -0.28571429       0.42857143 </v>
   <v>      -0.28571429      -0.28571429       0.42857143 </v>
   <v>      -0.14285714      -0.28571429       0.42857143 </v>
   <v>       0.00000000      -0.14285714       0.42857143 </v>
   <v>       0.14285714      -0.14285714       0.42857143 </v>
   <v>       0.28571429      -0.14285714       0.42857143 </v>
   <v>       0.42857143      -0.14285714       0.42857143 </v>
   <v>      -0.42857143      -0.14285714       0.42857143 </v>
   <v>      -0.28571429      -0.14285714       0.42857143 </v>
   <v>      -0.14285714      -0.14285714       0.42857143 </v>
   <v>      -0.00000000      -0.00000000      -0.42857143 </v>
   <v>       0.14285714      -0.00000000      -0.42857143 </v>
   <v>       0.28571429      -0.00000000      -0.42857143 </v>
   <v>       0.42857143      -0.00000000      -0.42857143 </v>
   <v>      -0.42857143      -0.00000000      -0.42857143 </v>
   <v>      -0.28571429      -0.00000000      -0.42857143 </v>
   <v>      -0.14285714      -0.00000000      -0.42857143 </v>
   <v>      -0.00000000       0.14285714      -0.42857143 </v>
   <v>       0.14285714       0.14285714      -0.42857143 </v>
   <v>       0.28571429       0.14285714      -0.42857143 </v>
   <v>       0.42857143       0.14285714      -0.42857143 </v>
   <v>      -0.42857143       0.14285714      -0.42857143 </v>
   <v>      -0.28571429       0.14285714      -0.42857143 </v>
   <v>      -0.14285714       0.14285714      -0.42857143 </v>
   <v>      -0.00000000       0.28571429      -0.42857143 </v>
   <v>       0.14285714       0.28571429      -0.42857143 </v>
   <v>       0.28571429       0.28571429      -0.42857143 </v>
   <v>       0.42857143       0.28571429      -0.42857143 </v>
   <v>      -0.42857143       0.28571429      -0.42857143 </v>
   <v>      -0.28571429       0.28571429      -0.42857143 </v>
   <v>      -0.14285714       0.28571429      -0.42857143 </v>
   <v>      -0.00000000       0.42857143      -0.42857143 </v>
   <v>       0.14285714       0.42857143      -0.42857143 </v>
   <v>       0.28571429       0.42857143      -0.42857143 </v>
   <v>       0.42857143       0.42857143      -0.42857143 </v>
   <v>      -0.42857143       0.42857143      -0.42857143 </v>
   <v>      -0.28571429       0.42857143      -0.42857143 </v>
   <v>      -0.14285714       0.42857143      -0.42857143 </v>
   <v>      -0.00000000      -0.42857143      -0.42857143 </v>
   <v>       0.14285714      -0.42857143      -0.42857143 </v>
   <v>       0.28571429      -0.42857143      -0.42857143 </v>
   <v>       0.42857143      -0.42857143      -0.42857143 </v>
   <v>      -0.42857143      -0.42857143      -0.42857143 </v>
   <v>      -0.28571429      -0.42857143      -0.42857143 </v>
   <v>      -0.14285714      -0.42857143      -0.42857143 </v>
   <v>      -0.00000000      -0.28571429      -0.42857143 </v>
   <v>       0.14285714      -0.28571429      -0.42857143 </v>
   <v>       0.28571429      -0.28571429      -0.42857143 </v>
   <v>       0.42857143      -0.28571429      -0.42857143 </v>
   <v>      -0.42857143      -0.28571429      -0.42857143 </v>
   <v>      -0.28571429      -0.28571429      -0.42857143 </v>
   <v>      -0.14285714      -0.28571429      -0.42857143 </v>
   <v>      -0.00000000      -0.14285714      -0.42857143 </v>
   <v>       0.14285714      -0.14285714      -0.42857143 </v>
   <v>       0.28571429      -0.14285714      -0.42857143 </v>
   <v>       0.42857143      -0.14285714      -0.42857143 </v>
   <v>      -0.42857143      -0.14285714      -0.42857143 </v>
   <v>      -0.28571429      -0.14285714      -0.42857143 </v>
   <v>      -0.14285714      -0.14285714      -0.42857143 </v>
   <v>      -0.00000000       0.00000000      -0.28571429 </v>
   <v>       0.14285714      -0.00000000      -0.28571429 </v>
   <v>       0.28571429      -0.00000000      -0.28571429 </v>
   <v>       0.42857143      -0.00000000      -0.28571429 </v>
   <v>      -0.42857143      -0.00000000      -0.28571429 </v>
   <v>      -0.28571429      -0.00000000      -0.28571429 </v>
   <v>      -0.14285714      -0.00000000      -0.28571429 </v>
   <v>      -0.00000000       0.14285714      -0.28571429 </v>
   <v>       0.14285714       0.14285714      -0.28571429 </v>
   <v>       0.28571429       0.14285714      -0.28571429 </v>
   <v>       0.42857143       0.14285714      -0.28571429 </v>
   <v>      -0.42857143       0.14285714      -0.28571429 </v>
   <v>      -0.28571429       0.14285714      -0.28571429 </v>
   <v>      -0.14285714       0.14285714      -0.28571429 </v>
   <v>      -0.00000000       0.28571429      -0.28571429 </v>
   <v>       0.14285714       0.28571429      -0.28571429 </v>
   <v>       0.28571429       0.28571429      -0.28571429 </v>
   <v>       0.42857143       0.28571429      -0.28571429 </v>
   <v>      -0.42857143       0.28571429      -0.28571429 </v>
   <v>      -0.28571429       0.28571429      -0.28571429 </v>
   <v>      -0.14285714       0.28571429      -0.28571429 </v>
   <v>      -0.00000000       0.42857143      -0.28571429 </v>
   <v>       0.14285714       0.42857143      -0.28571429 </v>
   <v>       0.28571429       0.42857143      -0.28571429 </v>
   <v>       0.42857143       0.42857143      -0.28571429 </v>
   <v>      -0.42857143       0.42857143      -0.28571429 </v>
   <v>      -0.28571429       0.42857143      -0.28571429 </v>
   <v>      -0.14285714       0.42857143      -0.28571429 </v>
   <v>      -0.00000000      -0.42857143      -0.28571429 </v>
   <v>       0.14285714      -0.42857143      -0.28571429 </v>
   <v>       0.28571429      -0.42857143      -0.28571429 </v>
   <v>       0.42857143      -0.42857143      -0.28571429 </v>
   <v>      -0.42857143      -0.42857143      -0.28571429 </v>
   <v>      -0.28571429      -0.42857143      -0.28571429 </v>
   <v>      -0.14285714      -0.42857143      -0.28571429 </v>
   <v>      -0.00000000      -0.28571429      -0.28571429 </v>
   <v>       0.14285714      -0.28571429      -0.28571429 </v>
   <v>       0.28571429      -0.28571429      -0.28571429 </v>
   <v>       0.42857143      -0.28571429      -0.28571429 </v>
   <v>      -0.42857143      -0.28571429      -0.28571429 </v>
   <v>      -0.28571429      -0.28571429      -0.28571429 </v>
   <v>      -0.14285714      -0.28571429      -0.28571429 </v>
   <v>      -0.00000000      -0.14285714      -0.28571429 </v>
   <v>       0.14285714      -0.14285714      -0.28571429 </v>
   <v>       0.28571429      -0.14285714      -0.28571429 </v>
   <v>       0.42857143      -0.14285714      -0.28571429 </v>
   <v>      -0.42857143      -0.14285714      -0.28571429 </v>
   <v>      -0.28571429      -0.14285714      -0.28571429 </v>
   <v>      -0.14285714      -0.14285714      -0.28571429 </v>
   <v>      -0.00000000       0.00000000      -0.14285714 </v>
   <v>       0.14285714      -0.00000000      -0.14285714 </v>
   <v>       0.28571429      -0.00000000      -0.14285714 </v>
   <v>       0.42857143      -0.00000000      -0.14285714 </v>
   <v>      -0.42857143       0.00000000      -0.14285714 </v>
   <v>      -0.28571429       0.00000000      -0.14285714 </v>
   <v>      -0.14285714      -0.00000000      -0.14285714 </v>
   <v>      -0.00000000       0.14285714      -0.14285714 </v>
   <v>       0.14285714       0.14285714      -0.14285714 </v>
   <v>       0.28571429       0.14285714      -0.14285714 </v>
   <v>       0.42857143       0.14285714      -0.14285714 </v>
   <v>      -0.42857143       0.14285714      -0.14285714 </v>
   <v>      -0.28571429       0.14285714      -0.14285714 </v>
   <v>      -0.14285714       0.14285714      -0.14285714 </v>
   <v>      -0.00000000       0.28571429      -0.14285714 </v>
   <v>       0.14285714       0.28571429      -0.14285714 </v>
   <v>       0.28571429       0.28571429      -0.14285714 </v>
   <v>       0.42857143       0.28571429      -0.14285714 </v>
   <v>      -0.42857143       0.28571429      -0.14285714 </v>
   <v>      -0.28571429       0.28571429      -0.14285714 </v>
   <v>      -0.14285714       0.28571429      -0.14285714 </v>
   <v>      -0.00000000       0.42857143      -0.14285714 </v>
   <v>       0.14285714       0.42857143      -0.14285714 </v>
   <v>       0.28571429       0.42857143      -0.14285714 </v>
   <v>       0.42857143       0.42857143      -0.14285714 </v>
   <v>      -0.42857143       0.42857143      -0.14285714 </v>
   <v>      -0.28571429       0.42857143      -0.14285714 </v>
   <v>      -0.14285714       0.42857143      -0.14285714 </v>
   <v>       0.00000000      -0.42857143      -0.14285714 </v>
   <v>       0.14285714      -0.42857143      -0.14285714 </v>
   <v>       0.28571429      -0.42857143      -0.14285714 </v>
   <v>       0.42857143      -0.42857143      -0.14285714 </v>
   <v>      -0.42857143      -0.42857143      -0.14285714 </v>
   <v>      -0.28571429      -0.42857143      -0.14285714 </v>
   <v>      -0.14285714      -0.42857143      -0.14285714 </v>
   <v>      -0.00000000      -0.28571429      -0.14285714 </v>
   <v>       0.14285714      -0.28571429      -0.14285714 </v>
   <v>       0.28571429      -0.28571429      -0.14285714 </v>
   <v>       0.42857143      -0.28571429      -0.14285714 </v>
   <v>      -0.42857143      -0.28571429      -0.14285714 </v>
   <v>      -0.28571429      -0.28571429      -0.14285714 </v>
   <v>      -0.14285714      -0.28571429      -0.14285714 </v>
   <v>      -0.00000000      -0.14285714      -0.14285714 </v>
   <v>       0.14285714      -0.14285714      -0.14285714 </v>
   <v>       0.28571429      -0.14285714      -0.14285714 </v>
   <v>       0.42857143      -0.14285714      -0.14285714 </v>
   <v>      -0.42857143      -0.14285714      -0.14285714 </v>
   <v>      -0.28571429      -0.14285714      -0.14285714 </v>
   <v>      -0.14285714      -0.14285714      -0.14285714 </v>
  </varray>
  <varray name="weights" >
   <v>       0.00291545 </v>
   <v>       0.00291545 </v>
   <v>       0.00291545 </v>
   <v>       0.00291545 </v>
   <v>       0.00291545 </v>
   <v>       0.00291545 </v>
   <v>       0.00291545 </v>
   <v>       0.00291545 </v>
   <v>       0.00291545 </v>
   <v>       0.00291545 </v>
   <v>       0.00291545 </v>
   <v>       0.00291545 </v>
   <v>       0.00291545 </v>
   <v>       0.00291545 </v>
   <v>       0.00291545 </v>
   <v>       0.00291545 </v>
   <v>       0.00291545 </v>
   <v>       0.00291545 </v>
   <v>       0.00291545 </v>
   <v>       0.00291545 </v>
   <v>       0.00291545 </v>
   <v>       0.00291545 </v>
   <v>       0.00291545 </v>
   <v>       0.00291545 </v>
   <v>       0.00291545 </v>
   <v>       0.00291545 </v>
   <v>       0.00291545 </v>
   <v>       0.00291545 </v>
   <v>       0.00291545 </v>
   <v>       0.00291545 </v>
   <v>       0.00291545 </v>
   <v>       0.00291545 </v>
   <v>       0.00291545 </v>
   <v>       0.00291545 </v>
   <v>       0.00291545 </v>
   <v>       0.00291545 </v>
   <v>       0.00291545 </v>
   <v>       0.00291545 </v>
   <v>       0.00291545 </v>
   <v>       0.00291545 </v>
   <v>       0.00291545 </v>
   <v>       0.00291545 </v>
   <v>       0.00291545 </v>
   <v>       0.00291545 </v>
   <v>       0.00291545 </v>
   <v>       0.00291545 </v>
   <v>       0.00291545 </v>
   <v>       0.00291545 </v>
   <v>       0.00291545 </v>
   <v>       0.00291545 </v>
   <v>       0.00291545 </v>
   <v>       0.00291545 </v>
   <v>       0.00291545 </v>
   <v>       0.00291545 </v>
   <v>       0.00291545 </v>
   <v>       0.00291545 </v>
   <v>       0.00291545 </v>
   <v>       0.00291545 </v>
   <v>       0.00291545 </v>
   <v>       0.00291545 </v>
   <v>       0.00291545 </v>
   <v>       0.00291545 </v>
   <v>       0.00291545 </v>
   <v>       0.00291545 </v>
   <v>       0.00291545 </v>
   <v>       0.00291545 </v>
   <v>       0.00291545 </v>
   <v>       0.00291545 </v>
   <v>       0.00291545 </v>
   <v>       0.00291545 </v>
   <v>       0.00291545 </v>
   <v>       0.00291545 </v>
   <v>       0.00291545 </v>
   <v>       0.00291545 </v>
   <v>       0.00291545 </v>
   <v>       0.00291545 </v>
   <v>       0.00291545 </v>
   <v>       0.00291545 </v>
   <v>       0.00291545 </v>
   <v>       0.00291545 </v>
   <v>       0.00291545 </v>
   <v>       0.00291545 </v>
   <v>       0.00291545 </v>
   <v>       0.00291545 </v>
   <v>       0.00291545 </v>
   <v>       0.00291545 </v>
   <v>       0.00291545 </v>
   <v>       0.00291545 </v>
   <v>       0.00291545 </v>
   <v>       0.00291545 </v>
   <v>       0.00291545 </v>
   <v>       0.00291545 </v>
   <v>       0.00291545 </v>
   <v>       0.00291545 </v>
   <v>       0.00291545 </v>
   <v>       0.00291545 </v>
   <v>       0.00291545 </v>
   <v>       0.00291545 </v>
   <v>       0.00291545 </v>
   <v>       0.00291545 </v>
   <v>       0.00291545 </v>
   <v>       0.00291545 </v>
   <v>       0.00291545 </v>
   <v>       0.00291545 </v>
   <v>       0.00291545 </v>
   <v>       0.00291545 </v>
   <v>       0.00291545 </v>
   <v>       0.00291545 </v>
   <v>       0.00291545 </v>
   <v>       0.00291545 </v>
   <v>       0.00291545 </v>
   <v>       0.00291545 </v>
   <v>       0.00291545 </v>
   <v>       0.00291545 </v>
   <v>       0.00291545 </v>
   <v>       0.00291545 </v>
   <v>       0.00291545 </v>
   <v>       0.00291545 </v>
   <v>       0.00291545 </v>
   <v>       0.00291545 </v>
   <v>       0.00291545 </v>
   <v>       0.00291545 </v>
   <v>       0.00291545 </v>
   <v>       0.00291545 </v>
   <v>       0.00291545 </v>
   <v>       0.00291545 </v>
   <v>       0.00291545 </v>
   <v>       0.00291545 </v>
   <v>       0.00291545 </v>
   <v>       0.00291545 </v>
   <v>       0.00291545 </v>
   <v>       0.00291545 </v>
   <v>       0.00291545 </v>
   <v>       0.00291545 </v>
   <v>       0.00291545 </v>
   <v>       0.00291545 </v>
   <v>       0.00291545 </v>
   <v>       0.00291545 </v>
   <v>       0.00291545 </v>
   <v>       0.00291545 </v>
   <v>       0.00291545 </v>
   <v>       0.00291545 </v>
   <v>       0.00291545 </v>
   <v>       0.00291545 </v>
   <v>       0.00291545 </v>
   <v>       0.00291545 </v>
   <v>       0.00291545 </v>
   <v>       0.00291545 </v>
   <v>       0.00291545 </v>
   <v>       0.00291545 </v>
   <v>       0.00291545 </v>
   <v>       0.00291545 </v>
   <v>       0.00291545 </v>
   <v>       0.00291545 </v>
   <v>       0.00291545 </v>
   <v>       0.00291545 </v>
   <v>       0.00291545 </v>
   <v>       0.00291545 </v>
   <v>       0.00291545 </v>
   <v>       0.00291545 </v>
   <v>       0.00291545 </v>
   <v>       0.00291545 </v>
   <v>       0.00291545 </v>
   <v>       0.00291545 </v>
   <v>       0.00291545 </v>
   <v>       0.00291545 </v>
   <v>       0.00291545 </v>
   <v>       0.00291545 </v>
   <v>       0.00291545 </v>
   <v>       0.00291545 </v>
   <v>       0.00291545 </v>
   <v>       0.00291545 </v>
   <v>       0.00291545 </v>
   <v>       0.00291545 </v>
   <v>       0.00291545 </v>
   <v>       0.00291545 </v>
   <v>       0.00291545 </v>
   <v>       0.00291545 </v>
   <v>       0.00291545 </v>
   <v>       0.00291545 </v>
   <v>       0.00291545 </v>
   <v>       0.00291545 </v>
   <v>       0.00291545 </v>
   <v>       0.00291545 </v>
   <v>       0.00291545 </v>
   <v>       0.00291545 </v>
   <v>       0.00291545 </v>
   <v>       0.00291545 </v>
   <v>       0.00291545 </v>
   <v>       0.00291545 </v>
   <v>       0.00291545 </v>
   <v>       0.00291545 </v>
   <v>       0.00291545 </v>
   <v>       0.00291545 </v>
   <v>       0.00291545 </v>
   <v>       0.00291545 </v>
   <v>       0.00291545 </v>
   <v>       0.00291545 </v>
   <v>       0.00291545 </v>
   <v>       0.00291545 </v>
   <v>       0.00291545 </v>
   <v>       0.00291545 </v>
   <v>       0.00291545 </v>
   <v>       0.00291545 </v>
   <v>       0.00291545 </v>
   <v>       0.00291545 </v>
   <v>       0.00291545 </v>
   <v>       0.00291545 </v>
   <v>       0.00291545 </v>
   <v>       0.00291545 </v>
   <v>       0.00291545 </v>
   <v>       0.00291545 </v>
   <v>       0.00291545 </v>
   <v>       0.00291545 </v>
   <v>       0.00291545 </v>
   <v>       0.00291545 </v>
   <v>       0.00291545 </v>
   <v>       0.00291545 </v>
   <v>       0.00291545 </v>
   <v>       0.00291545 </v>
   <v>       0.00291545 </v>
   <v>       0.00291545 </v>
   <v>       0.00291545 </v>
   <v>       0.00291545 </v>
   <v>       0.00291545 </v>
   <v>       0.00291545 </v>
   <v>       0.00291545 </v>
   <v>       0.00291545 </v>
   <v>       0.00291545 </v>
   <v>       0.00291545 </v>
   <v>       0.00291545 </v>
   <v>       0.00291545 </v>
   <v>       0.00291545 </v>
   <v>       0.00291545 </v>
   <v>       0.00291545 </v>
   <v>       0.00291545 </v>
   <v>       0.00291545 </v>
   <v>       0.00291545 </v>
   <v>       0.00291545 </v>
   <v>       0.00291545 </v>
   <v>       0.00291545 </v>
   <v>       0.00291545 </v>
   <v>       0.00291545 </v>
   <v>       0.00291545 </v>
   <v>       0.00291545 </v>
   <v>       0.00291545 </v>
   <v>       0.00291545 </v>
   <v>       0.00291545 </v>
   <v>       0.00291545 </v>
   <v>       0.00291545 </v>
   <v>       0.00291545 </v>
   <v>       0.00291545 </v>
   <v>       0.00291545 </v>
   <v>       0.00291545 </v>
   <v>       0.00291545 </v>
   <v>       0.00291545 </v>
   <v>       0.00291545 </v>
   <v>       0.00291545 </v>
   <v>       0.00291545 </v>
   <v>       0.00291545 </v>
   <v>       0.00291545 </v>
   <v>       0.00291545 </v>
   <v>       0.00291545 </v>
   <v>       0.00291545 </v>
   <v>       0.00291545 </v>
   <v>       0.00291545 </v>
   <v>       0.00291545 </v>
   <v>       0.00291545 </v>
   <v>       0.00291545 </v>
   <v>       0.00291545 </v>
   <v>       0.00291545 </v>
   <v>       0.00291545 </v>
   <v>       0.00291545 </v>
   <v>       0.00291545 </v>
   <v>       0.00291545 </v>
   <v>       0.00291545 </v>
   <v>       0.00291545 </v>
   <v>       0.00291545 </v>
   <v>       0.00291545 </v>
   <v>       0.00291545 </v>
   <v>       0.00291545 </v>
   <v>       0.00291545 </v>
   <v>       0.00291545 </v>
   <v>       0.00291545 </v>
   <v>       0.00291545 </v>
   <v>       0.00291545 </v>
   <v>       0.00291545 </v>
   <v>       0.00291545 </v>
   <v>       0.00291545 </v>
   <v>       0.00291545 </v>
   <v>       0.00291545 </v>
   <v>       0.00291545 </v>
   <v>       0.00291545 </v>
   <v>       0.00291545 </v>
   <v>       0.00291545 </v>
   <v>       0.00291545 </v>
   <v>       0.00291545 </v>
   <v>       0.00291545 </v>
   <v>       0.00291545 </v>
   <v>       0.00291545 </v>
   <v>       0.00291545 </v>
   <v>       0.00291545 </v>
   <v>       0.00291545 </v>
   <v>       0.00291545 </v>
   <v>       0.00291545 </v>
   <v>       0.00291545 </v>
   <v>       0.00291545 </v>
   <v>       0.00291545 </v>
   <v>       0.00291545 </v>
   <v>       0.00291545 </v>
   <v>       0.00291545 </v>
   <v>       0.00291545 </v>
   <v>       0.00291545 </v>
   <v>       0.00291545 </v>
   <v>       0.00291545 </v>
   <v>       0.00291545 </v>
   <v>       0.00291545 </v>
   <v>       0.00291545 </v>
   <v>       0.00291545 </v>
   <v>       0.00291545 </v>
   <v>       0.00291545 </v>
   <v>       0.00291545 </v>
   <v>       0.00291545 </v>
   <v>       0.00291545 </v>
   <v>       0.00291545 </v>
   <v>       0.00291545 </v>
   <v>       0.00291545 </v>
   <v>       0.00291545 </v>
   <v>       0.00291545 </v>
   <v>       0.00291545 </v>
   <v>       0.00291545 </v>
   <v>       0.00291545 </v>
   <v>       0.00291545 </v>
   <v>       0.00291545 </v>
   <v>       0.00291545 </v>
   <v>       0.00291545 </v>
   <v>       0.00291545 </v>
   <v>       0.00291545 </v>
   <v>       0.00291545 </v>
   <v>       0.00291545 </v>
   <v>       0.00291545 </v>
   <v>       0.00291545 </v>
   <v>       0.00291545 </v>
  </varray>
 </kpoints>
 <parameters>
  <separator name="general" >
   <i type="string" name="SYSTEM">Og_FCC</i>
   <i type="logical" name="LCOMPAT"> F  </i>
  </separator>
  <separator name="electronic" >
   <i type="string" name="PREC">accura</i>
   <i name="ENMAX">    300.00000000</i>
   <i name="ENAUG">    554.76500000</i>
   <i name="EDIFF">      0.00000001</i>
   <i type="int" name="IALGO">    38</i>
   <i type="int" name="IWAVPR">    10</i>
   <i type="int" name="NBANDS">    20</i>
   <i name="NELECT">      8.00000000</i>
   <i type="int" name="TURBO">     0</i>
   <i type="int" name="IRESTART">     0</i>
   <i type="int" name="NREBOOT">     0</i>
   <i type="int" name="NMIN">     0</i>
   <i name="EREF">      0.00000000</i>
   <separator name="electronic smearing" >
    <i type="int" name="ISMEAR">     0</i>
    <i name="SIGMA">      0.00100000</i>
    <i name="KSPACING">      0.50000000</i>
    <i type="logical" name="KGAMMA"> T  </i>
   </separator>
   <separator name="electronic projectors" >
    <i type="logical" name="LREAL"> F  </i>
    <v name="ROPT">      0.00000000</v>
    <i type="int" name="LMAXPAW">  -100</i>
    <i type="int" name="LMAXMIX">     2</i>
    <i type="logical" name="NLSPLINE"> F  </i>
   </separator>
   <separator name="electronic startup" >
    <i type="int" name="ISTART">     0</i>
    <i type="int" name="ICHARG">     2</i>
    <i type="int" name="INIWAV">     1</i>
   </separator>
   <separator name="electronic spin" >
    <i type="int" name="ISPIN">     1</i>
    <i type="logical" name="LNONCOLLINEAR"> T  </i>
    <v name="MAGMOM">      1.00000000      1.00000000      1.00000000</v>
    <i name="NUPDOWN">     -1.00000000</i>
    <i type="logical" name="LSORBIT"> T  </i>
    <v name="SAXIS">      0.00000000      0.00000000      1.00000000</v>
    <i type="logical" name="LSPIRAL"> F  </i>
    <v name="QSPIRAL">      0.00000000      0.00000000      0.00000000</v>
    <i type="logical" name="LZEROZ"> F  </i>
   </separator>
   <separator name="electronic exchange-correlation" >
    <i type="logical" name="LASPH"> F  </i>
    <i type="logical" name="LMETAGGA"> F  </i>
   </separator>
   <separator name="electronic convergence" >
    <i type="int" name="NELM">    50</i>
    <i type="int" name="NELMDL">    -5</i>
    <i type="int" name="NELMIN">     2</i>
    <i name="ENINI">    300.00000000</i>
    <separator name="electronic convergence detail" >
     <i type="logical" name="LDIAG"> T  </i>
     <i type="logical" name="LSUBROT"> F  </i>
     <i name="WEIMIN">      0.00000000</i>
     <i name="EBREAK">      0.00000000</i>
     <i name="DEPER">      0.30000000</i>
     <i type="int" name="NRMM">     4</i>
     <i name="TIME">      0.40000000</i>
    </separator>
   </separator>
   <separator name="electronic mixer" >
    <i name="AMIX">      0.40000000</i>
    <i name="BMIX">      1.00000000</i>
    <i name="AMIN">      0.10000000</i>
    <i name="AMIX_MAG">      1.60000000</i>
    <i name="BMIX_MAG">      1.00000000</i>
    <separator name="electronic mixer details" >
     <i type="int" name="IMIX">     4</i>
     <i type="logical" name="MIXFIRST"> F  </i>
     <i type="int" name="MAXMIX">    50</i>
     <i name="WC">    100.00000000</i>
     <i type="int" name="INIMIX">     1</i>
     <i type="int" name="MIXPRE">     1</i>
     <i type="int" name="MREMOVE">     5</i>
    </separator>
   </separator>
   <separator name="electronic dipolcorrection" >
    <i type="logical" name="LDIPOL"> F  </i>
    <i type="logical" name="LMONO"> F  </i>
    <i type="int" name="IDIPOL">     0</i>
    <i name="EPSILON">      1.00000000</i>
    <v name="DIPOL">   -100.00000000   -100.00000000   -100.00000000</v>
    <i name="EFIELD">      0.00000000</i>
   </separator>
  </separator>
  <separator name="grids" >
   <i type="int" name="NGX">    24</i>
   <i type="int" name="NGY">    24</i>
   <i type="int" name="NGZ">    24</i>
   <i type="int" name="NGXF">    48</i>
   <i type="int" name="NGYF">    48</i>
   <i type="int" name="NGZF">    48</i>
   <i type="logical" name="ADDGRID"> T  </i>
  </separator>
  <separator name="ionic" >
   <i type="int" name="NSW">     1</i>
   <i type="int" name="IBRION">    -1</i>
   <i type="int" name="MDALGO">     0</i>
   <i type="int" name="ISIF">     3</i>
   <i name="PSTRESS">      0.00000000</i>
   <i name="EDIFFG">      0.00001000</i>
   <i type="int" name="NFREE">     5</i>
   <i name="POTIM">      0.10000000</i>
   <i name="SMASS">     -3.00000000</i>
   <i name="SCALEE">      1.00000000</i>
  </separator>
  <separator name="ionic md" >
   <i name="TEBEG">      0.00010000</i>
   <i name="TEEND">      0.00010000</i>
   <i type="int" name="NBLOCK">     1</i>
   <i type="int" name="KBLOCK">     1</i>
   <i type="int" name="NPACO">   256</i>
   <i name="APACO">     16.00000000</i>
  </separator>
  <separator name="symmetry" >
   <i type="int" name="ISYM">     0</i>
   <i name="SYMPREC">      0.00000010</i>
  </separator>
  <separator name="dos" >
   <i type="int" name="LORBIT">     0</i>
   <v name="RWIGS">     -1.00000000</v>
   <i type="int" name="NEDOS">   301</i>
   <i name="EMIN">     10.00000000</i>
   <i name="EMAX">    -10.00000000</i>
   <i name="EFERMI">      0.00000000</i>
  </separator>
  <separator name="writing" >
   <i type="int" name="NWRITE">     2</i>
   <i type="logical" name="LWAVE"> T  </i>
   <i type="logical" name="LDOWNSAMPLE"> F  </i>
   <i type="logical" name="LCHARG"> F  </i>
   <i type="logical" name="LPARD"> F  </i>
   <i type="logical" name="LVTOT"> F  </i>
   <i type="logical" name="LVHAR"> F  </i>
   <i type="logical" name="LELF"> F  </i>
   <i type="logical" name="LOPTICS"> T  </i>
   <v name="STM">      0.00000000      0.00000000      0.00000000      0.00000000      0.00000000      0.00000000      0.00000000</v>
  </separator>
  <separator name="performance" >
   <i type="int" name="NPAR">     4</i>
   <i type="int" name="NSIM">     4</i>
   <i type="int" name="NBLK">    -1</i>
   <i type="logical" name="LPLANE"> T  </i>
   <i type="logical" name="LSCALAPACK"> T  </i>
   <i type="logical" name="LSCAAWARE"> F  </i>
   <i type="logical" name="LSCALU"> F  </i>
   <i type="logical" name="LASYNC"> F  </i>
   <i type="logical" name="LORBITALREAL"> F  </i>
  </separator>
  <separator name="miscellaneous" >
   <i type="int" name="IDIOT">     3</i>
   <i type="int" name="ISPECIAL">     0</i>
   <i type="logical" name="LMUSIC"> F  </i>
   <v name="POMASS">     83.80000000</v>
   <v name="DARWINR">      0.00000000</v>
   <v name="DARWINV">      1.00000000</v>
   <i type="logical" name="LCORR"> T  </i>
  </separator>
  <i type="logical" name="GGA_COMPAT"> F  </i>
  <i type="logical" name="LBERRY"> F  </i>
  <i type="int" name="ICORELEVEL">     0</i>
  <i type="logical" name="LDAU"> F  </i>
  <i type="int" name="I_CONSTRAINED_M">     0</i>
  <separator name="electronic exchange-correlation" >
   <i type="string" name="GGA">PE</i>
   <i type="int" name="VOSKOWN">     0</i>
   <i type="logical" name="LHFCALC"> F  </i>
   <i type="string" name="PRECFOCK"></i>
   <i type="logical" name="LSYMGRAD"> F  </i>
   <i type="logical" name="LHFONE"> F  </i>
   <i type="logical" name="LRHFCALC"> F  </i>
   <i type="logical" name="LTHOMAS"> F  </i>
   <i type="logical" name="LMODELHF"> F  </i>
   <i name="ENCUT4O">     -1.00000000</i>
   <i type="int" name="EXXOEP">     0</i>
   <i type="int" name="FOURORBIT">     0</i>
   <i name="AEXX">      0.00000000</i>
   <i name="HFALPHA">      0.00000000</i>
   <i name="MCALPHA">      0.00000000</i>
   <i name="ALDAX">      1.00000000</i>
   <i name="AGGAX">      1.00000000</i>
   <i name="ALDAC">      1.00000000</i>
   <i name="AGGAC">      1.00000000</i>
   <i type="int" name="NKREDX">     1</i>
   <i type="int" name="NKREDY">     1</i>
   <i type="int" name="NKREDZ">     1</i>
   <i type="logical" name="SHIFTRED"> F  </i>
   <i type="logical" name="ODDONLY"> F  </i>
   <i type="logical" name="EVENONLY"> F  </i>
   <i type="int" name="LMAXFOCK">     0</i>
   <i type="int" name="NMAXFOCKAE">     0</i>
   <i type="logical" name="LFOCKAEDFT"> F  </i>
   <i name="HFSCREEN">      0.00000000</i>
   <i name="HFSCREENC">      0.00000000</i>
   <i type="int" name="NBANDSGWLOW">     0</i>
  </separator>
  <separator name="vdW DFT" >
   <i type="logical" name="LUSE_VDW"> F  </i>
   <i name="Zab_VDW">     -0.84910000</i>
   <i name="PARAM1">      0.12340000</i>
   <i name="PARAM2">      1.00000000</i>
   <i name="PARAM3">      0.00000000</i>
  </separator>
  <separator name="model GW" >
   <i type="int" name="MODEL_GW">     0</i>
   <i name="MODEL_EPS0">     29.57020741</i>
   <i name="MODEL_ALPHA">      1.00000000</i>
  </separator>
  <separator name="linear response parameters" >
   <i type="logical" name="LEPSILON"> F  </i>
   <i type="logical" name="LRPA"> F  </i>
   <i type="logical" name="LNABLA"> F  </i>
   <i type="logical" name="LVEL"> F  </i>
   <i type="int" name="KINTER">     0</i>
   <i name="CSHIFT">      0.10000000</i>
   <i name="OMEGAMAX">     -1.00000000</i>
   <i name="DEG_THRESHOLD">      0.00200000</i>
   <i name="RTIME">     -0.10000000</i>
   <i name="WPLASMAI">      0.00000000</i>
   <v name="DFIELD">      0.00000000      0.00000000      0.00000000</v>
   <v name="WPLASMA">      0.00000000      0.00000000      0.00000000      0.00000000      0.00000000      0.00000000      0.00000000      0.00000000      0.00000000</v>
  </separator>
  <separator name="orbital magnetization" >
   <i type="logical" name="NUCIND"> F  </i>
   <v name="MAGPOS">      0.00000000      0.00000000      0.00000000</v>
   <i type="logical" name="LNICSALL"> T  </i>
   <i type="logical" name="ORBITALMAG"> F  </i>
   <i type="logical" name="LMAGBLOCH"> F  </i>
   <i type="logical" name="LCHIMAG"> F  </i>
   <i type="logical" name="LGAUGE"> T  </i>
   <i type="int" name="MAGATOM">     0</i>
   <v name="MAGDIPOL">      0.00000000      0.00000000      0.00000000</v>
   <v name="AVECCONST">      0.00000000      0.00000000      0.00000000</v>
  </separator>
  <separator name="response functions" >
   <i type="logical" name="LADDER"> F  </i>
   <i type="logical" name="LRPAFORCE"> F  </i>
   <i type="logical" name="LFXC"> F  </i>
   <i type="logical" name="LHARTREE"> T  </i>
   <i type="int" name="IBSE">     0</i>
   <v type="int" name="KPOINT">    -1     0     0     0</v>
   <i type="logical" name="LTCTE"> F  </i>
   <i type="logical" name="LTETE"> F  </i>
   <i type="logical" name="LTRIPLET"> F  </i>
   <i type="logical" name="LFXCEPS"> F  </i>
   <i type="logical" name="LFXHEG"> F  </i>
   <i type="int" name="NATURALO">     2</i>
   <i type="logical" name="L2ORDER"> F  </i>
   <i type="logical" name="LMP2LT"> F  </i>
   <i type="logical" name="LUSEW"> F  </i>
   <i name="ENCUTGW">     -2.00000000</i>
   <i name="ENCUTGWSOFT">     -2.00000000</i>
   <i name="ENCUTLF">     -1.00000000</i>
   <i type="int" name="LMAXMP2">    -1</i>
   <i name="SCISSOR">      0.00000000</i>
   <i type="int" name="NOMEGA">     0</i>
   <i type="int" name="NOMEGAR">     0</i>
   <i type="int" name="NBANDSGW">    -1</i>
   <i type="int" name="NBANDSO">    -1</i>
   <i type="int" name="NBANDSV">    -1</i>
   <i type="int" name="NELM">    50</i>
   <i type="int" name="NELMHF">     1</i>
   <i type="int" name="DIM">     3</i>
   <i type="int" name="ANTIRES">     0</i>
   <i name="OMEGAMAX">    -30.00000000</i>
   <i name="OMEGAMIN">    -30.00000000</i>
   <i name="OMEGATL">   -200.00000000</i>
   <i type="int" name="OMEGAGRID">   140</i>
   <i name="CSHIFT">     -0.10000000</i>
   <i type="logical" name="SELFENERGY"> F  </i>
   <i type="logical" name="LSPECTRAL"> F  </i>
   <i type="logical" name="LSPECTRALGW"> F  </i>
   <i type="logical" name="LSINGLES"> F  </i>
   <i type="logical" name="LFERMIGW"> F  </i>
   <i type="logical" name="ODDONLYGW"> F  </i>
   <i type="logical" name="EVENONLYGW"> F  </i>
   <i type="int" name="NKREDLFX">     1</i>
   <i type="int" name="NKREDLFY">     1</i>
   <i type="int" name="NKREDLFZ">     1</i>
   <i type="int" name="MAXMEM">  2800</i>
   <i type="int" name="TELESCOPE">     0</i>
   <i type="int" name="TAUPAR">     1</i>
   <i type="int" name="OMEGAPAR">    -1</i>
   <i name="LAMBDA">      1.00000000</i>
  </separator>
  <separator name="External order field" >
   <i name="OFIELD_KAPPA">      0.00000000</i>
   <v name="OFIELD_K">      0.00000000      0.00000000      0.00000000</v>
   <i name="OFIELD_Q6_NEAR">      0.00000000</i>
   <i name="OFIELD_Q6_FAR">      0.00000000</i>
   <i name="OFIELD_A">      0.00000000</i>
  </separator>
 </parameters>
 <atominfo>
  <atoms>       1 </atoms>
  <types>       1 </types>
  <array name="atoms" >
   <dimension dim="1">ion</dimension>
   <field type="string">element</field>
   <field type="int">atomtype</field>
   <set>
    <rc><c>Kr</c><c>   1</c></rc>
   </set>
  </array>
  <array name="atomtypes" >
   <dimension dim="1">type</dimension>
   <field type="int">atomspertype</field>
   <field type="string">element</field>
   <field>mass</field>
   <field>valence</field>
   <field type="string">pseudopotential</field>
   <set>
    <rc><c>   1</c><c>Kr</c><c>     83.80000000</c><c>      8.00000000</c><c>  PAW_PBE Kr_GW 21Aug2013               </c></rc>
   </set>
  </array>
 </atominfo>
 <structure name="initialpos" >
  <crystal>
   <varray name="basis" >
    <v>       4.11534301       0.00000000       0.00000000 </v>
    <v>       2.05767151       3.56399159      -0.00000000 </v>
    <v>       2.05767151       1.18799720       3.36016350 </v>
   </varray>
   <i name="volume">     49.28367901 </i>
   <varray name="rec_basis" >
    <v>       0.24299311      -0.14029214      -0.09920152 </v>
    <v>       0.00000000       0.28058428      -0.09920152 </v>
    <v>      -0.00000000       0.00000000       0.29760457 </v>
   </varray>
  </crystal>
  <varray name="positions" >
   <v>       0.00000000       0.00000000       0.00000000 </v>
  </varray>
  <varray name="velocities" >
   <v>       0.00000000       0.00000000       0.00000000 </v>
  </varray>
 </structure>
 <calculation>
  <scstep>
   <time name="dav">    1.35    1.35</time>
   <time name="total">    1.39    1.39</time>
   <energy>
    <i name="alphaZ">      8.51686385 </i>
    <i name="ewald">   -363.00389881 </i>
    <i name="hartreedc">   -106.29834624 </i>
    <i name="XCdc">     14.84890449 </i>
    <i name="pawpsdc">    409.82345796 </i>
    <i name="pawaedc">   -404.94559130 </i>
    <i name="eentropy">     -0.00000000 </i>
    <i name="bandstr">    -31.04931325 </i>
    <i name="atom">    506.70785905 </i>
    <i name="e_fr_energy">     34.59993574 </i>
    <i name="e_wo_entrp">     34.59993574 </i>
    <i name="e_0_energy">     34.59993574 </i>
   </energy>
  </scstep>
  <scstep>
   <time name="dav">    1.71    1.71</time>
   <time name="total">    1.71    1.71</time>
   <energy>
    <i name="e_fr_energy">      2.46344161 </i>
    <i name="e_wo_entrp">      2.46344161 </i>
    <i name="e_0_energy">      2.46344161 </i>
   </energy>
  </scstep>
  <scstep>
   <time name="dav">    1.61    1.61</time>
   <time name="total">    1.61    1.61</time>
   <energy>
    <i name="e_fr_energy">      0.49499474 </i>
    <i name="e_wo_entrp">      0.49499474 </i>
    <i name="e_0_energy">      0.49499474 </i>
   </energy>
  </scstep>
  <scstep>
   <time name="dav">    1.58    1.58</time>
   <time name="total">    1.58    1.58</time>
   <energy>
    <i name="e_fr_energy">      0.48410947 </i>
    <i name="e_wo_entrp">      0.48410947 </i>
    <i name="e_0_energy">      0.48410947 </i>
   </energy>
  </scstep>
  <scstep>
   <time name="dav">    1.56    1.56</time>
   <time name="total">    1.61    1.61</time>
   <energy>
    <i name="e_fr_energy">      0.48386927 </i>
    <i name="e_wo_entrp">      0.48386927 </i>
    <i name="e_0_energy">      0.48386927 </i>
   </energy>
  </scstep>
  <scstep>
   <time name="dav">    1.41    1.41</time>
   <time name="total">    1.49    1.49</time>
   <energy>
    <i name="e_fr_energy">      0.07752297 </i>
    <i name="e_wo_entrp">      0.07752297 </i>
    <i name="e_0_energy">      0.07752297 </i>
   </energy>
  </scstep>
  <scstep>
   <time name="dav">    1.36    1.36</time>
   <time name="total">    1.44    1.44</time>
   <energy>
    <i name="e_fr_energy">     -0.07098388 </i>
    <i name="e_wo_entrp">     -0.07098388 </i>
    <i name="e_0_energy">     -0.07098388 </i>
   </energy>
  </scstep>
  <scstep>
   <time name="dav">    1.51    1.51</time>
   <time name="total">    1.60    1.60</time>
   <energy>
    <i name="e_fr_energy">     -0.07045686 </i>
    <i name="e_wo_entrp">     -0.07045686 </i>
    <i name="e_0_energy">     -0.07045686 </i>
   </energy>
  </scstep>
  <scstep>
   <time name="dav">    1.47    1.47</time>
   <time name="total">    1.55    1.55</time>
   <energy>
    <i name="e_fr_energy">     -0.07051855 </i>
    <i name="e_wo_entrp">     -0.07051855 </i>
    <i name="e_0_energy">     -0.07051855 </i>
   </energy>
  </scstep>
  <scstep>
   <time name="dav">    1.52    1.52</time>
   <time name="total">    1.60    1.60</time>
   <energy>
    <i name="e_fr_energy">     -0.07056377 </i>
    <i name="e_wo_entrp">     -0.07056377 </i>
    <i name="e_0_energy">     -0.07056377 </i>
   </energy>
  </scstep>
  <scstep>
   <time name="dav">    1.43    1.43</time>
   <time name="total">    1.51    1.51</time>
   <energy>
    <i name="e_fr_energy">     -0.07056474 </i>
    <i name="e_wo_entrp">     -0.07056474 </i>
    <i name="e_0_energy">     -0.07056474 </i>
   </energy>
  </scstep>
  <scstep>
   <time name="dav">    1.46    1.46</time>
   <time name="total">    1.54    1.54</time>
   <energy>
    <i name="e_fr_energy">     -0.07056488 </i>
    <i name="e_wo_entrp">     -0.07056488 </i>
    <i name="e_0_energy">     -0.07056488 </i>
   </energy>
  </scstep>
  <scstep>
   <time name="dav">    1.45    1.45</time>
   <time name="total">    1.52    1.52</time>
   <energy>
    <i name="e_fr_energy">     -0.07056493 </i>
    <i name="e_wo_entrp">     -0.07056493 </i>
    <i name="e_0_energy">     -0.07056493 </i>
   </energy>
  </scstep>
  <scstep>
   <time name="dav">    1.44    1.44</time>
   <time name="total">    1.47    1.47</time>
   <energy>
    <i name="alphaZ">      8.51686385 </i>
    <i name="ewald">   -363.00389881 </i>
    <i name="hartreedc">   -106.39864684 </i>
    <i name="XCdc">     14.64272691 </i>
    <i name="pawpsdc">    409.72218241 </i>
    <i name="pawaedc">   -404.85436097 </i>
    <i name="eentropy">      0.00000000 </i>
    <i name="bandstr">    -65.40329053 </i>
    <i name="atom">    506.70785905 </i>
    <i name="e_fr_energy">     -0.07056493 </i>
    <i name="e_wo_entrp">     -0.07056493 </i>
    <i name="e_0_energy">     -0.07056493 </i>
   </energy>
  </scstep>
  <structure>
   <crystal>
    <varray name="basis" >
     <v>       4.11534301       0.00000000       0.00000000 </v>
     <v>       2.05767151       3.56399159      -0.00000000 </v>
     <v>       2.05767151       1.18799720       3.36016350 </v>
    </varray>
    <i name="volume">     49.28367901 </i>
    <varray name="rec_basis" >
     <v>       0.24299311      -0.14029214      -0.09920152 </v>
     <v>       0.00000000       0.28058428      -0.09920152 </v>
     <v>      -0.00000000       0.00000000       0.29760457 </v>
    </varray>
   </crystal>
   <varray name="positions" >
    <v>       0.00000000       0.00000000       0.00000000 </v>
   </varray>
  </structure>
  <varray name="forces" >
   <v>       0.00000005       0.00000002      -0.00000001 </v>
  </varray>
  <varray name="stress" >
   <v>      -0.16705791      -0.00012818      -0.00008471 </v>
   <v>      -0.00012809      -0.16689901      -0.00003870 </v>
   <v>      -0.00008434      -0.00003848      -0.16686374 </v>
  </varray>
  <energy>
   <i name="e_fr_energy">     -0.18224461 </i>
   <i name="e_wo_entrp">     -0.18224461 </i>
   <i name="e_0_energy">      0.00000000 </i>
  </energy>
  <time name="totalsc">   22.82   22.94</time>
  <eigenvalues>
   <array>
    <dimension dim="1">band</dimension>
    <dimension dim="2">kpoint</dimension>
    <dimension dim="3">spin</dimension>
    <field>eigene</field>
    <field>occ</field>
    <set>
     <set comment="spin 1">
      <set comment="kpoint 1">
       <r>  -18.6426    1.0000 </r>
       <r>  -18.6425    1.0000 </r>
       <r>   -4.6825    1.0000 </r>
       <r>   -4.6824    1.0000 </r>
       <r>   -3.9908    1.0000 </r>
       <r>   -3.9907    1.0000 </r>
       <r>   -3.9907    1.0000 </r>
       <r>   -3.9907    1.0000 </r>
       <r>    3.0221    0.0000 </r>
       <r>    3.0222    0.0000 </r>
       <r>    9.3581    0.0000 </r>
       <r>    9.3581    0.0000 </r>
       <r>    9.3581    0.0000 </r>
       <r>    9.3581    0.0000 </r>
       <r>    9.3746    0.0000 </r>
       <r>    9.3747    0.0000 </r>
       <r>   11.6966    0.0000 </r>
       <r>   11.6966    0.0000 </r>
       <r>   11.6966    0.0000 </r>
       <r>   11.6966    0.0000 </r>
      </set>
      <set comment="kpoint 2">
       <r>  -18.6175    1.0000 </r>
       <r>  -18.6174    1.0000 </r>
       <r>   -4.8004    1.0000 </r>
       <r>   -4.8004    1.0000 </r>
       <r>   -4.1692    1.0000 </r>
       <r>   -4.1691    1.0000 </r>
       <r>   -4.0192    1.0000 </r>
       <r>   -4.0192    1.0000 </r>
       <r>    3.5323    0.0000 </r>
       <r>    3.5325    0.0000 </r>
       <r>    8.6894    0.0000 </r>
       <r>    8.6894    0.0000 </r>
       <r>    9.5366    0.0000 </r>
       <r>    9.5366    0.0000 </r>
       <r>    9.5504    0.0000 </r>
       <r>    9.5504    0.0000 </r>
       <r>   11.2717    0.0000 </r>
       <r>   11.2717    0.0000 </r>
       <r>   11.2797    0.0000 </r>
       <r>   11.2797    0.0000 </r>
      </set>
      <set comment="kpoint 3">
       <r>  -18.5602    1.0000 </r>
       <r>  -18.5601    1.0000 </r>
       <r>   -5.1612    1.0000 </r>
       <r>   -5.1612    1.0000 </r>
       <r>   -4.3955    1.0000 </r>
       <r>   -4.3955    1.0000 </r>
       <r>   -4.0813    1.0000 </r>
       <r>   -4.0813    1.0000 </r>
       <r>    4.6192    0.0000 </r>
       <r>    4.6194    0.0000 </r>
       <r>    7.9356    0.0000 </r>
       <r>    7.9357    0.0000 </r>
       <r>    9.4037    0.0000 </r>
       <r>    9.4037    0.0000 </r>
       <r>    9.4216    0.0000 </r>
       <r>    9.4216    0.0000 </r>
       <r>   11.6373    0.0000 </r>
       <r>   11.6373    0.0000 </r>
       <r>   11.6572    0.0000 </r>
       <r>   11.6572    0.0000 </r>
      </set>
      <set comment="kpoint 4">
       <r>  -18.5133    1.0000 </r>
       <r>  -18.5132    1.0000 </r>
       <r>   -5.4815    1.0000 </r>
       <r>   -5.4815    1.0000 </r>
       <r>   -4.4916    1.0000 </r>
       <r>   -4.4916    1.0000 </r>
       <r>   -4.1298    1.0000 </r>
       <r>   -4.1298    1.0000 </r>
       <r>    5.3299    0.0000 </r>
       <r>    5.3299    0.0000 </r>
       <r>    7.8659    0.0000 </r>
       <r>    7.8663    0.0000 </r>
       <r>    9.0383    0.0000 </r>
       <r>    9.0383    0.0000 </r>
       <r>    9.0553    0.0000 </r>
       <r>    9.0553    0.0000 </r>
       <r>   12.5569    0.0000 </r>
       <r>   12.5572    0.0000 </r>
       <r>   13.1194    0.0000 </r>
       <r>   13.1209    0.0000 </r>
      </set>
      <set comment="kpoint 5">
       <r>  -18.5133    1.0000 </r>
       <r>  -18.5132    1.0000 </r>
       <r>   -5.4815    1.0000 </r>
       <r>   -5.4815    1.0000 </r>
       <r>   -4.4916    1.0000 </r>
       <r>   -4.4916    1.0000 </r>
       <r>   -4.1298    1.0000 </r>
       <r>   -4.1298    1.0000 </r>
       <r>    5.3299    0.0000 </r>
       <r>    5.3299    0.0000 </r>
       <r>    7.8659    0.0000 </r>
       <r>    7.8663    0.0000 </r>
       <r>    9.0383    0.0000 </r>
       <r>    9.0383    0.0000 </r>
       <r>    9.0553    0.0000 </r>
       <r>    9.0553    0.0000 </r>
       <r>   12.5569    0.0000 </r>
       <r>   12.5572    0.0000 </r>
       <r>   13.1172    0.0000 </r>
       <r>   13.1212    0.0000 </r>
      </set>
      <set comment="kpoint 6">
       <r>  -18.5602    1.0000 </r>
       <r>  -18.5601    1.0000 </r>
       <r>   -5.1612    1.0000 </r>
       <r>   -5.1612    1.0000 </r>
       <r>   -4.3955    1.0000 </r>
       <r>   -4.3955    1.0000 </r>
       <r>   -4.0813    1.0000 </r>
       <r>   -4.0813    1.0000 </r>
       <r>    4.6192    0.0000 </r>
       <r>    4.6194    0.0000 </r>
       <r>    7.9356    0.0000 </r>
       <r>    7.9357    0.0000 </r>
       <r>    9.4037    0.0000 </r>
       <r>    9.4037    0.0000 </r>
       <r>    9.4216    0.0000 </r>
       <r>    9.4216    0.0000 </r>
       <r>   11.6373    0.0000 </r>
       <r>   11.6373    0.0000 </r>
       <r>   11.6572    0.0000 </r>
       <r>   11.6572    0.0000 </r>
      </set>
      <set comment="kpoint 7">
       <r>  -18.6175    1.0000 </r>
       <r>  -18.6174    1.0000 </r>
       <r>   -4.8004    1.0000 </r>
       <r>   -4.8004    1.0000 </r>
       <r>   -4.1692    1.0000 </r>
       <r>   -4.1691    1.0000 </r>
       <r>   -4.0192    1.0000 </r>
       <r>   -4.0192    1.0000 </r>
       <r>    3.5323    0.0000 </r>
       <r>    3.5325    0.0000 </r>
       <r>    8.6894    0.0000 </r>
       <r>    8.6894    0.0000 </r>
       <r>    9.5366    0.0000 </r>
       <r>    9.5366    0.0000 </r>
       <r>    9.5504    0.0000 </r>
       <r>    9.5504    0.0000 </r>
       <r>   11.2717    0.0000 </r>
       <r>   11.2717    0.0000 </r>
       <r>   11.2797    0.0000 </r>
       <r>   11.2797    0.0000 </r>
      </set>
      <set comment="kpoint 8">
       <r>  -18.6175    1.0000 </r>
       <r>  -18.6174    1.0000 </r>
       <r>   -4.8004    1.0000 </r>
       <r>   -4.8004    1.0000 </r>
       <r>   -4.1692    1.0000 </r>
       <r>   -4.1691    1.0000 </r>
       <r>   -4.0192    1.0000 </r>
       <r>   -4.0192    1.0000 </r>
       <r>    3.5323    0.0000 </r>
       <r>    3.5325    0.0000 </r>
       <r>    8.6894    0.0000 </r>
       <r>    8.6894    0.0000 </r>
       <r>    9.5366    0.0000 </r>
       <r>    9.5366    0.0000 </r>
       <r>    9.5504    0.0000 </r>
       <r>    9.5504    0.0000 </r>
       <r>   11.2717    0.0000 </r>
       <r>   11.2717    0.0000 </r>
       <r>   11.2797    0.0000 </r>
       <r>   11.2797    0.0000 </r>
      </set>
      <set comment="kpoint 9">
       <r>  -18.6092    1.0000 </r>
       <r>  -18.6091    1.0000 </r>
       <r>   -4.8235    1.0000 </r>
       <r>   -4.8235    1.0000 </r>
       <r>   -4.1944    1.0000 </r>
       <r>   -4.1944    1.0000 </r>
       <r>   -4.0753    1.0000 </r>
       <r>   -4.0753    1.0000 </r>
       <r>    3.6993    0.0000 </r>
       <r>    3.6995    0.0000 </r>
       <r>    8.4511    0.0000 </r>
       <r>    8.4511    0.0000 </r>
       <r>    9.7008    0.0000 </r>
       <r>    9.7008    0.0000 </r>
       <r>    9.7262    0.0000 </r>
       <r>    9.7263    0.0000 </r>
       <r>   10.1967    0.0000 </r>
       <r>   10.1967    0.0000 </r>
       <r>   11.9594    0.0000 </r>
       <r>   11.9594    0.0000 </r>
      </set>
      <set comment="kpoint 10">
       <r>  -18.5626    1.0000 </r>
       <r>  -18.5626    1.0000 </r>
       <r>   -5.0683    1.0000 </r>
       <r>   -5.0683    1.0000 </r>
       <r>   -4.4075    1.0000 </r>
       <r>   -4.4075    1.0000 </r>
       <r>   -4.1492    1.0000 </r>
       <r>   -4.1492    1.0000 </r>
       <r>    4.6109    0.0000 </r>
       <r>    4.6111    0.0000 </r>
       <r>    7.8233    0.0000 </r>
       <r>    7.8233    0.0000 </r>
       <r>    8.9672    0.0000 </r>
       <r>    8.9673    0.0000 </r>
       <r>    9.8939    0.0000 </r>
       <r>    9.8939    0.0000 </r>
       <r>   10.6643    0.0000 </r>
       <r>   10.6643    0.0000 </r>
       <r>   12.2976    0.0000 </r>
       <r>   12.2976    0.0000 </r>
      </set>
      <set comment="kpoint 11">
       <r>  -18.5121    1.0000 </r>
       <r>  -18.5121    1.0000 </r>
       <r>   -5.3722    1.0000 </r>
       <r>   -5.3722    1.0000 </r>
       <r>   -4.5514    1.0000 </r>
       <r>   -4.5514    1.0000 </r>
       <r>   -4.2208    1.0000 </r>
       <r>   -4.2208    1.0000 </r>
       <r>    5.5671    0.0000 </r>
       <r>    5.5672    0.0000 </r>
       <r>    7.5003    0.0000 </r>
       <r>    7.5005    0.0000 </r>
       <r>    8.5123    0.0000 </r>
       <r>    8.5123    0.0000 </r>
       <r>    9.5648    0.0000 </r>
       <r>    9.5648    0.0000 </r>
       <r>   11.9754    0.0000 </r>
       <r>   11.9755    0.0000 </r>
       <r>   13.4512    0.0000 </r>
       <r>   13.4512    0.0000 </r>
      </set>
      <set comment="kpoint 12">
       <r>  -18.4963    1.0000 </r>
       <r>  -18.4963    1.0000 </r>
       <r>   -5.4642    1.0000 </r>
       <r>   -5.4642    1.0000 </r>
       <r>   -4.6006    1.0000 </r>
       <r>   -4.6006    1.0000 </r>
       <r>   -4.2348    1.0000 </r>
       <r>   -4.2348    1.0000 </r>
       <r>    5.8664    0.0000 </r>
       <r>    5.8664    0.0000 </r>
       <r>    7.4434    0.0000 </r>
       <r>    7.4438    0.0000 </r>
       <r>    8.5970    0.0000 </r>
       <r>    8.5970    0.0000 </r>
       <r>    9.3515    0.0000 </r>
       <r>    9.3515    0.0000 </r>
       <r>   12.9566    0.0000 </r>
       <r>   12.9567    0.0000 </r>
       <r>   13.1455    0.0000 </r>
       <r>   13.1456    0.0000 </r>
      </set>
      <set comment="kpoint 13">
       <r>  -18.5277    1.0000 </r>
       <r>  -18.5276    1.0000 </r>
       <r>   -5.2778    1.0000 </r>
       <r>   -5.2777    1.0000 </r>
       <r>   -4.5390    1.0000 </r>
       <r>   -4.5390    1.0000 </r>
       <r>   -4.1770    1.0000 </r>
       <r>   -4.1770    1.0000 </r>
       <r>    5.3509    0.0000 </r>
       <r>    5.3511    0.0000 </r>
       <r>    7.7244    0.0000 </r>
       <r>    7.7245    0.0000 </r>
       <r>    8.5028    0.0000 </r>
       <r>    8.5029    0.0000 </r>
       <r>    9.5638    0.0000 </r>
       <r>    9.5638    0.0000 </r>
       <r>   11.2270    0.0000 </r>
       <r>   11.2270    0.0000 </r>
       <r>   13.3689    0.0000 </r>
       <r>   13.3689    0.0000 </r>
      </set>
      <set comment="kpoint 14">
       <r>  -18.5816    1.0000 </r>
       <r>  -18.5816    1.0000 </r>
       <r>   -4.9791    1.0000 </r>
       <r>   -4.9791    1.0000 </r>
       <r>   -4.3487    1.0000 </r>
       <r>   -4.3487    1.0000 </r>
       <r>   -4.0874    1.0000 </r>
       <r>   -4.0874    1.0000 </r>
       <r>    4.2589    0.0000 </r>
       <r>    4.2591    0.0000 </r>
       <r>    8.1575    0.0000 </r>
       <r>    8.1575    0.0000 </r>
       <r>    9.1900    0.0000 </r>
       <r>    9.1901    0.0000 </r>
       <r>    9.9743    0.0000 </r>
       <r>    9.9743    0.0000 </r>
       <r>   10.3049    0.0000 </r>
       <r>   10.3049    0.0000 </r>
       <r>   11.9599    0.0000 </r>
       <r>   11.9599    0.0000 </r>
      </set>
      <set comment="kpoint 15">
       <r>  -18.5602    1.0000 </r>
       <r>  -18.5601    1.0000 </r>
       <r>   -5.1612    1.0000 </r>
       <r>   -5.1612    1.0000 </r>
       <r>   -4.3955    1.0000 </r>
       <r>   -4.3955    1.0000 </r>
       <r>   -4.0813    1.0000 </r>
       <r>   -4.0813    1.0000 </r>
       <r>    4.6192    0.0000 </r>
       <r>    4.6194    0.0000 </r>
       <r>    7.9356    0.0000 </r>
       <r>    7.9357    0.0000 </r>
       <r>    9.4037    0.0000 </r>
       <r>    9.4037    0.0000 </r>
       <r>    9.4216    0.0000 </r>
       <r>    9.4216    0.0000 </r>
       <r>   11.6373    0.0000 </r>
       <r>   11.6373    0.0000 </r>
       <r>   11.6572    0.0000 </r>
       <r>   11.6572    0.0000 </r>
      </set>
      <set comment="kpoint 16">
       <r>  -18.5626    1.0000 </r>
       <r>  -18.5626    1.0000 </r>
       <r>   -5.0683    1.0000 </r>
       <r>   -5.0683    1.0000 </r>
       <r>   -4.4075    1.0000 </r>
       <r>   -4.4075    1.0000 </r>
       <r>   -4.1492    1.0000 </r>
       <r>   -4.1492    1.0000 </r>
       <r>    4.6109    0.0000 </r>
       <r>    4.6111    0.0000 </r>
       <r>    7.8233    0.0000 </r>
       <r>    7.8233    0.0000 </r>
       <r>    8.9672    0.0000 </r>
       <r>    8.9673    0.0000 </r>
       <r>    9.8939    0.0000 </r>
       <r>    9.8939    0.0000 </r>
       <r>   10.6643    0.0000 </r>
       <r>   10.6643    0.0000 </r>
       <r>   12.2976    0.0000 </r>
       <r>   12.2976    0.0000 </r>
      </set>
      <set comment="kpoint 17">
       <r>  -18.5333    1.0000 </r>
       <r>  -18.5332    1.0000 </r>
       <r>   -5.1626    1.0000 </r>
       <r>   -5.1626    1.0000 </r>
       <r>   -4.5121    1.0000 </r>
       <r>   -4.5121    1.0000 </r>
       <r>   -4.2578    1.0000 </r>
       <r>   -4.2578    1.0000 </r>
       <r>    5.0350    0.0000 </r>
       <r>    5.0352    0.0000 </r>
       <r>    7.2884    0.0000 </r>
       <r>    7.2884    0.0000 </r>
       <r>    8.5680    0.0000 </r>
       <r>    8.5680    0.0000 </r>
       <r>   10.7100    0.0000 </r>
       <r>   10.7100    0.0000 </r>
       <r>   10.7679    0.0000 </r>
       <r>   10.7679    0.0000 </r>
       <r>   12.6718    0.0000 </r>
       <r>   12.6718    0.0000 </r>
      </set>
      <set comment="kpoint 18">
       <r>  -18.4936    1.0000 </r>
       <r>  -18.4936    1.0000 </r>
       <r>   -5.3319    1.0000 </r>
       <r>   -5.3319    1.0000 </r>
       <r>   -4.6459    1.0000 </r>
       <r>   -4.6459    1.0000 </r>
       <r>   -4.3550    1.0000 </r>
       <r>   -4.3550    1.0000 </r>
       <r>    5.6233    0.0000 </r>
       <r>    5.6235    0.0000 </r>
       <r>    7.0589    0.0000 </r>
       <r>    7.0590    0.0000 </r>
       <r>    8.2792    0.0000 </r>
       <r>    8.2792    0.0000 </r>
       <r>   10.8158    0.0000 </r>
       <r>   10.8158    0.0000 </r>
       <r>   11.7432    0.0000 </r>
       <r>   11.7432    0.0000 </r>
       <r>   13.6179    0.0000 </r>
       <r>   13.6179    0.0000 </r>
      </set>
      <set comment="kpoint 19">
       <r>  -18.4738    1.0000 </r>
       <r>  -18.4738    1.0000 </r>
       <r>   -5.3725    1.0000 </r>
       <r>   -5.3725    1.0000 </r>
       <r>   -4.7849    1.0000 </r>
       <r>   -4.7849    1.0000 </r>
       <r>   -4.3905    1.0000 </r>
       <r>   -4.3905    1.0000 </r>
       <r>    6.2701    0.0000 </r>
       <r>    6.2703    0.0000 </r>
       <r>    7.0268    0.0000 </r>
       <r>    7.0270    0.0000 </r>
       <r>    8.3070    0.0000 </r>
       <r>    8.3070    0.0000 </r>
       <r>   10.3642    0.0000 </r>
       <r>   10.3642    0.0000 </r>
       <r>   11.7928    0.0000 </r>
       <r>   11.7928    0.0000 </r>
       <r>   13.1544    0.0000 </r>
       <r>   13.1544    0.0000 </r>
      </set>
      <set comment="kpoint 20">
       <r>  -18.4891    1.0000 </r>
       <r>  -18.4891    1.0000 </r>
       <r>   -5.3241    1.0000 </r>
       <r>   -5.3240    1.0000 </r>
       <r>   -4.7716    1.0000 </r>
       <r>   -4.7716    1.0000 </r>
       <r>   -4.3100    1.0000 </r>
       <r>   -4.3100    1.0000 </r>
       <r>    6.4858    0.0000 </r>
       <r>    6.4859    0.0000 </r>
       <r>    7.1500    0.0000 </r>
       <r>    7.1502    0.0000 </r>
       <r>    7.9161    0.0000 </r>
       <r>    7.9161    0.0000 </r>
       <r>    9.9844    0.0000 </r>
       <r>    9.9844    0.0000 </r>
       <r>   11.6892    0.0000 </r>
       <r>   11.6892    0.0000 </r>
       <r>   12.7415    0.0000 </r>
       <r>   12.7415    0.0000 </r>
      </set>
      <set comment="kpoint 21">
       <r>  -18.5277    1.0000 </r>
       <r>  -18.5276    1.0000 </r>
       <r>   -5.2778    1.0000 </r>
       <r>   -5.2777    1.0000 </r>
       <r>   -4.5390    1.0000 </r>
       <r>   -4.5390    1.0000 </r>
       <r>   -4.1770    1.0000 </r>
       <r>   -4.1770    1.0000 </r>
       <r>    5.3509    0.0000 </r>
       <r>    5.3511    0.0000 </r>
       <r>    7.7244    0.0000 </r>
       <r>    7.7245    0.0000 </r>
       <r>    8.5028    0.0000 </r>
       <r>    8.5029    0.0000 </r>
       <r>    9.5638    0.0000 </r>
       <r>    9.5638    0.0000 </r>
       <r>   11.2270    0.0000 </r>
       <r>   11.2270    0.0000 </r>
       <r>   13.3689    0.0000 </r>
       <r>   13.3691    0.0000 </r>
      </set>
      <set comment="kpoint 22">
       <r>  -18.5133    1.0000 </r>
       <r>  -18.5132    1.0000 </r>
       <r>   -5.4815    1.0000 </r>
       <r>   -5.4815    1.0000 </r>
       <r>   -4.4916    1.0000 </r>
       <r>   -4.4915    1.0000 </r>
       <r>   -4.1298    1.0000 </r>
       <r>   -4.1298    1.0000 </r>
       <r>    5.3299    0.0000 </r>
       <r>    5.3299    0.0000 </r>
       <r>    7.8659    0.0000 </r>
       <r>    7.8663    0.0000 </r>
       <r>    9.0383    0.0000 </r>
       <r>    9.0383    0.0000 </r>
       <r>    9.0553    0.0000 </r>
       <r>    9.0553    0.0000 </r>
       <r>   12.5569    0.0000 </r>
       <r>   12.5572    0.0000 </r>
       <r>   13.1165    0.0000 </r>
       <r>   13.1221    0.0000 </r>
      </set>
      <set comment="kpoint 23">
       <r>  -18.5121    1.0000 </r>
       <r>  -18.5121    1.0000 </r>
       <r>   -5.3722    1.0000 </r>
       <r>   -5.3722    1.0000 </r>
       <r>   -4.5514    1.0000 </r>
       <r>   -4.5514    1.0000 </r>
       <r>   -4.2208    1.0000 </r>
       <r>   -4.2208    1.0000 </r>
       <r>    5.5671    0.0000 </r>
       <r>    5.5672    0.0000 </r>
       <r>    7.5003    0.0000 </r>
       <r>    7.5005    0.0000 </r>
       <r>    8.5123    0.0000 </r>
       <r>    8.5123    0.0000 </r>
       <r>    9.5648    0.0000 </r>
       <r>    9.5648    0.0000 </r>
       <r>   11.9754    0.0000 </r>
       <r>   11.9755    0.0000 </r>
       <r>   13.4512    0.0000 </r>
       <r>   13.4513    0.0000 </r>
      </set>
      <set comment="kpoint 24">
       <r>  -18.4936    1.0000 </r>
       <r>  -18.4936    1.0000 </r>
       <r>   -5.3319    1.0000 </r>
       <r>   -5.3319    1.0000 </r>
       <r>   -4.6459    1.0000 </r>
       <r>   -4.6459    1.0000 </r>
       <r>   -4.3550    1.0000 </r>
       <r>   -4.3550    1.0000 </r>
       <r>    5.6233    0.0000 </r>
       <r>    5.6235    0.0000 </r>
       <r>    7.0589    0.0000 </r>
       <r>    7.0590    0.0000 </r>
       <r>    8.2792    0.0000 </r>
       <r>    8.2792    0.0000 </r>
       <r>   10.8158    0.0000 </r>
       <r>   10.8158    0.0000 </r>
       <r>   11.7432    0.0000 </r>
       <r>   11.7432    0.0000 </r>
       <r>   13.6179    0.0000 </r>
       <r>   13.6179    0.0000 </r>
      </set>
      <set comment="kpoint 25">
       <r>  -18.4715    1.0000 </r>
       <r>  -18.4715    1.0000 </r>
       <r>   -5.4271    1.0000 </r>
       <r>   -5.4271    1.0000 </r>
       <r>   -4.6944    1.0000 </r>
       <r>   -4.6944    1.0000 </r>
       <r>   -4.3976    1.0000 </r>
       <r>   -4.3976    1.0000 </r>
       <r>    5.3621    0.0000 </r>
       <r>    5.3624    0.0000 </r>
       <r>    6.6527    0.0000 </r>
       <r>    6.6528    0.0000 </r>
       <r>    8.9981    0.0000 </r>
       <r>    8.9981    0.0000 </r>
       <r>   12.2679    0.0000 </r>
       <r>   12.2679    0.0000 </r>
       <r>   12.3750    0.0000 </r>
       <r>   12.3750    0.0000 </r>
       <r>   13.4623    0.0000 </r>
       <r>   13.4623    0.0000 </r>
      </set>
      <set comment="kpoint 26">
       <r>  -18.4627    1.0000 </r>
       <r>  -18.4627    1.0000 </r>
       <r>   -5.4237    1.0000 </r>
       <r>   -5.4236    1.0000 </r>
       <r>   -4.7537    1.0000 </r>
       <r>   -4.7537    1.0000 </r>
       <r>   -4.4466    1.0000 </r>
       <r>   -4.4466    1.0000 </r>
       <r>    5.6007    0.0000 </r>
       <r>    5.6010    0.0000 </r>
       <r>    6.7889    0.0000 </r>
       <r>    6.7889    0.0000 </r>
       <r>    8.9688    0.0000 </r>
       <r>    8.9688    0.0000 </r>
       <r>   11.7082    0.0000 </r>
       <r>   11.7082    0.0000 </r>
       <r>   12.0688    0.0000 </r>
       <r>   12.0688    0.0000 </r>
       <r>   13.7950    0.0000 </r>
       <r>   13.7950    0.0000 </r>
      </set>
      <set comment="kpoint 27">
       <r>  -18.4738    1.0000 </r>
       <r>  -18.4738    1.0000 </r>
       <r>   -5.3725    1.0000 </r>
       <r>   -5.3725    1.0000 </r>
       <r>   -4.7849    1.0000 </r>
       <r>   -4.7849    1.0000 </r>
       <r>   -4.3905    1.0000 </r>
       <r>   -4.3905    1.0000 </r>
       <r>    6.2701    0.0000 </r>
       <r>    6.2703    0.0000 </r>
       <r>    7.0268    0.0000 </r>
       <r>    7.0270    0.0000 </r>
       <r>    8.3070    0.0000 </r>
       <r>    8.3070    0.0000 </r>
       <r>   10.3642    0.0000 </r>
       <r>   10.3642    0.0000 </r>
       <r>   11.7928    0.0000 </r>
       <r>   11.7928    0.0000 </r>
       <r>   13.1544    0.0000 </r>
       <r>   13.1544    0.0000 </r>
      </set>
      <set comment="kpoint 28">
       <r>  -18.4963    1.0000 </r>
       <r>  -18.4963    1.0000 </r>
       <r>   -5.4642    1.0000 </r>
       <r>   -5.4642    1.0000 </r>
       <r>   -4.6006    1.0000 </r>
       <r>   -4.6006    1.0000 </r>
       <r>   -4.2348    1.0000 </r>
       <r>   -4.2348    1.0000 </r>
       <r>    5.8664    0.0000 </r>
       <r>    5.8664    0.0000 </r>
       <r>    7.4434    0.0000 </r>
       <r>    7.4438    0.0000 </r>
       <r>    8.5970    0.0000 </r>
       <r>    8.5970    0.0000 </r>
       <r>    9.3515    0.0000 </r>
       <r>    9.3515    0.0000 </r>
       <r>   12.9566    0.0000 </r>
       <r>   12.9567    0.0000 </r>
       <r>   13.1455    0.0000 </r>
       <r>   13.1456    0.0000 </r>
      </set>
      <set comment="kpoint 29">
       <r>  -18.5133    1.0000 </r>
       <r>  -18.5132    1.0000 </r>
       <r>   -5.4815    1.0000 </r>
       <r>   -5.4815    1.0000 </r>
       <r>   -4.4916    1.0000 </r>
       <r>   -4.4915    1.0000 </r>
       <r>   -4.1298    1.0000 </r>
       <r>   -4.1298    1.0000 </r>
       <r>    5.3299    0.0000 </r>
       <r>    5.3299    0.0000 </r>
       <r>    7.8659    0.0000 </r>
       <r>    7.8663    0.0000 </r>
       <r>    9.0383    0.0000 </r>
       <r>    9.0383    0.0000 </r>
       <r>    9.0553    0.0000 </r>
       <r>    9.0553    0.0000 </r>
       <r>   12.5569    0.0000 </r>
       <r>   12.5572    0.0000 </r>
       <r>   13.1165    0.0000 </r>
       <r>   13.1243    0.0000 </r>
      </set>
      <set comment="kpoint 30">
       <r>  -18.4963    1.0000 </r>
       <r>  -18.4963    1.0000 </r>
       <r>   -5.4642    1.0000 </r>
       <r>   -5.4642    1.0000 </r>
       <r>   -4.6006    1.0000 </r>
       <r>   -4.6006    1.0000 </r>
       <r>   -4.2348    1.0000 </r>
       <r>   -4.2348    1.0000 </r>
       <r>    5.8664    0.0000 </r>
       <r>    5.8664    0.0000 </r>
       <r>    7.4434    0.0000 </r>
       <r>    7.4438    0.0000 </r>
       <r>    8.5970    0.0000 </r>
       <r>    8.5970    0.0000 </r>
       <r>    9.3515    0.0000 </r>
       <r>    9.3515    0.0000 </r>
       <r>   12.9566    0.0000 </r>
       <r>   12.9567    0.0000 </r>
       <r>   13.1455    0.0000 </r>
       <r>   13.1456    0.0000 </r>
      </set>
      <set comment="kpoint 31">
       <r>  -18.4738    1.0000 </r>
       <r>  -18.4738    1.0000 </r>
       <r>   -5.3725    1.0000 </r>
       <r>   -5.3725    1.0000 </r>
       <r>   -4.7849    1.0000 </r>
       <r>   -4.7849    1.0000 </r>
       <r>   -4.3905    1.0000 </r>
       <r>   -4.3905    1.0000 </r>
       <r>    6.2701    0.0000 </r>
       <r>    6.2703    0.0000 </r>
       <r>    7.0268    0.0000 </r>
       <r>    7.0270    0.0000 </r>
       <r>    8.3070    0.0000 </r>
       <r>    8.3070    0.0000 </r>
       <r>   10.3642    0.0000 </r>
       <r>   10.3642    0.0000 </r>
       <r>   11.7928    0.0000 </r>
       <r>   11.7928    0.0000 </r>
       <r>   13.1544    0.0000 </r>
       <r>   13.1544    0.0000 </r>
      </set>
      <set comment="kpoint 32">
       <r>  -18.4627    1.0000 </r>
       <r>  -18.4627    1.0000 </r>
       <r>   -5.4237    1.0000 </r>
       <r>   -5.4236    1.0000 </r>
       <r>   -4.7537    1.0000 </r>
       <r>   -4.7537    1.0000 </r>
       <r>   -4.4466    1.0000 </r>
       <r>   -4.4466    1.0000 </r>
       <r>    5.6007    0.0000 </r>
       <r>    5.6010    0.0000 </r>
       <r>    6.7889    0.0000 </r>
       <r>    6.7889    0.0000 </r>
       <r>    8.9688    0.0000 </r>
       <r>    8.9688    0.0000 </r>
       <r>   11.7082    0.0000 </r>
       <r>   11.7082    0.0000 </r>
       <r>   12.0688    0.0000 </r>
       <r>   12.0688    0.0000 </r>
       <r>   13.7950    0.0000 </r>
       <r>   13.7950    0.0000 </r>
      </set>
      <set comment="kpoint 33">
       <r>  -18.4715    1.0000 </r>
       <r>  -18.4715    1.0000 </r>
       <r>   -5.4271    1.0000 </r>
       <r>   -5.4271    1.0000 </r>
       <r>   -4.6944    1.0000 </r>
       <r>   -4.6944    1.0000 </r>
       <r>   -4.3976    1.0000 </r>
       <r>   -4.3976    1.0000 </r>
       <r>    5.3621    0.0000 </r>
       <r>    5.3624    0.0000 </r>
       <r>    6.6527    0.0000 </r>
       <r>    6.6528    0.0000 </r>
       <r>    8.9981    0.0000 </r>
       <r>    8.9981    0.0000 </r>
       <r>   12.2679    0.0000 </r>
       <r>   12.2679    0.0000 </r>
[...]
       <r>     5.0967     0.0000     0.0000 </r>
       <r>     5.2158     0.0000     0.0000 </r>
       <r>     5.3348     0.0000     0.0000 </r>
       <r>     5.4539     0.0000     0.0000 </r>
       <r>     5.5730     0.0000     0.0000 </r>
       <r>     5.6921     0.0000     0.0000 </r>
       <r>     5.8111     0.0000     0.0000 </r>
       <r>     5.9302     0.0000     0.0000 </r>
       <r>     6.0493     0.0000     0.0000 </r>
       <r>     6.1684     0.0000     0.0000 </r>
       <r>     6.2874     0.0000     0.0000 </r>
       <r>     6.4065     0.0000     0.0000 </r>
       <r>     6.5256     0.0000     0.0000 </r>
       <r>     6.6447     0.0000     0.0000 </r>
       <r>     6.7637     0.0000     0.0000 </r>
       <r>     6.8828     0.0000     0.0000 </r>
       <r>     7.0019     0.0000     0.0000 </r>
       <r>     7.1210     0.0000     0.0000 </r>
       <r>     7.2401     0.0000     0.0000 </r>
       <r>     7.3591     0.0000     0.0000 </r>
       <r>     7.4782     0.0000     0.0000 </r>
       <r>     7.5973     0.0000     0.0000 </r>
       <r>     7.7164     0.0000     0.0000 </r>
       <r>     7.8354     0.0000     0.0000 </r>
       <r>     7.9545     0.0000     0.0000 </r>
       <r>     8.0736     0.0000     0.0000 </r>
       <r>     8.1927     0.0000     0.0000 </r>
       <r>     8.3117     0.0000     0.0000 </r>
       <r>     8.4308     0.0000     0.0000 </r>
       <r>     8.5499     0.0000     0.0000 </r>
       <r>     8.6690     0.0000     0.0000 </r>
       <r>     8.7880     0.0000     0.0000 </r>
       <r>     8.9071     0.0000     0.0000 </r>
       <r>     9.0262     0.0000     0.0000 </r>
       <r>     9.1453     0.0000     0.0000 </r>
       <r>     9.2643     0.0000     0.0000 </r>
       <r>     9.3834     0.0000     0.0000 </r>
       <r>     9.5025     0.0000     0.0000 </r>
       <r>     9.6216     0.0000     0.0000 </r>
       <r>     9.7406     0.0000     0.0000 </r>
       <r>     9.8597     0.0000     0.0000 </r>
       <r>     9.9788     0.0000     0.0000 </r>
       <r>    10.0979     0.0000     0.0000 </r>
       <r>    10.2169     0.0000     0.0000 </r>
       <r>    10.3360     0.0000     0.0000 </r>
       <r>    10.4551     0.0000     0.0000 </r>
       <r>    10.5742     0.0000     0.0000 </r>
       <r>    10.6932     0.0000     0.0000 </r>
       <r>    10.8123     0.0000     0.0000 </r>
       <r>    10.9314     0.0000     0.0000 </r>
       <r>    11.0505     0.0000     0.0000 </r>
       <r>    11.1695     0.0000     0.0000 </r>
       <r>    11.2886     0.0000     0.0000 </r>
       <r>    11.4077     0.0000     0.0000 </r>
       <r>    11.5268     0.0000     0.0000 </r>
       <r>    11.6458     0.0000     0.0000 </r>
       <r>    11.7649     0.0000     0.0000 </r>
       <r>    11.8840     0.0000     0.0000 </r>
       <r>    12.0031     0.0000     0.0000 </r>
       <r>    12.1221     0.0000     0.0000 </r>
       <r>    12.2412     0.0000     0.0000 </r>
       <r>    12.3603     0.0000     0.0000 </r>
       <r>    12.4794     0.0000     0.0000 </r>
       <r>    12.5984     0.0000     0.0000 </r>
       <r>    12.7175     0.0000     0.0000 </r>
       <r>    12.8366     0.0000     0.0000 </r>
       <r>    12.9557     0.0000     0.0000 </r>
       <r>    13.0747     0.0000     0.0000 </r>
       <r>    13.1938     0.0000     0.0000 </r>
       <r>    13.3129     0.0000     0.0000 </r>
       <r>    13.4320     0.0000     0.0000 </r>
       <r>    13.5510     0.0000     0.0000 </r>
       <r>    13.6701     0.0000     0.0000 </r>
       <r>    13.7892     0.0000     0.0000 </r>
       <r>    13.9083     0.0000     0.0000 </r>
       <r>    14.0273     0.0000     0.0000 </r>
       <r>    14.1464     0.0000     0.0000 </r>
       <r>    14.2655     0.0000     0.0000 </r>
       <r>    14.3846     0.0000     0.0000 </r>
       <r>    14.5036     0.0000     0.0000 </r>
       <r>    14.6227     0.0000     0.0000 </r>
       <r>    14.7418     0.0000     0.0000 </r>
       <r>    14.8609     0.0000     0.0000 </r>
       <r>    14.9799     0.0000     0.0000 </r>
       <r>    15.0990     0.0000     0.0000 </r>
       <r>    15.2181     0.0000     0.0000 </r>
       <r>    15.3372     0.0000     0.0000 </r>
       <r>    15.4562     0.0000     0.0000 </r>
      </set>
      <set comment="spin 4">
       <r>   -20.2663     0.0000     0.0000 </r>
       <r>   -20.1472     0.0000     0.0000 </r>
       <r>   -20.0282     0.0000     0.0000 </r>
       <r>   -19.9091     0.0000     0.0000 </r>
       <r>   -19.7900     0.0000     0.0000 </r>
       <r>   -19.6709     0.0000     0.0000 </r>
       <r>   -19.5519     0.0000     0.0000 </r>
       <r>   -19.4328     0.0000     0.0000 </r>
       <r>   -19.3137     0.0000     0.0000 </r>
       <r>   -19.1946     0.0000     0.0000 </r>
       <r>   -19.0756     0.0000     0.0000 </r>
       <r>   -18.9565     0.0000     0.0000 </r>
       <r>   -18.8374     0.0000     0.0000 </r>
       <r>   -18.7183     0.0000     0.0000 </r>
       <r>   -18.5993     0.0000     0.0000 </r>
       <r>   -18.4802     0.0000     0.0000 </r>
       <r>   -18.3611     0.0000     0.0000 </r>
       <r>   -18.2420     0.0000     0.0000 </r>
       <r>   -18.1230     0.0000     0.0000 </r>
       <r>   -18.0039     0.0000     0.0000 </r>
       <r>   -17.8848     0.0000     0.0000 </r>
       <r>   -17.7657     0.0000     0.0000 </r>
       <r>   -17.6467     0.0000     0.0000 </r>
       <r>   -17.5276     0.0000     0.0000 </r>
       <r>   -17.4085     0.0000     0.0000 </r>
       <r>   -17.2894     0.0000     0.0000 </r>
       <r>   -17.1704     0.0000     0.0000 </r>
       <r>   -17.0513     0.0000     0.0000 </r>
       <r>   -16.9322     0.0000     0.0000 </r>
       <r>   -16.8131     0.0000     0.0000 </r>
       <r>   -16.6941     0.0000     0.0000 </r>
       <r>   -16.5750     0.0000     0.0000 </r>
       <r>   -16.4559     0.0000     0.0000 </r>
       <r>   -16.3368     0.0000     0.0000 </r>
       <r>   -16.2178     0.0000     0.0000 </r>
       <r>   -16.0987     0.0000     0.0000 </r>
       <r>   -15.9796     0.0000     0.0000 </r>
       <r>   -15.8605     0.0000     0.0000 </r>
       <r>   -15.7415     0.0000     0.0000 </r>
       <r>   -15.6224     0.0000     0.0000 </r>
       <r>   -15.5033     0.0000     0.0000 </r>
       <r>   -15.3842     0.0000     0.0000 </r>
       <r>   -15.2652     0.0000     0.0000 </r>
       <r>   -15.1461     0.0000     0.0000 </r>
       <r>   -15.0270     0.0000     0.0000 </r>
       <r>   -14.9079     0.0000     0.0000 </r>
       <r>   -14.7889     0.0000     0.0000 </r>
       <r>   -14.6698     0.0000     0.0000 </r>
       <r>   -14.5507     0.0000     0.0000 </r>
       <r>   -14.4316     0.0000     0.0000 </r>
       <r>   -14.3126     0.0000     0.0000 </r>
       <r>   -14.1935     0.0000     0.0000 </r>
       <r>   -14.0744     0.0000     0.0000 </r>
       <r>   -13.9553     0.0000     0.0000 </r>
       <r>   -13.8363     0.0000     0.0000 </r>
       <r>   -13.7172     0.0000     0.0000 </r>
       <r>   -13.5981     0.0000     0.0000 </r>
       <r>   -13.4790     0.0000     0.0000 </r>
       <r>   -13.3600     0.0000     0.0000 </r>
       <r>   -13.2409     0.0000     0.0000 </r>
       <r>   -13.1218     0.0000     0.0000 </r>
       <r>   -13.0027     0.0000     0.0000 </r>
       <r>   -12.8837     0.0000     0.0000 </r>
       <r>   -12.7646     0.0000     0.0000 </r>
       <r>   -12.6455     0.0000     0.0000 </r>
       <r>   -12.5264     0.0000     0.0000 </r>
       <r>   -12.4074     0.0000     0.0000 </r>
       <r>   -12.2883     0.0000     0.0000 </r>
       <r>   -12.1692     0.0000     0.0000 </r>
       <r>   -12.0501     0.0000     0.0000 </r>
       <r>   -11.9311     0.0000     0.0000 </r>
       <r>   -11.8120     0.0000     0.0000 </r>
       <r>   -11.6929     0.0000     0.0000 </r>
       <r>   -11.5738     0.0000     0.0000 </r>
       <r>   -11.4548     0.0000     0.0000 </r>
       <r>   -11.3357     0.0000     0.0000 </r>
       <r>   -11.2166     0.0000     0.0000 </r>
       <r>   -11.0975     0.0000     0.0000 </r>
       <r>   -10.9785     0.0000     0.0000 </r>
       <r>   -10.8594     0.0000     0.0000 </r>
       <r>   -10.7403     0.0000     0.0000 </r>
       <r>   -10.6212     0.0000     0.0000 </r>
       <r>   -10.5022     0.0000     0.0000 </r>
       <r>   -10.3831     0.0000     0.0000 </r>
       <r>   -10.2640     0.0000     0.0000 </r>
       <r>   -10.1449     0.0000     0.0000 </r>
       <r>   -10.0259     0.0000     0.0000 </r>
       <r>    -9.9068     0.0000     0.0000 </r>
       <r>    -9.7877     0.0000     0.0000 </r>
       <r>    -9.6686     0.0000     0.0000 </r>
       <r>    -9.5496     0.0000     0.0000 </r>
       <r>    -9.4305     0.0000     0.0000 </r>
       <r>    -9.3114     0.0000     0.0000 </r>
       <r>    -9.1923     0.0000     0.0000 </r>
       <r>    -9.0733     0.0000     0.0000 </r>
       <r>    -8.9542     0.0000     0.0000 </r>
       <r>    -8.8351     0.0000     0.0000 </r>
       <r>    -8.7160     0.0000     0.0000 </r>
       <r>    -8.5969     0.0000     0.0000 </r>
       <r>    -8.4779     0.0000     0.0000 </r>
       <r>    -8.3588     0.0000     0.0000 </r>
       <r>    -8.2397     0.0000     0.0000 </r>
       <r>    -8.1206     0.0000     0.0000 </r>
       <r>    -8.0016     0.0000     0.0000 </r>
       <r>    -7.8825     0.0000     0.0000 </r>
       <r>    -7.7634     0.0000     0.0000 </r>
       <r>    -7.6443     0.0000     0.0000 </r>
       <r>    -7.5253     0.0000     0.0000 </r>
       <r>    -7.4062     0.0000     0.0000 </r>
       <r>    -7.2871     0.0000     0.0000 </r>
       <r>    -7.1680     0.0000     0.0000 </r>
       <r>    -7.0490     0.0000     0.0000 </r>
       <r>    -6.9299     0.0000     0.0000 </r>
       <r>    -6.8108     0.0000     0.0000 </r>
       <r>    -6.6917     0.0000     0.0000 </r>
       <r>    -6.5727     0.0000     0.0000 </r>
       <r>    -6.4536     0.0000     0.0000 </r>
       <r>    -6.3345     0.0000     0.0000 </r>
       <r>    -6.2154     0.0000     0.0000 </r>
       <r>    -6.0964     0.0000     0.0000 </r>
       <r>    -5.9773     0.0000     0.0000 </r>
       <r>    -5.8582     0.0000     0.0000 </r>
       <r>    -5.7391     0.0000     0.0000 </r>
       <r>    -5.6201     0.0000     0.0000 </r>
       <r>    -5.5010     0.0000     0.0000 </r>
       <r>    -5.3819     0.0000     0.0000 </r>
       <r>    -5.2628     0.0000     0.0000 </r>
       <r>    -5.1438     0.0000     0.0000 </r>
       <r>    -5.0247     0.0000     0.0000 </r>
       <r>    -4.9056     0.0000     0.0000 </r>
       <r>    -4.7865     0.0000     0.0000 </r>
       <r>    -4.6675     0.0000     0.0000 </r>
       <r>    -4.5484     0.0000     0.0000 </r>
       <r>    -4.4293     0.0000     0.0000 </r>
       <r>    -4.3102     0.0000     0.0000 </r>
       <r>    -4.1912     0.0000     0.0000 </r>
       <r>    -4.0721     0.0000     0.0000 </r>
       <r>    -3.9530     0.0000     0.0000 </r>
       <r>    -3.8339     0.0000     0.0000 </r>
       <r>    -3.7149     0.0000     0.0000 </r>
       <r>    -3.5958     0.0000     0.0000 </r>
       <r>    -3.4767     0.0000     0.0000 </r>
       <r>    -3.3576     0.0000     0.0000 </r>
       <r>    -3.2386     0.0000     0.0000 </r>
       <r>    -3.1195     0.0000     0.0000 </r>
       <r>    -3.0004     0.0000     0.0000 </r>
       <r>    -2.8813     0.0000     0.0000 </r>
       <r>    -2.7623     0.0000     0.0000 </r>
       <r>    -2.6432     0.0000     0.0000 </r>
       <r>    -2.5241     0.0000     0.0000 </r>
       <r>    -2.4050     0.0000     0.0000 </r>
       <r>    -2.2860     0.0000     0.0000 </r>
       <r>    -2.1669     0.0000     0.0000 </r>
       <r>    -2.0478     0.0000     0.0000 </r>
       <r>    -1.9287     0.0000     0.0000 </r>
       <r>    -1.8097     0.0000     0.0000 </r>
       <r>    -1.6906     0.0000     0.0000 </r>
       <r>    -1.5715     0.0000     0.0000 </r>
       <r>    -1.4524     0.0000     0.0000 </r>
       <r>    -1.3334     0.0000     0.0000 </r>
       <r>    -1.2143     0.0000     0.0000 </r>
       <r>    -1.0952     0.0000     0.0000 </r>
       <r>    -0.9761     0.0000     0.0000 </r>
       <r>    -0.8571     0.0000     0.0000 </r>
       <r>    -0.7380     0.0000     0.0000 </r>
       <r>    -0.6189     0.0000     0.0000 </r>
       <r>    -0.4998     0.0000     0.0000 </r>
       <r>    -0.3808     0.0000     0.0000 </r>
       <r>    -0.2617     0.0000     0.0000 </r>
       <r>    -0.1426     0.0000     0.0000 </r>
       <r>    -0.0235     0.0000     0.0000 </r>
       <r>     0.0955     0.0000     0.0000 </r>
       <r>     0.2146     0.0000     0.0000 </r>
       <r>     0.3337     0.0000     0.0000 </r>
       <r>     0.4528     0.0000     0.0000 </r>
       <r>     0.5718     0.0000     0.0000 </r>
       <r>     0.6909     0.0000     0.0000 </r>
       <r>     0.8100     0.0000     0.0000 </r>
       <r>     0.9291     0.0000     0.0000 </r>
       <r>     1.0481     0.0000     0.0000 </r>
       <r>     1.1672     0.0000     0.0000 </r>
       <r>     1.2863     0.0000     0.0000 </r>
       <r>     1.4054     0.0000     0.0000 </r>
       <r>     1.5244     0.0000     0.0000 </r>
       <r>     1.6435     0.0000     0.0000 </r>
       <r>     1.7626     0.0000     0.0000 </r>
       <r>     1.8817     0.0000     0.0000 </r>
       <r>     2.0007     0.0000     0.0000 </r>
       <r>     2.1198     0.0000     0.0000 </r>
       <r>     2.2389     0.0000     0.0000 </r>
       <r>     2.3580     0.0000     0.0000 </r>
       <r>     2.4770     0.0000     0.0000 </r>
       <r>     2.5961     0.0000     0.0000 </r>
       <r>     2.7152     0.0000     0.0000 </r>
       <r>     2.8343     0.0000     0.0000 </r>
       <r>     2.9533     0.0000     0.0000 </r>
       <r>     3.0724     0.0000     0.0000 </r>
       <r>     3.1915     0.0000     0.0000 </r>
       <r>     3.3106     0.0000     0.0000 </r>
       <r>     3.4296     0.0000     0.0000 </r>
       <r>     3.5487     0.0000     0.0000 </r>
       <r>     3.6678     0.0000     0.0000 </r>
       <r>     3.7869     0.0000     0.0000 </r>
       <r>     3.9059     0.0000     0.0000 </r>
       <r>     4.0250     0.0000     0.0000 </r>
       <r>     4.1441     0.0000     0.0000 </r>
       <r>     4.2632     0.0000     0.0000 </r>
       <r>     4.3822     0.0000     0.0000 </r>
       <r>     4.5013     0.0000     0.0000 </r>
       <r>     4.6204     0.0000     0.0000 </r>
       <r>     4.7395     0.0000     0.0000 </r>
       <r>     4.8585     0.0000     0.0000 </r>
       <r>     4.9776     0.0000     0.0000 </r>
       <r>     5.0967     0.0000     0.0000 </r>
       <r>     5.2158     0.0000     0.0000 </r>
       <r>     5.3348     0.0000     0.0000 </r>
       <r>     5.4539     0.0000     0.0000 </r>
       <r>     5.5730     0.0000     0.0000 </r>
       <r>     5.6921     0.0000     0.0000 </r>
       <r>     5.8111     0.0000     0.0000 </r>
       <r>     5.9302     0.0000     0.0000 </r>
       <r>     6.0493     0.0000     0.0000 </r>
       <r>     6.1684     0.0000     0.0000 </r>
       <r>     6.2874     0.0000     0.0000 </r>
       <r>     6.4065     0.0000     0.0000 </r>
       <r>     6.5256     0.0000     0.0000 </r>
       <r>     6.6447     0.0000     0.0000 </r>
       <r>     6.7637     0.0000     0.0000 </r>
       <r>     6.8828     0.0000     0.0000 </r>
       <r>     7.0019     0.0000     0.0000 </r>
       <r>     7.1210     0.0000     0.0000 </r>
       <r>     7.2401     0.0000     0.0000 </r>
       <r>     7.3591     0.0000     0.0000 </r>
       <r>     7.4782     0.0000     0.0000 </r>
       <r>     7.5973     0.0000     0.0000 </r>
       <r>     7.7164     0.0000     0.0000 </r>
       <r>     7.8354     0.0000     0.0000 </r>
       <r>     7.9545     0.0000     0.0000 </r>
       <r>     8.0736     0.0000     0.0000 </r>
       <r>     8.1927     0.0000     0.0000 </r>
       <r>     8.3117     0.0000     0.0000 </r>
       <r>     8.4308     0.0000     0.0000 </r>
       <r>     8.5499     0.0000     0.0000 </r>
       <r>     8.6690     0.0000     0.0000 </r>
       <r>     8.7880     0.0000     0.0000 </r>
       <r>     8.9071     0.0000     0.0000 </r>
       <r>     9.0262     0.0000     0.0000 </r>
       <r>     9.1453     0.0000     0.0000 </r>
       <r>     9.2643     0.0000     0.0000 </r>
       <r>     9.3834     0.0000     0.0000 </r>
       <r>     9.5025     0.0000     0.0000 </r>
       <r>     9.6216     0.0000     0.0000 </r>
       <r>     9.7406     0.0000     0.0000 </r>
       <r>     9.8597     0.0000     0.0000 </r>
       <r>     9.9788     0.0000     0.0000 </r>
       <r>    10.0979     0.0000     0.0000 </r>
       <r>    10.2169     0.0000     0.0000 </r>
       <r>    10.3360     0.0000     0.0000 </r>
       <r>    10.4551     0.0000     0.0000 </r>
       <r>    10.5742     0.0000     0.0000 </r>
       <r>    10.6932     0.0000     0.0000 </r>
       <r>    10.8123     0.0000     0.0000 </r>
       <r>    10.9314     0.0000     0.0000 </r>
       <r>    11.0505     0.0000     0.0000 </r>
       <r>    11.1695     0.0000     0.0000 </r>
       <r>    11.2886     0.0000     0.0000 </r>
       <r>    11.4077     0.0000     0.0000 </r>
       <r>    11.5268     0.0000     0.0000 </r>
       <r>    11.6458     0.0000     0.0000 </r>
       <r>    11.7649     0.0000     0.0000 </r>
       <r>    11.8840     0.0000     0.0000 </r>
       <r>    12.0031     0.0000     0.0000 </r>
       <r>    12.1221     0.0000     0.0000 </r>
       <r>    12.2412     0.0000     0.0000 </r>
       <r>    12.3603     0.0000     0.0000 </r>
       <r>    12.4794     0.0000     0.0000 </r>
       <r>    12.5984     0.0000     0.0000 </r>
       <r>    12.7175     0.0000     0.0000 </r>
       <r>    12.8366     0.0000     0.0000 </r>
       <r>    12.9557     0.0000     0.0000 </r>
       <r>    13.0747     0.0000     0.0000 </r>
       <r>    13.1938     0.0000     0.0000 </r>
       <r>    13.3129     0.0000     0.0000 </r>
       <r>    13.4320     0.0000     0.0000 </r>
       <r>    13.5510     0.0000     0.0000 </r>
       <r>    13.6701     0.0000     0.0000 </r>
       <r>    13.7892     0.0000     0.0000 </r>
       <r>    13.9083     0.0000     0.0000 </r>
       <r>    14.0273     0.0000     0.0000 </r>
       <r>    14.1464     0.0000     0.0000 </r>
       <r>    14.2655     0.0000     0.0000 </r>
       <r>    14.3846     0.0000     0.0000 </r>
       <r>    14.5036     0.0000     0.0000 </r>
       <r>    14.6227     0.0000     0.0000 </r>
       <r>    14.7418     0.0000     0.0000 </r>
       <r>    14.8609     0.0000     0.0000 </r>
       <r>    14.9799     0.0000     0.0000 </r>
       <r>    15.0990     0.0000     0.0000 </r>
       <r>    15.2181     0.0000     0.0000 </r>
       <r>    15.3372     0.0000     0.0000 </r>
       <r>    15.4562     0.0000     0.0000 </r>
      </set>
     </set>
    </array>
   </total>
  </dos>
 </calculation>
 <structure name="finalpos" >
  <crystal>
   <varray name="basis" >
    <v>       4.11534301       0.00000000       0.00000000 </v>
    <v>       2.05767151       3.56399159      -0.00000000 </v>
    <v>       2.05767151       1.18799720       3.36016350 </v>
   </varray>
   <i name="volume">     49.28367901 </i>
   <varray name="rec_basis" >
    <v>       0.24299311      -0.14029214      -0.09920152 </v>
    <v>       0.00000000       0.28058428      -0.09920152 </v>
    <v>      -0.00000000       0.00000000       0.29760457 </v>
   </varray>
  </crystal>
  <varray name="positions" >
   <v>       0.00000000       0.00000000       0.00000000 </v>
  </varray>
  <varray name="velocities" >
   <v>       0.00000000       0.00000000       0.00000000 </v>
  </varray>
 </structure>
</modeling>
