   1   1   0   0
  0.5789729E+02  0.4342346E-09  0.4342346E-09  0.4342346E-09  0.1000000E-15
  1.000000000000000E-004
  CAR 
 Og_FCC                                  
     60.45610266    -52.76457120  301      1.67570281      1.00000000
    -52.765  0.0000E+00  0.0000E+00
    -52.387  0.0000E+00  0.0000E+00
    -52.010  0.0000E+00  0.0000E+00
    -51.632  0.0000E+00  0.0000E+00
    -51.255  0.0000E+00  0.0000E+00
    -50.878  0.0000E+00  0.0000E+00
    -50.500  0.0000E+00  0.0000E+00
    -50.123  0.0000E+00  0.0000E+00
    -49.745  0.0000E+00  0.0000E+00
    -49.368  0.0000E+00  0.0000E+00
    -48.991  0.0000E+00  0.0000E+00
    -48.613  0.0000E+00  0.0000E+00
    -48.236  0.0000E+00  0.0000E+00
    -47.858  0.0000E+00  0.0000E+00
    -47.481  0.7002E+00  0.3875E+01
    -47.104  0.0000E+00  0.4000E+01
    -46.726  0.0000E+00  0.4000E+01
    -46.349  0.0000E+00  0.4000E+01
    -45.971  0.0000E+00  0.4000E+01
    -45.594  0.0000E+00  0.4000E+01
    -45.217  0.0000E+00  0.4000E+01
    -44.839  0.0000E+00  0.4000E+01
    -44.462  0.0000E+00  0.4000E+01
    -44.084  0.0000E+00  0.4000E+01
    -43.707  0.0000E+00  0.4000E+01
    -43.330  0.0000E+00  0.4000E+01
    -42.952  0.0000E+00  0.4000E+01
    -42.575  0.0000E+00  0.4000E+01
    -42.197  0.0000E+00  0.4000E+01
    -41.820  0.0000E+00  0.4000E+01
    -41.443  0.0000E+00  0.4000E+01
    -41.065  0.0000E+00  0.4000E+01
    -40.688  0.0000E+00  0.4000E+01
    -40.310  0.0000E+00  0.4000E+01
    -39.933  0.0000E+00  0.4000E+01
    -39.555  0.0000E+00  0.4000E+01
    -39.178  0.0000E+00  0.4000E+01
    -38.801  0.0000E+00  0.4046E+01
    -38.423  0.0000E+00  0.1000E+02
    -38.046  0.0000E+00  0.1000E+02
    -37.668  0.0000E+00  0.1000E+02
    -37.291  0.0000E+00  0.1000E+02
    -36.914  0.0000E+00  0.1000E+02
    -36.536  0.0000E+00  0.1000E+02
    -36.159  0.0000E+00  0.1000E+02
    -35.781  0.0000E+00  0.1000E+02
    -35.404  0.0000E+00  0.1000E+02
    -35.027  0.0000E+00  0.1000E+02
    -34.649  0.0000E+00  0.1000E+02
    -34.272  0.0000E+00  0.1000E+02
    -33.894  0.0000E+00  0.1000E+02
    -33.517  0.0000E+00  0.1000E+02
    -33.140  0.0000E+00  0.1000E+02
    -32.762  0.0000E+00  0.1000E+02
    -32.385  0.0000E+00  0.1000E+02
    -32.007  0.0000E+00  0.1000E+02
    -31.630  0.0000E+00  0.1000E+02
    -31.253  0.0000E+00  0.1000E+02
    -30.875  0.0000E+00  0.1000E+02
    -30.498  0.0000E+00  0.1000E+02
    -30.120  0.0000E+00  0.1000E+02
    -29.743  0.0000E+00  0.1000E+02
    -29.366  0.0000E+00  0.1000E+02
    -28.988  0.0000E+00  0.1000E+02
    -28.611  0.0000E+00  0.1000E+02
    -28.233  0.0000E+00  0.1000E+02
    -27.856  0.0000E+00  0.1000E+02
    -27.479  0.0000E+00  0.1000E+02
    -27.101  0.0000E+00  0.1000E+02
    -26.724  0.0000E+00  0.1200E+02
    -26.346  0.0000E+00  0.1200E+02
    -25.969  0.0000E+00  0.1200E+02
    -25.592  0.0000E+00  0.1200E+02
    -25.214  0.0000E+00  0.1200E+02
    -24.837  0.0000E+00  0.1200E+02
    -24.459  0.0000E+00  0.1200E+02
    -24.082  0.0000E+00  0.1200E+02
    -23.705  0.0000E+00  0.1200E+02
    -23.327  0.0000E+00  0.1200E+02
    -22.950  0.0000E+00  0.1200E+02
    -22.572  0.0000E+00  0.1200E+02
    -22.195  0.0000E+00  0.1200E+02
    -21.818  0.0000E+00  0.1200E+02
    -21.440  0.0000E+00  0.1200E+02
    -21.063  0.0000E+00  0.1200E+02
    -20.685  0.0000E+00  0.1200E+02
    -20.308  0.0000E+00  0.1200E+02
    -19.931  0.0000E+00  0.1200E+02
    -19.553  0.0000E+00  0.1200E+02
    -19.176  0.0000E+00  0.1200E+02
    -18.798  0.0000E+00  0.1200E+02
    -18.421  0.0000E+00  0.1200E+02
    -18.044  0.0000E+00  0.1200E+02
    -17.666  0.0000E+00  0.1200E+02
    -17.289  0.0000E+00  0.1200E+02
    -16.911  0.2944E+00  0.1386E+02
    -16.534  0.0000E+00  0.1400E+02
    -16.157  0.0000E+00  0.1400E+02
    -15.779  0.0000E+00  0.1400E+02
    -15.402  0.0000E+00  0.1400E+02
    -15.024  0.0000E+00  0.1400E+02
    -14.647  0.0000E+00  0.1400E+02
    -14.270  0.0000E+00  0.1400E+02
    -13.892  0.0000E+00  0.1400E+02
    -13.515  0.0000E+00  0.1400E+02
    -13.137  0.0000E+00  0.1400E+02
    -12.760  0.0000E+00  0.1400E+02
    -12.383  0.0000E+00  0.1400E+02
    -12.005  0.0000E+00  0.1400E+02
    -11.628  0.0000E+00  0.1400E+02
    -11.250  0.0000E+00  0.1400E+02
    -10.873  0.0000E+00  0.1400E+02
    -10.496  0.0000E+00  0.1400E+02
    -10.118  0.0000E+00  0.1400E+02
     -9.741  0.0000E+00  0.1400E+02
     -9.363  0.0000E+00  0.1400E+02
     -8.986  0.0000E+00  0.1400E+02
     -8.609  0.0000E+00  0.1400E+02
     -8.231  0.0000E+00  0.1400E+02
     -7.854  0.0000E+00  0.1400E+02
     -7.476  0.0000E+00  0.1400E+02
     -7.099  0.0000E+00  0.1400E+02
     -6.721  0.0000E+00  0.1400E+02
     -6.344  0.0000E+00  0.1400E+02
     -5.967  0.0000E+00  0.1400E+02
     -5.589  0.0000E+00  0.1400E+02
     -5.212  0.0000E+00  0.1400E+02
     -4.834  0.0000E+00  0.1400E+02
     -4.457  0.0000E+00  0.1400E+02
     -4.080  0.0000E+00  0.1400E+02
     -3.702  0.0000E+00  0.1400E+02
     -3.325  0.0000E+00  0.1400E+02
     -2.947  0.0000E+00  0.1400E+02
     -2.570  0.0000E+00  0.1400E+02
     -2.193  0.0000E+00  0.1400E+02
     -1.815  0.0000E+00  0.1400E+02
     -1.438  0.5888E+00  0.1540E+02
     -1.060  0.0000E+00  0.1575E+02
     -0.683  0.0000E+00  0.1586E+02
     -0.306  0.0000E+00  0.1631E+02
      0.072  0.0000E+00  0.1691E+02
      0.449  0.0000E+00  0.1741E+02
      0.827  0.0000E+00  0.1774E+02
      1.204  0.0000E+00  0.1791E+02
      1.581  0.0000E+00  0.1800E+02
      1.959  0.0000E+00  0.1800E+02
      2.336  0.0000E+00  0.1800E+02
      2.714  0.0000E+00  0.1800E+02
      3.091  0.2421E-01  0.1801E+02
      3.468  0.0000E+00  0.1801E+02
      3.846  0.0000E+00  0.1801E+02
      4.223  0.0000E+00  0.1801E+02
      4.601  0.0000E+00  0.1801E+02
      4.978  0.0000E+00  0.1808E+02
      5.355  0.0000E+00  0.1814E+02
      5.733  0.0000E+00  0.1814E+02
      6.110  0.7360E-01  0.1839E+02
      6.488  0.0000E+00  0.1867E+02
      6.865  0.0000E+00  0.1944E+02
      7.242  0.0000E+00  0.1989E+02
      7.620  0.0000E+00  0.2000E+02
      7.997  0.0000E+00  0.2014E+02
      8.375  0.0000E+00  0.2042E+02
      8.752  0.0000E+00  0.2119E+02
      9.129  0.0000E+00  0.2164E+02
      9.507  0.0000E+00  0.2203E+02
      9.884  0.0000E+00  0.2245E+02
     10.262  0.0000E+00  0.2307E+02
     10.639  0.0000E+00  0.2370E+02
     11.016  0.0000E+00  0.2393E+02
     11.394  0.5888E+00  0.2469E+02
     11.771  0.0000E+00  0.2536E+02
     12.149  0.0000E+00  0.2594E+02
     12.526  0.0000E+00  0.2609E+02
     12.903  0.1960E+00  0.2652E+02
     13.281  0.0000E+00  0.2704E+02
     13.658  0.0000E+00  0.2748E+02
     14.036  0.0000E+00  0.2789E+02
     14.413  0.0000E+00  0.2905E+02
     14.790  0.0000E+00  0.2958E+02
     15.168  0.0000E+00  0.3036E+02
     15.545  0.0000E+00  0.3050E+02
     15.923  0.0000E+00  0.3064E+02
     16.300  0.0000E+00  0.3115E+02
     16.677  0.0000E+00  0.3153E+02
     17.055  0.0000E+00  0.3286E+02
     17.432  0.0000E+00  0.3337E+02
     17.810  0.3120E-01  0.3421E+02
     18.187  0.2944E+00  0.3522E+02
     18.564  0.0000E+00  0.3665E+02
     18.942  0.1999E+00  0.3910E+02
     19.319  0.0000E+00  0.4049E+02
     19.697  0.2679E-02  0.4153E+02
     20.074  0.0000E+00  0.4336E+02
     20.451  0.0000E+00  0.4382E+02
     20.829  0.1586E-13  0.4451E+02
     21.206  0.0000E+00  0.4544E+02
     21.584  0.0000E+00  0.4633E+02
     21.961  0.0000E+00  0.4646E+02
     22.338  0.0000E+00  0.4670E+02
     22.716  0.0000E+00  0.4718E+02
     23.093  0.0000E+00  0.4795E+02
     23.471  0.2902E-08  0.4830E+02
     23.848  0.2943E+00  0.4908E+02
     24.225  0.0000E+00  0.4956E+02
     24.603  0.0000E+00  0.5050E+02
     24.980  0.0000E+00  0.5106E+02
     25.358  0.0000E+00  0.5214E+02
     25.735  0.0000E+00  0.5332E+02
     26.112  0.0000E+00  0.5473E+02
     26.490  0.0000E+00  0.5581E+02
     26.867  0.0000E+00  0.5666E+02
     27.245  0.0000E+00  0.5749E+02
     27.622  0.0000E+00  0.5756E+02
     28.000  0.0000E+00  0.5831E+02
     28.377  0.0000E+00  0.5947E+02
     28.754  0.0000E+00  0.6021E+02
     29.132  0.0000E+00  0.6091E+02
     29.509  0.0000E+00  0.6161E+02
     29.887  0.0000E+00  0.6224E+02
     30.264  0.4907E-01  0.6248E+02
     30.641  0.0000E+00  0.6329E+02
     31.019  0.0000E+00  0.6438E+02
     31.396  0.0000E+00  0.6505E+02
     31.774  0.0000E+00  0.6589E+02
     32.151  0.2944E+00  0.6688E+02
     32.528  0.0000E+00  0.6747E+02
     32.906  0.0000E+00  0.6888E+02
     33.283  0.0000E+00  0.6993E+02
     33.661  0.2944E+00  0.7104E+02
     34.038  0.0000E+00  0.7208E+02
     34.415  0.0000E+00  0.7319E+02
     34.793  0.0000E+00  0.7380E+02
     35.170  0.0000E+00  0.7444E+02
     35.548  0.5875E+00  0.7567E+02
     35.925  0.1472E+00  0.7607E+02
     36.302  0.0000E+00  0.7770E+02
     36.680  0.0000E+00  0.7869E+02
     37.057  0.0000E+00  0.7956E+02
     37.435  0.3606E-01  0.8034E+02
     37.812  0.5888E+00  0.8147E+02
     38.189  0.0000E+00  0.8307E+02
     38.567  0.0000E+00  0.8341E+02
     38.944  0.1388E-07  0.8432E+02
     39.322  0.0000E+00  0.8540E+02
     39.699  0.0000E+00  0.8607E+02
     40.076  0.0000E+00  0.8635E+02
     40.454  0.0000E+00  0.8770E+02
     40.831  0.0000E+00  0.8891E+02
     41.209  0.0000E+00  0.8965E+02
     41.586  0.0000E+00  0.9044E+02
     41.963  0.0000E+00  0.9111E+02
     42.341  0.8092E-05  0.9248E+02
     42.718  0.0000E+00  0.9356E+02
     43.096  0.0000E+00  0.9492E+02
     43.473  0.2944E+00  0.9554E+02
     43.850  0.0000E+00  0.9652E+02
     44.228  0.7329E-01  0.9771E+02
     44.605  0.0000E+00  0.9858E+02
     44.983  0.0000E+00  0.9942E+02
     45.360  0.0000E+00  0.1002E+03
     45.737  0.2152E-12  0.1010E+03
     46.115  0.0000E+00  0.1024E+03
     46.492  0.0000E+00  0.1035E+03
     46.870  0.0000E+00  0.1045E+03
     47.247  0.0000E+00  0.1056E+03
     47.624  0.0000E+00  0.1069E+03
     48.002  0.0000E+00  0.1079E+03
     48.379  0.0000E+00  0.1092E+03
     48.757  0.0000E+00  0.1099E+03
     49.134  0.1593E-04  0.1113E+03
     49.511  0.0000E+00  0.1116E+03
     49.889  0.0000E+00  0.1128E+03
     50.266  0.0000E+00  0.1137E+03
     50.644  0.2632E-01  0.1146E+03
     51.021  0.0000E+00  0.1158E+03
     51.398  0.0000E+00  0.1170E+03
     51.776  0.0000E+00  0.1179E+03
     52.153  0.0000E+00  0.1189E+03
     52.531  0.0000E+00  0.1206E+03
     52.908  0.0000E+00  0.1218E+03
     53.285  0.0000E+00  0.1225E+03
     53.663  0.6730E+00  0.1240E+03
     54.040  0.0000E+00  0.1249E+03
     54.418  0.0000E+00  0.1261E+03
     54.795  0.0000E+00  0.1268E+03
     55.172  0.0000E+00  0.1273E+03
     55.550  0.0000E+00  0.1280E+03
     55.927  0.0000E+00  0.1280E+03
     56.305  0.0000E+00  0.1280E+03
     56.682  0.0000E+00  0.1280E+03
     57.059  0.0000E+00  0.1280E+03
     57.437  0.0000E+00  0.1280E+03
     57.814  0.0000E+00  0.1280E+03
     58.192  0.0000E+00  0.1280E+03
     58.569  0.0000E+00  0.1280E+03
     58.946  0.0000E+00  0.1280E+03
     59.324  0.0000E+00  0.1280E+03
     59.701  0.0000E+00  0.1280E+03
     60.079  0.0000E+00  0.1280E+03
     60.456  0.0000E+00  0.1280E+03
