   1   1   0   0
  0.6517259E+02  0.4517103E-09  0.4517103E-09  0.4517103E-09  0.5000000E-15
  1.000000000000000E-004
  CAR 
 Og_FCC                                  
     14.89736928    -31.02094975  301      0.72967987      1.00000000
    -31.021  0.0000E+00  0.0000E+00
    -30.868  0.0000E+00  0.0000E+00
    -30.715  0.0000E+00  0.0000E+00
    -30.562  0.0000E+00  0.0000E+00
    -30.409  0.0000E+00  0.0000E+00
    -30.256  0.0000E+00  0.0000E+00
    -30.103  0.0000E+00  0.0000E+00
    -29.950  0.0000E+00  0.0000E+00
    -29.796  0.0000E+00  0.0000E+00
    -29.643  0.0000E+00  0.0000E+00
    -29.490  0.0000E+00  0.0000E+00
    -29.337 -0.2521E-26 -0.3858E-27
    -29.184 -0.5479E-09 -0.8386E-10
    -29.031 -0.4818E+00 -0.7375E-01
    -28.878  0.6765E+02  0.1028E+02
    -28.725 -0.1834E+01  0.1000E+02
    -28.572 -0.3797E-05  0.1000E+02
    -28.419  0.0000E+00  0.1000E+02
    -28.266  0.0000E+00  0.1000E+02
    -28.113  0.0000E+00  0.1000E+02
    -27.960  0.0000E+00  0.1000E+02
    -27.807  0.0000E+00  0.1000E+02
    -27.654  0.0000E+00  0.1000E+02
    -27.501  0.0000E+00  0.1000E+02
    -27.347  0.0000E+00  0.1000E+02
    -27.194  0.0000E+00  0.1000E+02
    -27.041  0.0000E+00  0.1000E+02
    -26.888  0.0000E+00  0.1000E+02
    -26.735  0.0000E+00  0.1000E+02
    -26.582  0.0000E+00  0.1000E+02
    -26.429  0.0000E+00  0.1000E+02
    -26.276  0.0000E+00  0.1000E+02
    -26.123  0.0000E+00  0.1000E+02
    -25.970  0.0000E+00  0.1000E+02
    -25.817  0.0000E+00  0.1000E+02
    -25.664  0.0000E+00  0.1000E+02
    -25.511  0.0000E+00  0.1000E+02
    -25.358  0.0000E+00  0.1000E+02
    -25.205  0.0000E+00  0.1000E+02
    -25.052  0.0000E+00  0.1000E+02
    -24.899  0.0000E+00  0.1000E+02
    -24.745  0.0000E+00  0.1000E+02
    -24.592  0.0000E+00  0.1000E+02
    -24.439  0.0000E+00  0.1000E+02
    -24.286  0.0000E+00  0.1000E+02
    -24.133  0.0000E+00  0.1000E+02
    -23.980  0.0000E+00  0.1000E+02
    -23.827  0.0000E+00  0.1000E+02
    -23.674  0.0000E+00  0.1000E+02
    -23.521  0.0000E+00  0.1000E+02
    -23.368  0.0000E+00  0.1000E+02
    -23.215  0.0000E+00  0.1000E+02
    -23.062  0.0000E+00  0.1000E+02
    -22.909  0.0000E+00  0.1000E+02
    -22.756  0.0000E+00  0.1000E+02
    -22.603  0.0000E+00  0.1000E+02
    -22.450 -0.2019E-50  0.1000E+02
    -22.296 -0.5104E-26  0.1000E+02
    -22.143 -0.1057E-09  0.1000E+02
    -21.990 -0.2161E-01  0.9997E+01
    -21.837  0.9767E+01  0.1149E+02
    -21.684  0.3321E+01  0.1200E+02
    -21.531 -0.2683E-03  0.1200E+02
    -21.378  0.0000E+00  0.1200E+02
    -21.225  0.0000E+00  0.1200E+02
    -21.072  0.0000E+00  0.1200E+02
    -20.919  0.0000E+00  0.1200E+02
    -20.766  0.0000E+00  0.1200E+02
    -20.613  0.0000E+00  0.1200E+02
    -20.460  0.0000E+00  0.1200E+02
    -20.307  0.0000E+00  0.1200E+02
    -20.154  0.0000E+00  0.1200E+02
    -20.001  0.0000E+00  0.1200E+02
    -19.847  0.0000E+00  0.1200E+02
    -19.694  0.0000E+00  0.1200E+02
    -19.541  0.0000E+00  0.1200E+02
    -19.388  0.0000E+00  0.1200E+02
    -19.235  0.0000E+00  0.1200E+02
    -19.082  0.0000E+00  0.1200E+02
    -18.929  0.0000E+00  0.1200E+02
    -18.776  0.0000E+00  0.1200E+02
    -18.623  0.0000E+00  0.1200E+02
    -18.470  0.0000E+00  0.1200E+02
    -18.317  0.0000E+00  0.1200E+02
    -18.164  0.0000E+00  0.1200E+02
    -18.011  0.0000E+00  0.1200E+02
    -17.858  0.0000E+00  0.1200E+02
    -17.705  0.0000E+00  0.1200E+02
    -17.552  0.0000E+00  0.1200E+02
    -17.399  0.0000E+00  0.1200E+02
    -17.245  0.0000E+00  0.1200E+02
    -17.092  0.0000E+00  0.1200E+02
    -16.939  0.0000E+00  0.1200E+02
    -16.786  0.0000E+00  0.1200E+02
    -16.633  0.0000E+00  0.1200E+02
    -16.480  0.0000E+00  0.1200E+02
    -16.327  0.0000E+00  0.1200E+02
    -16.174  0.0000E+00  0.1200E+02
    -16.021  0.0000E+00  0.1200E+02
    -15.868  0.0000E+00  0.1200E+02
    -15.715  0.0000E+00  0.1200E+02
    -15.562  0.0000E+00  0.1200E+02
    -15.409  0.0000E+00  0.1200E+02
    -15.256  0.0000E+00  0.1200E+02
    -15.103  0.0000E+00  0.1200E+02
    -14.950  0.0000E+00  0.1200E+02
    -14.796  0.0000E+00  0.1200E+02
    -14.643  0.0000E+00  0.1200E+02
    -14.490  0.0000E+00  0.1200E+02
    -14.337  0.0000E+00  0.1200E+02
    -14.184  0.0000E+00  0.1200E+02
    -14.031  0.0000E+00  0.1200E+02
    -13.878  0.0000E+00  0.1200E+02
    -13.725  0.0000E+00  0.1200E+02
    -13.572  0.0000E+00  0.1200E+02
    -13.419  0.0000E+00  0.1200E+02
    -13.266  0.0000E+00  0.1200E+02
    -13.113  0.0000E+00  0.1200E+02
    -12.960  0.0000E+00  0.1200E+02
    -12.807  0.0000E+00  0.1200E+02
    -12.654  0.0000E+00  0.1200E+02
    -12.501  0.0000E+00  0.1200E+02
    -12.348  0.0000E+00  0.1200E+02
    -12.194  0.0000E+00  0.1200E+02
    -12.041  0.0000E+00  0.1200E+02
    -11.888  0.0000E+00  0.1200E+02
    -11.735  0.0000E+00  0.1200E+02
    -11.582  0.0000E+00  0.1200E+02
    -11.429  0.0000E+00  0.1200E+02
    -11.276  0.0000E+00  0.1200E+02
    -11.123  0.0000E+00  0.1200E+02
    -10.970  0.0000E+00  0.1200E+02
    -10.817  0.0000E+00  0.1200E+02
    -10.664  0.0000E+00  0.1200E+02
    -10.511  0.0000E+00  0.1200E+02
    -10.358  0.0000E+00  0.1200E+02
    -10.205  0.0000E+00  0.1200E+02
    -10.052  0.0000E+00  0.1200E+02
     -9.899  0.0000E+00  0.1200E+02
     -9.745  0.0000E+00  0.1200E+02
     -9.592  0.0000E+00  0.1200E+02
     -9.439  0.0000E+00  0.1200E+02
     -9.286  0.0000E+00  0.1200E+02
     -9.133  0.0000E+00  0.1200E+02
     -8.980  0.0000E+00  0.1200E+02
     -8.827  0.0000E+00  0.1200E+02
     -8.674  0.0000E+00  0.1200E+02
     -8.521  0.0000E+00  0.1200E+02
     -8.368  0.0000E+00  0.1200E+02
     -8.215  0.0000E+00  0.1200E+02
     -8.062  0.0000E+00  0.1200E+02
     -7.909  0.0000E+00  0.1200E+02
     -7.756  0.0000E+00  0.1200E+02
     -7.603  0.0000E+00  0.1200E+02
     -7.450  0.0000E+00  0.1200E+02
     -7.296  0.0000E+00  0.1200E+02
     -7.143  0.0000E+00  0.1200E+02
     -6.990  0.0000E+00  0.1200E+02
     -6.837  0.0000E+00  0.1200E+02
     -6.684  0.0000E+00  0.1200E+02
     -6.531  0.0000E+00  0.1200E+02
     -6.378  0.0000E+00  0.1200E+02
     -6.225  0.0000E+00  0.1200E+02
     -6.072  0.0000E+00  0.1200E+02
     -5.919  0.0000E+00  0.1200E+02
     -5.766  0.0000E+00  0.1200E+02
     -5.613  0.0000E+00  0.1200E+02
     -5.460  0.0000E+00  0.1200E+02
     -5.307  0.0000E+00  0.1200E+02
     -5.154  0.0000E+00  0.1200E+02
     -5.001  0.0000E+00  0.1200E+02
     -4.848  0.0000E+00  0.1200E+02
     -4.694  0.0000E+00  0.1200E+02
     -4.541  0.0000E+00  0.1200E+02
     -4.388  0.0000E+00  0.1200E+02
     -4.235  0.0000E+00  0.1200E+02
     -4.082  0.0000E+00  0.1200E+02
     -3.929  0.0000E+00  0.1200E+02
     -3.776  0.0000E+00  0.1200E+02
     -3.623  0.0000E+00  0.1200E+02
     -3.470  0.0000E+00  0.1200E+02
     -3.317  0.0000E+00  0.1200E+02
     -3.164  0.0000E+00  0.1200E+02
     -3.011  0.0000E+00  0.1200E+02
     -2.858  0.0000E+00  0.1200E+02
     -2.705  0.0000E+00  0.1200E+02
     -2.552  0.0000E+00  0.1200E+02
     -2.399  0.0000E+00  0.1200E+02
     -2.245 -0.1852E-51  0.1200E+02
     -2.092 -0.9423E-27  0.1200E+02
     -1.939 -0.2819E-10  0.1200E+02
     -1.786 -0.3319E-02  0.1200E+02
     -1.633  0.5359E+00  0.1208E+02
     -1.480  0.1358E+01  0.1229E+02
     -1.327  0.3504E+01  0.1283E+02
     -1.174  0.4138E+01  0.1346E+02
     -1.021  0.1580E+01  0.1370E+02
     -0.868  0.9180E+00  0.1384E+02
     -0.715  0.1724E+01  0.1411E+02
     -0.562  0.1152E+01  0.1428E+02
     -0.409  0.2119E+01  0.1461E+02
     -0.256  0.1545E+01  0.1484E+02
     -0.103  0.4273E+01  0.1550E+02
      0.050  0.2886E+01  0.1594E+02
      0.204  0.4664E+01  0.1665E+02
      0.357  0.3851E+01  0.1724E+02
      0.510  0.3301E+01  0.1775E+02
      0.663  0.1263E+01  0.1794E+02
      0.816  0.3919E+00  0.1800E+02
      0.969 -0.6055E-03  0.1800E+02
      1.122  0.0000E+00  0.1800E+02
      1.275  0.0000E+00  0.1800E+02
      1.428  0.0000E+00  0.1800E+02
      1.581  0.0000E+00  0.1800E+02
      1.734  0.0000E+00  0.1800E+02
      1.887  0.0000E+00  0.1800E+02
      2.040  0.0000E+00  0.1800E+02
      2.193  0.0000E+00  0.1800E+02
      2.346  0.0000E+00  0.1800E+02
      2.499  0.0000E+00  0.1800E+02
      2.652 -0.1072E-29  0.1800E+02
      2.806 -0.2035E-12  0.1800E+02
      2.959 -0.1479E-03  0.1800E+02
      3.112  0.1863E-01  0.1800E+02
      3.265 -0.5559E-03  0.1800E+02
      3.418 -0.7563E-09  0.1800E+02
      3.571 -0.9774E-04  0.1800E+02
      3.724  0.1204E+00  0.1802E+02
      3.877  0.2188E-01  0.1802E+02
      4.030  0.1092E+00  0.1804E+02
      4.183 -0.4913E-03  0.1804E+02
      4.336 -0.8689E-03  0.1804E+02
      4.489  0.2170E+00  0.1807E+02
      4.642 -0.5140E-02  0.1807E+02
      4.795  0.1992E+00  0.1810E+02
      4.948  0.3789E+00  0.1816E+02
      5.101 -0.4392E-03  0.1816E+02
      5.255  0.3536E-02  0.1816E+02
      5.408  0.6316E+00  0.1826E+02
      5.561  0.2543E+00  0.1830E+02
      5.714  0.8036E+00  0.1842E+02
      5.867  0.8836E+00  0.1856E+02
      6.020  0.7490E+00  0.1867E+02
      6.173  0.8831E+00  0.1881E+02
      6.326  0.5614E+00  0.1889E+02
      6.479  0.2148E+01  0.1922E+02
      6.632  0.1155E+01  0.1940E+02
      6.785  0.1292E+01  0.1960E+02
      6.938  0.9413E+00  0.1974E+02
      7.091  0.2782E-01  0.1974E+02
      7.244  0.1073E+01  0.1991E+02
      7.397  0.5392E+00  0.1999E+02
      7.550  0.9925E+00  0.2014E+02
      7.703  0.3608E+00  0.2020E+02
      7.857  0.3134E+00  0.2025E+02
      8.010  0.1030E+01  0.2040E+02
      8.163  0.1394E+01  0.2062E+02
      8.316  0.2762E+01  0.2104E+02
      8.469  0.2319E+01  0.2139E+02
      8.622  0.6205E+00  0.2149E+02
      8.775  0.2739E+01  0.2191E+02
      8.928  0.3686E+01  0.2247E+02
      9.081  0.1379E+01  0.2268E+02
      9.234  0.2289E+00  0.2272E+02
      9.387  0.2516E+00  0.2276E+02
      9.540  0.5727E+00  0.2284E+02
      9.693  0.4608E+00  0.2292E+02
      9.846  0.3585E+01  0.2346E+02
      9.999  0.2961E+01  0.2392E+02
     10.152  0.1986E+01  0.2422E+02
     10.306  0.1927E+01  0.2452E+02
     10.459  0.2528E+01  0.2490E+02
     10.612  0.1586E+01  0.2515E+02
     10.765  0.2489E+00  0.2518E+02
     10.918  0.1055E+01  0.2535E+02
     11.071  0.5470E+00  0.2543E+02
     11.224  0.3952E+00  0.2549E+02
     11.377  0.6050E+00  0.2558E+02
     11.530  0.3898E+00  0.2564E+02
     11.683  0.8378E+00  0.2577E+02
     11.836  0.4411E+00  0.2584E+02
     11.989  0.9464E+00  0.2598E+02
     12.142  0.5856E-02  0.2598E+02
     12.295 -0.2127E-06  0.2598E+02
     12.448 -0.4021E-23  0.2598E+02
     12.601 -0.3234E-08  0.2598E+02
     12.755 -0.3574E-02  0.2598E+02
     12.908  0.1121E+00  0.2600E+02
     13.061 -0.1013E-02  0.2600E+02
     13.214  0.0000E+00  0.2600E+02
     13.367  0.0000E+00  0.2600E+02
     13.520  0.0000E+00  0.2600E+02
     13.673  0.0000E+00  0.2600E+02
     13.826  0.0000E+00  0.2600E+02
     13.979  0.0000E+00  0.2600E+02
     14.132  0.0000E+00  0.2600E+02
     14.285  0.0000E+00  0.2600E+02
     14.438  0.0000E+00  0.2600E+02
     14.591  0.0000E+00  0.2600E+02
     14.744  0.0000E+00  0.2600E+02
     14.897  0.0000E+00  0.2600E+02
