    1    1    1    1
  0.6517259E+02  0.4517103E-09  0.4517103E-09  0.4517103E-09  0.5000000E-15
  1.000000000000000E-004
  CAR 
 Og_FCC                                  
     18     35     13
 
  0.0000000E+00  0.0000000E+00  0.0000000E+00  0.1371742E-02
    1      -28.932186   1.000000
    2      -28.932186   1.000000
    3      -28.932186   1.000000
    4      -28.930134   1.000000
    5      -28.930134   1.000000
    6      -21.915065   1.000000
    7        0.716885   0.708900
    8        0.716885   0.708900
    9        0.716885   0.708900
   10        3.058115   0.000000
   11        9.906563   0.000000
   12        9.906563   0.000000
   13        9.906594   0.000000
 
  0.1111111E+00  0.7953140E-17  0.6938894E-17  0.1097394E-01
    1      -28.932043   1.000000
    2      -28.931919   1.000000
    3      -28.931919   1.000000
    4      -28.930081   1.000000
    5      -28.930080   1.000000
    6      -21.908287   1.000000
    7        0.175029   1.000000
    8        0.677575   1.028962
    9        0.677576   1.028962
   10        3.701609   0.000000
   11        9.213733   0.000000
   12       10.025738   0.000000
   13       10.025738   0.000000
 
  0.2222222E+00 -0.1184930E-16 -0.1387779E-16  0.1097394E-01
    1      -28.931628   1.000000
    2      -28.931574   1.000000
    3      -28.931574   1.000000
    4      -28.929493   1.000000
    5      -28.929493   1.000000
    6      -21.890843   1.000000
    7       -0.679963   1.000000
    8        0.581201   1.000111
    9        0.581201   1.000111
   10        4.716428   0.000000
   11        8.960484   0.000000
   12       10.057495   0.000000
   13       10.057496   0.000000
 
  0.3333333E+00 -0.2471284E-16  0.1387779E-16  0.1097394E-01
    1      -28.931639   1.000000
    2      -28.931638   1.000000
    3      -28.931151   1.000000
    4      -28.928366   1.000000
    5      -28.928366   1.000000
    6      -21.870825   1.000000
    7       -1.347301   1.000000
    8        0.476595   1.000000
    9        0.476595   1.000000
   10        5.290645   0.000000
   11        9.607447   0.000000
   12        9.745240   0.000000
   13        9.745243   0.000000
 
  0.4444444E+00 -0.2369859E-16 -0.2775558E-16  0.1097394E-01
    1      -28.931766   1.000000
    2      -28.931766   1.000000
    3      -28.930867   1.000000
    4      -28.927526   1.000000
    5      -28.927526   1.000000
    6      -21.857686   1.000000
    7       -1.701648   1.000000
    8        0.410888   1.000000
    9        0.410888   1.000000
   10        5.427637   0.000000
   11        9.519589   0.000000
   12        9.519589   0.000000
   13        9.949861   0.000000
 
  0.1111111E+00  0.1111111E+00  0.2775558E-16  0.8230453E-02
    1      -28.932394   1.000000
    2      -28.931577   1.000000
    3      -28.931577   1.000000
    4      -28.930323   1.000000
    5      -28.929876   1.000000
    6      -21.906001   1.000000
    7        0.146185   1.000000
    8        0.593198   1.000391
    9        0.593198   1.000391
   10        3.921910   0.000000
   11        8.929141   0.000000
   12       10.190244   0.000000
   13       10.196870   0.000000
 
  0.2222222E+00  0.1111111E+00  0.0000000E+00  0.3292181E-01
    1      -28.932304   1.000000
    2      -28.931067   1.000000
    3      -28.931046   1.000000
    4      -28.930166   1.000000
    5      -28.929331   1.000000
    6      -21.892094   1.000000
    7       -0.495060   1.000000
    8        0.466192   1.000000
    9        0.501680   1.000000
   10        4.821999   0.000000
   11        8.554738   0.000000
   12        9.684053   0.000000
   13       10.409066   0.000000
 
  0.3333333E+00  0.1111111E+00  0.0000000E+00  0.3292181E-01
    1      -28.931945   1.000000
    2      -28.931032   1.000000
    3      -28.930995   1.000000
    4      -28.929200   1.000000
    5      -28.928248   1.000000
    6      -21.872923   1.000000
    7       -1.145845   1.000000
    8        0.357937   1.000000
    9        0.360973   1.000000
   10        5.583211   0.000000
   11        8.865692   0.000000
   12        9.053230   0.000000
   13       10.224547   0.000000
 
  0.4444444E+00  0.1111111E+00  0.0000000E+00  0.3292181E-01
    1      -28.931831   1.000000
    2      -28.931203   1.000000
    3      -28.930708   1.000000
    4      -28.928209   1.000000
    5      -28.927467   1.000000
    6      -21.857484   1.000000
    7       -1.559709   1.000000
    8        0.206237   1.000000
    9        0.314420   1.000000
   10        5.853570   0.000000
   11        8.691590   0.000000
   12        9.899304   0.000000
   13       10.021183   0.000000
 
 -0.4444444E+00  0.1111111E+00 -0.1387779E-16  0.3292181E-01
    1      -28.931772   1.000000
    2      -28.931300   1.000000
    3      -28.930568   1.000000
    4      -28.927672   1.000000
    5      -28.927541   1.000000
    6      -21.853087   1.000000
    7       -1.663664   1.000000
    8        0.109603   1.000000
    9        0.352522   1.000000
   10        5.896501   0.000000
   11        8.637633   0.000000
   12        9.726953   0.000000
   13       10.771593   0.000000
 
 -0.3333333E+00  0.1111111E+00 -0.4163336E-16  0.3292181E-01
    1      -28.931615   1.000000
    2      -28.931242   1.000000
    3      -28.930855   1.000000
    4      -28.928482   1.000000
    5      -28.927817   1.000000
    6      -21.861873   1.000000
    7       -1.446508   1.000000
    8        0.115869   1.000000
    9        0.457236   1.000000
   10        5.819031   0.000000
   11        8.881125   0.000000
   12        9.755748   0.000000
   13        9.787846   0.000000
 
 -0.2222222E+00  0.1111111E+00  0.6938894E-17  0.3292181E-01
    1      -28.931506   1.000000
    2      -28.931312   1.000000
    3      -28.931136   1.000000
    4      -28.929728   1.000000
    5      -28.928583   1.000000
    6      -21.879571   1.000000
    7       -0.950003   1.000000
    8        0.236262   1.000000
    9        0.584544   1.000159
   10        5.369926   0.000000
   11        8.841643   0.000000
   12        9.389420   0.000000
   13       10.087432   0.000000
 
 -0.1111111E+00  0.1111111E+00 -0.1025909E-16  0.1646091E-01
    1      -28.931931   1.000000
    2      -28.931542   1.000000
    3      -28.931440   1.000000
    4      -28.930223   1.000000
    5      -28.929533   1.000000
    6      -21.897889   1.000000
    7       -0.306686   1.000000
    8        0.455525   1.000000
    9        0.673942   1.033303
   10        4.445943   0.000000
   11        8.824855   0.000000
   12        9.981389   0.000000
   13       10.179578   0.000000
 
  0.2222222E+00  0.2222222E+00  0.0000000E+00  0.8230453E-02
    1      -28.932874   1.000000
    2      -28.930749   1.000000
    3      -28.929952   1.000000
    4      -28.929952   1.000000
    5      -28.929177   1.000000
    6      -21.882790   1.000000
    7       -0.662599   1.000000
    8        0.303250   1.000000
    9        0.303250   1.000000
   10        5.412962   0.000000
   11        8.013117   0.000000
   12        9.218753   0.000000
   13       10.933242   0.000000
 
  0.3333333E+00  0.2222222E+00 -0.8326673E-16  0.3292181E-01
    1      -28.932810   1.000000
    2      -28.930955   1.000000
    3      -28.929683   1.000000
    4      -28.929020   1.000000
    5      -28.928208   1.000000
    6      -21.867190   1.000000
    7       -1.063700   1.000000
    8        0.113554   1.000000
    9        0.170274   1.000000
   10        6.052921   0.000000
   11        7.895520   0.000000
   12        8.844175   0.000000
   13       11.101078   0.000000
 
  0.4444444E+00  0.2222222E+00  0.0000000E+00  0.3292181E-01
    1      -28.932350   1.000000
    2      -28.930706   1.000000
    3      -28.929854   1.000000
    4      -28.928463   1.000000
    5      -28.927385   1.000000
    6      -21.852546   1.000000
    7       -1.366006   1.000000
    8       -0.166559   1.000000
    9        0.121580   1.000000
   10        6.437751   0.000000
   11        8.342664   0.000000
   12        8.762466   0.000000
   13       10.780817   0.000000
 
 -0.4444444E+00  0.2222222E+00  0.0000000E+00  0.3292181E-01
    1      -28.932041   1.000000
    2      -28.930029   1.000000
    3      -28.929974   1.000000
    4      -28.928412   1.000000
    5      -28.927483   1.000000
    6      -21.845861   1.000000
    7       -1.456178   1.000000
    8       -0.421715   1.000000
    9        0.175253   1.000000
   10        6.634377   0.000000
   11        8.270266   0.000000
   12        9.946933   0.000000
   13       10.465597   0.000000
 
 -0.3333333E+00  0.2222222E+00 -0.3469447E-16  0.3292181E-01
    1      -28.931764   1.000000
    2      -28.930066   1.000000
    3      -28.929989   1.000000
    4      -28.928479   1.000000
    5      -28.928187   1.000000
    6      -21.850196   1.000000
    7       -1.356810   1.000000
    8       -0.488002   1.000000
    9        0.311477   1.000000
   10        6.742553   0.000000
   11        8.288277   0.000000
   12        9.732881   0.000000
   13       10.305450   0.000000
 
 -0.2222222E+00  0.2222222E+00 -0.2260379E-16  0.1646091E-01
    1      -28.931500   1.000000
    2      -28.930792   1.000000
    3      -28.929984   1.000000
    4      -28.929902   1.000000
    5      -28.928042   1.000000
    6      -21.863562   1.000000
    7       -1.175278   1.000000
    8       -0.238399   1.000000
    9        0.474137   1.000000
   10        6.329210   0.000000
   11        8.637801   0.000000
   12        8.877975   0.000000
   13       10.275522   0.000000
 
  0.3333333E+00  0.3333333E+00  0.0000000E+00  0.8230453E-02
    1      -28.933413   1.000000
    2      -28.931263   1.000000
    3      -28.928378   1.000000
    4      -28.928110   1.000000
    5      -28.928110   1.000000
    6      -21.856252   1.000000
    7       -1.234544   1.000000
    8        0.006191   1.000000
    9        0.006191   1.000000
   10        6.058777   0.000000
   11        7.395121   0.000000
   12        9.489446   0.000000
   13       11.917278   0.000000
 
  0.4444444E+00  0.3333333E+00  0.0000000E+00  0.3292181E-01
    1      -28.933245   1.000000
    2      -28.931297   1.000000
    3      -28.928436   1.000000
    4      -28.927581   1.000000
    5      -28.927250   1.000000
    6      -21.845179   1.000000
    7       -1.389169   1.000000
    8       -0.230482   1.000000
    9       -0.067406   1.000000
   10        6.148172   0.000000
   11        7.465340   0.000000
   12        9.876709   0.000000
   13       11.951716   0.000000
 
 -0.4444444E+00  0.3333333E+00  0.4163336E-16  0.3292181E-01
    1      -28.932622   1.000000
    2      -28.930698   1.000000
    3      -28.928640   1.000000
    4      -28.927838   1.000000
    5      -28.927285   1.000000
    6      -21.839285   1.000000
    7       -1.333164   1.000000
    8       -0.647870   1.000000
    9       -0.024022   1.000000
   10        6.419239   0.000000
   11        8.191396   0.000000
   12        9.874454   0.000000
   13       11.560878   0.000000
 
 -0.3333333E+00  0.3333333E+00 -0.1119452E-16  0.1646091E-01
    1      -28.932122   1.000000
    2      -28.929405   1.000000
    3      -28.928982   1.000000
    4      -28.928762   1.000000
    5      -28.928066   1.000000
    6      -21.841270   1.000000
    7       -1.078871   1.000000
    8       -1.011327   1.000000
    9        0.121208   1.000000
   10        6.766555   0.000000
   11        8.758806   0.000000
   12       10.100165   0.000000
   13       10.399440   0.000000
 
  0.4444444E+00  0.4444444E+00  0.0000000E+00  0.8230453E-02
    1      -28.933753   1.000000
    2      -28.931600   1.000000
    3      -28.927842   1.000000
    4      -28.926891   1.000000
    5      -28.926891   1.000000
    6      -21.838818   1.000000
    7       -1.517090   1.000000
    8       -0.172684   1.000000
    9       -0.172684   1.000000
   10        5.810820   0.000000
   11        7.085084   0.000000
   12       11.407935   0.000000
   13       12.810173   0.000000
 
 -0.4444444E+00  0.4444444E+00 -0.4520759E-16  0.1646091E-01
    1      -28.933418   1.000000
    2      -28.931458   1.000000
    3      -28.927931   1.000000
    4      -28.927001   1.000000
    5      -28.926901   1.000000
    6      -21.836503   1.000000
    7       -1.488426   1.000000
    8       -0.366612   1.000000
    9       -0.156390   1.000000
   10        5.974793   0.000000
   11        7.318869   0.000000
   12       11.745997   0.000000
   13       11.776410   0.000000
 
  0.3333333E+00  0.2222222E+00  0.1111111E+00  0.3292181E-01
    1      -28.932193   1.000000
    2      -28.931035   1.000000
    3      -28.930189   1.000000
    4      -28.930023   1.000000
    5      -28.928543   1.000000
    6      -21.877326   1.000000
    7       -0.887376   1.000000
    8        0.136873   1.000000
    9        0.448741   1.000000
   10        5.662887   0.000000
   11        8.329628   0.000000
   12        9.002892   0.000000
   13       10.812655   0.000000
 
  0.4444444E+00  0.2222222E+00  0.1111111E+00  0.6584362E-01
    1      -28.931719   1.000000
    2      -28.931096   1.000000
    3      -28.930191   1.000000
    4      -28.928954   1.000000
    5      -28.927832   1.000000
    6      -21.860429   1.000000
    7       -1.266270   1.000000
    8       -0.129411   1.000000
    9        0.327477   1.000000
   10        6.368450   0.000000
   11        8.434681   0.000000
   12        8.749970   0.000000
   13       10.517938   0.000000
 
 -0.4444444E+00  0.2222222E+00  0.1111111E+00  0.6584362E-01
    1      -28.931626   1.000000
    2      -28.930946   1.000000
    3      -28.929908   1.000000
    4      -28.928346   1.000000
    5      -28.927545   1.000000
    6      -21.849363   1.000000
    7       -1.490316   1.000000
    8       -0.256872   1.000000
    9        0.221341   1.000000
   10        6.598600   0.000000
   11        8.120348   0.000000
   12        9.946262   0.000000
   13       10.337152   0.000000
 
  0.4444444E+00  0.3333333E+00  0.1111111E+00  0.3292181E-01
    1      -28.932654   1.000000
    2      -28.931086   1.000000
    3      -28.929355   1.000000
    4      -28.928142   1.000000
    5      -28.927715   1.000000
    6      -21.853875   1.000000
    7       -1.260205   1.000000
    8       -0.184734   1.000000
    9        0.068151   1.000000
   10        6.471267   0.000000
   11        7.843072   0.000000
   12        8.794075   0.000000
   13       11.627375   0.000000
 
 -0.4444444E+00  0.3333333E+00  0.1111111E+00  0.6584362E-01
    1      -28.932032   1.000000
    2      -28.930785   1.000000
    3      -28.929402   1.000000
    4      -28.928075   1.000000
    5      -28.927349   1.000000
    6      -21.843620   1.000000
    7       -1.321725   1.000000
    8       -0.506646   1.000000
    9       -0.028676   1.000000
   10        6.855816   0.000000
   11        8.303572   0.000000
   12        8.765433   0.000000
   13       11.365099   0.000000
 
 -0.3333333E+00  0.3333333E+00  0.1111111E+00  0.6584362E-01
    1      -28.931663   1.000000
    2      -28.930157   1.000000
    3      -28.929149   1.000000
    4      -28.928930   1.000000
    5      -28.927439   1.000000
    6      -21.841274   1.000000
    7       -1.243267   1.000000
    8       -0.758879   1.000000
    9        0.014312   1.000000
   10        7.172158   0.000000
   11        8.161871   0.000000
   12        9.783627   0.000000
   13       10.326478   0.000000
 
 -0.2222222E+00  0.3333333E+00  0.1111111E+00  0.3292181E-01
    1      -28.931398   1.000000
    2      -28.930723   1.000000
    3      -28.929685   1.000000
    4      -28.928210   1.000000
    5      -28.928169   1.000000
    6      -21.847923   1.000000
    7       -1.250499   1.000000
    8       -0.606498   1.000000
    9        0.169746   1.000000
   10        7.256179   0.000000
   11        7.962311   0.000000
   12        8.960646   0.000000
   13       10.961932   0.000000
 
 -0.4444444E+00  0.4444444E+00  0.1111111E+00  0.3292181E-01
    1      -28.932953   1.000000
    2      -28.931292   1.000000
    3      -28.928315   1.000000
    4      -28.927515   1.000000
    5      -28.926909   1.000000
    6      -21.838527   1.000000
    7       -1.410756   1.000000
    8       -0.376468   1.000000
    9       -0.210743   1.000000
   10        6.289619   0.000000
   11        7.577193   0.000000
   12       10.198295   0.000000
   13       11.874349   0.000000
 
 -0.3333333E+00  0.4444444E+00  0.1111111E+00  0.3292181E-01
    1      -28.932157   1.000000
    2      -28.930705   1.000000
    3      -28.928513   1.000000
    4      -28.928486   1.000000
    5      -28.926931   1.000000
    6      -21.836971   1.000000
    7       -1.245284   1.000000
    8       -0.735591   1.000000
    9       -0.175156   1.000000
   10        6.738021   0.000000
   11        8.291688   0.000000
   12        9.782523   0.000000
   13       10.505069   0.000000
 
 -0.3333333E+00  0.4444444E+00  0.2222222E+00  0.3292181E-01
    1      -28.930880   1.000000
    2      -28.930865   1.000000
    3      -28.929635   1.000000
    4      -28.928597   1.000000
    5      -28.926921   1.000000
    6      -21.837754   1.000000
    7       -1.122111   1.000000
    8       -0.822016   1.000000
    9       -0.237702   1.000000
   10        7.495744   0.000000
   11        8.407226   0.000000
   12        8.855787   0.000000
   13       10.122970   0.000000
