Og_FCC                                  
           1
     4.517103    0.000000    0.000000
     2.258551    3.911926   -0.000000
     2.258551    1.303975    3.688199
   Og
   1
Direct configuration=     1
   0.00000000  0.00000000  0.00000000
