   1   1   0   0
  0.6083477E+02  0.4414576E-09  0.4414576E-09  0.4414576E-09  0.1000000E-15
  1.000000000000000E-004
  CAR 
 Og_FCC                                  
     94.45198870    -50.34825674  301     -0.87483955      1.00000000
    -50.348  0.0000E+00  0.0000E+00
    -49.866  0.0000E+00  0.0000E+00
    -49.383  0.0000E+00  0.0000E+00
    -48.900  0.0000E+00  0.0000E+00
    -48.418  0.0000E+00  0.0000E+00
    -47.935  0.0000E+00  0.0000E+00
    -47.452  0.0000E+00  0.0000E+00
    -46.970  0.0000E+00  0.0000E+00
    -46.487  0.0000E+00  0.0000E+00
    -46.004  0.0000E+00  0.0000E+00
    -45.522  0.0000E+00  0.0000E+00
    -45.039  0.0000E+00  0.0000E+00
    -44.556  0.0000E+00  0.0000E+00
    -44.074  0.0000E+00  0.0000E+00
    -43.591  0.0000E+00  0.4000E+01
    -43.108  0.0000E+00  0.4000E+01
    -42.626  0.0000E+00  0.4000E+01
    -42.143  0.0000E+00  0.4000E+01
    -41.660  0.0000E+00  0.4000E+01
    -41.178  0.0000E+00  0.4000E+01
    -40.695  0.0000E+00  0.4000E+01
    -40.212  0.0000E+00  0.4000E+01
    -39.730  0.0000E+00  0.4000E+01
    -39.247  0.0000E+00  0.1000E+02
    -38.764  0.0000E+00  0.1000E+02
    -38.282  0.0000E+00  0.1000E+02
    -37.799  0.0000E+00  0.1000E+02
    -37.316  0.0000E+00  0.1000E+02
    -36.834  0.0000E+00  0.1000E+02
    -36.351  0.0000E+00  0.1000E+02
    -35.868  0.0000E+00  0.1000E+02
    -35.386  0.0000E+00  0.1000E+02
    -34.903  0.0000E+00  0.1000E+02
    -34.420  0.0000E+00  0.1000E+02
    -33.938  0.0000E+00  0.1000E+02
    -33.455  0.0000E+00  0.1000E+02
    -32.972  0.0000E+00  0.1000E+02
    -32.490  0.0000E+00  0.1000E+02
    -32.007  0.0000E+00  0.1000E+02
    -31.524  0.0000E+00  0.1000E+02
    -31.042  0.0000E+00  0.1000E+02
    -30.559  0.0000E+00  0.1000E+02
    -30.076  0.0000E+00  0.1000E+02
    -29.594  0.0000E+00  0.1000E+02
    -29.111  0.0000E+00  0.1000E+02
    -28.628  0.0000E+00  0.1000E+02
    -28.146  0.0000E+00  0.1000E+02
    -27.663  0.0000E+00  0.1000E+02
    -27.180  0.0000E+00  0.1000E+02
    -26.698  0.0000E+00  0.1000E+02
    -26.215  0.0000E+00  0.1000E+02
    -25.732  0.0000E+00  0.1000E+02
    -25.250  0.0000E+00  0.1000E+02
    -24.767  0.0000E+00  0.1000E+02
    -24.284  0.0000E+00  0.1000E+02
    -23.802  0.0000E+00  0.1000E+02
    -23.319  0.0000E+00  0.1000E+02
    -22.836  0.0000E+00  0.1000E+02
    -22.354  0.0000E+00  0.1000E+02
    -21.871  0.0000E+00  0.1000E+02
    -21.388  0.0000E+00  0.1000E+02
    -20.906  0.0000E+00  0.1000E+02
    -20.423  0.0000E+00  0.1000E+02
    -19.940  0.0000E+00  0.1000E+02
    -19.458  0.0000E+00  0.1000E+02
    -18.975  0.0000E+00  0.1000E+02
    -18.492  0.0000E+00  0.1000E+02
    -18.010  0.0000E+00  0.1000E+02
    -17.527  0.0000E+00  0.1000E+02
    -17.044  0.0000E+00  0.1001E+02
    -16.562  0.0000E+00  0.1200E+02
    -16.079  0.0000E+00  0.1200E+02
    -15.596  0.0000E+00  0.1200E+02
    -15.114  0.0000E+00  0.1200E+02
    -14.631  0.0000E+00  0.1200E+02
    -14.148  0.0000E+00  0.1200E+02
    -13.666  0.0000E+00  0.1200E+02
    -13.183  0.0000E+00  0.1200E+02
    -12.700  0.0000E+00  0.1200E+02
    -12.218  0.0000E+00  0.1200E+02
    -11.735  0.0000E+00  0.1200E+02
    -11.252  0.0000E+00  0.1200E+02
    -10.770  0.0000E+00  0.1200E+02
    -10.287  0.0000E+00  0.1200E+02
     -9.804  0.0000E+00  0.1200E+02
     -9.322  0.0000E+00  0.1200E+02
     -8.839  0.0000E+00  0.1200E+02
     -8.356  0.0000E+00  0.1200E+02
     -7.874  0.0000E+00  0.1200E+02
     -7.391  0.0000E+00  0.1200E+02
     -6.908  0.0000E+00  0.1200E+02
     -6.426  0.0000E+00  0.1200E+02
     -5.943  0.0000E+00  0.1200E+02
     -5.460  0.0000E+00  0.1200E+02
     -4.978  0.0000E+00  0.1386E+02
     -4.495  0.0000E+00  0.1400E+02
     -4.012  0.0000E+00  0.1400E+02
     -3.530  0.0000E+00  0.1400E+02
     -3.047  0.0000E+00  0.1400E+02
     -2.564  0.0000E+00  0.1414E+02
     -2.082  0.0000E+00  0.1575E+02
     -1.599  0.0000E+00  0.1678E+02
     -1.116  0.1534E+00  0.1791E+02
     -0.634  0.0000E+00  0.1800E+02
     -0.151  0.0000E+00  0.1800E+02
      0.332  0.0000E+00  0.1800E+02
      0.814  0.0000E+00  0.1800E+02
      1.297  0.0000E+00  0.1800E+02
      1.780  0.0000E+00  0.1800E+02
      2.262  0.0000E+00  0.1800E+02
      2.745  0.0000E+00  0.1800E+02
      3.228  0.0000E+00  0.1801E+02
      3.711  0.9530E-01  0.1806E+02
      4.193  0.0000E+00  0.1814E+02
      4.676  0.0000E+00  0.1828E+02
      5.159  0.0000E+00  0.1889E+02
      5.641  0.0000E+00  0.1958E+02
      6.124  0.0000E+00  0.2031E+02
      6.607  0.0000E+00  0.2086E+02
      7.089  0.0000E+00  0.2203E+02
      7.572  0.0000E+00  0.2232E+02
      8.055  0.0000E+00  0.2310E+02
      8.537  0.0000E+00  0.2461E+02
      9.020  0.0000E+00  0.2550E+02
      9.503  0.0000E+00  0.2583E+02
      9.985  0.0000E+00  0.2620E+02
     10.468  0.0000E+00  0.2719E+02
     10.951  0.3046E-02  0.2793E+02
     11.433  0.0000E+00  0.2843E+02
     11.916  0.0000E+00  0.2948E+02
     12.399  0.0000E+00  0.3047E+02
     12.881  0.0000E+00  0.3110E+02
     13.364  0.0000E+00  0.3148E+02
     13.847  0.0000E+00  0.3366E+02
     14.329  0.1675E-08  0.3456E+02
     14.812  0.0000E+00  0.3534E+02
     15.295  0.0000E+00  0.3575E+02
     15.777  0.0000E+00  0.3662E+02
     16.260  0.4604E+00  0.3866E+02
     16.743  0.0000E+00  0.4103E+02
     17.225  0.0000E+00  0.4262E+02
     17.708  0.0000E+00  0.4414E+02
     18.191  0.0000E+00  0.4445E+02
     18.673  0.0000E+00  0.4548E+02
     19.156  0.0000E+00  0.4610E+02
     19.639  0.0000E+00  0.4732E+02
     20.121  0.0000E+00  0.4806E+02
     20.604  0.0000E+00  0.4934E+02
     21.087  0.0000E+00  0.5038E+02
     21.569  0.0000E+00  0.5163E+02
     22.052  0.0000E+00  0.5340E+02
     22.535  0.6272E-12  0.5497E+02
     23.017  0.4604E+00  0.5660E+02
     23.500  0.0000E+00  0.5760E+02
     23.983  0.2632E+00  0.5796E+02
     24.465  0.0000E+00  0.5867E+02
     24.948  0.0000E+00  0.5971E+02
     25.431  0.0000E+00  0.6108E+02
     25.913  0.0000E+00  0.6148E+02
     26.396  0.7286E-01  0.6321E+02
     26.879  0.0000E+00  0.6408E+02
     27.361  0.9406E-08  0.6553E+02
     27.844  0.0000E+00  0.6667E+02
     28.327  0.0000E+00  0.6833E+02
     28.809  0.0000E+00  0.7044E+02
     29.292  0.1757E-01  0.7141E+02
     29.775  0.0000E+00  0.7241E+02
     30.257  0.0000E+00  0.7296E+02
     30.740  0.0000E+00  0.7407E+02
     31.223  0.0000E+00  0.7502E+02
     31.705  0.0000E+00  0.7684E+02
     32.188  0.0000E+00  0.7861E+02
     32.671  0.1535E+00  0.8009E+02
     33.153  0.0000E+00  0.8121E+02
     33.636  0.8711E-02  0.8283E+02
     34.119  0.0000E+00  0.8360E+02
     34.601  0.0000E+00  0.8517E+02
     35.084  0.0000E+00  0.8614E+02
     35.567  0.1838E-01  0.8706E+02
     36.049  0.0000E+00  0.8859E+02
     36.532  0.2227E-13  0.8926E+02
     37.015  0.0000E+00  0.9078E+02
     37.497  0.0000E+00  0.9198E+02
     37.980  0.1535E+00  0.9342E+02
     38.463  0.0000E+00  0.9522E+02
     38.945  0.0000E+00  0.9626E+02
     39.428  0.0000E+00  0.9739E+02
     39.911  0.0000E+00  0.9852E+02
     40.393  0.3623E-01  0.1002E+03
     40.876  0.5723E-05  0.1016E+03
     41.359  0.0000E+00  0.1031E+03
     41.841  0.0000E+00  0.1049E+03
     42.324  0.0000E+00  0.1065E+03
     42.807  0.0000E+00  0.1082E+03
     43.289  0.0000E+00  0.1088E+03
     43.772  0.0000E+00  0.1100E+03
     44.255  0.0000E+00  0.1116E+03
     44.737  0.0000E+00  0.1133E+03
     45.220  0.7673E-01  0.1148E+03
     45.703  0.2799E+00  0.1161E+03
     46.185  0.0000E+00  0.1180E+03
     46.668  0.0000E+00  0.1190E+03
     47.151  0.8963E-07  0.1205E+03
     47.633  0.0000E+00  0.1215E+03
     48.116  0.7550E-04  0.1225E+03
     48.599  0.0000E+00  0.1243E+03
     49.081  0.0000E+00  0.1259E+03
     49.564  0.0000E+00  0.1276E+03
     50.047  0.0000E+00  0.1295E+03
     50.529  0.0000E+00  0.1310E+03
     51.012  0.2163E+00  0.1325E+03
     51.495  0.0000E+00  0.1340E+03
     51.977  0.2009E-02  0.1354E+03
     52.460  0.0000E+00  0.1370E+03
     52.943  0.0000E+00  0.1381E+03
     53.425  0.0000E+00  0.1399E+03
     53.908  0.0000E+00  0.1415E+03
     54.391  0.1394E-02  0.1425E+03
     54.873  0.0000E+00  0.1443E+03
     55.356  0.0000E+00  0.1456E+03
     55.839  0.0000E+00  0.1473E+03
     56.321  0.0000E+00  0.1482E+03
     56.804  0.0000E+00  0.1504E+03
     57.287  0.0000E+00  0.1524E+03
     57.769  0.0000E+00  0.1537E+03
     58.252  0.0000E+00  0.1551E+03
     58.735  0.2034E+00  0.1570E+03
     59.217  0.4830E-01  0.1584E+03
     59.700  0.0000E+00  0.1597E+03
     60.183  0.0000E+00  0.1616E+03
     60.665  0.1193E-05  0.1640E+03
     61.148  0.1136E-02  0.1657E+03
     61.631  0.0000E+00  0.1682E+03
     62.113  0.8604E-11  0.1694E+03
     62.596  0.0000E+00  0.1706E+03
     63.079  0.0000E+00  0.1719E+03
     63.561  0.0000E+00  0.1735E+03
     64.044  0.6276E-06  0.1751E+03
     64.527  0.0000E+00  0.1766E+03
     65.009  0.9995E-01  0.1789E+03
     65.492  0.0000E+00  0.1804E+03
     65.975  0.0000E+00  0.1822E+03
     66.457  0.2302E+00  0.1840E+03
     66.940  0.4604E+00  0.1858E+03
     67.423  0.0000E+00  0.1868E+03
     67.905  0.9932E-01  0.1887E+03
     68.388  0.0000E+00  0.1903E+03
     68.871  0.4685E-03  0.1918E+03
     69.353  0.0000E+00  0.1935E+03
     69.836  0.3409E-13  0.1949E+03
     70.319  0.0000E+00  0.1966E+03
     70.801  0.5755E-01  0.1991E+03
     71.284  0.0000E+00  0.2016E+03
     71.767  0.0000E+00  0.2029E+03
     72.249  0.0000E+00  0.2047E+03
     72.732  0.9825E-05  0.2063E+03
     73.215  0.0000E+00  0.2078E+03
     73.697  0.1535E+00  0.2102E+03
     74.180  0.4604E+00  0.2115E+03
     74.663  0.9208E+00  0.2136E+03
     75.145  0.0000E+00  0.2149E+03
     75.628  0.0000E+00  0.2168E+03
     76.111  0.0000E+00  0.2192E+03
     76.593  0.0000E+00  0.2208E+03
     77.076  0.0000E+00  0.2222E+03
     77.559  0.0000E+00  0.2241E+03
     78.041  0.4796E+00  0.2259E+03
     78.524  0.0000E+00  0.2279E+03
     79.007  0.1517E-04  0.2301E+03
     79.489  0.0000E+00  0.2317E+03
     79.972  0.1149E+00  0.2330E+03
     80.455  0.0000E+00  0.2353E+03
     80.937  0.0000E+00  0.2369E+03
     81.420  0.0000E+00  0.2388E+03
     81.903  0.0000E+00  0.2407E+03
     82.385  0.2516E-13  0.2427E+03
     82.868  0.0000E+00  0.2441E+03
     83.351  0.2134E+00  0.2468E+03
     83.833  0.2302E+00  0.2484E+03
     84.316  0.5371E+00  0.2497E+03
     84.799  0.0000E+00  0.2519E+03
     85.281  0.1526E+00  0.2534E+03
     85.764  0.0000E+00  0.2549E+03
     86.247  0.0000E+00  0.2554E+03
     86.729  0.0000E+00  0.2558E+03
     87.212  0.0000E+00  0.2558E+03
     87.695  0.0000E+00  0.2559E+03
     88.177  0.0000E+00  0.2560E+03
     88.660  0.0000E+00  0.2560E+03
     89.143  0.0000E+00  0.2560E+03
     89.625  0.0000E+00  0.2560E+03
     90.108  0.0000E+00  0.2560E+03
     90.591  0.0000E+00  0.2560E+03
     91.073  0.0000E+00  0.2560E+03
     91.556  0.0000E+00  0.2560E+03
     92.039  0.0000E+00  0.2560E+03
     92.521  0.0000E+00  0.2560E+03
     93.004  0.0000E+00  0.2560E+03
     93.487  0.0000E+00  0.2560E+03
     93.969  0.0000E+00  0.2560E+03
     94.452  0.0000E+00  0.2560E+03
