       N       E                     dE             d eps       ncg     rms          rms(c)
DIA:   1    -0.177418998280E+01   -0.17742E+01    0.00000E+00     0   0.000E+00
DIA:   2    -0.177418998280E+01    0.27285E-11    0.00000E+00     0   0.000E+00
DIA:   3    -0.177418998280E+01   -0.45475E-11    0.00000E+00     0   0.000E+00
DIA:   4    -0.177418998281E+01   -0.11823E-10    0.00000E+00     0   0.000E+00
DIA:   5    -0.177418998279E+01    0.19099E-10    0.00000E+00     0   0.000E+00    0.220E-05
DIA:   6    -0.177418998458E+01   -0.17862E-08    0.00000E+00     0   0.000E+00
   1 F= -.19981803E+01 E0= -.19981803E+01  d E =-.756272-134  mag=     0.0000     0.0000     0.0000
 imaginary and real dielectric function
