    1    1    1    1
  0.6008441E+02  0.4396350E-09  0.4396350E-09  0.4396350E-09  0.1000000E-15
  1.000000000000000E-004
  CAR 
 Og_FCC                                  
     18    343     28
 
  0.0000000E+00  0.0000000E+00  0.0000000E+00  0.2915452E-02
    1      -30.755710   1.000000
    2      -30.755708   1.000000
    3      -30.755706   1.000000
    4      -30.755705   1.000000
    5      -24.091457   1.000000
    6      -24.091446   1.000000
    7      -24.084438   1.000000
    8      -24.084435   1.000000
    9      -24.084425   1.000000
   10      -24.084423   1.000000
   11      -20.471684   1.000000
   12      -20.471667   1.000000
   13       -7.224062   1.000000
   14       -7.224048   1.000000
   15        3.447463   1.000000
   16        3.447472   1.000000
   17        3.557605   0.525963
   18        3.557640   0.506480
   19        3.557663   0.493425
   20        3.557697   0.474132
   21       10.513448   0.000000
   22       10.513451   0.000000
   23       10.513463   0.000000
   24       10.513466   0.000000
   25       10.844319   0.000000
   26       10.844330   0.000000
   27       10.922246   0.000000
   28       10.922264   0.000000
 
  0.1428571E+00 -0.1253471E-16  0.0000000E+00  0.2915452E-02
    1      -30.748977   1.000000
    2      -30.748976   1.000000
    3      -30.736273   1.000000
    4      -30.736269   1.000000
    5      -24.084706   1.000000
    6      -24.084696   1.000000
    7      -24.074372   1.000000
    8      -24.074359   1.000000
    9      -24.073530   1.000000
   10      -24.073521   1.000000
   11      -20.453893   1.000000
   12      -20.453877   1.000000
   13       -7.285229   1.000000
   14       -7.285215   1.000000
   15        2.122515   1.000000
   16        2.122563   1.000000
   17        3.447271   1.000000
   18        3.447302   1.000000
   19        4.952671   0.000000
   20        4.952697   0.000000
   21        9.565155   0.000000
   22        9.565172   0.000000
   23       10.670394   0.000000
   24       10.670406   0.000000
   25       10.971081   0.000000
   26       10.971090   0.000000
   27       11.963592   0.000000
   28       11.963609   0.000000
 
  0.2857143E+00  0.2686160E-17  0.1387779E-16  0.2915452E-02
    1      -30.743514   1.000000
    2      -30.743511   1.000000
    3      -30.735539   1.000000
    4      -30.735538   1.000000
    5      -24.079136   1.000000
    6      -24.079127   1.000000
    7      -24.072059   1.000000
    8      -24.072048   1.000000
    9      -24.071312   1.000000
   10      -24.071298   1.000000
   11      -20.413640   1.000000
   12      -20.413623   1.000000
   13       -7.423077   1.000000
   14       -7.423063   1.000000
   15        1.106599   1.000000
   16        1.106653   1.000000
   17        3.220547   1.000000
   18        3.220574   1.000000
   19        5.810419   0.000000
   20        5.810429   0.000000
   21        9.712043   0.000000
   22        9.712068   0.000000
   23       10.413628   0.000000
   24       10.413640   0.000000
   25       10.811053   0.000000
   26       10.811063   0.000000
   27       11.111845   0.000000
   28       11.111862   0.000000
 
  0.4285714E+00  0.3178482E-16  0.5551115E-16  0.2915452E-02
    1      -30.741556   1.000000
    2      -30.741552   1.000000
    3      -30.734320   1.000000
    4      -30.734319   1.000000
    5      -24.074244   1.000000
    6      -24.074235   1.000000
    7      -24.071308   1.000000
    8      -24.071298   1.000000
    9      -24.070835   1.000000
   10      -24.070821   1.000000
   11      -20.380707   1.000000
   12      -20.380690   1.000000
   13       -7.534042   1.000000
   14       -7.534027   1.000000
   15        0.575286   1.000000
   16        0.575342   1.000000
   17        3.055732   1.000000
   18        3.055757   1.000000
   19        5.925856   0.000000
   20        5.925868   0.000000
   21       10.028122   0.000000
   22       10.028137   0.000000
   23       10.207035   0.000000
   24       10.207048   0.000000
   25       10.425551   0.000000
   26       10.425560   0.000000
   27       11.390374   0.000000
   28       11.390385   0.000000
 
 -0.4285714E+00 -0.3178482E-16 -0.5551115E-16  0.2915452E-02
    1      -30.741556   1.000000
    2      -30.741552   1.000000
    3      -30.734320   1.000000
    4      -30.734319   1.000000
    5      -24.074244   1.000000
    6      -24.074235   1.000000
    7      -24.071308   1.000000
    8      -24.071298   1.000000
    9      -24.070835   1.000000
   10      -24.070821   1.000000
   11      -20.380707   1.000000
   12      -20.380690   1.000000
   13       -7.534042   1.000000
   14       -7.534027   1.000000
   15        0.575286   1.000000
   16        0.575342   1.000000
   17        3.055732   1.000000
   18        3.055757   1.000000
   19        5.925856   0.000000
   20        5.925868   0.000000
   21       10.028122   0.000000
   22       10.028137   0.000000
   23       10.207035   0.000000
   24       10.207048   0.000000
   25       10.425551   0.000000
   26       10.425560   0.000000
   27       11.390374   0.000000
   28       11.390385   0.000000
 
 -0.2857143E+00 -0.2686160E-17 -0.1387779E-16  0.2915452E-02
    1      -30.743514   1.000000
    2      -30.743511   1.000000
    3      -30.735539   1.000000
    4      -30.735538   1.000000
    5      -24.079136   1.000000
    6      -24.079127   1.000000
    7      -24.072059   1.000000
    8      -24.072048   1.000000
    9      -24.071312   1.000000
   10      -24.071298   1.000000
   11      -20.413640   1.000000
   12      -20.413623   1.000000
   13       -7.423077   1.000000
   14       -7.423063   1.000000
   15        1.106599   1.000000
   16        1.106653   1.000000
   17        3.220547   1.000000
   18        3.220574   1.000000
   19        5.810419   0.000000
   20        5.810429   0.000000
   21        9.712043   0.000000
   22        9.712068   0.000000
   23       10.413628   0.000000
   24       10.413640   0.000000
   25       10.811053   0.000000
   26       10.811063   0.000000
   27       11.111845   0.000000
   28       11.111861   0.000000
 
 -0.1428571E+00  0.1253471E-16  0.0000000E+00  0.2915452E-02
    1      -30.748977   1.000000
    2      -30.748976   1.000000
    3      -30.736273   1.000000
    4      -30.736269   1.000000
    5      -24.084706   1.000000
    6      -24.084696   1.000000
    7      -24.074372   1.000000
    8      -24.074359   1.000000
    9      -24.073530   1.000000
   10      -24.073521   1.000000
   11      -20.453893   1.000000
   12      -20.453877   1.000000
   13       -7.285229   1.000000
   14       -7.285215   1.000000
   15        2.122515   1.000000
   16        2.122563   1.000000
   17        3.447271   1.000000
   18        3.447302   1.000000
   19        4.952671   0.000000
   20        4.952697   0.000000
   21        9.565155   0.000000
   22        9.565172   0.000000
   23       10.670394   0.000000
   24       10.670406   0.000000
   25       10.971081   0.000000
   26       10.971090   0.000000
   27       11.963597   0.000000
   28       11.963614   0.000000
 
  0.1925930E-33  0.1428571E+00  0.0000000E+00  0.2915452E-02
    1      -30.748978   1.000000
    2      -30.748976   1.000000
    3      -30.736273   1.000000
    4      -30.736269   1.000000
    5      -24.084703   1.000000
    6      -24.084698   1.000000
    7      -24.074370   1.000000
    8      -24.074361   1.000000
    9      -24.073529   1.000000
   10      -24.073521   1.000000
   11      -20.453893   1.000000
   12      -20.453877   1.000000
   13       -7.285229   1.000000
   14       -7.285216   1.000000
   15        2.122521   1.000000
   16        2.122557   1.000000
   17        3.447270   1.000000
   18        3.447304   1.000000
   19        4.952674   0.000000
   20        4.952695   0.000000
   21        9.565156   0.000000
   22        9.565172   0.000000
   23       10.670397   0.000000
   24       10.670403   0.000000
   25       10.971079   0.000000
   26       10.971092   0.000000
   27       11.963598   0.000000
   28       11.963613   0.000000
 
  0.1428571E+00  0.1428571E+00  0.1387779E-16  0.2915452E-02
    1      -30.731548   1.000000
    2      -30.731547   1.000000
    3      -30.725973   1.000000
    4      -30.725970   1.000000
    5      -24.072627   1.000000
    6      -24.072621   1.000000
    7      -24.067741   1.000000
    8      -24.067732   1.000000
    9      -24.064031   1.000000
   10      -24.064022   1.000000
   11      -20.447862   1.000000
   12      -20.447845   1.000000
   13       -7.304485   1.000000
   14       -7.304472   1.000000
   15        2.013891   1.000000
   16        2.013933   1.000000
   17        3.191970   1.000000
   18        3.191997   1.000000
   19        5.353994   0.000000
   20        5.354021   0.000000
   21        9.138149   0.000000
   22        9.138160   0.000000
   23       10.567496   0.000000
   24       10.567508   0.000000
   25       10.977795   0.000000
   26       10.977816   0.000000
   27       11.455347   0.000000
   28       11.455356   0.000000
 
  0.2857143E+00  0.1428571E+00  0.0000000E+00  0.2915452E-02
    1      -30.739934   1.000000
    2      -30.739932   1.000000
    3      -30.732628   1.000000
    4      -30.732627   1.000000
    5      -24.076333   1.000000
    6      -24.076322   1.000000
    7      -24.071614   1.000000
    8      -24.071605   1.000000
    9      -24.068358   1.000000
   10      -24.068350   1.000000
   11      -20.415191   1.000000
   12      -20.415175   1.000000
   13       -7.413900   1.000000
   14       -7.413886   1.000000
   15        1.264258   1.000000
   16        1.264309   1.000000
   17        2.882301   1.000000
   18        2.882313   1.000000
   19        6.266277   0.000000
   20        6.266290   0.000000
   21        8.890129   0.000000
   22        8.890146   0.000000
   23        9.610188   0.000000
   24        9.610209   0.000000
   25       11.174238   0.000000
   26       11.174249   0.000000
   27       12.150787   0.000000
   28       12.150806   0.000000
 
  0.4285714E+00  0.1428571E+00  0.5551115E-16  0.2915452E-02
    1      -30.748950   1.000000
    2      -30.748946   1.000000
    3      -30.740850   1.000000
    4      -30.740849   1.000000
    5      -24.079882   1.000000
    6      -24.079874   1.000000
    7      -24.076456   1.000000
    8      -24.076445   1.000000
    9      -24.073961   1.000000
   10      -24.073952   1.000000
   11      -20.379811   1.000000
   12      -20.379795   1.000000
   13       -7.530437   1.000000
   14       -7.530423   1.000000
   15        0.695279   1.000000
   16        0.695336   1.000000
   17        2.594514   1.000000
   18        2.594534   1.000000
   19        6.609044   0.000000
   20        6.609054   0.000000
   21        8.883449   0.000000
   22        8.883468   0.000000
   23        9.989315   0.000000
   24        9.989330   0.000000
   25       10.908119   0.000000
   26       10.908131   0.000000
   27       12.414018   0.000000
   28       12.414031   0.000000
 
 -0.4285714E+00  0.1428571E+00 -0.2775558E-16  0.2915452E-02
    1      -30.740656   1.000000
    2      -30.740653   1.000000
    3      -30.733091   1.000000
    4      -30.733090   1.000000
    5      -24.074531   1.000000
    6      -24.074523   1.000000
    7      -24.070854   1.000000
    8      -24.070844   1.000000
    9      -24.067903   1.000000
   10      -24.067889   1.000000
   11      -20.368690   1.000000
   12      -20.368673   1.000000
   13       -7.566441   1.000000
   14       -7.566427   1.000000
   15        0.541222   1.000000
   16        0.541281   1.000000
   17        2.501876   1.000000
   18        2.501897   1.000000
   19        6.678954   0.000000
   20        6.678965   0.000000
   21        8.760044   0.000000
   22        8.760061   0.000000
   23       10.426116   0.000000
   24       10.426122   0.000000
   25       11.170817   0.000000
   26       11.170825   0.000000
   27       12.546847   0.000000
   28       12.546865   0.000000
 
 -0.2857143E+00  0.1428571E+00 -0.1387779E-16  0.2915452E-02
    1      -30.751983   1.000000
    2      -30.751981   1.000000
    3      -30.744990   1.000000
    4      -30.744988   1.000000
    5      -24.083379   1.000000
    6      -24.083374   1.000000
    7      -24.079043   1.000000
    8      -24.079033   1.000000
    9      -24.075922   1.000000
   10      -24.075920   1.000000
   11      -20.390840   1.000000
   12      -20.390823   1.000000
   13       -7.495360   1.000000
   14       -7.495346   1.000000
   15        0.834671   1.000000
   16        0.834728   1.000000
   17        2.683941   1.000000
   18        2.683960   1.000000
   19        6.630660   0.000000
   20        6.630670   0.000000
   21        9.091880   0.000000
   22        9.091897   0.000000
   23        9.899982   0.000000
   24        9.900007   0.000000
   25       10.713178   0.000000
   26       10.713192   0.000000
   27       12.194581   0.000000
   28       12.194598   0.000000
 
 -0.1428571E+00  0.1428571E+00 -0.2369252E-16  0.2915452E-02
    1      -30.732383   1.000000
    2      -30.732382   1.000000
    3      -30.723279   1.000000
    4      -30.723274   1.000000
    5      -24.073616   1.000000
    6      -24.073613   1.000000
    7      -24.064270   1.000000
    8      -24.064258   1.000000
    9      -24.062733   1.000000
   10      -24.062726   1.000000
   11      -20.428543   1.000000
   12      -20.428527   1.000000
   13       -7.370437   1.000000
   14       -7.370423   1.000000
   15        1.479246   1.000000
   16        1.479292   1.000000
   17        3.087312   1.000000
   18        3.087324   1.000000
   19        5.910423   0.000000
   20        5.910437   0.000000
   21        9.183596   0.000000
   22        9.183611   0.000000
   23       10.177548   0.000000
   24       10.177560   0.000000
   25       11.108366   0.000000
   26       11.108379   0.000000
   27       11.301787   0.000000
   28       11.301812   0.000000
 
  0.3851860E-33  0.2857143E+00 -0.1387779E-16  0.2915452E-02
    1      -30.743514   1.000000
    2      -30.743511   1.000000
    3      -30.735540   1.000000
    4      -30.735538   1.000000
    5      -24.079136   1.000000
    6      -24.079127   1.000000
    7      -24.072057   1.000000
    8      -24.072050   1.000000
    9      -24.071310   1.000000
   10      -24.071301   1.000000
   11      -20.413640   1.000000
   12      -20.413623   1.000000
   13       -7.423076   1.000000
   14       -7.423063   1.000000
   15        1.106606   1.000000
   16        1.106646   1.000000
   17        3.220544   1.000000
   18        3.220578   1.000000
   19        5.810418   0.000000
   20        5.810430   0.000000
   21        9.712045   0.000000
   22        9.712066   0.000000
   23       10.413629   0.000000
   24       10.413639   0.000000
   25       10.811053   0.000000
   26       10.811063   0.000000
   27       11.111847   0.000000
   28       11.111860   0.000000
 
  0.1428571E+00  0.2857143E+00  0.2775558E-16  0.2915452E-02
    1      -30.739934   1.000000
    2      -30.739932   1.000000
    3      -30.732629   1.000000
    4      -30.732626   1.000000
    5      -24.076333   1.000000
    6      -24.076322   1.000000
    7      -24.071615   1.000000
    8      -24.071604   1.000000
    9      -24.068360   1.000000
   10      -24.068348   1.000000
   11      -20.415191   1.000000
   12      -20.415175   1.000000
   13       -7.413900   1.000000
   14       -7.413886   1.000000
   15        1.264260   1.000000
   16        1.264307   1.000000
   17        2.882285   1.000000
   18        2.882330   1.000000
   19        6.266276   0.000000
   20        6.266292   0.000000
   21        8.890130   0.000000
   22        8.890144   0.000000
   23        9.610187   0.000000
   24        9.610210   0.000000
   25       11.174236   0.000000
   26       11.174250   0.000000
   27       12.150791   0.000000
   28       12.150802   0.000000
 
  0.2857143E+00  0.2857143E+00  0.0000000E+00  0.2915452E-02
    1      -30.741559   1.000000
    2      -30.741556   1.000000
    3      -30.741095   1.000000
    4      -30.741094   1.000000
    5      -24.076992   1.000000
    6      -24.076984   1.000000
    7      -24.074761   1.000000
    8      -24.074752   1.000000
    9      -24.072790   1.000000
   10      -24.072781   1.000000
   11      -20.394380   1.000000
   12      -20.394363   1.000000
   13       -7.477817   1.000000
   14       -7.477804   1.000000
   15        1.050694   1.000000
   16        1.050741   1.000000
   17        2.521044   1.000000
   18        2.521068   1.000000
   19        6.611054   0.000000
   20        6.611066   0.000000
   21        8.072927   0.000000
   22        8.072938   0.000000
   23        9.382622   0.000000
   24        9.382647   0.000000
   25       11.817765   0.000000
   26       11.817783   0.000000
   27       12.884227   0.000000
   28       12.884233   0.000000
 
  0.4285714E+00  0.2857143E+00  0.5551115E-16  0.2915452E-02
    1      -30.731865   1.000000
    2      -30.731862   1.000000
    3      -30.727625   1.000000
    4      -30.727623   1.000000
    5      -24.069339   1.000000
    6      -24.069327   1.000000
    7      -24.065063   1.000000
    8      -24.065053   1.000000
    9      -24.064401   1.000000
   10      -24.064388   1.000000
   11      -20.366476   1.000000
   12      -20.366460   1.000000
   13       -7.564185   1.000000
   14       -7.564171   1.000000
   15        0.735012   1.000000
   16        0.735066   1.000000
   17        2.143526   1.000000
   18        2.143532   1.000000
   19        6.740838   0.000000
   20        6.740847   0.000000
   21        8.110644   0.000000
   22        8.110659   0.000000
   23        9.532832   0.000000
   24        9.532850   0.000000
   25       12.051823   0.000000
   26       12.051838   0.000000
   27       13.428714   0.000000
   28       13.428728   0.000000
 
 -0.4285714E+00  0.2857143E+00 -0.6938894E-17  0.2915452E-02
    1      -30.748166   1.000000
    2      -30.748161   1.000000
    3      -30.738254   1.000000
    4      -30.738253   1.000000
    5      -24.078160   1.000000
    6      -24.078152   1.000000
    7      -24.075293   1.000000
    8      -24.075289   1.000000
    9      -24.071125   1.000000
   10      -24.071115   1.000000
   11      -20.352729   1.000000
   12      -20.352712   1.000000
   13       -7.606166   1.000000
   14       -7.606152   1.000000
   15        0.607052   1.000000
   16        0.607117   1.000000
   17        1.841760   1.000000
   18        1.841776   1.000000
   19        7.050355   0.000000
   20        7.050363   0.000000
   21        8.452194   0.000000
   22        8.452207   0.000000
   23       10.344683   0.000000
   24       10.344698   0.000000
   25       11.502097   0.000000
   26       11.502106   0.000000
   27       12.507698   0.000000
   28       12.507705   0.000000
 
 -0.2857143E+00  0.2857143E+00  0.1111974E-16  0.2915452E-02
    1      -30.735036   1.000000
    2      -30.735035   1.000000
    3      -30.732559   1.000000
    4      -30.732557   1.000000
    5      -24.072044   1.000000
    6      -24.072042   1.000000
    7      -24.068773   1.000000
    8      -24.068763   1.000000
    9      -24.065887   1.000000
   10      -24.065884   1.000000
   11      -20.363519   1.000000
   12      -20.363503   1.000000
   13       -7.575287   1.000000
   14       -7.575272   1.000000
   15        0.648039   1.000000
   16        0.648099   1.000000
   17        2.025879   1.000000
   18        2.025890   1.000000
   19        7.456288   0.000000
   20        7.456296   0.000000
   21        8.359428   0.000000
   22        8.359445   0.000000
   23       10.235635   0.000000
   24       10.235661   0.000000
   25       11.461722   0.000000
   26       11.461734   0.000000
   27       12.464591   0.000000
   28       12.464801   0.000000
 
 -0.1428571E+00  0.2857143E+00  0.6938894E-17  0.2915452E-02
    1      -30.751982   1.000000
    2      -30.751981   1.000000
    3      -30.744990   1.000000
    4      -30.744988   1.000000
    5      -24.083380   1.000000
    6      -24.083372   1.000000
    7      -24.079041   1.000000
    8      -24.079034   1.000000
    9      -24.075925   1.000000
   10      -24.075917   1.000000
   11      -20.390840   1.000000
   12      -20.390823   1.000000
   13       -7.495360   1.000000
   14       -7.495346   1.000000
   15        0.834676   1.000000
   16        0.834722   1.000000
   17        2.683944   1.000000
   18        2.683957   1.000000
   19        6.630659   0.000000
   20        6.630672   0.000000
   21        9.091881   0.000000
   22        9.091897   0.000000
   23        9.899983   0.000000
   24        9.900006   0.000000
   25       10.713178   0.000000
   26       10.713193   0.000000
   27       12.194581   0.000000
   28       12.194598   0.000000
 
  0.0000000E+00  0.4285714E+00 -0.2775558E-16  0.2915452E-02
    1      -30.741556   1.000000
    2      -30.741552   1.000000
    3      -30.734320   1.000000
    4      -30.734319   1.000000
    5      -24.074244   1.000000
    6      -24.074235   1.000000
    7      -24.071308   1.000000
    8      -24.071299   1.000000
    9      -24.070833   1.000000
   10      -24.070823   1.000000
   11      -20.380707   1.000000
   12      -20.380690   1.000000
   13       -7.534041   1.000000
   14       -7.534027   1.000000
   15        0.575292   1.000000
   16        0.575335   1.000000
   17        3.055727   1.000000
   18        3.055761   1.000000
   19        5.925855   0.000000
   20        5.925868   0.000000
   21       10.028124   0.000000
   22       10.028134   0.000000
   23       10.207035   0.000000
   24       10.207048   0.000000
   25       10.425549   0.000000
   26       10.425562   0.000000
   27       11.390374   0.000000
   28       11.390385   0.000000
 
  0.1428571E+00  0.4285714E+00 -0.2775558E-16  0.2915452E-02
    1      -30.748950   1.000000
    2      -30.748946   1.000000
    3      -30.740850   1.000000
    4      -30.740849   1.000000
    5      -24.079881   1.000000
    6      -24.079876   1.000000
    7      -24.076452   1.000000
    8      -24.076450   1.000000
    9      -24.073960   1.000000
   10      -24.073953   1.000000
   11      -20.379811   1.000000
   12      -20.379795   1.000000
   13       -7.530437   1.000000
   14       -7.530423   1.000000
   15        0.695284   1.000000
   16        0.695331   1.000000
   17        2.594505   1.000000
   18        2.594543   1.000000
   19        6.609043   0.000000
   20        6.609054   0.000000
   21        8.883449   0.000000
   22        8.883467   0.000000
   23        9.989316   0.000000
   24        9.989329   0.000000
   25       10.908118   0.000000
   26       10.908132   0.000000
   27       12.414017   0.000000
   28       12.414031   0.000000
 
  0.2857143E+00  0.4285714E+00  0.0000000E+00  0.2915452E-02
    1      -30.731865   1.000000
    2      -30.731862   1.000000
    3      -30.727624   1.000000
    4      -30.727624   1.000000
    5      -24.069338   1.000000
    6      -24.069328   1.000000
    7      -24.065064   1.000000
    8      -24.065052   1.000000
    9      -24.064400   1.000000
   10      -24.064388   1.000000
   11      -20.366476   1.000000
   12      -20.366460   1.000000
   13       -7.564185   1.000000
   14       -7.564172   1.000000
   15        0.735013   1.000000
   16        0.735066   1.000000
   17        2.143511   1.000000
   18        2.143547   1.000000
   19        6.740837   0.000000
   20        6.740848   0.000000
   21        8.110644   0.000000
   22        8.110658   0.000000
   23        9.532831   0.000000
   24        9.532851   0.000000
   25       12.051824   0.000000
   26       12.051837   0.000000
   27       13.428718   0.000000
   28       13.428724   0.000000
 
  0.4285714E+00  0.4285714E+00 -0.5551115E-16  0.2915452E-02
    1      -30.747463   1.000000
    2      -30.747460   1.000000
    3      -30.735035   1.000000
    4      -30.735034   1.000000
    5      -24.077899   1.000000
    6      -24.077890   1.000000
    7      -24.073193   1.000000
    8      -24.073185   1.000000
    9      -24.069262   1.000000
   10      -24.069255   1.000000
   11      -20.350909   1.000000
   12      -20.350892   1.000000
   13       -7.610023   1.000000
   14       -7.610009   1.000000
   15        0.599904   1.000000
   16        0.599954   1.000000
   17        2.078441   1.000000
   18        2.078464   1.000000
   19        6.193705   0.000000
   20        6.193717   0.000000
   21        7.538647   0.000000
   22        7.538658   0.000000
   23       10.242214   0.000000
   24       10.242225   0.000000
   25       13.549425   0.000000
   26       13.549453   0.000000
   27       14.286396   0.000000
   28       14.286409   0.000000
 
 -0.4285714E+00  0.4285714E+00 -0.3031558E-16  0.2915452E-02
    1      -30.750765   1.000000
    2      -30.750761   1.000000
    3      -30.737707   1.000000
    4      -30.737706   1.000000
    5      -24.079865   1.000000
    6      -24.079855   1.000000
    7      -24.075017   1.000000
    8      -24.075007   1.000000
    9      -24.070914   1.000000
   10      -24.070909   1.000000
   11      -20.344763   1.000000
   12      -20.344746   1.000000
   13       -7.627691   1.000000
   14       -7.627677   1.000000
   15        0.587037   1.000000
   16        0.587094   1.000000
   17        1.827503   1.000000
   18        1.827524   1.000000
   19        6.430463   0.000000
   20        6.430473   0.000000
   21        7.871788   0.000000
   22        7.871801   0.000000
   23       10.312997   0.000000
   24       10.313007   0.000000
   25       12.894062   0.000000
   26       12.894082   0.000000
   27       13.780031   0.000000
   28       13.780041   0.000000
 
 -0.2857143E+00  0.4285714E+00 -0.1387779E-16  0.2915452E-02
    1      -30.748166   1.000000
    2      -30.748161   1.000000
    3      -30.738255   1.000000
    4      -30.738253   1.000000
    5      -24.078160   1.000000
    6      -24.078152   1.000000
    7      -24.075294   1.000000
    8      -24.075288   1.000000
    9      -24.071123   1.000000
   10      -24.071117   1.000000
   11      -20.352729   1.000000
   12      -20.352712   1.000000
   13       -7.606166   1.000000
   14       -7.606152   1.000000
   15        0.607055   1.000000
   16        0.607114   1.000000
   17        1.841754   1.000000
   18        1.841782   1.000000
   19        7.050354   0.000000
   20        7.050364   0.000000
   21        8.452195   0.000000
   22        8.452206   0.000000
   23       10.344682   0.000000
   24       10.344699   0.000000
   25       11.502099   0.000000
   26       11.502105   0.000000
   27       12.507698   0.000000
   28       12.507705   0.000000
 
 -0.1428571E+00  0.4285714E+00 -0.2775558E-16  0.2915452E-02
    1      -30.740656   1.000000
    2      -30.740653   1.000000
    3      -30.733091   1.000000
    4      -30.733089   1.000000
    5      -24.074531   1.000000
    6      -24.074523   1.000000
    7      -24.070852   1.000000
    8      -24.070846   1.000000
    9      -24.067900   1.000000
   10      -24.067892   1.000000
   11      -20.368690   1.000000
   12      -20.368673   1.000000
   13       -7.566441   1.000000
   14       -7.566427   1.000000
   15        0.541228   1.000000
   16        0.541275   1.000000
   17        2.501873   1.000000
   18        2.501900   1.000000
   19        6.678954   0.000000
   20        6.678965   0.000000
   21        8.760044   0.000000
   22        8.760060   0.000000
   23       10.426114   0.000000
   24       10.426123   0.000000
   25       11.170818   0.000000
   26       11.170825   0.000000
   27       12.546848   0.000000
   28       12.546864   0.000000
 
  0.0000000E+00 -0.4285714E+00  0.2775558E-16  0.2915452E-02
    1      -30.741556   1.000000
    2      -30.741552   1.000000
    3      -30.734320   1.000000
    4      -30.734319   1.000000
    5      -24.074244   1.000000
    6      -24.074235   1.000000
    7      -24.071308   1.000000
    8      -24.071299   1.000000
    9      -24.070833   1.000000
   10      -24.070823   1.000000
   11      -20.380707   1.000000
   12      -20.380690   1.000000
   13       -7.534041   1.000000
   14       -7.534027   1.000000
   15        0.575292   1.000000
   16        0.575335   1.000000
   17        3.055727   1.000000
   18        3.055761   1.000000
   19        5.925855   0.000000
   20        5.925868   0.000000
   21       10.028124   0.000000
   22       10.028134   0.000000
   23       10.207035   0.000000
   24       10.207048   0.000000
   25       10.425550   0.000000
   26       10.425562   0.000000
   27       11.390374   0.000000
   28       11.390385   0.000000
 
  0.1428571E+00 -0.4285714E+00  0.2775558E-16  0.2915452E-02
    1      -30.740656   1.000000
    2      -30.740653   1.000000
    3      -30.733091   1.000000
    4      -30.733089   1.000000
    5      -24.074531   1.000000
    6      -24.074523   1.000000
    7      -24.070852   1.000000
    8      -24.070846   1.000000
    9      -24.067900   1.000000
   10      -24.067892   1.000000
   11      -20.368690   1.000000
   12      -20.368673   1.000000
   13       -7.566441   1.000000
   14       -7.566427   1.000000
   15        0.541228   1.000000
   16        0.541275   1.000000
   17        2.501873   1.000000
   18        2.501900   1.000000
   19        6.678954   0.000000
   20        6.678965   0.000000
   21        8.760044   0.000000
   22        8.760060   0.000000
   23       10.426115   0.000000
   24       10.426123   0.000000
   25       11.170817   0.000000
   26       11.170825   0.000000
   27       12.546848   0.000000
   28       12.546864   0.000000
 
  0.2857143E+00 -0.4285714E+00  0.1387779E-16  0.2915452E-02
    1      -30.748166   1.000000
    2      -30.748161   1.000000
    3      -30.738255   1.000000
    4      -30.738253   1.000000