   1   1   0   0
  0.4928368E+02  0.4115343E-09  0.4115343E-09  0.4115343E-09  0.1000000E-15
  1.000000000000000E-004
  CAR 
 Og_FCC                                  
     69.45264340    -22.83761378  301     -3.91811106      1.00000000
    -22.838  0.0000E+00  0.0000E+00
    -22.530  0.0000E+00  0.0000E+00
    -22.222  0.0000E+00  0.0000E+00
    -21.915  0.0000E+00  0.0000E+00
    -21.607  0.0000E+00  0.0000E+00
    -21.299  0.0000E+00  0.0000E+00
    -20.992  0.0000E+00  0.0000E+00
    -20.684  0.0000E+00  0.0000E+00
    -20.377  0.0000E+00  0.0000E+00
    -20.069  0.0000E+00  0.0000E+00
    -19.761  0.0000E+00  0.0000E+00
    -19.454  0.0000E+00  0.0000E+00
    -19.146  0.0000E+00  0.0000E+00
    -18.838  0.0000E+00  0.0000E+00
    -18.531  0.0000E+00  0.5463E+00
    -18.223  0.0000E+00  0.2000E+01
    -17.915  0.0000E+00  0.2000E+01
    -17.608  0.0000E+00  0.2000E+01
    -17.300  0.0000E+00  0.2000E+01
    -16.993  0.0000E+00  0.2000E+01
    -16.685  0.0000E+00  0.2000E+01
    -16.377  0.0000E+00  0.2000E+01
    -16.070  0.0000E+00  0.2000E+01
    -15.762  0.0000E+00  0.2000E+01
    -15.454  0.0000E+00  0.2000E+01
    -15.147  0.0000E+00  0.2000E+01
    -14.839  0.0000E+00  0.2000E+01
    -14.531  0.0000E+00  0.2000E+01
    -14.224  0.0000E+00  0.2000E+01
    -13.916  0.0000E+00  0.2000E+01
    -13.609  0.0000E+00  0.2000E+01
    -13.301  0.0000E+00  0.2000E+01
    -12.993  0.0000E+00  0.2000E+01
    -12.686  0.0000E+00  0.2000E+01
    -12.378  0.0000E+00  0.2000E+01
    -12.070  0.0000E+00  0.2000E+01
    -11.763  0.0000E+00  0.2000E+01
    -11.455  0.0000E+00  0.2000E+01
    -11.148  0.0000E+00  0.2000E+01
    -10.840  0.0000E+00  0.2000E+01
    -10.532  0.0000E+00  0.2000E+01
    -10.225  0.0000E+00  0.2000E+01
     -9.917  0.0000E+00  0.2000E+01
     -9.609  0.0000E+00  0.2000E+01
     -9.302  0.0000E+00  0.2000E+01
     -8.994  0.0000E+00  0.2000E+01
     -8.686  0.0000E+00  0.2000E+01
     -8.379  0.0000E+00  0.2000E+01
     -8.071  0.0000E+00  0.2000E+01
     -7.764  0.0000E+00  0.2000E+01
     -7.456  0.0000E+00  0.2000E+01
     -7.148  0.0000E+00  0.2000E+01
     -6.841  0.0000E+00  0.2000E+01
     -6.533  0.0000E+00  0.2000E+01
     -6.225  0.0000E+00  0.2000E+01
     -5.918  0.0000E+00  0.2000E+01
     -5.610  0.0000E+00  0.2000E+01
     -5.302  0.0000E+00  0.3398E+01
     -4.995  0.0000E+00  0.3861E+01
     -4.687  0.4586E-12  0.4685E+01
     -4.380  0.3612E+00  0.6556E+01
     -4.072  0.0000E+00  0.7907E+01
     -3.764  0.0000E+00  0.8000E+01
     -3.457  0.0000E+00  0.8000E+01
     -3.149  0.0000E+00  0.8000E+01
     -2.841  0.0000E+00  0.8000E+01
     -2.534  0.0000E+00  0.8000E+01
     -2.226  0.0000E+00  0.8000E+01
     -1.918  0.0000E+00  0.8000E+01
     -1.611  0.0000E+00  0.8000E+01
     -1.303  0.0000E+00  0.8000E+01
     -0.996  0.0000E+00  0.8000E+01
     -0.688  0.0000E+00  0.8000E+01
     -0.380  0.0000E+00  0.8000E+01
     -0.073  0.0000E+00  0.8000E+01
      0.235  0.0000E+00  0.8000E+01
      0.543  0.0000E+00  0.8000E+01
      0.850  0.0000E+00  0.8000E+01
      1.158  0.0000E+00  0.8000E+01
      1.465  0.0000E+00  0.8000E+01
      1.773  0.0000E+00  0.8000E+01
      2.081  0.0000E+00  0.8000E+01
      2.388  0.0000E+00  0.8000E+01
      2.696  0.0000E+00  0.8000E+01
      3.004  0.0000E+00  0.8000E+01
      3.311  0.0000E+00  0.8009E+01
      3.619  0.0000E+00  0.8009E+01
      3.927  0.0000E+00  0.8139E+01
      4.234  0.0000E+00  0.8139E+01
      4.542  0.0000E+00  0.8139E+01
      4.849  0.0000E+00  0.8250E+01
      5.157  0.0000E+00  0.8546E+01
      5.465  0.0000E+00  0.8667E+01
      5.772  0.0000E+00  0.8889E+01
      6.080  0.0000E+00  0.9667E+01
      6.388  0.0000E+00  0.9667E+01
      6.695  0.0000E+00  0.1003E+02
      7.003  0.0000E+00  0.1058E+02
      7.311  0.1041E-01  0.1075E+02
      7.618  0.7224E+00  0.1164E+02
      7.926  0.0000E+00  0.1197E+02
      8.233  0.9043E-02  0.1242E+02
      8.541  0.0000E+00  0.1338E+02
      8.849  0.0000E+00  0.1360E+02
      9.156  0.0000E+00  0.1379E+02
      9.464  0.0000E+00  0.1399E+02
      9.772  0.0000E+00  0.1458E+02
     10.079  0.0000E+00  0.1531E+02
     10.387  0.0000E+00  0.1586E+02
     10.695  0.0000E+00  0.1586E+02
     11.002  0.8271E-02  0.1586E+02
     11.310  0.0000E+00  0.1656E+02
     11.617  0.0000E+00  0.1679E+02
     11.925  0.0000E+00  0.1714E+02
     12.233  0.0000E+00  0.1779E+02
     12.540  0.0000E+00  0.1823E+02
     12.848  0.0000E+00  0.1859E+02
     13.156  0.0000E+00  0.1869E+02
     13.463  0.0000E+00  0.1880E+02
     13.771  0.0000E+00  0.1942E+02
     14.078  0.0000E+00  0.2031E+02
     14.386  0.0000E+00  0.2114E+02
     14.694  0.0000E+00  0.2236E+02
     15.001  0.0000E+00  0.2253E+02
     15.309  0.6020E-01  0.2258E+02
     15.617  0.0000E+00  0.2297E+02
     15.924  0.0000E+00  0.2297E+02
     16.232  0.0000E+00  0.2360E+02
     16.540  0.0000E+00  0.2416E+02
     16.847  0.2959E-05  0.2475E+02
     17.155  0.0000E+00  0.2532E+02
     17.462  0.0000E+00  0.2589E+02
     17.770  0.0000E+00  0.2661E+02
     18.078  0.0000E+00  0.2706E+02
     18.385  0.6413E-08  0.2750E+02
     18.693  0.7224E+00  0.2817E+02
     19.001  0.0000E+00  0.2856E+02
     19.308  0.0000E+00  0.2881E+02
     19.616  0.0000E+00  0.2932E+02
     19.924  0.1300E-11  0.2935E+02
     20.231  0.1056E-01  0.2973E+02
     20.539  0.0000E+00  0.3017E+02
     20.846  0.0000E+00  0.3067E+02
     21.154  0.0000E+00  0.3100E+02
     21.462  0.0000E+00  0.3185E+02
     21.769  0.0000E+00  0.3246E+02
     22.077  0.0000E+00  0.3296E+02
     22.385  0.0000E+00  0.3358E+02
     22.692  0.0000E+00  0.3420E+02
     23.000  0.0000E+00  0.3476E+02
     23.308  0.0000E+00  0.3530E+02
     23.615  0.0000E+00  0.3593E+02
     23.923  0.0000E+00  0.3652E+02
     24.230  0.0000E+00  0.3691E+02
     24.538  0.1671E-17  0.3794E+02
     24.846  0.0000E+00  0.3839E+02
     25.153  0.0000E+00  0.3880E+02
     25.461  0.0000E+00  0.3907E+02
     25.769  0.0000E+00  0.3930E+02
     26.076  0.6020E-01  0.3987E+02
     26.384  0.0000E+00  0.4038E+02
     26.691  0.0000E+00  0.4106E+02
     26.999  0.0000E+00  0.4195E+02
     27.307  0.7215E+00  0.4323E+02
     27.614  0.0000E+00  0.4336E+02
     27.922  0.0000E+00  0.4375E+02
     28.230  0.2122E-14  0.4505E+02
     28.537  0.0000E+00  0.4586E+02
     28.845  0.0000E+00  0.4619E+02
     29.153  0.0000E+00  0.4637E+02
     29.460  0.0000E+00  0.4706E+02
     29.768  0.0000E+00  0.4706E+02
     30.075  0.3612E+00  0.4808E+02
     30.383  0.0000E+00  0.4827E+02
     30.691  0.0000E+00  0.4897E+02
     30.998  0.0000E+00  0.4956E+02
     31.306  0.0000E+00  0.5060E+02
     31.614  0.0000E+00  0.5129E+02
     31.921  0.0000E+00  0.5173E+02
     32.229  0.0000E+00  0.5251E+02
     32.537  0.0000E+00  0.5340E+02
     32.844  0.0000E+00  0.5412E+02
     33.152  0.0000E+00  0.5451E+02
     33.459  0.0000E+00  0.5529E+02
     33.767  0.0000E+00  0.5584E+02
     34.075  0.0000E+00  0.5601E+02
     34.382  0.0000E+00  0.5642E+02
     34.690  0.0000E+00  0.5703E+02
     34.998  0.0000E+00  0.5747E+02
     35.305  0.0000E+00  0.5825E+02
     35.613  0.0000E+00  0.5947E+02
     35.921  0.0000E+00  0.6025E+02
     36.228  0.0000E+00  0.6086E+02
     36.536  0.0000E+00  0.6179E+02
     36.843  0.0000E+00  0.6292E+02
     37.151  0.0000E+00  0.6357E+02
     37.459  0.6959E-01  0.6419E+02
     37.766  0.0000E+00  0.6459E+02
     38.074  0.0000E+00  0.6487E+02
     38.382  0.0000E+00  0.6565E+02
     38.689  0.0000E+00  0.6631E+02
     38.997  0.0000E+00  0.6657E+02
     39.304  0.0000E+00  0.6724E+02
     39.612  0.0000E+00  0.6749E+02
     39.920  0.0000E+00  0.6860E+02
     40.227  0.0000E+00  0.6927E+02
     40.535  0.0000E+00  0.6982E+02
     40.843  0.0000E+00  0.7043E+02
     41.150  0.3612E+00  0.7151E+02
     41.458  0.0000E+00  0.7274E+02
     41.766  0.0000E+00  0.7330E+02
     42.073  0.0000E+00  0.7399E+02
     42.381  0.1204E+00  0.7470E+02
     42.688  0.1806E+00  0.7583E+02
     42.996  0.0000E+00  0.7678E+02
     43.304  0.0000E+00  0.7711E+02
     43.611  0.0000E+00  0.7799E+02
     43.919  0.0000E+00  0.7873E+02
     44.227  0.0000E+00  0.7892E+02
     44.534  0.0000E+00  0.7956E+02
     44.842  0.0000E+00  0.8026E+02
     45.150  0.0000E+00  0.8106E+02
     45.457  0.0000E+00  0.8162E+02
     45.765  0.0000E+00  0.8229E+02
     46.072  0.0000E+00  0.8272E+02
     46.380  0.0000E+00  0.8339E+02
     46.688  0.3208E-15  0.8394E+02
     46.995  0.0000E+00  0.8498E+02
     47.303  0.0000E+00  0.8612E+02
     47.611  0.0000E+00  0.8770E+02
     47.918  0.7224E+00  0.8873E+02
     48.226  0.0000E+00  0.8931E+02
     48.534  0.0000E+00  0.8931E+02
     48.841  0.8463E-01  0.9044E+02
     49.149  0.0000E+00  0.9160E+02
     49.456  0.0000E+00  0.9216E+02
     49.764  0.0000E+00  0.9268E+02
     50.072  0.0000E+00  0.9313E+02
     50.379  0.7228E+00  0.9419E+02
     50.687  0.1199E+00  0.9533E+02
     50.995  0.0000E+00  0.9581E+02
     51.302  0.6015E-16  0.9657E+02
     51.610  0.3573E+00  0.9749E+02
     51.917  0.6923E-07  0.9791E+02
     52.225  0.0000E+00  0.9886E+02
     52.533  0.1806E+00  0.9953E+02
     52.840  0.0000E+00  0.1001E+03
     53.148  0.0000E+00  0.1009E+03
     53.456  0.0000E+00  0.1012E+03
     53.763  0.0000E+00  0.1019E+03
     54.071  0.0000E+00  0.1029E+03
     54.379  0.0000E+00  0.1034E+03
     54.686  0.0000E+00  0.1048E+03
     54.994  0.9029E-01  0.1059E+03
     55.301  0.0000E+00  0.1067E+03
     55.609  0.0000E+00  0.1074E+03
     55.917  0.0000E+00  0.1088E+03
     56.224  0.0000E+00  0.1094E+03
     56.532  0.0000E+00  0.1104E+03
     56.840  0.0000E+00  0.1106E+03
     57.147  0.0000E+00  0.1118E+03
     57.455  0.0000E+00  0.1123E+03
     57.763  0.7224E+00  0.1132E+03
     58.070  0.1375E-04  0.1140E+03
     58.378  0.0000E+00  0.1145E+03
     58.685  0.0000E+00  0.1159E+03
     58.993  0.0000E+00  0.1169E+03
     59.301  0.0000E+00  0.1175E+03
     59.608  0.0000E+00  0.1181E+03
     59.916  0.7337E-04  0.1188E+03
     60.224  0.0000E+00  0.1199E+03
     60.531  0.0000E+00  0.1209E+03
     60.839  0.0000E+00  0.1209E+03
     61.147  0.0000E+00  0.1216E+03
     61.454  0.0000E+00  0.1225E+03
     61.762  0.3116E-02  0.1236E+03
     62.069  0.0000E+00  0.1248E+03
     62.377  0.0000E+00  0.1254E+03
     62.685  0.0000E+00  0.1264E+03
     62.992  0.3612E+00  0.1272E+03
     63.300  0.0000E+00  0.1275E+03
     63.608  0.0000E+00  0.1276E+03
     63.915  0.0000E+00  0.1278E+03
     64.223  0.6020E-01  0.1279E+03
     64.530  0.0000E+00  0.1279E+03
     64.838  0.0000E+00  0.1279E+03
     65.146  0.0000E+00  0.1279E+03
     65.453  0.0000E+00  0.1280E+03
     65.761  0.0000E+00  0.1280E+03
     66.069  0.0000E+00  0.1280E+03
     66.376  0.0000E+00  0.1280E+03
     66.684  0.0000E+00  0.1280E+03
     66.992  0.0000E+00  0.1280E+03
     67.299  0.0000E+00  0.1280E+03
     67.607  0.0000E+00  0.1280E+03
     67.914  0.0000E+00  0.1280E+03
     68.222  0.0000E+00  0.1280E+03
     68.530  0.0000E+00  0.1280E+03
     68.837  0.0000E+00  0.1280E+03
     69.145  0.0000E+00  0.1280E+03
     69.453  0.0000E+00  0.1280E+03
