    1    1    1    1
  0.4928368E+02  0.4115343E-09  0.4115343E-09  0.4115343E-09  0.1000000E-15
  1.000000000000000E-004
  CAR 
 Og_FCC                                  
      8    216    128
 
  0.0000000E+00  0.0000000E+00  0.0000000E+00  0.4629630E-02
    1      -18.642602   1.000000
    2      -18.642602   1.000000
    3       -4.682498   1.000000
    4       -4.682498   1.000000
    5       -3.990785   1.000000
    6       -3.990785   1.000000
    7       -3.990785   1.000000
    8       -3.990785   1.000000
    9        3.022167   0.000000
   10        3.022180   0.000000
   11        9.358105   0.000000
   12        9.358106   0.000000
   13        9.358106   0.000000
   14        9.358106   0.000000
   15        9.374663   0.000000
   16        9.374663   0.000000
   17       11.696564   0.000000
   18       11.696564   0.000000
   19       11.696565   0.000000
   20       11.696565   0.000000
   21       12.919143   0.000000
   22       12.919145   0.000000
   23       15.266749   0.000000
   24       15.266750   0.000000
   25       15.303748   0.000000
   26       15.303749   0.000000
   27       15.303750   0.000000
   28       15.303752   0.000000
   29       17.220828   0.000000
   30       17.220925   0.000000
   31       24.543902   0.000000
   32       24.543902   0.000000
   33       24.996204   0.000000
   34       24.996204   0.000000
   35       24.996205   0.000000
   36       24.996205   0.000000
   37       26.070598   0.000000
   38       26.070599   0.000000
   39       26.070599   0.000000
   40       26.070599   0.000000
   41       26.125802   0.000000
   42       26.125802   0.000000
   43       28.943636   0.000000
   44       28.943636   0.000000
   45       28.943637   0.000000
   46       28.943637   0.000000
   47       30.002124   0.000000
   48       30.002124   0.000000
   49       30.002124   0.000000
   50       30.002125   0.000000
   51       30.002125   0.000000
   52       30.002125   0.000000
   53       31.533819   0.000000
   54       31.533858   0.000000
   55       38.511417   0.000000
   56       38.511417   0.000000
   57       38.511425   0.000000
   58       38.511425   0.000000
   59       39.499606   0.000000
   60       39.499612   0.000000
   61       39.601330   0.000000
   62       39.601336   0.000000
   63       39.601341   0.000000
   64       39.601347   0.000000
   65       40.682403   0.000000
   66       40.682405   0.000000
   67       41.343647   0.000000
   68       41.343647   0.000000
   69       41.343648   0.000000
   70       41.343648   0.000000
   71       41.371477   0.000000
   72       41.371478   0.000000
   73       42.163952   0.000000
   74       42.163953   0.000000
   75       42.271604   0.000000
   76       42.271606   0.000000
   77       42.271608   0.000000
   78       42.271610   0.000000
   79       44.829552   0.000000
   80       44.829552   0.000000
   81       44.829552   0.000000
   82       44.829554   0.000000
   83       44.829554   0.000000
   84       44.829554   0.000000
   85       45.079317   0.000000
   86       45.079318   0.000000
   87       45.079318   0.000000
   88       45.079318   0.000000
   89       45.079318   0.000000
   90       45.079319   0.000000
   91       45.727300   0.000000
   92       45.727448   0.000000
   93       47.317319   0.000000
   94       47.317320   0.000000
   95       47.317321   0.000000
   96       47.317322   0.000000
   97       47.317529   0.000000
   98       47.317530   0.000000
   99       47.988316   0.000000
  100       47.988317   0.000000
  101       47.988317   0.000000
  102       47.988317   0.000000
  103       50.932382   0.000000
  104       50.932386   0.000000
  105       50.941124   0.000000
  106       50.941128   0.000000
  107       50.941131   0.000000
  108       50.941135   0.000000
  109       51.010019   0.000000
  110       51.010068   0.000000
  111       51.402650   0.000000
  112       51.402651   0.000000
  113       51.402652   0.000000
  114       51.402653   0.000000
  115       51.404559   0.000000
  116       51.404560   0.000000
  117       51.689755   0.000000
  118       51.689759   0.000000
  119       64.219699   0.000000
  120       64.219699   0.000000
  121       64.219712   0.000000
  122       64.219712   0.000000
  123       64.939361   0.000000
  124       64.939371   0.000000
  125       65.028215   0.000000
  126       65.028225   0.000000
  127       65.028235   0.000000
  128       65.028245   0.000000
 
  0.1666667E+00 -0.1222443E-16 -0.6938894E-17  0.4629630E-02
    1      -18.609218   1.000000
    2      -18.609218   1.000000
    3       -4.846143   1.000000
    4       -4.846143   1.000000
    5       -4.215199   1.000000
    6       -4.215199   1.000000
    7       -4.028415   1.000000
    8       -4.028415   1.000000
    9        3.696635   0.000000
   10        3.696648   0.000000
   11        8.531336   0.000000
   12        8.531338   0.000000
   13        9.565735   0.000000
   14        9.565735   0.000000
   15        9.580811   0.000000
   16        9.580811   0.000000
   17       11.219468   0.000000
   18       11.219469   0.000000
   19       11.229967   0.000000
   20       11.229968   0.000000
   21       13.551215   0.000000
   22       13.551239   0.000000
   23       14.924033   0.000000
   24       14.924047   0.000000
   25       16.823964   0.000000
   26       16.823965   0.000000
   27       16.850179   0.000000
   28       16.850180   0.000000
   29       19.419743   0.000000
   30       19.419796   0.000000
   31       21.344884   0.000000
   32       21.344898   0.000000
   33       22.200688   0.000000
   34       22.200688   0.000000
   35       22.320564   0.000000
   36       22.320564   0.000000
   37       26.291277   0.000000
   38       26.291277   0.000000
   39       26.413522   0.000000
   40       26.413522   0.000000
   41       28.105682   0.000000
   42       28.105682   0.000000
   43       28.118382   0.000000
   44       28.118382   0.000000
   45       28.238637   0.000000
   46       28.238643   0.000000
   47       30.243222   0.000000
   48       30.243222   0.000000
   49       33.220542   0.000000
   50       33.220548   0.000000
   51       33.250451   0.000000
   52       33.250452   0.000000
   53       33.253030   0.000000
   54       33.253065   0.000000
   55       35.550354   0.000000
   56       35.550357   0.000000
   57       35.563837   0.000000
   58       35.563838   0.000000
   59       35.590818   0.000000
   60       35.590819   0.000000
   61       38.654265   0.000000
   62       38.654295   0.000000
   63       38.937498   0.000000
   64       38.937498   0.000000
   65       38.954193   0.000000
   66       38.954193   0.000000
   67       40.682703   0.000000
   68       40.682704   0.000000
   69       40.688073   0.000000
   70       40.688074   0.000000
   71       40.766447   0.000000
   72       40.766448   0.000000
   73       41.182420   0.000000
   74       41.182421   0.000000
   75       42.318079   0.000000
   76       42.318079   0.000000
   77       42.338516   0.000000
   78       42.338516   0.000000
   79       43.469731   0.000000
   80       43.469745   0.000000
   81       43.904075   0.000000
   82       43.904075   0.000000
   83       43.949005   0.000000
   84       43.949005   0.000000
   85       45.610055   0.000000
   86       45.610092   0.000000
   87       46.866903   0.000000
   88       46.866903   0.000000
   89       46.868997   0.000000
   90       46.868998   0.000000
   91       47.550540   0.000000
   92       47.550540   0.000000
   93       47.559129   0.000000
   94       47.559129   0.000000
   95       47.759380   0.000000
   96       47.759420   0.000000
   97       49.463536   0.000000
   98       49.463597   0.000000
   99       49.559478   0.000000
  100       49.559478   0.000000
  101       50.047506   0.000000
  102       50.047507   0.000000
  103       50.050268   0.000000
  104       50.050268   0.000000
  105       50.435427   0.000000
  106       50.435438   0.000000
  107       53.446651   0.000000
  108       53.446651   0.000000
  109       53.446775   0.000000
  110       53.446775   0.000000
  111       54.787928   0.000000
  112       54.787950   0.000000
  113       54.850034   0.000000
  114       54.850034   0.000000
  115       54.850873   0.000000
  116       54.850874   0.000000
  117       59.176246   0.000000
  118       59.176248   0.000000
  119       59.230620   0.000000
  120       59.230622   0.000000
  121       59.883756   0.000000
  122       59.883769   0.000000
  123       61.007594   0.000000
  124       61.007637   0.000000
  125       62.322172   0.000000
  126       62.322172   0.000000
  127       62.334485   0.000000
  128       62.334485   0.000000
 
  0.3333333E+00  0.3306717E-17  0.0000000E+00  0.4629630E-02
    1      -18.541123   1.000000
    2      -18.541123   1.000000
    3       -5.292154   1.000000
    4       -5.292153   1.000000
    5       -4.439801   1.000000
    6       -4.439801   1.000000
    7       -4.101346   1.000000
    8       -4.101346   1.000000
    9        4.941109   0.000000
   10        4.941117   0.000000
   11        7.838943   0.000000
   12        7.838955   0.000000
   13        9.259824   0.000000
   14        9.259824   0.000000
   15        9.277334   0.000000
   16        9.277334   0.000000
   17       12.073214   0.000000
   18       12.073214   0.000000
   19       12.094898   0.000000
   20       12.094898   0.000000
   21       12.587054   0.000000
   22       12.587084   0.000000
   23       16.766147   0.000000
   24       16.766148   0.000000
   25       18.389214   0.000000
   26       18.389215   0.000000
   27       18.496446   0.000000
   28       18.496446   0.000000
   29       18.522943   0.000000
   30       18.522954   0.000000
   31       20.027306   0.000000
   32       20.027307   0.000000
   33       20.043079   0.000000
   34       20.043080   0.000000
   35       24.051293   0.000000
   36       24.051354   0.000000
   37       26.162127   0.000000
   38       26.162127   0.000000
   39       26.292806   0.000000
   40       26.292806   0.000000
   41       27.492054   0.000000
   42       27.492066   0.000000
   43       28.235083   0.000000
   44       28.235083   0.000000
   45       28.253854   0.000000
   46       28.253854   0.000000
   47       30.568414   0.000000
   48       30.568415   0.000000
   49       30.571708   0.000000
   50       30.571709   0.000000
   51       30.832574   0.000000
   52       30.832574   0.000000
   53       30.951989   0.000000
   54       30.951996   0.000000
   55       34.341419   0.000000
   56       34.341485   0.000000
   57       36.344251   0.000000
   58       36.344251   0.000000
   59       36.357985   0.000000
   60       36.357986   0.000000
   61       37.044575   0.000000
   62       37.044579   0.000000
   63       37.580796   0.000000
   64       37.580797   0.000000
   65       37.582831   0.000000
   66       37.582831   0.000000
   67       38.457310   0.000000
   68       38.457311   0.000000
   69       40.369512   0.000000
   70       40.369517   0.000000
   71       40.693861   0.000000
   72       40.693861   0.000000
   73       40.758181   0.000000
   74       40.758181   0.000000
   75       41.194581   0.000000
   76       41.194586   0.000000
   77       42.577691   0.000000
   78       42.577692   0.000000
   79       42.590587   0.000000
   80       42.590587   0.000000
   81       44.523305   0.000000
   82       44.523306   0.000000
   83       44.561363   0.000000
   84       44.561364   0.000000
   85       45.881652   0.000000
   86       45.881655   0.000000
   87       47.684770   0.000000
   88       47.684772   0.000000
   89       47.694093   0.000000
   90       47.694095   0.000000
   91       48.843461   0.000000
   92       48.843547   0.000000
   93       51.921030   0.000000
   94       51.921030   0.000000
   95       51.927064   0.000000
   96       51.927064   0.000000
   97       52.901189   0.000000
   98       52.901191   0.000000
   99       53.824918   0.000000
  100       53.824919   0.000000
  101       53.881877   0.000000
  102       53.881878   0.000000
  103       54.034467   0.000000
  104       54.034468   0.000000
  105       54.091066   0.000000
  106       54.091067   0.000000
  107       54.889145   0.000000
  108       54.889145   0.000000
  109       55.665201   0.000000
  110       55.665243   0.000000
  111       55.771728   0.000000
  112       55.771729   0.000000
  113       55.787629   0.000000
  114       55.787630   0.000000
  115       56.748608   0.000000
  116       56.748656   0.000000
  117       57.933034   0.000000
  118       57.933054   0.000000
  119       58.935876   0.000000
  120       58.935877   0.000000
  121       58.939463   0.000000
  122       58.939465   0.000000
  123       60.086409   0.000000
  124       60.086417   0.000000
  125       61.585237   0.000000
  126       61.585237   0.000000
  127       61.585838   0.000000
  128       61.585838   0.000000
 
  0.5000000E+00  0.3271565E-16  0.0000000E+00  0.4629630E-02
    1      -18.506381   1.000000
    2      -18.506381   1.000000
    3       -5.527862   1.000000
    4       -5.527861   1.000000
    5       -4.502856   1.000000
    6       -4.502856   1.000000
    7       -4.136750   1.000000
    8       -4.136750   1.000000
    9        5.405504   0.000000
   10        5.405505   0.000000
   11        7.910843   0.000000
   12        7.910871   0.000000
   13        8.983622   0.000000
   14        8.983622   0.000000
   15        9.000525   0.000000
   16        9.000526   0.000000
   17       12.640981   0.000000
   18       12.641005   0.000000
   19       13.563980   0.000000
   20       13.563981   0.000000
   21       13.579652   0.000000
   22       13.579652   0.000000
   23       14.774984   0.000000
   24       14.774985   0.000000
   25       16.064720   0.000000
   26       16.064720   0.000000
   27       16.157615   0.000000
   28       16.157616   0.000000
   29       22.591757   0.000000
   30       22.591760   0.000000
   31       23.126699   0.000000
   32       23.126730   0.000000
   33       23.447950   0.000000
   34       23.447951   0.000000
   35       23.475135   0.000000
   36       23.475136   0.000000
   37       23.885743   0.000000
   38       23.885744   0.000000
   39       24.015978   0.000000
   40       24.015979   0.000000
   41       28.207782   0.000000
   42       28.207782   0.000000
   43       28.322481   0.000000
   44       28.322481   0.000000
   45       28.934262   0.000000
   46       28.934353   0.000000
   47       29.045524   0.000000
   48       29.045536   0.000000
   49       29.371777   0.000000
   50       29.371778   0.000000
   51       29.411794   0.000000
   52       29.411794   0.000000
   53       31.217555   0.000000
   54       31.217555   0.000000
   55       31.430752   0.000000
   56       31.430754   0.000000
   57       35.467510   0.000000
   58       35.467532   0.000000
   59       35.554848   0.000000
   60       35.554849   0.000000
   61       35.566682   0.000000
   62       35.566683   0.000000
   63       36.547610   0.000000
   64       36.547611   0.000000
   65       36.547911   0.000000
   66       36.547911   0.000000
   67       37.358929   0.000000
   68       37.358930   0.000000
   69       40.336674   0.000000
   70       40.336682   0.000000
   71       42.375227   0.000000
   72       42.375228   0.000000
   73       42.394642   0.000000
   74       42.394642   0.000000
   75       44.235812   0.000000
   76       44.235812   0.000000
   77       44.279230   0.000000
   78       44.279230   0.000000
   79       44.549544   0.000000
   80       44.549548   0.000000
   81       46.505746   0.000000
   82       46.505748   0.000000
   83       46.576041   0.000000
   84       46.576041   0.000000
   85       46.613672   0.000000
   86       46.613672   0.000000
   87       47.383530   0.000000
   88       47.383530   0.000000
   89       47.452591   0.000000
   90       47.452591   0.000000
   91       49.665603   0.000000
   92       49.665612   0.000000
   93       50.641114   0.000000
   94       50.641116   0.000000
   95       50.685067   0.000000
   96       50.685069   0.000000
   97       51.109080   0.000000
   98       51.109199   0.000000
   99       51.676005   0.000000
  100       51.676007   0.000000
  101       51.693357   0.000000
  102       51.693358   0.000000
  103       54.016475   0.000000
  104       54.016479   0.000000
  105       57.274089   0.000000
  106       57.274094   0.000000
  107       57.932388   0.000000
  108       57.932388   0.000000
  109       57.967442   0.000000
  110       57.967442   0.000000
  111       57.978937   0.000000
  112       57.978937   0.000000
  113       57.990392   0.000000
  114       57.990392   0.000000
  115       59.574511   0.000000
  116       59.574512   0.000000
  117       59.600212   0.000000
  118       59.600212   0.000000
  119       59.991704   0.000000
  120       59.991704   0.000000
  121       59.996499   0.000000
  122       59.996499   0.000000
  123       60.205149   0.000000
  124       60.205149   0.000000
  125       60.691600   0.000000
  126       60.691603   0.000000
  127       61.578616   0.000000
  128       61.578616   0.000000
 
 -0.3333333E+00 -0.3306717E-17  0.0000000E+00  0.4629630E-02
    1      -18.541123   1.000000
    2      -18.541123   1.000000
    3       -5.292154   1.000000
    4       -5.292153   1.000000
    5       -4.439801   1.000000
    6       -4.439801   1.000000
    7       -4.101346   1.000000
    8       -4.101346   1.000000
    9        4.941109   0.000000
   10        4.941117   0.000000
   11        7.838943   0.000000
   12        7.838955   0.000000
   13        9.259824   0.000000
   14        9.259824   0.000000
   15        9.277334   0.000000
   16        9.277334   0.000000
   17       12.073214   0.000000
   18       12.073214   0.000000
   19       12.094898   0.000000
   20       12.094898   0.000000
   21       12.587054   0.000000
   22       12.587084   0.000000
   23       16.766147   0.000000
   24       16.766148   0.000000
   25       18.389214   0.000000
   26       18.389215   0.000000
   27       18.496446   0.000000
   28       18.496446   0.000000
   29       18.522943   0.000000
   30       18.522954   0.000000
   31       20.027306   0.000000
   32       20.027307   0.000000
   33       20.043079   0.000000
   34       20.043080   0.000000
   35       24.051293   0.000000
   36       24.051354   0.000000
   37       26.162127   0.000000
   38       26.162127   0.000000
   39       26.292806   0.000000
   40       26.292806   0.000000
   41       27.492054   0.000000
   42       27.492066   0.000000
   43       28.235083   0.000000
   44       28.235083   0.000000
   45       28.253854   0.000000
   46       28.253854   0.000000
   47       30.568414   0.000000
   48       30.568415   0.000000
   49       30.571708   0.000000
   50       30.571709   0.000000
   51       30.832574   0.000000
   52       30.832574   0.000000
   53       30.951989   0.000000
   54       30.951996   0.000000
   55       34.341419   0.000000
   56       34.341485   0.000000
   57       36.344251   0.000000
   58       36.344251   0.000000
   59       36.357985   0.000000
   60       36.357986   0.000000
   61       37.044575   0.000000
   62       37.044579   0.000000
   63       37.580796   0.000000
   64       37.580797   0.000000
   65       37.582831   0.000000
   66       37.582831   0.000000
   67       38.457310   0.000000
   68       38.457311   0.000000
   69       40.369512   0.000000
   70       40.369517   0.000000
   71       40.693861   0.000000
   72       40.693861   0.000000
   73       40.758181   0.000000
   74       40.758181   0.000000
   75       41.194581   0.000000
   76       41.194586   0.000000
   77       42.577691   0.000000
   78       42.577691   0.000000
   79       42.590587   0.000000
   80       42.590587   0.000000
   81       44.523305   0.000000
   82       44.523306   0.000000
   83       44.561363   0.000000
   84       44.561364   0.000000
   85       45.881652   0.000000
   86       45.881655   0.000000
   87       47.684770   0.000000
   88       47.684772   0.000000
   89       47.694093   0.000000
   90       47.694095   0.000000
   91       48.843461   0.000000
   92       48.843547   0.000000
   93       51.921030   0.000000
   94       51.921030   0.000000
   95       51.927064   0.000000
   96       51.927064   0.000000
   97       52.901189   0.000000
   98       52.901191   0.000000
   99       53.824918   0.000000
  100       53.824919   0.000000
  101       53.881877   0.000000
  102       53.881878   0.000000
  103       54.034467   0.000000
  104       54.034468   0.000000
  105       54.091066   0.000000
  106       54.091067   0.000000
  107       54.889145   0.000000
  108       54.889145   0.000000
  109       55.665201   0.000000
  110       55.665243   0.000000
  111       55.771728   0.000000
  112       55.771729   0.000000
  113       55.787629   0.000000
  114       55.787630   0.000000
  115       56.748608   0.000000
  116       56.748656   0.000000
  117       57.933034   0.000000
  118       57.933054   0.000000
  119       58.935876   0.000000
  120       58.935877   0.000000
  121       58.939463   0.000000
  122       58.939465   0.000000
  123       60.086409   0.000000
  124       60.086417   0.000000
  125       61.585237   0.000000
  126       61.585237   0.000000
  127       61.585838   0.000000
  128       61.585838   0.000000
 
 -0.1666667E+00  0.1222443E-16  0.6938894E-17  0.4629630E-02
    1      -18.609218   1.000000
    2      -18.609218   1.000000
    3       -4.846143   1.000000
    4       -4.846143   1.000000
    5       -4.215199   1.000000
    6       -4.215199   1.000000
    7       -4.028415   1.000000
    8       -4.028415   1.000000
    9        3.696635   0.000000
   10        3.696648   0.000000
   11        8.531336   0.000000
   12        8.531338   0.000000
   13        9.565735   0.000000
   14        9.565735   0.000000
   15        9.580811   0.000000
   16        9.580811   0.000000
   17       11.219468   0.000000
   18       11.219469   0.000000
   19       11.229967   0.000000
   20       11.229968   0.000000
   21       13.551215   0.000000
   22       13.551239   0.000000
   23       14.924033   0.000000
   24       14.924047   0.000000
   25       16.823964   0.000000
   26       16.823965   0.000000
   27       16.850179   0.000000
   28       16.850180   0.000000
   29       19.419743   0.000000
   30       19.419796   0.000000
   31       21.344884   0.000000
   32       21.344898   0.000000
   33       22.200688   0.000000
   34       22.200688   0.000000
   35       22.320564   0.000000
   36       22.320564   0.000000
   37       26.291277   0.000000
   38       26.291277   0.000000
   39       26.413522   0.000000
   40       26.413522   0.000000
   41       28.105682   0.000000
   42       28.105682   0.000000
   43       28.118382   0.000000
   44       28.118382   0.000000
   45       28.238637   0.000000
   46       28.238643   0.000000
   47       30.243222   0.000000
   48       30.243222   0.000000
   49       33.220542   0.000000
   50       33.220548   0.000000
   51       33.250451   0.000000
   52       33.250452   0.000000
   53       33.253030   0.000000
   54       33.253065   0.000000
   55       35.550354   0.000000
   56       35.550357   0.000000
   57       35.563837   0.000000
   58       35.563838   0.000000
   59       35.590818   0.000000
   60       35.590819   0.000000
   61       38.654265   0.000000
   62       38.654295   0.000000
   63       38.937498   0.000000
   64       38.937498   0.000000
   65       38.954193   0.000000
   66       38.954193   0.000000
   67       40.682703   0.000000
   68       40.682704   0.000000
   69       40.688073   0.000000
   70       40.688074   0.000000
   71       40.766447   0.000000
   72       40.766448   0.000000
   73       41.182420   0.000000
   74       41.182421   0.000000
   75       42.318079   0.000000
   76       42.318079   0.000000
   77       42.338516   0.000000
   78       42.338516   0.000000
   79       43.469731   0.000000
   80       43.469745   0.000000
   81       43.904075   0.000000
   82       43.904075   0.000000
   83       43.949005   0.000000
   84       43.949005   0.000000
   85       45.610055   0.000000
   86       45.610092   0.000000
   87       46.866903   0.000000
   88       46.866903   0.000000
   89       46.868997   0.000000
   90       46.868998   0.000000
   91       47.550540   0.000000
   92       47.550540   0.000000
   93       47.559129   0.000000
   94       47.559129   0.000000
   95       47.759380   0.000000
   96       47.759420   0.000000
   97       49.463536   0.000000
   98       49.463597   0.000000
   99       49.559478   0.000000
  100       49.559478   0.000000
  101       50.047506   0.000000
  102       50.047507   0.000000
  103       50.050268   0.000000
  104       50.050268   0.000000
  105       50.435427   0.000000
  106       50.435438   0.000000
  107       53.446651   0.000000
  108       53.446651   0.000000
  109       53.446775   0.000000
  110       53.446775   0.000000
  111       54.787928   0.000000
  112       54.787950   0.000000
  113       54.850034   0.000000
  114       54.850034   0.000000
  115       54.850873   0.000000
  116       54.850874   0.000000
  117       59.176246   0.000000
  118       59.176248   0.000000
  119       59.230620   0.000000
  120       59.230622   0.000000
  121       59.883756   0.000000
  122       59.883769   0.000000
  123       61.007594   0.000000
  124       61.007637   0.000000
  125       62.322172   0.000000
  126       62.322172   0.000000
  127       62.334485   0.000000
  128       62.334485   0.000000
 
  0.5777790E-33  0.1666667E+00  0.1387779E-16  0.4629630E-02
    1      -18.609218   1.000000
    2      -18.609218   1.000000
    3       -4.846143   1.000000
    4       -4.846143   1.000000
    5       -4.215199   1.000000
    6       -4.215199   1.000000
    7       -4.028415   1.000000
    8       -4.028415   1.000000
    9        3.696635   0.000000
   10        3.696648   0.000000
   11        8.531336   0.000000
   12        8.531338   0.000000
   13        9.565734   0.000000
   14        9.565735   0.000000
   15        9.580811   0.000000
   16        9.580812   0.000000
   17       11.219468   0.000000
   18       11.219469   0.000000
   19       11.229967   0.000000
   20       11.229968   0.000000
   21       13.551215   0.000000
   22       13.551239   0.000000
   23       14.924033   0.000000
   24       14.924047   0.000000
   25       16.823963   0.000000
   26       16.823966   0.000000
   27       16.850179   0.000000
   28       16.850181   0.000000
   29       19.419743   0.000000
   30       19.419796   0.000000
   31       21.344884   0.000000
   32       21.344898   0.000000
   33       22.200688   0.000000
   34       22.200688   0.000000
   35       22.320563   0.000000
   36       22.320564   0.000000
   37       26.291277   0.000000
   38       26.291277   0.000000
   39       26.413521   0.000000
   40       26.413522   0.000000
   41       28.105682   0.000000
   42       28.105682   0.000000
   43       28.118382   0.000000
   44       28.118382   0.000000
   45       28.238637   0.000000
   46       28.238643   0.000000
   47       30.243221   0.000000
   48       30.243222   0.000000
   49       33.220542   0.000000
   50       33.220547   0.000000
   51       33.250451   0.000000
   52       33.250452   0.000000
   53       33.253030   0.000000
   54       33.253065   0.000000
   55       35.550354   0.000000
   56       35.550357   0.000000
   57       35.563837   0.000000
   58       35.563838   0.000000
   59       35.590818   0.000000
   60       35.590820   0.000000
   61       38.654265   0.000000
   62       38.654295   0.000000
   63       38.937497   0.000000
   64       38.937499   0.000000
   65       38.954192   0.000000
   66       38.954194   0.000000
   67       40.682703   0.000000
   68       40.682704   0.000000
   69       40.688073   0.000000
   70       40.688074   0.000000
   71       40.766447   0.000000
   72       40.766448   0.000000
   73       41.182420   0.000000
   74       41.182421   0.000000
   75       42.318078   0.000000
   76       42.318080   0.000000
   77       42.338515   0.000000
   78       42.338517   0.000000
   79       43.469731   0.000000
   80       43.469745   0.000000
   81       43.904073   0.000000
   82       43.904077   0.000000
   83       43.949003   0.000000
   84       43.949007   0.000000
   85       45.610055   0.000000
   86       45.610093   0.000000
   87       46.866901   0.000000
   88       46.866904   0.000000
   89       46.868996   0.000000
   90       46.868999   0.000000
   91       47.550539   0.000000
   92       47.550540   0.000000
   93       47.559129   0.000000
   94       47.559130   0.000000
   95       47.759380   0.000000
   96       47.759420   0.000000
   97       49.463536   0.000000
   98       49.463597   0.000000
   99       49.559478   0.000000
  100       49.559478   0.000000
  101       50.047505   0.000000
  102       50.047508   0.000000
  103       50.050267   0.000000
  104       50.050269   0.000000
  105       50.435427   0.000000
  106       50.435438   0.000000
  107       53.446650   0.000000
  108       53.446652   0.000000
  109       53.446775   0.000000
  110       53.446776   0.000000
  111       54.787929   0.000000
  112       54.787951   0.000000
  113       54.850032   0.000000
  114       54.850036   0.000000
  115       54.850872   0.000000
  116       54.850875   0.000000
  117       59.176245   0.000000
  118       59.176250   0.000000
  119       59.230618   0.000000
  120       59.230624   0.000000
  121       59.883756   0.000000