<?xml version="1.0" encoding="ISO-8859-1"?>
<modeling>
 <generator>
  <i name="program" type="string">vasp </i>
  <i name="version" type="string">5.4.4.18Apr17-6-g9f103f2a35  </i>
  <i name="subversion" type="string">(build Nov 03 2018 10:20:46) complex            parallel </i>
  <i name="platform" type="string">LinuxIFC </i>
  <i name="date" type="string">2018 11 14 </i>
  <i name="time" type="string">17:16:41 </i>
 </generator>
 <incar>
  <i type="string" name="SYSTEM">   Og_FCC</i>
  <i type="string" name="PREC">accurate</i>
  <i type="string" name="ALGO">   EXACT</i>
  <i type="logical" name="ADDGRID"> T  </i>
  <i type="logical" name="LSORBIT"> T  </i>
  <i type="int" name="ISPIN">     1</i>
  <i type="int" name="MAXMIX">    50</i>
  <i type="int" name="NELM">    50</i>
  <i type="int" name="NELMDL">    -5</i>
  <i type="int" name="NELMIN">     2</i>
  <i type="int" name="IBRION">    -1</i>
  <i type="int" name="NFREE">     5</i>
  <i name="EDIFF">      0.00000001</i>
  <i name="EDIFFG">      0.00001000</i>
  <i type="int" name="NSW">     1</i>
  <i type="int" name="ISIF">     3</i>
  <i type="int" name="ISYM">     0</i>
  <i name="SYMPREC">      0.00000010</i>
  <i name="ENCUT">    300.00000000</i>
  <i type="int" name="NBANDS">   128</i>
  <i name="POTIM">      0.10000000</i>
  <i type="logical" name="LREAL"> F  </i>
  <i type="int" name="ISMEAR">     0</i>
  <i name="SIGMA">      0.00100000</i>
  <i type="int" name="NWRITE">     2</i>
  <i type="logical" name="LWAVE"> T  </i>
  <i type="logical" name="LCHARG"> F  </i>
  <i type="logical" name="LVTOT"> F  </i>
  <i type="logical" name="LOPTICS"> T  </i>
  <i type="logical" name="GGA_COMPAT"> F  </i>
  <v type="int" name="KPOINT_BSE">    -1     0     0     0</v>
  <i type="int" name="NELM">    50</i>
  <i type="string" name="GGA"> PE</i>
 </incar>
 <structure name="primitive_cell" >
  <crystal>
   <varray name="basis" >
    <v>       4.11534301       0.00000000       0.00000000 </v>
    <v>       2.05767151       3.56399159      -0.00000000 </v>
    <v>       2.05767151       1.18799720       3.36016350 </v>
   </varray>
   <i name="volume">     49.28367901 </i>
   <varray name="rec_basis" >
    <v>       0.24299311      -0.14029214      -0.09920152 </v>
    <v>       0.00000000       0.28058428      -0.09920152 </v>
    <v>      -0.00000000       0.00000000       0.29760457 </v>
   </varray>
  </crystal>
  <varray name="positions" >
   <v>       0.00000000       0.00000000       0.00000000 </v>
  </varray>
 </structure>
 <varray name="primitive_index" >
  <v type="int" >        1 </v>
 </varray>
 <kpoints>
  <generation param="Gamma">
   <v type="int" name="divisions">       6        6        6 </v>
   <v name="usershift">      0.00000000       0.00000000       0.00000000 </v>
   <v name="genvec1">      0.16666667       0.00000000       0.00000000 </v>
   <v name="genvec2">     -0.00000000       0.16666667       0.00000000 </v>
   <v name="genvec3">     -0.00000000       0.00000000       0.16666667 </v>
   <v name="shift">      0.00000000       0.00000000       0.00000000 </v>
  </generation>
  <varray name="kpointlist" >
   <v>       0.00000000       0.00000000       0.00000000 </v>
   <v>       0.16666667      -0.00000000      -0.00000000 </v>
   <v>       0.33333333       0.00000000       0.00000000 </v>
   <v>       0.50000000       0.00000000       0.00000000 </v>
   <v>      -0.33333333      -0.00000000       0.00000000 </v>
   <v>      -0.16666667       0.00000000       0.00000000 </v>
   <v>       0.00000000       0.16666667       0.00000000 </v>
   <v>       0.16666667       0.16666667       0.00000000 </v>
   <v>       0.33333333       0.16666667       0.00000000 </v>
   <v>       0.50000000       0.16666667       0.00000000 </v>
   <v>      -0.33333333       0.16666667       0.00000000 </v>
   <v>      -0.16666667       0.16666667       0.00000000 </v>
   <v>       0.00000000       0.33333333      -0.00000000 </v>
   <v>       0.16666667       0.33333333       0.00000000 </v>
   <v>       0.33333333       0.33333333      -0.00000000 </v>
   <v>       0.50000000       0.33333333      -0.00000000 </v>
   <v>      -0.33333333       0.33333333      -0.00000000 </v>
   <v>      -0.16666667       0.33333333       0.00000000 </v>
   <v>       0.00000000       0.50000000       0.00000000 </v>
   <v>       0.16666667       0.50000000       0.00000000 </v>
   <v>       0.33333333       0.50000000       0.00000000 </v>
   <v>       0.50000000       0.50000000       0.00000000 </v>
   <v>      -0.33333333       0.50000000      -0.00000000 </v>
   <v>      -0.16666667       0.50000000       0.00000000 </v>
   <v>      -0.00000000      -0.33333333       0.00000000 </v>
   <v>       0.16666667      -0.33333333       0.00000000 </v>
   <v>       0.33333333      -0.33333333       0.00000000 </v>
   <v>       0.50000000      -0.33333333       0.00000000 </v>
   <v>      -0.33333333      -0.33333333       0.00000000 </v>
   <v>      -0.16666667      -0.33333333       0.00000000 </v>
   <v>      -0.00000000      -0.16666667      -0.00000000 </v>
   <v>       0.16666667      -0.16666667      -0.00000000 </v>
   <v>       0.33333333      -0.16666667      -0.00000000 </v>
   <v>       0.50000000      -0.16666667       0.00000000 </v>
   <v>      -0.33333333      -0.16666667      -0.00000000 </v>
   <v>      -0.16666667      -0.16666667      -0.00000000 </v>
   <v>       0.00000000       0.00000000       0.16666667 </v>
   <v>       0.16666667       0.00000000       0.16666667 </v>
   <v>       0.33333333      -0.00000000       0.16666667 </v>
   <v>       0.50000000       0.00000000       0.16666667 </v>
   <v>      -0.33333333      -0.00000000       0.16666667 </v>
   <v>      -0.16666667       0.00000000       0.16666667 </v>
   <v>       0.00000000       0.16666667       0.16666667 </v>
   <v>       0.16666667       0.16666667       0.16666667 </v>
   <v>       0.33333333       0.16666667       0.16666667 </v>
   <v>       0.50000000       0.16666667       0.16666667 </v>
   <v>      -0.33333333       0.16666667       0.16666667 </v>
   <v>      -0.16666667       0.16666667       0.16666667 </v>
   <v>       0.00000000       0.33333333       0.16666667 </v>
   <v>       0.16666667       0.33333333       0.16666667 </v>
   <v>       0.33333333       0.33333333       0.16666667 </v>
   <v>       0.50000000       0.33333333       0.16666667 </v>
   <v>      -0.33333333       0.33333333       0.16666667 </v>
   <v>      -0.16666667       0.33333333       0.16666667 </v>
   <v>       0.00000000       0.50000000       0.16666667 </v>
   <v>       0.16666667       0.50000000       0.16666667 </v>
   <v>       0.33333333       0.50000000       0.16666667 </v>
   <v>       0.50000000       0.50000000       0.16666667 </v>
   <v>      -0.33333333       0.50000000       0.16666667 </v>
   <v>      -0.16666667       0.50000000       0.16666667 </v>
   <v>       0.00000000      -0.33333333       0.16666667 </v>
   <v>       0.16666667      -0.33333333       0.16666667 </v>
   <v>       0.33333333      -0.33333333       0.16666667 </v>
   <v>       0.50000000      -0.33333333       0.16666667 </v>
   <v>      -0.33333333      -0.33333333       0.16666667 </v>
   <v>      -0.16666667      -0.33333333       0.16666667 </v>
   <v>       0.00000000      -0.16666667       0.16666667 </v>
   <v>       0.16666667      -0.16666667       0.16666667 </v>
   <v>       0.33333333      -0.16666667       0.16666667 </v>
   <v>       0.50000000      -0.16666667       0.16666667 </v>
   <v>      -0.33333333      -0.16666667       0.16666667 </v>
   <v>      -0.16666667      -0.16666667       0.16666667 </v>
   <v>       0.00000000       0.00000000       0.33333333 </v>
   <v>       0.16666667      -0.00000000       0.33333333 </v>
   <v>       0.33333333       0.00000000       0.33333333 </v>
   <v>       0.50000000       0.00000000       0.33333333 </v>
   <v>      -0.33333333       0.00000000       0.33333333 </v>
   <v>      -0.16666667       0.00000000       0.33333333 </v>
   <v>      -0.00000000       0.16666667       0.33333333 </v>
   <v>       0.16666667       0.16666667       0.33333333 </v>
   <v>       0.33333333       0.16666667       0.33333333 </v>
   <v>       0.50000000       0.16666667       0.33333333 </v>
   <v>      -0.33333333       0.16666667       0.33333333 </v>
   <v>      -0.16666667       0.16666667       0.33333333 </v>
   <v>       0.00000000       0.33333333       0.33333333 </v>
   <v>       0.16666667       0.33333333       0.33333333 </v>
   <v>       0.33333333       0.33333333       0.33333333 </v>
   <v>       0.50000000       0.33333333       0.33333333 </v>
   <v>      -0.33333333       0.33333333       0.33333333 </v>
   <v>      -0.16666667       0.33333333       0.33333333 </v>
   <v>       0.00000000       0.50000000       0.33333333 </v>
   <v>       0.16666667       0.50000000       0.33333333 </v>
   <v>       0.33333333       0.50000000       0.33333333 </v>
   <v>       0.50000000       0.50000000       0.33333333 </v>
   <v>      -0.33333333       0.50000000       0.33333333 </v>
   <v>      -0.16666667       0.50000000       0.33333333 </v>
   <v>      -0.00000000      -0.33333333       0.33333333 </v>
   <v>       0.16666667      -0.33333333       0.33333333 </v>
   <v>       0.33333333      -0.33333333       0.33333333 </v>
   <v>       0.50000000      -0.33333333       0.33333333 </v>
   <v>      -0.33333333      -0.33333333       0.33333333 </v>
   <v>      -0.16666667      -0.33333333       0.33333333 </v>
   <v>       0.00000000      -0.16666667       0.33333333 </v>
   <v>       0.16666667      -0.16666667       0.33333333 </v>
   <v>       0.33333333      -0.16666667       0.33333333 </v>
   <v>       0.50000000      -0.16666667       0.33333333 </v>
   <v>      -0.33333333      -0.16666667       0.33333333 </v>
   <v>      -0.16666667      -0.16666667       0.33333333 </v>
   <v>       0.00000000       0.00000000       0.50000000 </v>
   <v>       0.16666667       0.00000000       0.50000000 </v>
   <v>       0.33333333       0.00000000       0.50000000 </v>
   <v>       0.50000000       0.00000000       0.50000000 </v>
   <v>      -0.33333333       0.00000000       0.50000000 </v>
   <v>      -0.16666667       0.00000000       0.50000000 </v>
   <v>       0.00000000       0.16666667       0.50000000 </v>
   <v>       0.16666667       0.16666667       0.50000000 </v>
   <v>       0.33333333       0.16666667       0.50000000 </v>
   <v>       0.50000000       0.16666667       0.50000000 </v>
   <v>      -0.33333333       0.16666667       0.50000000 </v>
   <v>      -0.16666667       0.16666667       0.50000000 </v>
   <v>       0.00000000       0.33333333       0.50000000 </v>
   <v>       0.16666667       0.33333333       0.50000000 </v>
   <v>       0.33333333       0.33333333       0.50000000 </v>
   <v>       0.50000000       0.33333333       0.50000000 </v>
   <v>      -0.33333333       0.33333333       0.50000000 </v>
   <v>      -0.16666667       0.33333333       0.50000000 </v>
   <v>       0.00000000       0.50000000       0.50000000 </v>
   <v>       0.16666667       0.50000000       0.50000000 </v>
   <v>       0.33333333       0.50000000       0.50000000 </v>
   <v>       0.50000000       0.50000000       0.50000000 </v>
   <v>      -0.33333333       0.50000000       0.50000000 </v>
   <v>      -0.16666667       0.50000000       0.50000000 </v>
   <v>       0.00000000      -0.33333333       0.50000000 </v>
   <v>       0.16666667      -0.33333333       0.50000000 </v>
   <v>       0.33333333      -0.33333333       0.50000000 </v>
   <v>       0.50000000      -0.33333333       0.50000000 </v>
   <v>      -0.33333333      -0.33333333       0.50000000 </v>
   <v>      -0.16666667      -0.33333333       0.50000000 </v>
   <v>      -0.00000000      -0.16666667       0.50000000 </v>
   <v>       0.16666667      -0.16666667       0.50000000 </v>
   <v>       0.33333333      -0.16666667       0.50000000 </v>
   <v>       0.50000000      -0.16666667       0.50000000 </v>
   <v>      -0.33333333      -0.16666667       0.50000000 </v>
   <v>      -0.16666667      -0.16666667       0.50000000 </v>
   <v>       0.00000000      -0.00000000      -0.33333333 </v>
   <v>       0.16666667      -0.00000000      -0.33333333 </v>
   <v>       0.33333333      -0.00000000      -0.33333333 </v>
   <v>       0.50000000       0.00000000      -0.33333333 </v>
   <v>      -0.33333333      -0.00000000      -0.33333333 </v>
   <v>      -0.16666667       0.00000000      -0.33333333 </v>
   <v>      -0.00000000       0.16666667      -0.33333333 </v>
   <v>       0.16666667       0.16666667      -0.33333333 </v>
   <v>       0.33333333       0.16666667      -0.33333333 </v>
   <v>       0.50000000       0.16666667      -0.33333333 </v>
   <v>      -0.33333333       0.16666667      -0.33333333 </v>
   <v>      -0.16666667       0.16666667      -0.33333333 </v>
   <v>       0.00000000       0.33333333      -0.33333333 </v>
   <v>       0.16666667       0.33333333      -0.33333333 </v>
   <v>       0.33333333       0.33333333      -0.33333333 </v>
   <v>       0.50000000       0.33333333      -0.33333333 </v>
   <v>      -0.33333333       0.33333333      -0.33333333 </v>
   <v>      -0.16666667       0.33333333      -0.33333333 </v>
   <v>       0.00000000       0.50000000      -0.33333333 </v>
   <v>       0.16666667       0.50000000      -0.33333333 </v>
   <v>       0.33333333       0.50000000      -0.33333333 </v>
   <v>       0.50000000       0.50000000      -0.33333333 </v>
   <v>      -0.33333333       0.50000000      -0.33333333 </v>
   <v>      -0.16666667       0.50000000      -0.33333333 </v>
   <v>       0.00000000      -0.33333333      -0.33333333 </v>
   <v>       0.16666667      -0.33333333      -0.33333333 </v>
   <v>       0.33333333      -0.33333333      -0.33333333 </v>
   <v>       0.50000000      -0.33333333      -0.33333333 </v>
   <v>      -0.33333333      -0.33333333      -0.33333333 </v>
   <v>      -0.16666667      -0.33333333      -0.33333333 </v>
   <v>       0.00000000      -0.16666667      -0.33333333 </v>
   <v>       0.16666667      -0.16666667      -0.33333333 </v>
   <v>       0.33333333      -0.16666667      -0.33333333 </v>
   <v>       0.50000000      -0.16666667      -0.33333333 </v>
   <v>      -0.33333333      -0.16666667      -0.33333333 </v>
   <v>      -0.16666667      -0.16666667      -0.33333333 </v>
   <v>       0.00000000      -0.00000000      -0.16666667 </v>
   <v>       0.16666667      -0.00000000      -0.16666667 </v>
   <v>       0.33333333       0.00000000      -0.16666667 </v>
   <v>       0.50000000       0.00000000      -0.16666667 </v>
   <v>      -0.33333333       0.00000000      -0.16666667 </v>
   <v>      -0.16666667      -0.00000000      -0.16666667 </v>
   <v>      -0.00000000       0.16666667      -0.16666667 </v>
   <v>       0.16666667       0.16666667      -0.16666667 </v>
   <v>       0.33333333       0.16666667      -0.16666667 </v>
   <v>       0.50000000       0.16666667      -0.16666667 </v>
   <v>      -0.33333333       0.16666667      -0.16666667 </v>
   <v>      -0.16666667       0.16666667      -0.16666667 </v>
   <v>       0.00000000       0.33333333      -0.16666667 </v>
   <v>       0.16666667       0.33333333      -0.16666667 </v>
   <v>       0.33333333       0.33333333      -0.16666667 </v>
   <v>       0.50000000       0.33333333      -0.16666667 </v>
   <v>      -0.33333333       0.33333333      -0.16666667 </v>
   <v>      -0.16666667       0.33333333      -0.16666667 </v>
   <v>       0.00000000       0.50000000      -0.16666667 </v>
   <v>       0.16666667       0.50000000      -0.16666667 </v>
   <v>       0.33333333       0.50000000      -0.16666667 </v>
   <v>       0.50000000       0.50000000      -0.16666667 </v>
   <v>      -0.33333333       0.50000000      -0.16666667 </v>
   <v>      -0.16666667       0.50000000      -0.16666667 </v>
   <v>      -0.00000000      -0.33333333      -0.16666667 </v>
   <v>       0.16666667      -0.33333333      -0.16666667 </v>
   <v>       0.33333333      -0.33333333      -0.16666667 </v>
   <v>       0.50000000      -0.33333333      -0.16666667 </v>
   <v>      -0.33333333      -0.33333333      -0.16666667 </v>
   <v>      -0.16666667      -0.33333333      -0.16666667 </v>
   <v>      -0.00000000      -0.16666667      -0.16666667 </v>
   <v>       0.16666667      -0.16666667      -0.16666667 </v>
   <v>       0.33333333      -0.16666667      -0.16666667 </v>
   <v>       0.50000000      -0.16666667      -0.16666667 </v>
   <v>      -0.33333333      -0.16666667      -0.16666667 </v>
   <v>      -0.16666667      -0.16666667      -0.16666667 </v>
  </varray>
  <varray name="weights" >
   <v>       0.00462963 </v>
   <v>       0.00462963 </v>
   <v>       0.00462963 </v>
   <v>       0.00462963 </v>
   <v>       0.00462963 </v>
   <v>       0.00462963 </v>
   <v>       0.00462963 </v>
   <v>       0.00462963 </v>
   <v>       0.00462963 </v>
   <v>       0.00462963 </v>
   <v>       0.00462963 </v>
   <v>       0.00462963 </v>
   <v>       0.00462963 </v>
   <v>       0.00462963 </v>
   <v>       0.00462963 </v>
   <v>       0.00462963 </v>
   <v>       0.00462963 </v>
   <v>       0.00462963 </v>
   <v>       0.00462963 </v>
   <v>       0.00462963 </v>
   <v>       0.00462963 </v>
   <v>       0.00462963 </v>
   <v>       0.00462963 </v>
   <v>       0.00462963 </v>
   <v>       0.00462963 </v>
   <v>       0.00462963 </v>
   <v>       0.00462963 </v>
   <v>       0.00462963 </v>
   <v>       0.00462963 </v>
   <v>       0.00462963 </v>
   <v>       0.00462963 </v>
   <v>       0.00462963 </v>
   <v>       0.00462963 </v>
   <v>       0.00462963 </v>
   <v>       0.00462963 </v>
   <v>       0.00462963 </v>
   <v>       0.00462963 </v>
   <v>       0.00462963 </v>
   <v>       0.00462963 </v>
   <v>       0.00462963 </v>
   <v>       0.00462963 </v>
   <v>       0.00462963 </v>
   <v>       0.00462963 </v>
   <v>       0.00462963 </v>
   <v>       0.00462963 </v>
   <v>       0.00462963 </v>
   <v>       0.00462963 </v>
   <v>       0.00462963 </v>
   <v>       0.00462963 </v>
   <v>       0.00462963 </v>
   <v>       0.00462963 </v>
   <v>       0.00462963 </v>
   <v>       0.00462963 </v>
   <v>       0.00462963 </v>
   <v>       0.00462963 </v>
   <v>       0.00462963 </v>
   <v>       0.00462963 </v>
   <v>       0.00462963 </v>
   <v>       0.00462963 </v>
   <v>       0.00462963 </v>
   <v>       0.00462963 </v>
   <v>       0.00462963 </v>
   <v>       0.00462963 </v>
   <v>       0.00462963 </v>
   <v>       0.00462963 </v>
   <v>       0.00462963 </v>
   <v>       0.00462963 </v>
   <v>       0.00462963 </v>
   <v>       0.00462963 </v>
   <v>       0.00462963 </v>
   <v>       0.00462963 </v>
   <v>       0.00462963 </v>
   <v>       0.00462963 </v>
   <v>       0.00462963 </v>
   <v>       0.00462963 </v>
   <v>       0.00462963 </v>
   <v>       0.00462963 </v>
   <v>       0.00462963 </v>
   <v>       0.00462963 </v>
   <v>       0.00462963 </v>
   <v>       0.00462963 </v>
   <v>       0.00462963 </v>
   <v>       0.00462963 </v>
   <v>       0.00462963 </v>
   <v>       0.00462963 </v>
   <v>       0.00462963 </v>
   <v>       0.00462963 </v>
   <v>       0.00462963 </v>
   <v>       0.00462963 </v>
   <v>       0.00462963 </v>
   <v>       0.00462963 </v>
   <v>       0.00462963 </v>
   <v>       0.00462963 </v>
   <v>       0.00462963 </v>
   <v>       0.00462963 </v>
   <v>       0.00462963 </v>
   <v>       0.00462963 </v>
   <v>       0.00462963 </v>
   <v>       0.00462963 </v>
   <v>       0.00462963 </v>
   <v>       0.00462963 </v>
   <v>       0.00462963 </v>
   <v>       0.00462963 </v>
   <v>       0.00462963 </v>
   <v>       0.00462963 </v>
   <v>       0.00462963 </v>
   <v>       0.00462963 </v>
   <v>       0.00462963 </v>
   <v>       0.00462963 </v>
   <v>       0.00462963 </v>
   <v>       0.00462963 </v>
   <v>       0.00462963 </v>
   <v>       0.00462963 </v>
   <v>       0.00462963 </v>
   <v>       0.00462963 </v>
   <v>       0.00462963 </v>
   <v>       0.00462963 </v>
   <v>       0.00462963 </v>
   <v>       0.00462963 </v>
   <v>       0.00462963 </v>
   <v>       0.00462963 </v>
   <v>       0.00462963 </v>
   <v>       0.00462963 </v>
   <v>       0.00462963 </v>
   <v>       0.00462963 </v>
   <v>       0.00462963 </v>
   <v>       0.00462963 </v>
   <v>       0.00462963 </v>
   <v>       0.00462963 </v>
   <v>       0.00462963 </v>
   <v>       0.00462963 </v>
   <v>       0.00462963 </v>
   <v>       0.00462963 </v>
   <v>       0.00462963 </v>
   <v>       0.00462963 </v>
   <v>       0.00462963 </v>
   <v>       0.00462963 </v>
   <v>       0.00462963 </v>
   <v>       0.00462963 </v>
   <v>       0.00462963 </v>
   <v>       0.00462963 </v>
   <v>       0.00462963 </v>
   <v>       0.00462963 </v>
   <v>       0.00462963 </v>
   <v>       0.00462963 </v>
   <v>       0.00462963 </v>
   <v>       0.00462963 </v>
   <v>       0.00462963 </v>
   <v>       0.00462963 </v>
   <v>       0.00462963 </v>
   <v>       0.00462963 </v>
   <v>       0.00462963 </v>
   <v>       0.00462963 </v>
   <v>       0.00462963 </v>
   <v>       0.00462963 </v>
   <v>       0.00462963 </v>
   <v>       0.00462963 </v>
   <v>       0.00462963 </v>
   <v>       0.00462963 </v>
   <v>       0.00462963 </v>
   <v>       0.00462963 </v>
   <v>       0.00462963 </v>
   <v>       0.00462963 </v>
   <v>       0.00462963 </v>
   <v>       0.00462963 </v>
   <v>       0.00462963 </v>
   <v>       0.00462963 </v>
   <v>       0.00462963 </v>
   <v>       0.00462963 </v>
   <v>       0.00462963 </v>
   <v>       0.00462963 </v>
   <v>       0.00462963 </v>
   <v>       0.00462963 </v>
   <v>       0.00462963 </v>
   <v>       0.00462963 </v>
   <v>       0.00462963 </v>
   <v>       0.00462963 </v>
   <v>       0.00462963 </v>
   <v>       0.00462963 </v>
   <v>       0.00462963 </v>
   <v>       0.00462963 </v>
   <v>       0.00462963 </v>
   <v>       0.00462963 </v>
   <v>       0.00462963 </v>
   <v>       0.00462963 </v>
   <v>       0.00462963 </v>
   <v>       0.00462963 </v>
   <v>       0.00462963 </v>
   <v>       0.00462963 </v>
   <v>       0.00462963 </v>
   <v>       0.00462963 </v>
   <v>       0.00462963 </v>
   <v>       0.00462963 </v>
   <v>       0.00462963 </v>
   <v>       0.00462963 </v>
   <v>       0.00462963 </v>
   <v>       0.00462963 </v>
   <v>       0.00462963 </v>
   <v>       0.00462963 </v>
   <v>       0.00462963 </v>
   <v>       0.00462963 </v>
   <v>       0.00462963 </v>
   <v>       0.00462963 </v>
   <v>       0.00462963 </v>
   <v>       0.00462963 </v>
   <v>       0.00462963 </v>
   <v>       0.00462963 </v>
   <v>       0.00462963 </v>
   <v>       0.00462963 </v>
   <v>       0.00462963 </v>
   <v>       0.00462963 </v>
   <v>       0.00462963 </v>
   <v>       0.00462963 </v>
   <v>       0.00462963 </v>
   <v>       0.00462963 </v>
   <v>       0.00462963 </v>
  </varray>
 </kpoints>
 <parameters>
  <separator name="general" >
   <i type="string" name="SYSTEM">Og_FCC</i>
   <i type="logical" name="LCOMPAT"> F  </i>
  </separator>
  <separator name="electronic" >
   <i type="string" name="PREC">accura</i>
   <i name="ENMAX">    300.00000000</i>
   <i name="ENAUG">    554.76500000</i>
   <i name="EDIFF">      0.00000001</i>
   <i type="int" name="IALGO">    90</i>
   <i type="int" name="IWAVPR">    10</i>
   <i type="int" name="NBANDS">   128</i>
   <i name="NELECT">      8.00000000</i>
   <i type="int" name="TURBO">     0</i>
   <i type="int" name="IRESTART">     0</i>
   <i type="int" name="NREBOOT">     0</i>
   <i type="int" name="NMIN">     0</i>
   <i name="EREF">      0.00000000</i>
   <separator name="electronic smearing" >
    <i type="int" name="ISMEAR">     0</i>
    <i name="SIGMA">      0.00100000</i>
    <i name="KSPACING">      0.50000000</i>
    <i type="logical" name="KGAMMA"> T  </i>
   </separator>
   <separator name="electronic projectors" >
    <i type="logical" name="LREAL"> F  </i>
    <v name="ROPT">      0.00000000</v>
    <i type="int" name="LMAXPAW">  -100</i>
    <i type="int" name="LMAXMIX">     2</i>
    <i type="logical" name="NLSPLINE"> F  </i>
   </separator>
   <separator name="electronic startup" >
    <i type="int" name="ISTART">     1</i>
    <i type="int" name="ICHARG">     0</i>
    <i type="int" name="INIWAV">     1</i>
   </separator>
   <separator name="electronic spin" >
    <i type="int" name="ISPIN">     1</i>
    <i type="logical" name="LNONCOLLINEAR"> T  </i>
    <v name="MAGMOM">      1.00000000      1.00000000      1.00000000</v>
    <i name="NUPDOWN">     -1.00000000</i>
    <i type="logical" name="LSORBIT"> T  </i>
    <v name="SAXIS">      0.00000000      0.00000000      1.00000000</v>
    <i type="logical" name="LSPIRAL"> F  </i>
    <v name="QSPIRAL">      0.00000000      0.00000000      0.00000000</v>
    <i type="logical" name="LZEROZ"> F  </i>
   </separator>
   <separator name="electronic exchange-correlation" >
    <i type="logical" name="LASPH"> F  </i>
    <i type="logical" name="LMETAGGA"> F  </i>
   </separator>
   <separator name="electronic convergence" >
    <i type="int" name="NELM">    50</i>
    <i type="int" name="NELMDL">    -5</i>
    <i type="int" name="NELMIN">     2</i>
    <i name="ENINI">    300.00000000</i>
    <separator name="electronic convergence detail" >
     <i type="logical" name="LDIAG"> T  </i>
     <i type="logical" name="LSUBROT"> F  </i>
     <i name="WEIMIN">      0.00000000</i>
     <i name="EBREAK">      0.00000000</i>
     <i name="DEPER">      0.30000000</i>
     <i type="int" name="NRMM">     4</i>
     <i name="TIME">      0.40000000</i>
    </separator>
   </separator>
   <separator name="electronic mixer" >
    <i name="AMIX">      0.40000000</i>
    <i name="BMIX">      1.00000000</i>
    <i name="AMIN">      0.10000000</i>
    <i name="AMIX_MAG">      1.60000000</i>
    <i name="BMIX_MAG">      1.00000000</i>
    <separator name="electronic mixer details" >
     <i type="int" name="IMIX">     4</i>
     <i type="logical" name="MIXFIRST"> F  </i>
     <i type="int" name="MAXMIX">    50</i>
     <i name="WC">    100.00000000</i>
     <i type="int" name="INIMIX">     1</i>
     <i type="int" name="MIXPRE">     1</i>
     <i type="int" name="MREMOVE">     5</i>
    </separator>
   </separator>
   <separator name="electronic dipolcorrection" >
    <i type="logical" name="LDIPOL"> F  </i>
    <i type="logical" name="LMONO"> F  </i>
    <i type="int" name="IDIPOL">     0</i>
    <i name="EPSILON">      1.00000000</i>
    <v name="DIPOL">   -100.00000000   -100.00000000   -100.00000000</v>
    <i name="EFIELD">      0.00000000</i>
   </separator>
  </separator>
  <separator name="grids" >
   <i type="int" name="NGX">    24</i>
   <i type="int" name="NGY">    24</i>
   <i type="int" name="NGZ">    24</i>
   <i type="int" name="NGXF">    48</i>
   <i type="int" name="NGYF">    48</i>
   <i type="int" name="NGZF">    48</i>
   <i type="logical" name="ADDGRID"> T  </i>
  </separator>
  <separator name="ionic" >
   <i type="int" name="NSW">     1</i>
   <i type="int" name="IBRION">    -1</i>
   <i type="int" name="MDALGO">     0</i>
   <i type="int" name="ISIF">     3</i>
   <i name="PSTRESS">      0.00000000</i>
   <i name="EDIFFG">      0.00001000</i>
   <i type="int" name="NFREE">     5</i>
   <i name="POTIM">      0.10000000</i>
   <i name="SMASS">     -3.00000000</i>
   <i name="SCALEE">      1.00000000</i>
  </separator>
  <separator name="ionic md" >
   <i name="TEBEG">      0.00010000</i>
   <i name="TEEND">      0.00010000</i>
   <i type="int" name="NBLOCK">     1</i>
   <i type="int" name="KBLOCK">     1</i>
   <i type="int" name="NPACO">   256</i>
   <i name="APACO">     16.00000000</i>
  </separator>
  <separator name="symmetry" >
   <i type="int" name="ISYM">     0</i>
   <i name="SYMPREC">      0.00000010</i>
  </separator>
  <separator name="dos" >
   <i type="int" name="LORBIT">     0</i>
   <v name="RWIGS">     -1.00000000</v>
   <i type="int" name="NEDOS">   301</i>
   <i name="EMIN">     10.00000000</i>
   <i name="EMAX">    -10.00000000</i>
   <i name="EFERMI">      0.00000000</i>
  </separator>
  <separator name="writing" >
   <i type="int" name="NWRITE">     2</i>
   <i type="logical" name="LWAVE"> T  </i>
   <i type="logical" name="LDOWNSAMPLE"> F  </i>
   <i type="logical" name="LCHARG"> F  </i>
   <i type="logical" name="LPARD"> F  </i>
   <i type="logical" name="LVTOT"> F  </i>
   <i type="logical" name="LVHAR"> F  </i>
   <i type="logical" name="LELF"> F  </i>
   <i type="logical" name="LOPTICS"> T  </i>
   <v name="STM">      0.00000000      0.00000000      0.00000000      0.00000000      0.00000000      0.00000000      0.00000000</v>
  </separator>
  <separator name="performance" >
   <i type="int" name="NPAR">     4</i>
   <i type="int" name="NSIM">     4</i>
   <i type="int" name="NBLK">    -1</i>
   <i type="logical" name="LPLANE"> T  </i>
   <i type="logical" name="LSCALAPACK"> T  </i>
   <i type="logical" name="LSCAAWARE"> T  </i>
   <i type="logical" name="LSCALU"> F  </i>
   <i type="logical" name="LASYNC"> F  </i>
   <i type="logical" name="LORBITALREAL"> F  </i>
  </separator>
  <separator name="miscellaneous" >
   <i type="int" name="IDIOT">     3</i>
   <i type="int" name="ISPECIAL">     0</i>
   <i type="logical" name="LMUSIC"> F  </i>
   <v name="POMASS">     83.80000000</v>
   <v name="DARWINR">      0.00000000</v>
   <v name="DARWINV">      1.00000000</v>
   <i type="logical" name="LCORR"> T  </i>
  </separator>
  <i type="logical" name="GGA_COMPAT"> F  </i>
  <i type="logical" name="LBERRY"> F  </i>
  <i type="int" name="ICORELEVEL">     0</i>
  <i type="logical" name="LDAU"> F  </i>
  <i type="int" name="I_CONSTRAINED_M">     0</i>
  <separator name="electronic exchange-correlation" >
   <i type="string" name="GGA">PE</i>
   <i type="int" name="VOSKOWN">     0</i>
   <i type="logical" name="LHFCALC"> F  </i>
   <i type="string" name="PRECFOCK"></i>
   <i type="logical" name="LSYMGRAD"> F  </i>
   <i type="logical" name="LHFONE"> F  </i>
   <i type="logical" name="LRHFCALC"> F  </i>
   <i type="logical" name="LTHOMAS"> F  </i>
   <i type="logical" name="LMODELHF"> F  </i>
   <i name="ENCUT4O">     -1.00000000</i>
   <i type="int" name="EXXOEP">     0</i>
   <i type="int" name="FOURORBIT">     0</i>
   <i name="AEXX">      0.00000000</i>
   <i name="HFALPHA">      0.00000000</i>
   <i name="MCALPHA">      0.00000000</i>
   <i name="ALDAX">      1.00000000</i>
   <i name="AGGAX">      1.00000000</i>
   <i name="ALDAC">      1.00000000</i>
   <i name="AGGAC">      1.00000000</i>
   <i type="int" name="NKREDX">     1</i>
   <i type="int" name="NKREDY">     1</i>
   <i type="int" name="NKREDZ">     1</i>
   <i type="logical" name="SHIFTRED"> F  </i>
   <i type="logical" name="ODDONLY"> F  </i>
   <i type="logical" name="EVENONLY"> F  </i>
   <i type="int" name="LMAXFOCK">     0</i>
   <i type="int" name="NMAXFOCKAE">     0</i>
   <i type="logical" name="LFOCKAEDFT"> F  </i>
   <i name="HFSCREEN">      0.00000000</i>
   <i name="HFSCREENC">      0.00000000</i>
   <i type="int" name="NBANDSGWLOW">     0</i>
  </separator>
  <separator name="vdW DFT" >
   <i type="logical" name="LUSE_VDW"> F  </i>
   <i name="Zab_VDW">     -0.84910000</i>
   <i name="PARAM1">      0.12340000</i>
   <i name="PARAM2">      1.00000000</i>
   <i name="PARAM3">      0.00000000</i>
  </separator>
  <separator name="model GW" >
   <i type="int" name="MODEL_GW">     0</i>
   <i name="MODEL_EPS0">     29.57020741</i>
   <i name="MODEL_ALPHA">      1.00000000</i>
  </separator>
  <separator name="linear response parameters" >
   <i type="logical" name="LEPSILON"> F  </i>
   <i type="logical" name="LRPA"> F  </i>
   <i type="logical" name="LNABLA"> F  </i>
   <i type="logical" name="LVEL"> F  </i>
   <i type="int" name="KINTER">     0</i>
   <i name="CSHIFT">      0.10000000</i>
   <i name="OMEGAMAX">     -1.00000000</i>
   <i name="DEG_THRESHOLD">      0.00200000</i>
   <i name="RTIME">     -0.10000000</i>
   <i name="WPLASMAI">      0.00000000</i>
   <v name="DFIELD">      0.00000000      0.00000000      0.00000000</v>
   <v name="WPLASMA">      0.00000000      0.00000000      0.00000000      0.00000000      0.00000000      0.00000000      0.00000000      0.00000000      0.00000000</v>
  </separator>
  <separator name="orbital magnetization" >
   <i type="logical" name="NUCIND"> F  </i>
   <v name="MAGPOS">      0.00000000      0.00000000      0.00000000</v>
   <i type="logical" name="LNICSALL"> T  </i>
   <i type="logical" name="ORBITALMAG"> F  </i>
   <i type="logical" name="LMAGBLOCH"> F  </i>
   <i type="logical" name="LCHIMAG"> F  </i>
   <i type="logical" name="LGAUGE"> T  </i>
   <i type="int" name="MAGATOM">     0</i>
   <v name="MAGDIPOL">      0.00000000      0.00000000      0.00000000</v>
   <v name="AVECCONST">      0.00000000      0.00000000      0.00000000</v>
  </separator>
  <separator name="response functions" >
   <i type="logical" name="LADDER"> F  </i>
   <i type="logical" name="LRPAFORCE"> F  </i>
   <i type="logical" name="LFXC"> F  </i>
   <i type="logical" name="LHARTREE"> T  </i>
   <i type="int" name="IBSE">     0</i>
   <v type="int" name="KPOINT">    -1     0     0     0</v>
   <i type="logical" name="LTCTE"> F  </i>
   <i type="logical" name="LTETE"> F  </i>
   <i type="logical" name="LTRIPLET"> F  </i>
   <i type="logical" name="LFXCEPS"> F  </i>
   <i type="logical" name="LFXHEG"> F  </i>
   <i type="int" name="NATURALO">     2</i>
   <i type="logical" name="L2ORDER"> F  </i>
   <i type="logical" name="LMP2LT"> F  </i>
   <i type="logical" name="LUSEW"> F  </i>
   <i name="ENCUTGW">     -2.00000000</i>
   <i name="ENCUTGWSOFT">     -2.00000000</i>
   <i name="ENCUTLF">     -1.00000000</i>
   <i type="int" name="LMAXMP2">    -1</i>
   <i name="SCISSOR">      0.00000000</i>
   <i type="int" name="NOMEGA">     0</i>
   <i type="int" name="NOMEGAR">     0</i>
   <i type="int" name="NBANDSGW">    -1</i>
   <i type="int" name="NBANDSO">    -1</i>
   <i type="int" name="NBANDSV">    -1</i>
   <i type="int" name="NELM">    50</i>
   <i type="int" name="NELMHF">     1</i>
   <i type="int" name="DIM">     3</i>
   <i type="int" name="ANTIRES">     0</i>
   <i name="OMEGAMAX">    -30.00000000</i>
   <i name="OMEGAMIN">    -30.00000000</i>
   <i name="OMEGATL">   -200.00000000</i>
   <i type="int" name="OMEGAGRID">   140</i>
   <i name="CSHIFT">     -0.10000000</i>
   <i type="logical" name="SELFENERGY"> F  </i>
   <i type="logical" name="LSPECTRAL"> F  </i>
   <i type="logical" name="LSPECTRALGW"> F  </i>
   <i type="logical" name="LSINGLES"> F  </i>
   <i type="logical" name="LFERMIGW"> F  </i>
   <i type="logical" name="ODDONLYGW"> F  </i>
   <i type="logical" name="EVENONLYGW"> F  </i>
   <i type="int" name="NKREDLFX">     1</i>
   <i type="int" name="NKREDLFY">     1</i>
   <i type="int" name="NKREDLFZ">     1</i>
   <i type="int" name="MAXMEM">  2800</i>
   <i type="int" name="TELESCOPE">     0</i>
   <i type="int" name="TAUPAR">     1</i>
   <i type="int" name="OMEGAPAR">    -1</i>
   <i name="LAMBDA">      1.00000000</i>
  </separator>
  <separator name="External order field" >
   <i name="OFIELD_KAPPA">      0.00000000</i>
   <v name="OFIELD_K">      0.00000000      0.00000000      0.00000000</v>
   <i name="OFIELD_Q6_NEAR">      0.00000000</i>
   <i name="OFIELD_Q6_FAR">      0.00000000</i>
   <i name="OFIELD_A">      0.00000000</i>
  </separator>
 </parameters>
 <atominfo>
  <atoms>       1 </atoms>
  <types>       1 </types>
  <array name="atoms" >
   <dimension dim="1">ion</dimension>
   <field type="string">element</field>
   <field type="int">atomtype</field>
   <set>
    <rc><c>Kr</c><c>   1</c></rc>
   </set>
  </array>
  <array name="atomtypes" >
   <dimension dim="1">type</dimension>
   <field type="int">atomspertype</field>
   <field type="string">element</field>
   <field>mass</field>
   <field>valence</field>
   <field type="string">pseudopotential</field>
   <set>
    <rc><c>   1</c><c>Kr</c><c>     83.80000000</c><c>      8.00000000</c><c>  PAW_PBE Kr_GW 21Aug2013               </c></rc>
   </set>
  </array>
 </atominfo>
 <structure name="initialpos" >
  <crystal>
   <varray name="basis" >
    <v>       4.11534301       0.00000000       0.00000000 </v>
    <v>       2.05767151       3.56399159      -0.00000000 </v>
    <v>       2.05767151       1.18799720       3.36016350 </v>
   </varray>
   <i name="volume">     49.28367901 </i>
   <varray name="rec_basis" >
    <v>       0.24299311      -0.14029214      -0.09920152 </v>
    <v>       0.00000000       0.28058428      -0.09920152 </v>
    <v>      -0.00000000       0.00000000       0.29760457 </v>
   </varray>
  </crystal>
  <varray name="positions" >
   <v>       0.00000000       0.00000000       0.00000000 </v>
  </varray>
  <varray name="velocities" >
   <v>       0.00000000       0.00000000       0.00000000 </v>
  </varray>
 </structure>
 <calculation>
  <scstep>
   <time name="diag">  133.79  133.73</time>
   <time name="total">  133.83  133.77</time>
   <energy>
    <i name="alphaZ">      8.51686385 </i>
    <i name="ewald">   -363.00389881 </i>
    <i name="hartreedc">   -106.39814281 </i>
    <i name="XCdc">     14.64265452 </i>
    <i name="pawpsdc">    409.71257313 </i>
    <i name="pawaedc">   -404.84468821 </i>
    <i name="eentropy">      0.00000000 </i>
    <i name="bandstr">    -65.40375654 </i>
    <i name="atom">    506.70785905 </i>
    <i name="e_fr_energy">     -0.07053583 </i>
    <i name="e_wo_entrp">     -0.07053583 </i>
    <i name="e_0_energy">     -0.07053583 </i>
   </energy>
  </scstep>
  <scstep>
   <time name="diag">  133.86  133.82</time>
   <time name="total">  133.87  133.82</time>
   <energy>
    <i name="e_fr_energy">     -0.07053583 </i>
    <i name="e_wo_entrp">     -0.07053583 </i>
    <i name="e_0_energy">     -0.07053583 </i>
   </energy>
  </scstep>
  <scstep>
   <time name="diag">  133.55  133.49</time>
   <time name="total">  133.55  133.50</time>
   <energy>
    <i name="e_fr_energy">     -0.07053583 </i>
    <i name="e_wo_entrp">     -0.07053583 </i>
    <i name="e_0_energy">     -0.07053583 </i>
   </energy>
  </scstep>
  <scstep>
   <time name="diag">  133.83  133.79</time>
   <time name="total">  133.84  133.80</time>
   <energy>
    <i name="e_fr_energy">     -0.07053583 </i>
    <i name="e_wo_entrp">     -0.07053583 </i>
    <i name="e_0_energy">     -0.07053583 </i>
   </energy>
  </scstep>
  <scstep>
   <time name="diag">  133.58  133.78</time>
   <time name="total">  133.64  133.83</time>
   <energy>
    <i name="e_fr_energy">     -0.07053583 </i>
    <i name="e_wo_entrp">     -0.07053583 </i>
    <i name="e_0_energy">     -0.07053583 </i>
   </energy>
  </scstep>
  <scstep>
   <time name="diag">  136.10  136.13</time>
   <time name="total">  136.13  136.17</time>
   <energy>
    <i name="alphaZ">      8.51686385 </i>
    <i name="ewald">   -363.00389881 </i>
    <i name="hartreedc">   -106.39828742 </i>
    <i name="XCdc">     14.64266294 </i>
    <i name="pawpsdc">    409.71311255 </i>
    <i name="pawaedc">   -404.84523229 </i>
    <i name="eentropy">      0.00000000 </i>
    <i name="bandstr">    -65.40361570 </i>
    <i name="atom">    506.70785905 </i>
    <i name="e_fr_energy">     -0.07053583 </i>
    <i name="e_wo_entrp">     -0.07053583 </i>
    <i name="e_0_energy">     -0.07053583 </i>
   </energy>
  </scstep>
  <structure>
   <crystal>
    <varray name="basis" >
     <v>       4.11534301       0.00000000       0.00000000 </v>
     <v>       2.05767151       3.56399159      -0.00000000 </v>
     <v>       2.05767151       1.18799720       3.36016350 </v>
    </varray>
    <i name="volume">     49.28367901 </i>
    <varray name="rec_basis" >
     <v>       0.24299311      -0.14029214      -0.09920152 </v>
     <v>       0.00000000       0.28058428      -0.09920152 </v>
     <v>      -0.00000000       0.00000000       0.29760457 </v>
    </varray>
   </crystal>
   <varray name="positions" >
    <v>       0.00000000       0.00000000       0.00000000 </v>
   </varray>
  </structure>
  <varray name="forces" >
   <v>      -0.00000002      -0.00000000       0.00000003 </v>
  </varray>
  <varray name="stress" >
   <v>      -0.15061386      -0.00011863      -0.00008386 </v>
   <v>      -0.00011886      -0.15047879      -0.00005040 </v>
   <v>      -0.00008410      -0.00005052      -0.15044181 </v>
  </varray>
  <energy>
   <i name="e_fr_energy">     -0.18221552 </i>
   <i name="e_wo_entrp">     -0.18221552 </i>
   <i name="e_0_energy">      0.00000000 </i>
  </energy>
  <time name="totalsc">  808.15  809.35</time>
  <eigenvalues>
   <array>
    <dimension dim="1">band</dimension>
    <dimension dim="2">kpoint</dimension>
    <dimension dim="3">spin</dimension>
    <field>eigene</field>
    <field>occ</field>
    <set>
     <set comment="spin 1">
      <set comment="kpoint 1">
       <r>  -18.6426    1.0000 </r>
       <r>  -18.6426    1.0000 </r>
       <r>   -4.6825    1.0000 </r>
       <r>   -4.6825    1.0000 </r>
       <r>   -3.9908    1.0000 </r>
       <r>   -3.9908    1.0000 </r>
       <r>   -3.9908    1.0000 </r>
       <r>   -3.9908    1.0000 </r>
       <r>    3.0222    0.0000 </r>
       <r>    3.0222    0.0000 </r>
       <r>    9.3581    0.0000 </r>
       <r>    9.3581    0.0000 </r>
       <r>    9.3581    0.0000 </r>
       <r>    9.3581    0.0000 </r>
       <r>    9.3747    0.0000 </r>
       <r>    9.3747    0.0000 </r>
       <r>   11.6966    0.0000 </r>
       <r>   11.6966    0.0000 </r>
       <r>   11.6966    0.0000 </r>
       <r>   11.6966    0.0000 </r>
       <r>   12.9191    0.0000 </r>
       <r>   12.9191    0.0000 </r>
       <r>   15.2667    0.0000 </r>
       <r>   15.2668    0.0000 </r>
       <r>   15.3037    0.0000 </r>
       <r>   15.3037    0.0000 </r>
       <r>   15.3038    0.0000 </r>
       <r>   15.3038    0.0000 </r>
       <r>   17.2208    0.0000 </r>
       <r>   17.2209    0.0000 </r>
       <r>   24.5439    0.0000 </r>
       <r>   24.5439    0.0000 </r>
       <r>   24.9962    0.0000 </r>
       <r>   24.9962    0.0000 </r>
       <r>   24.9962    0.0000 </r>
       <r>   24.9962    0.0000 </r>
       <r>   26.0706    0.0000 </r>
       <r>   26.0706    0.0000 </r>
       <r>   26.0706    0.0000 </r>
       <r>   26.0706    0.0000 </r>
       <r>   26.1258    0.0000 </r>
       <r>   26.1258    0.0000 </r>
       <r>   28.9436    0.0000 </r>
       <r>   28.9436    0.0000 </r>
       <r>   28.9436    0.0000 </r>
       <r>   28.9436    0.0000 </r>
       <r>   30.0021    0.0000 </r>
       <r>   30.0021    0.0000 </r>
       <r>   30.0021    0.0000 </r>
       <r>   30.0021    0.0000 </r>
       <r>   30.0021    0.0000 </r>
       <r>   30.0021    0.0000 </r>
       <r>   31.5338    0.0000 </r>
       <r>   31.5339    0.0000 </r>
       <r>   38.5114    0.0000 </r>
       <r>   38.5114    0.0000 </r>
       <r>   38.5114    0.0000 </r>
       <r>   38.5114    0.0000 </r>
       <r>   39.4996    0.0000 </r>
       <r>   39.4996    0.0000 </r>
       <r>   39.6013    0.0000 </r>
       <r>   39.6013    0.0000 </r>
       <r>   39.6013    0.0000 </r>
       <r>   39.6013    0.0000 </r>
       <r>   40.6824    0.0000 </r>
       <r>   40.6824    0.0000 </r>
       <r>   41.3436    0.0000 </r>
       <r>   41.3436    0.0000 </r>
       <r>   41.3436    0.0000 </r>
       <r>   41.3436    0.0000 </r>
       <r>   41.3715    0.0000 </r>
       <r>   41.3715    0.0000 </r>
       <r>   42.1640    0.0000 </r>
       <r>   42.1640    0.0000 </r>
       <r>   42.2716    0.0000 </r>
       <r>   42.2716    0.0000 </r>
       <r>   42.2716    0.0000 </r>
       <r>   42.2716    0.0000 </r>
       <r>   44.8296    0.0000 </r>
       <r>   44.8296    0.0000 </r>
       <r>   44.8296    0.0000 </r>
       <r>   44.8296    0.0000 </r>
       <r>   44.8296    0.0000 </r>
       <r>   44.8296    0.0000 </r>
       <r>   45.0793    0.0000 </r>
       <r>   45.0793    0.0000 </r>
       <r>   45.0793    0.0000 </r>
       <r>   45.0793    0.0000 </r>
       <r>   45.0793    0.0000 </r>
       <r>   45.0793    0.0000 </r>
       <r>   45.7273    0.0000 </r>
       <r>   45.7274    0.0000 </r>
       <r>   47.3173    0.0000 </r>
       <r>   47.3173    0.0000 </r>
       <r>   47.3173    0.0000 </r>
       <r>   47.3173    0.0000 </r>
       <r>   47.3175    0.0000 </r>
       <r>   47.3175    0.0000 </r>
       <r>   47.9883    0.0000 </r>
       <r>   47.9883    0.0000 </r>
       <r>   47.9883    0.0000 </r>
       <r>   47.9883    0.0000 </r>
       <r>   50.9324    0.0000 </r>
       <r>   50.9324    0.0000 </r>
       <r>   50.9411    0.0000 </r>
       <r>   50.9411    0.0000 </r>
       <r>   50.9411    0.0000 </r>
       <r>   50.9411    0.0000 </r>
       <r>   51.0100    0.0000 </r>
       <r>   51.0101    0.0000 </r>
       <r>   51.4027    0.0000 </r>
       <r>   51.4027    0.0000 </r>
       <r>   51.4027    0.0000 </r>
       <r>   51.4027    0.0000 </r>
       <r>   51.4046    0.0000 </r>
       <r>   51.4046    0.0000 </r>
       <r>   51.6898    0.0000 </r>
       <r>   51.6898    0.0000 </r>
       <r>   64.2197    0.0000 </r>
       <r>   64.2197    0.0000 </r>
       <r>   64.2197    0.0000 </r>
       <r>   64.2197    0.0000 </r>
       <r>   64.9394    0.0000 </r>
       <r>   64.9394    0.0000 </r>
       <r>   65.0282    0.0000 </r>
       <r>   65.0282    0.0000 </r>
       <r>   65.0282    0.0000 </r>
       <r>   65.0282    0.0000 </r>
      </set>
      <set comment="kpoint 2">
       <r>  -18.6092    1.0000 </r>
       <r>  -18.6092    1.0000 </r>
       <r>   -4.8461    1.0000 </r>
       <r>   -4.8461    1.0000 </r>
       <r>   -4.2152    1.0000 </r>
       <r>   -4.2152    1.0000 </r>
       <r>   -4.0284    1.0000 </r>
       <r>   -4.0284    1.0000 </r>
       <r>    3.6966    0.0000 </r>
       <r>    3.6966    0.0000 </r>
       <r>    8.5313    0.0000 </r>
       <r>    8.5313    0.0000 </r>
       <r>    9.5657    0.0000 </r>
       <r>    9.5657    0.0000 </r>
       <r>    9.5808    0.0000 </r>
       <r>    9.5808    0.0000 </r>
       <r>   11.2195    0.0000 </r>
       <r>   11.2195    0.0000 </r>
       <r>   11.2300    0.0000 </r>
       <r>   11.2300    0.0000 </r>
       <r>   13.5512    0.0000 </r>
       <r>   13.5512    0.0000 </r>
       <r>   14.9240    0.0000 </r>
       <r>   14.9240    0.0000 </r>
       <r>   16.8240    0.0000 </r>
       <r>   16.8240    0.0000 </r>
       <r>   16.8502    0.0000 </r>
       <r>   16.8502    0.0000 </r>
       <r>   19.4197    0.0000 </r>
       <r>   19.4198    0.0000 </r>
       <r>   21.3449    0.0000 </r>
       <r>   21.3449    0.0000 </r>
       <r>   22.2007    0.0000 </r>
       <r>   22.2007    0.0000 </r>
       <r>   22.3206    0.0000 </r>
       <r>   22.3206    0.0000 </r>
       <r>   26.2913    0.0000 </r>
       <r>   26.2913    0.0000 </r>
       <r>   26.4135    0.0000 </r>
       <r>   26.4135    0.0000 </r>
       <r>   28.1057    0.0000 </r>
       <r>   28.1057    0.0000 </r>
       <r>   28.1184    0.0000 </r>
       <r>   28.1184    0.0000 </r>
       <r>   28.2386    0.0000 </r>
       <r>   28.2386    0.0000 </r>
       <r>   30.2432    0.0000 </r>
       <r>   30.2432    0.0000 </r>
       <r>   33.2205    0.0000 </r>
       <r>   33.2205    0.0000 </r>
       <r>   33.2505    0.0000 </r>
       <r>   33.2505    0.0000 </r>
       <r>   33.2530    0.0000 </r>
       <r>   33.2531    0.0000 </r>
       <r>   35.5504    0.0000 </r>
       <r>   35.5504    0.0000 </r>
       <r>   35.5638    0.0000 </r>
       <r>   35.5638    0.0000 </r>
       <r>   35.5908    0.0000 </r>
       <r>   35.5908    0.0000 </r>
       <r>   38.6543    0.0000 </r>
       <r>   38.6543    0.0000 </r>
       <r>   38.9375    0.0000 </r>
       <r>   38.9375    0.0000 </r>
       <r>   38.9542    0.0000 </r>
       <r>   38.9542    0.0000 </r>
       <r>   40.6827    0.0000 </r>
       <r>   40.6827    0.0000 </r>
       <r>   40.6881    0.0000 </r>
       <r>   40.6881    0.0000 </r>
       <r>   40.7664    0.0000 </r>
       <r>   40.7664    0.0000 </r>
       <r>   41.1824    0.0000 </r>
       <r>   41.1824    0.0000 </r>
       <r>   42.3181    0.0000 </r>
       <r>   42.3181    0.0000 </r>
       <r>   42.3385    0.0000 </r>
       <r>   42.3385    0.0000 </r>
       <r>   43.4697    0.0000 </r>
       <r>   43.4697    0.0000 </r>
       <r>   43.9041    0.0000 </r>
       <r>   43.9041    0.0000 </r>
       <r>   43.9490    0.0000 </r>
       <r>   43.9490    0.0000 </r>
       <r>   45.6101    0.0000 </r>
       <r>   45.6101    0.0000 </r>
       <r>   46.8669    0.0000 </r>
       <r>   46.8669    0.0000 </r>
       <r>   46.8690    0.0000 </r>
       <r>   46.8690    0.0000 </r>
       <r>   47.5505    0.0000 </r>
       <r>   47.5505    0.0000 </r>
       <r>   47.5591    0.0000 </r>
       <r>   47.5591    0.0000 </r>
       <r>   47.7594    0.0000 </r>
       <r>   47.7594    0.0000 </r>
       <r>   49.4635    0.0000 </r>
       <r>   49.4636    0.0000 </r>
       <r>   49.5595    0.0000 </r>
       <r>   49.5595    0.0000 </r>
       <r>   50.0475    0.0000 </r>
       <r>   50.0475    0.0000 </r>
       <r>   50.0503    0.0000 </r>
       <r>   50.0503    0.0000 </r>
       <r>   50.4354    0.0000 </r>
       <r>   50.4354    0.0000 </r>
       <r>   53.4467    0.0000 </r>
       <r>   53.4467    0.0000 </r>
       <r>   53.4468    0.0000 </r>
       <r>   53.4468    0.0000 </r>
       <r>   54.7879    0.0000 </r>
       <r>   54.7880    0.0000 </r>
       <r>   54.8500    0.0000 </r>
       <r>   54.8500    0.0000 </r>
       <r>   54.8509    0.0000 </r>
       <r>   54.8509    0.0000 </r>
       <r>   59.1762    0.0000 </r>
       <r>   59.1762    0.0000 </r>
       <r>   59.2306    0.0000 </r>
       <r>   59.2306    0.0000 </r>
       <r>   59.8838    0.0000 </r>
       <r>   59.8838    0.0000 </r>
       <r>   61.0076    0.0000 </r>
       <r>   61.0076    0.0000 </r>
       <r>   62.3222    0.0000 </r>
       <r>   62.3222    0.0000 </r>
       <r>   62.3345    0.0000 </r>
       <r>   62.3345    0.0000 </r>
      </set>
      <set comment="kpoint 3">
       <r>  -18.5411    1.0000 </r>
       <r>  -18.5411    1.0000 </r>
       <r>   -5.2922    1.0000 </r>
       <r>   -5.2922    1.0000 </r>
       <r>   -4.4398    1.0000 </r>
       <r>   -4.4398    1.0000 </r>
       <r>   -4.1013    1.0000 </r>
       <r>   -4.1013    1.0000 </r>
       <r>    4.9411    0.0000 </r>
       <r>    4.9411    0.0000 </r>
       <r>    7.8389    0.0000 </r>
       <r>    7.8390    0.0000 </r>
       <r>    9.2598    0.0000 </r>
       <r>    9.2598    0.0000 </r>
       <r>    9.2773    0.0000 </r>
       <r>    9.2773    0.0000 </r>
       <r>   12.0732    0.0000 </r>
       <r>   12.0732    0.0000 </r>
       <r>   12.0949    0.0000 </r>
       <r>   12.0949    0.0000 </r>
       <r>   12.5871    0.0000 </r>
       <r>   12.5871    0.0000 </r>
       <r>   16.7661    0.0000 </r>
       <r>   16.7661    0.0000 </r>
       <r>   18.3892    0.0000 </r>
       <r>   18.3892    0.0000 </r>
       <r>   18.4964    0.0000 </r>
       <r>   18.4964    0.0000 </r>
       <r>   18.5229    0.0000 </r>
       <r>   18.5230    0.0000 </r>
       <r>   20.0273    0.0000 </r>
       <r>   20.0273    0.0000 </r>
       <r>   20.0431    0.0000 </r>
       <r>   20.0431    0.0000 </r>
       <r>   24.0513    0.0000 </r>
       <r>   24.0514    0.0000 </r>
       <r>   26.1621    0.0000 </r>
       <r>   26.1621    0.0000 </r>
       <r>   26.2928    0.0000 </r>
       <r>   26.2928    0.0000 </r>
       <r>   27.4921    0.0000 </r>
       <r>   27.4921    0.0000 </r>
       <r>   28.2351    0.0000 </r>
       <r>   28.2351    0.0000 </r>
       <r>   28.2539    0.0000 </r>
       <r>   28.2539    0.0000 </r>
       <r>   30.5684    0.0000 </r>
       <r>   30.5684    0.0000 </r>
       <r>   30.5717    0.0000 </r>
       <r>   30.5717    0.0000 </r>
       <r>   30.8326    0.0000 </r>
       <r>   30.8326    0.0000 </r>
       <r>   30.9520    0.0000 </r>
       <r>   30.9520    0.0000 </r>
       <r>   34.3414    0.0000 </r>
       <r>   34.3415    0.0000 </r>
       <r>   36.3443    0.0000 </r>
       <r>   36.3443    0.0000 </r>
       <r>   36.3580    0.0000 </r>
       <r>   36.3580    0.0000 </r>
       <r>   37.0446    0.0000 </r>
       <r>   37.0446    0.0000 </r>
       <r>   37.5808    0.0000 </r>
       <r>   37.5808    0.0000 </r>
       <r>   37.5828    0.0000 </r>
       <r>   37.5828    0.0000 </r>
       <r>   38.4573    0.0000 </r>
       <r>   38.4573    0.0000 </r>
       <r>   40.3695    0.0000 </r>
       <r>   40.3695    0.0000 </r>
       <r>   40.6939    0.0000 </r>
       <r>   40.6939    0.0000 </r>
       <r>   40.7582    0.0000 </r>
       <r>   40.7582    0.0000 </r>
       <r>   41.1946    0.0000 </r>
       <r>   41.1946    0.0000 </r>
       <r>   42.5777    0.0000 </r>
       <r>   42.5777    0.0000 </r>
       <r>   42.5906    0.0000 </r>
       <r>   42.5906    0.0000 </r>
       <r>   44.5233    0.0000 </r>
       <r>   44.5233    0.0000 </r>
       <r>   44.5614    0.0000 </r>
       <r>   44.5614    0.0000 </r>
       <r>   45.8817    0.0000 </r>
       <r>   45.8817    0.0000 </r>
       <r>   47.6848    0.0000 </r>
       <r>   47.6848    0.0000 </r>
       <r>   47.6941    0.0000 </r>
       <r>   47.6941    0.0000 </r>
       <r>   48.8435    0.0000 </r>
       <r>   48.8435    0.0000 </r>
       <r>   51.9210    0.0000 </r>
       <r>   51.9210    0.0000 </r>
       <r>   51.9271    0.0000 </r>
       <r>   51.9271    0.0000 </r>
       <r>   52.9012    0.0000 </r>
       <r>   52.9012    0.0000 </r>
       <r>   53.8249    0.0000 </r>
       <r>   53.8249    0.0000 </r>
       <r>   53.8819    0.0000 </r>
       <r>   53.8819    0.0000 </r>
       <r>   54.0345    0.0000 </r>
       <r>   54.0345    0.0000 </r>
       <r>   54.0911    0.0000 </r>
       <r>   54.0911    0.0000 </r>
       <r>   54.8891    0.0000 </r>
       <r>   54.8891    0.0000 </r>
       <r>   55.6652    0.0000 </r>
       <r>   55.6652    0.0000 </r>
       <r>   55.7717    0.0000 </r>
       <r>   55.7717    0.0000 </r>
       <r>   55.7876    0.0000 </r>
       <r>   55.7876    0.0000 </r>
       <r>   56.7486    0.0000 </r>
       <r>   56.7487    0.0000 </r>
       <r>   57.9330    0.0000 </r>
       <r>   57.9331    0.0000 </r>
       <r>   58.9359    0.0000 </r>
       <r>   58.9359    0.0000 </r>
       <r>   58.9395    0.0000 </r>
       <r>   58.9395    0.0000 </r>
       <r>   60.0864    0.0000 </r>
       <r>   60.0864    0.0000 </r>
       <r>   61.5852    0.0000 </r>
       <r>   61.5852    0.0000 </r>
       <r>   61.5858    0.0000 </r>
       <r>   61.5858    0.0000 </r>
      </set>
      <set comment="kpoint 4">
       <r>  -18.5064    1.0000 </r>
       <r>  -18.5064    1.0000 </r>
       <r>   -5.5279    1.0000 </r>
       <r>   -5.5279    1.0000 </r>
       <r>   -4.5029    1.0000 </r>
       <r>   -4.5029    1.0000 </r>
       <r>   -4.1367    1.0000 </r>
       <r>   -4.1367    1.0000 </r>
       <r>    5.4055    0.0000 </r>
       <r>    5.4055    0.0000 </r>
       <r>    7.9108    0.0000 </r>
       <r>    7.9109    0.0000 </r>
       <r>    8.9836    0.0000 </r>
       <r>    8.9836    0.0000 </r>
       <r>    9.0005    0.0000 </r>
       <r>    9.0005    0.0000 </r>
       <r>   12.6410    0.0000 </r>
       <r>   12.6410    0.0000 </r>
       <r>   13.5640    0.0000 </r>
       <r>   13.5640    0.0000 </r>
       <r>   13.5797    0.0000 </r>
       <r>   13.5797    0.0000 </r>
       <r>   14.7750    0.0000 </r>
       <r>   14.7750    0.0000 </r>
       <r>   16.0647    0.0000 </r>
       <r>   16.0647    0.0000 </r>
       <r>   16.1576    0.0000 </r>
       <r>   16.1576    0.0000 </r>
       <r>   22.5918    0.0000 </r>
       <r>   22.5918    0.0000 </r>
       <r>   23.1267    0.0000 </r>
       <r>   23.1267    0.0000 </r>
       <r>   23.4479    0.0000 </r>
       <r>   23.4480    0.0000 </r>
       <r>   23.4751    0.0000 </r>
       <r>   23.4751    0.0000 </r>
       <r>   23.8857    0.0000 </r>
       <r>   23.8857    0.0000 </r>
       <r>   24.0160    0.0000 </r>
       <r>   24.0160    0.0000 </r>
       <r>   28.2078    0.0000 </r>
       <r>   28.2078    0.0000 </r>
       <r>   28.3225    0.0000 </r>
       <r>   28.3225    0.0000 </r>
       <r>   28.9343    0.0000 </r>
       <r>   28.9344    0.0000 </r>
       <r>   29.0455    0.0000 </r>
       <r>   29.0455    0.0000 </r>
       <r>   29.3718    0.0000 </r>
       <r>   29.3718    0.0000 </r>
       <r>   29.4118    0.0000 </r>
       <r>   29.4118    0.0000 </r>
       <r>   31.2176    0.0000 </r>
       <r>   31.2176    0.0000 </r>
       <r>   31.4308    0.0000 </r>
       <r>   31.4308    0.0000 </r>
       <r>   35.4675    0.0000 </r>
       <r>   35.4675    0.0000 </r>
       <r>   35.5548    0.0000 </r>
       <r>   35.5548    0.0000 </r>
       <r>   35.5667    0.0000 </r>
       <r>   35.5667    0.0000 </r>
       <r>   36.5476    0.0000 </r>
       <r>   36.5476    0.0000 </r>
       <r>   36.5479    0.0000 </r>
       <r>   36.5479    0.0000 </r>
       <r>   37.3589    0.0000 </r>
       <r>   37.3589    0.0000 </r>
       <r>   40.3367    0.0000 </r>
       <r>   40.3367    0.0000 </r>
       <r>   42.3752    0.0000 </r>
       <r>   42.3752    0.0000 </r>
       <r>   42.3946    0.0000 </r>
       <r>   42.3946    0.0000 </r>
       <r>   44.2358    0.0000 </r>
       <r>   44.2358    0.0000 </r>
       <r>   44.2792    0.0000 </r>
       <r>   44.2792    0.0000 </r>
       <r>   44.5495    0.0000 </r>
       <r>   44.5495    0.0000 </r>
       <r>   46.5057    0.0000 </r>
       <r>   46.5057    0.0000 </r>
       <r>   46.5760    0.0000 </r>
       <r>   46.5760    0.0000 </r>
       <r>   46.6137    0.0000 </r>
       <r>   46.6137    0.0000 </r>
       <r>   47.3835    0.0000 </r>
       <r>   47.3835    0.0000 </r>
       <r>   47.4526    0.0000 </r>
       <r>   47.4526    0.0000 </r>
       <r>   49.6656    0.0000 </r>
       <r>   49.6656    0.0000 </r>
       <r>   50.6411    0.0000 </r>
       <r>   50.6411    0.0000 </r>
       <r>   50.6851    0.0000 </r>
       <r>   50.6851    0.0000 </r>
       <r>   51.1091    0.0000 </r>
       <r>   51.1092    0.0000 </r>
       <r>   51.6760    0.0000 </r>
       <r>   51.6760    0.0000 </r>
       <r>   51.6934    0.0000 </r>
       <r>   51.6934    0.0000 </r>
       <r>   54.0165    0.0000 </r>
       <r>   54.0165    0.0000 </r>
       <r>   57.2741    0.0000 </r>
       <r>   57.2741    0.0000 </r>
       <r>   57.9324    0.0000 </r>
       <r>   57.9324    0.0000 </r>
       <r>   57.9674    0.0000 </r>
       <r>   57.9674    0.0000 </r>
       <r>   57.9789    0.0000 </r>
       <r>   57.9789    0.0000 </r>
       <r>   57.9904    0.0000 </r>
       <r>   57.9904    0.0000 </r>
       <r>   59.5745    0.0000 </r>
       <r>   59.5745    0.0000 </r>
       <r>   59.6002    0.0000 </r>
       <r>   59.6002    0.0000 </r>
       <r>   59.9917    0.0000 </r>
       <r>   59.9917    0.0000 </r>
       <r>   59.9965    0.0000 </r>
       <r>   59.9965    0.0000 </r>
       <r>   60.2051    0.0000 </r>
       <r>   60.2051    0.0000 </r>
       <r>   60.6916    0.0000 </r>
       <r>   60.6916    0.0000 </r>
       <r>   61.5786    0.0000 </r>
       <r>   61.5786    0.0000 </r>
      </set>
      <set comment="kpoint 5">
       <r>  -18.5411    1.0000 </r>
       <r>  -18.5411    1.0000 </r>
       <r>   -5.2922    1.0000 </r>
       <r>   -5.2922    1.0000 </r>
       <r>   -4.4398    1.0000 </r>
       <r>   -4.4398    1.0000 </r>
       <r>   -4.1013    1.0000 </r>
       <r>   -4.1013    1.0000 </r>
       <r>    4.9411    0.0000 </r>
       <r>    4.9411    0.0000 </r>
       <r>    7.8389    0.0000 </r>
       <r>    7.8390    0.0000 </r>
       <r>    9.2598    0.0000 </r>
       <r>    9.2598    0.0000 </r>
       <r>    9.2773    0.0000 </r>
       <r>    9.2773    0.0000 </r>
       <r>   12.0732    0.0000 </r>
       <r>   12.0732    0.0000 </r>
       <r>   12.0949    0.0000 </r>
       <r>   12.0949    0.0000 </r>
       <r>   12.5871    0.0000 </r>
       <r>   12.5871    0.0000 </r>
       <r>   16.7661    0.0000 </r>
       <r>   16.7661    0.0000 </r>
       <r>   18.3892    0.0000 </r>
       <r>   18.3892    0.0000 </r>
       <r>   18.4964    0.0000 </r>
       <r>   18.4964    0.0000 </r>
       <r>   18.5229    0.0000 </r>
       <r>   18.5230    0.0000 </r>
       <r>   20.0273    0.0000 </r>
       <r>   20.0273    0.0000 </r>
       <r>   20.0431    0.0000 </r>
       <r>   20.0431    0.0000 </r>
       <r>   24.0513    0.0000 </r>
       <r>   24.0514    0.0000 </r>
       <r>   26.1621    0.0000 </r>
       <r>   26.1621    0.0000 </r>
       <r>   26.2928    0.0000 </r>
       <r>   26.2928    0.0000 </r>
       <r>   27.4921    0.0000 </r>
       <r>   27.4921    0.0000 </r>
       <r>   28.2351    0.0000 </r>
       <r>   28.2351    0.0000 </r>
       <r>   28.2539    0.0000 </r>
       <r>   28.2539    0.0000 </r>
       <r>   30.5684    0.0000 </r>
       <r>   30.5684    0.0000 </r>
       <r>   30.5717    0.0000 </r>
       <r>   30.5717    0.0000 </r>
       <r>   30.8326    0.0000 </r>
       <r>   30.8326    0.0000 </r>
       <r>   30.9520    0.0000 </r>
       <r>   30.9520    0.0000 </r>
       <r>   34.3414    0.0000 </r>
       <r>   34.3415    0.0000 </r>
       <r>   36.3443    0.0000 </r>
       <r>   36.3443    0.0000 </r>
       <r>   36.3580    0.0000 </r>
       <r>   36.3580    0.0000 </r>
       <r>   37.0446    0.0000 </r>
       <r>   37.0446    0.0000 </r>
       <r>   37.5808    0.0000 </r>
       <r>   37.5808    0.0000 </r>
       <r>   37.5828    0.0000 </r>
       <r>   37.5828    0.0000 </r>
       <r>   38.4573    0.0000 </r>
       <r>   38.4573    0.0000 </r>
       <r>   40.3695    0.0000 </r>
       <r>   40.3695    0.0000 </r>
       <r>   40.6939    0.0000 </r>
       <r>   40.6939    0.0000 </r>
       <r>   40.7582    0.0000 </r>
       <r>   40.7582    0.0000 </r>
       <r>   41.1946    0.0000 </r>
       <r>   41.1946    0.0000 </r>
       <r>   42.5777    0.0000 </r>
       <r>   42.5777    0.0000 </r>
       <r>   42.5906    0.0000 </r>
       <r>   42.5906    0.0000 </r>
       <r>   44.5233    0.0000 </r>
       <r>   44.5233    0.0000 </r>
       <r>   44.5614    0.0000 </r>
       <r>   44.5614    0.0000 </r>
       <r>   45.8817    0.0000 </r>
       <r>   45.8817    0.0000 </r>
       <r>   47.6848    0.0000 </r>
       <r>   47.6848    0.0000 </r>
       <r>   47.6941    0.0000 </r>
       <r>   47.6941    0.0000 </r>
       <r>   48.8435    0.0000 </r>
       <r>   48.8435    0.0000 </r>
       <r>   51.9210    0.0000 </r>
       <r>   51.9210    0.0000 </r>
       <r>   51.9271    0.0000 </r>
       <r>   51.9271    0.0000 </r>
       <r>   52.9012    0.0000 </r>
       <r>   52.9012    0.0000 </r>
       <r>   53.8249    0.0000 </r>
       <r>   53.8249    0.0000 </r>
       <r>   53.8819    0.0000 </r>
       <r>   53.8819    0.0000 </r>
       <r>   54.0345    0.0000 </r>
       <r>   54.0345    0.0000 </r>
       <r>   54.0911    0.0000 </r>
       <r>   54.0911    0.0000 </r>
       <r>   54.8891    0.0000 </r>
       <r>   54.8891    0.0000 </r>
       <r>   55.6652    0.0000 </r>
       <r>   55.6652    0.0000 </r>
       <r>   55.7717    0.0000 </r>
       <r>   55.7717    0.0000 </r>
       <r>   55.7876    0.0000 </r>
       <r>   55.7876    0.0000 </r>
       <r>   56.7486    0.0000 </r>
       <r>   56.7487    0.0000 </r>
       <r>   57.9330    0.0000 </r>
       <r>   57.9331    0.0000 </r>
       <r>   58.9359    0.0000 </r>
       <r>   58.9359    0.0000 </r>
       <r>   58.9395    0.0000 </r>
       <r>   58.9395    0.0000 </r>
       <r>   60.0864    0.0000 </r>
       <r>   60.0864    0.0000 </r>
       <r>   61.5852    0.0000 </r>
       <r>   61.5852    0.0000 </r>
       <r>   61.5858    0.0000 </r>
       <r>   61.5858    0.0000 </r>
      </set>
      <set comment="kpoint 6">
       <r>  -18.6092    1.0000 </r>
       <r>  -18.6092    1.0000 </r>
       <r>   -4.8461    1.0000 </r>
       <r>   -4.8461    1.0000 </r>
       <r>   -4.2152    1.0000 </r>
       <r>   -4.2152    1.0000 </r>
       <r>   -4.0284    1.0000 </r>
       <r>   -4.0284    1.0000 </r>
       <r>    3.6966    0.0000 </r>
       <r>    3.6966    0.0000 </r>
       <r>    8.5313    0.0000 </r>
       <r>    8.5313    0.0000 </r>
       <r>    9.5657    0.0000 </r>
       <r>    9.5657    0.0000 </r>
       <r>    9.5808    0.0000 </r>
       <r>    9.5808    0.0000 </r>
       <r>   11.2195    0.0000 </r>
       <r>   11.2195    0.0000 </r>
       <r>   11.2300    0.0000 </r>
       <r>   11.2300    0.0000 </r>
       <r>   13.5512    0.0000 </r>
       <r>   13.5512    0.0000 </r>
       <r>   14.9240    0.0000 </r>
       <r>   14.9240    0.0000 </r>
       <r>   16.8240    0.0000 </r>
       <r>   16.8240    0.0000 </r>
       <r>   16.8502    0.0000 </r>
       <r>   16.8502    0.0000 </r>
       <r>   19.4197    0.0000 </r>
       <r>   19.4198    0.0000 </r>
       <r>   21.3449    0.0000 </r>
       <r>   21.3449    0.0000 </r>
       <r>   22.2007    0.0000 </r>
       <r>   22.2007    0.0000 </r>
       <r>   22.3206    0.0000 </r>
       <r>   22.3206    0.0000 </r>
       <r>   26.2913    0.0000 </r>
       <r>   26.2913    0.0000 </r>
       <r>   26.4135    0.0000 </r>
       <r>   26.4135    0.0000 </r>
       <r>   28.1057    0.0000 </r>
       <r>   28.1057    0.0000 </r>
       <r>   28.1184    0.0000 </r>
       <r>   28.1184    0.0000 </r>
       <r>   28.2386    0.0000 </r>
       <r>   28.2386    0.0000 </r>
       <r>   30.2432    0.0000 </r>
       <r>   30.2432    0.0000 </r>
       <r>   33.2205    0.0000 </r>
       <r>   33.2205    0.0000 </r>
       <r>   33.2505    0.0000 </r>
       <r>   33.2505    0.0000 </r>
       <r>   33.2530    0.0000 </r>
       <r>   33.2531    0.0000 </r>
       <r>   35.5504    0.0000 </r>
       <r>   35.5504    0.0000 </r>
       <r>   35.5638    0.0000 </r>
       <r>   35.5638    0.0000 </r>
       <r>   35.5908    0.0000 </r>
       <r>   35.5908    0.0000 </r>
       <r>   38.6543    0.0000 </r>
       <r>   38.6543    0.0000 </r>
       <r>   38.9375    0.0000 </r>
       <r>   38.9375    0.0000 </r>
       <r>   38.9542    0.0000 </r>
       <r>   38.9542    0.0000 </r>
       <r>   40.6827    0.0000 </r>
       <r>   40.6827    0.0000 </r>
       <r>   40.6881    0.0000 </r>
       <r>   40.6881    0.0000 </r>
       <r>   40.7664    0.0000 </r>
       <r>   40.7664    0.0000 </r>
       <r>   41.1824    0.0000 </r>
       <r>   41.1824    0.0000 </r>
       <r>   42.3181    0.0000 </r>
       <r>   42.3181    0.0000 </r>
       <r>   42.3385    0.0000 </r>
       <r>   42.3385    0.0000 </r>
       <r>   43.4697    0.0000 </r>
       <r>   43.4697    0.0000 </r>
       <r>   43.9041    0.0000 </r>
       <r>   43.9041    0.0000 </r>
       <r>   43.9490    0.0000 </r>
       <r>   43.9490    0.0000 </r>
       <r>   45.6101    0.0000 </r>
       <r>   45.6101    0.0000 </r>
       <r>   46.8669    0.0000 </r>
       <r>   46.8669    0.0000 </r>
       <r>   46.8690    0.0000 </r>
       <r>   46.8690    0.0000 </r>
       <r>   47.5505    0.0000 </r>
       <r>   47.5505    0.0000 </r>
       <r>   47.5591    0.0000 </r>
       <r>   47.5591    0.0000 </r>
       <r>   47.7594    0.0000 </r>
       <r>   47.7594    0.0000 </r>
       <r>   49.4635    0.0000 </r>
       <r>   49.4636    0.0000 </r>
       <r>   49.5595    0.0000 </r>
       <r>   49.5595    0.0000 </r>
       <r>   50.0475    0.0000 </r>
       <r>   50.0475    0.0000 </r>
       <r>   50.0503    0.0000 </r>
       <r>   50.0503    0.0000 </r>
       <r>   50.4354    0.0000 </r>
       <r>   50.4354    0.0000 </r>
       <r>   53.4467    0.0000 </r>
       <r>   53.4467    0.0000 </r>
       <r>   53.4468    0.0000 </r>
       <r>   53.4468    0.0000 </r>
       <r>   54.7879    0.0000 </r>
       <r>   54.7880    0.0000 </r>
       <r>   54.8500    0.0000 </r>
       <r>   54.8500    0.0000 </r>
       <r>   54.8509    0.0000 </r>
       <r>   54.8509    0.0000 </r>
       <r>   59.1762    0.0000 </r>
       <r>   59.1762    0.0000 </r>
       <r>   59.2306    0.0000 </r>
       <r>   59.2306    0.0000 </r>
       <r>   59.8838    0.0000 </r>
       <r>   59.8838    0.0000 </r>
       <r>   61.0076    0.0000 </r>
       <r>   61.0076    0.0000 </r>
       <r>   62.3222    0.0000 </r>
       <r>   62.3222    0.0000 </r>
       <r>   62.3345    0.0000 </r>
       <r>   62.3345    0.0000 </r>
      </set>
      <set comment="kpoint 7">
       <r>  -18.6092    1.0000 </r>
       <r>  -18.6092    1.0000 </r>
       <r>   -4.8461    1.0000 </r>
       <r>   -4.8461    1.0000 </r>
       <r>   -4.2152    1.0000 </r>
       <r>   -4.2152    1.0000 </r>
       <r>   -4.0284    1.0000 </r>
       <r>   -4.0284    1.0000 </r>
       <r>    3.6966    0.0000 </r>
       <r>    3.6966    0.0000 </r>
       <r>    8.5313    0.0000 </r>
       <r>    8.5313    0.0000 </r>
       <r>    9.5657    0.0000 </r>
       <r>    9.5657    0.0000 </r>
       <r>    9.5808    0.0000 </r>
       <r>    9.5808    0.0000 </r>
       <r>   11.2195    0.0000 </r>
       <r>   11.2195    0.0000 </r>
       <r>   11.2300    0.0000 </r>
       <r>   11.2300    0.0000 </r>
       <r>   13.5512    0.0000 </r>
       <r>   13.5512    0.0000 </r>
       <r>   14.9240    0.0000 </r>
       <r>   14.9240    0.0000 </r>
       <r>   16.8240    0.0000 </r>
       <r>   16.8240    0.0000 </r>
       <r>   16.8502    0.0000 </r>
       <r>   16.8502    0.0000 </r>
       <r>   19.4197    0.0000 </r>
       <r>   19.4198    0.0000 </r>
       <r>   21.3449    0.0000 </r>
       <r>   21.3449    0.0000 </r>
       <r>   22.2007    0.0000 </r>
       <r>   22.2007    0.0000 </r>
       <r>   22.3206    0.0000 </r>
       <r>   22.3206    0.0000 </r>
       <r>   26.2913    0.0000 </r>
       <r>   26.2913    0.0000 </r>
       <r>   26.4135    0.0000 </r>
       <r>   26.4135    0.0000 </r>
       <r>   28.1057    0.0000 </r>
       <r>   28.1057    0.0000 </r>
       <r>   28.1184    0.0000 </r>
       <r>   28.1184    0.0000 </r>
       <r>   28.2386    0.0000 </r>
       <r>   28.2386    0.0000 </r>
       <r>   30.2432    0.0000 </r>
       <r>   30.2432    0.0000 </r>
       <r>   33.2205    0.0000 </r>
       <r>   33.2205    0.0000 </r>
       <r>   33.2505    0.0000 </r>
       <r>   33.2505    0.0000 </r>
       <r>   33.2530    0.0000 </r>
       <r>   33.2531    0.0000 </r>
       <r>   35.5504    0.0000 </r>
       <r>   35.5504    0.0000 </r>
       <r>   35.5638    0.0000 </r>
       <r>   35.5638    0.0000 </r>
       <r>   35.5908    0.0000 </r>
       <r>   35.5908    0.0000 </r>
       <r>   38.6543    0.0000 </r>
       <r>   38.6543    0.0000 </r>
       <r>   38.9375    0.0000 </r>
       <r>   38.9375    0.0000 </r>
       <r>   38.9542    0.0000 </r>
       <r>   38.9542    0.0000 </r>
       <r>   40.6827    0.0000 </r>
       <r>   40.6827    0.0000 </r>
       <r>   40.6881    0.0000 </r>
       <r>   40.6881    0.0000 </r>
       <r>   40.7664    0.0000 </r>
       <r>   40.7664    0.0000 </r>
       <r>   41.1824    0.0000 </r>
       <r>   41.1824    0.0000 </r>
       <r>   42.3181    0.0000 </r>
       <r>   42.3181    0.0000 </r>
       <r>   42.3385    0.0000 </r>
       <r>   42.3385    0.0000 </r>
       <r>   43.4697    0.0000 </r>
       <r>   43.4697    0.0000 </r>
       <r>   43.9041    0.0000 </r>
       <r>   43.9041    0.0000 </r>
       <r>   43.9490    0.0000 </r>
       <r>   43.9490    0.0000 </r>
       <r>   45.6101    0.0000 </r>
       <r>   45.6101    0.0000 </r>
       <r>   46.8669    0.0000 </r>
       <r>   46.8669    0.0000 </r>
       <r>   46.8690    0.0000 </r>
       <r>   46.8690    0.0000 </r>
       <r>   47.5505    0.0000 </r>
       <r>   47.5505    0.0000 </r>
       <r>   47.5591    0.0000 </r>
       <r>   47.5591    0.0000 </r>
       <r>   47.7594    0.0000 </r>
       <r>   47.7594    0.0000 </r>
       <r>   49.4635    0.0000 </r>
       <r>   49.4636    0.0000 </r>
       <r>   49.5595    0.0000 </r>
       <r>   49.5595    0.0000 </r>
       <r>   50.0475    0.0000 </r>
       <r>   50.0475    0.0000 </r>
       <r>   50.0503    0.0000 </r>
       <r>   50.0503    0.0000 </r>
       <r>   50.4354    0.0000 </r>
       <r>   50.4354    0.0000 </r>
       <r>   53.4466    0.0000 </r>
       <r>   53.4467    0.0000 </r>
       <r>   53.4468    0.0000 </r>
       <r>   53.4468    0.0000 </r>
       <r>   54.7879    0.0000 </r>
       <r>   54.7880    0.0000 </r>
       <r>   54.8500    0.0000 </r>
       <r>   54.8500    0.0000 </r>
       <r>   54.8509    0.0000 </r>
       <r>   54.8509    0.0000 </r>
       <r>   59.1762    0.0000 </r>
       <r>   59.1762    0.0000 </r>
       <r>   59.2306    0.0000 </r>
       <r>   59.2306    0.0000 </r>
       <r>   59.8838    0.0000 </r>
       <r>   59.8838    0.0000 </r>
       <r>   61.0076    0.0000 </r>
       <r>   61.0076    0.0000 </r>
       <r>   62.3222    0.0000 </r>
       <r>   62.3222    0.0000 </r>
       <r>   62.3345    0.0000 </r>
       <r>   62.3345    0.0000 </r>
      </set>
      <set comment="kpoint 8">
       <r>  -18.5982    1.0000 </r>
       <r>  -18.5982    1.0000 </r>
       <r>   -4.8719    1.0000 </r>
       <r>   -4.8719    1.0000 </r>
       <r>   -4.2509    1.0000 </r>
       <r>   -4.2509    1.0000 </r>
       <r>   -4.1026    1.0000 </r>
       <r>   -4.1026    1.0000 </r>
       <r>    3.9152    0.0000 </r>
       <r>    3.9152    0.0000 </r>
       <r>    8.2346    0.0000 </r>
       <r>    8.2346    0.0000 </r>
       <r>    9.8147    0.0000 </r>
       <r>    9.8147    0.0000 </r>
       <r>    9.8523    0.0000 </r>
       <r>    9.8523    0.0000 </r>
       <r>    9.8539    0.0000 </r>
       <r>    9.8539    0.0000 </r>
       <r>   12.0517    0.0000 </r>
       <r>   12.0517    0.0000 </r>
       <r>   14.9591    0.0000 </r>
       <r>   14.9591    0.0000 </r>
       <r>   15.5274    0.0000 </r>
       <r>   15.5275    0.0000 </r>
       <r>   16.0684    0.0000 </r>
       <r>   16.0684    0.0000 </r>
       <r>   16.0979    0.0000 </r>
       <r>   16.0979    0.0000 </r>
       <r>   20.6387    0.0000 </r>
       <r>   20.6388    0.0000 </r>
       <r>   21.3331    0.0000 </r>
       <r>   21.3331    0.0000 </r>
       <r>   21.4751    0.0000 </r>
       <r>   21.4751    0.0000 </r>
       <r>   21.8141    0.0000 </r>
       <r>   21.8141    0.0000 </r>
       <r>   24.8960    0.0000 </r>
       <r>   24.8960    0.0000 </r>
       <r>   26.2740    0.0000 </r>
       <r>   26.2740    0.0000 </r>
       <r>   27.5326    0.0000 </r>
       <r>   27.5326    0.0000 </r>
       <r>   27.6900    0.0000 </r>
       <r>   27.6900    0.0000 </r>
       <r>   29.3570    0.0000 </r>
       <r>   29.3570    0.0000 </r>
       <r>   32.8785    0.0000 </r>
       <r>   32.8785    0.0000 </r>
       <r>   32.9207    0.0000 </r>
       <r>   32.9207    0.0000 </r>
       <r>   33.1429    0.0000 </r>
       <r>   33.1429    0.0000 </r>
       <r>   34.0268    0.0000 </r>
       <r>   34.0268    0.0000 </r>
       <r>   34.4594    0.0000 </r>
       <r>   34.4595    0.0000 </r>
       <r>   35.7144    0.0000 </r>
       <r>   35.7144    0.0000 </r>
       <r>   35.7335    0.0000 </r>
       <r>   35.7335    0.0000 </r>
       <r>   36.4620    0.0000 </r>
       <r>   36.4620    0.0000 </r>
       <r>   38.4098    0.0000 </r>
       <r>   38.4098    0.0000 </r>
       <r>   38.4819    0.0000 </r>
       <r>   38.4819    0.0000 </r>
       <r>   38.6317    0.0000 </r>
       <r>   38.6317    0.0000 </r>
       <r>   41.0498    0.0000 </r>
       <r>   41.0498    0.0000 </r>
       <r>   41.4195    0.0000 </r>
       <r>   41.4195    0.0000 </r>
       <r>   41.5908    0.0000 </r>
       <r>   41.5908    0.0000 </r>
       <r>   41.5936    0.0000 </r>
       <r>   41.5936    0.0000 </r>
       <r>   43.7235    0.0000 </r>
       <r>   43.7235    0.0000 </r>
       <r>   43.8242    0.0000 </r>
       <r>   43.8242    0.0000 </r>
       <r>   45.0681    0.0000 </r>
       <r>   45.0681    0.0000 </r>
       <r>   45.3909    0.0000 </r>
       <r>   45.3909    0.0000 </r>
       <r>   45.4198    0.0000 </r>
       <r>   45.4198    0.0000 </r>
       <r>   46.6945    0.0000 </r>
       <r>   46.6945    0.0000 </r>
       <r>   46.8402    0.0000 </r>
       <r>   46.8403    0.0000 </r>
       <r>   47.0914    0.0000 </r>
       <r>   47.0914    0.0000 </r>
       <r>   47.1144    0.0000 </r>
       <r>   47.1145    0.0000 </r>
       <r>   47.3658    0.0000 </r>
       <r>   47.3658    0.0000 </r>
       <r>   48.6789    0.0000 </r>
       <r>   48.6789    0.0000 </r>
       <r>   48.6822    0.0000 </r>
       <r>   48.6822    0.0000 </r>
       <r>   50.1636    0.0000 </r>
       <r>   50.1636    0.0000 </r>
       <r>   50.3251    0.0000 </r>
       <r>   50.3251    0.0000 </r>
       <r>   52.5190    0.0000 </r>
       <r>   52.5190    0.0000 </r>
       <r>   52.5249    0.0000 </r>
       <r>   52.5249    0.0000 </r>
       <r>   54.4687    0.0000 </r>
       <r>   54.4687    0.0000 </r>
       <r>   54.5877    0.0000 </r>
       <r>   54.5877    0.0000 </r>
       <r>   56.9433    0.0000 </r>
       <r>   56.9433    0.0000 </r>
       <r>   57.6908    0.0000 </r>
       <r>   57.6908    0.0000 </r>
       <r>   57.6921    0.0000 </r>
       <r>   57.6921    0.0000 </r>
       <r>   58.7366    0.0000 </r>
       <r>   58.7367    0.0000 </r>
       <r>   61.7746    0.0000 </r>
       <r>   61.7746    0.0000 </r>
       <r>   61.8585    0.0000 </r>
       <r>   61.8585    0.0000 </r>
       <r>   61.9226    0.0000 </r>
       <r>   61.9226    0.0000 </r>
       <r>   65.2576    0.0000 </r>
       <r>   65.2576    0.0000 </r>
      </set>
      <set comment="kpoint 9">
       <r>  -18.5417    1.0000 </r>
       <r>  -18.5417    1.0000 </r>
       <r>   -5.1714    1.0000 </r>
       <r>   -5.1714    1.0000 </r>
       <r>   -4.4793    1.0000 </r>
       <r>   -4.4793    1.0000 </r>
       <r>   -4.1983    1.0000 </r>
       <r>   -4.1983    1.0000 </r>
       <r>    5.0126    0.0000 </r>
       <r>    5.0126    0.0000 </r>
       <r>    7.6105    0.0000 </r>
       <r>    7.6105    0.0000 </r>
       <r>    8.6063    0.0000 </r>
       <r>    8.6063    0.0000 </r>
       <r>    9.9691    0.0000 </r>
       <r>    9.9691    0.0000 </r>
       <r>   11.0038    0.0000 </r>
       <r>   11.0038    0.0000 </r>
       <r>   12.6903    0.0000 </r>
       <r>   12.6903    0.0000 </r>
       <r>   14.4287    0.0000 </r>
       <r>   14.4288    0.0000 </r>
       <r>   17.0502    0.0000 </r>
       <r>   17.0502    0.0000 </r>
       <r>   17.4319    0.0000 </r>
       <r>   17.4319    0.0000 </r>
       <r>   17.5309    0.0000 </r>
       <r>   17.5309    0.0000 </r>
       <r>   19.0665    0.0000 </r>
       <r>   19.0665    0.0000 </r>
       <r>   19.4018    0.0000 </r>
       <r>   19.4018    0.0000 </r>
       <r>   21.2248    0.0000 </r>
       <r>   21.2248    0.0000 </r>
       <r>   23.7839    0.0000 </r>
       <r>   23.7839    0.0000 </r>
       <r>   24.3761    0.0000 </r>
       <r>   24.3761    0.0000 </r>
       <r>   24.4639    0.0000 </r>
       <r>   24.4639    0.0000 </r>
       <r>   27.1580    0.0000 </r>
       <r>   27.1580    0.0000 </r>
       <r>   27.9534    0.0000 </r>
       <r>   27.9534    0.0000 </r>
       <r>   29.4496    0.0000 </r>
       <r>   29.4496    0.0000 </r>
       <r>   31.0414    0.0000 </r>
[...]
       <r>    42.6885     0.0000     0.0000 </r>
       <r>    42.9961     0.0000     0.0000 </r>
       <r>    43.3037     0.0000     0.0000 </r>
       <r>    43.6114     0.0000     0.0000 </r>
       <r>    43.9190     0.0000     0.0000 </r>
       <r>    44.2266     0.0000     0.0000 </r>
       <r>    44.5343     0.0000     0.0000 </r>
       <r>    44.8419     0.0000     0.0000 </r>
       <r>    45.1495     0.0000     0.0000 </r>
       <r>    45.4572     0.0000     0.0000 </r>
       <r>    45.7648     0.0000     0.0000 </r>
       <r>    46.0724     0.0000     0.0000 </r>
       <r>    46.3801     0.0000     0.0000 </r>
       <r>    46.6877     0.0000     0.0000 </r>
       <r>    46.9953     0.0000     0.0000 </r>
       <r>    47.3030     0.0000     0.0000 </r>
       <r>    47.6106     0.0000     0.0000 </r>
       <r>    47.9183     0.0000     0.0000 </r>
       <r>    48.2259     0.0000     0.0000 </r>
       <r>    48.5335     0.0000     0.0000 </r>
       <r>    48.8412     0.0000     0.0000 </r>
       <r>    49.1488     0.0000     0.0000 </r>
       <r>    49.4564     0.0000     0.0000 </r>
       <r>    49.7641     0.0000     0.0000 </r>
       <r>    50.0717     0.0000     0.0000 </r>
       <r>    50.3793     0.0000     0.0000 </r>
       <r>    50.6870     0.0000     0.0000 </r>
       <r>    50.9946     0.0000     0.0000 </r>
       <r>    51.3022     0.0000     0.0000 </r>
       <r>    51.6099     0.0000     0.0000 </r>
       <r>    51.9175     0.0000     0.0000 </r>
       <r>    52.2251     0.0000     0.0000 </r>
       <r>    52.5328     0.0000     0.0000 </r>
       <r>    52.8404     0.0000     0.0000 </r>
       <r>    53.1480     0.0000     0.0000 </r>
       <r>    53.4557     0.0000     0.0000 </r>
       <r>    53.7633     0.0000     0.0000 </r>
       <r>    54.0709     0.0000     0.0000 </r>
       <r>    54.3786     0.0000     0.0000 </r>
       <r>    54.6862     0.0000     0.0000 </r>
       <r>    54.9938     0.0000     0.0000 </r>
       <r>    55.3015     0.0000     0.0000 </r>
       <r>    55.6091     0.0000     0.0000 </r>
       <r>    55.9167     0.0000     0.0000 </r>
       <r>    56.2244     0.0000     0.0000 </r>
       <r>    56.5320     0.0000     0.0000 </r>
       <r>    56.8396     0.0000     0.0000 </r>
       <r>    57.1473     0.0000     0.0000 </r>
       <r>    57.4549     0.0000     0.0000 </r>
       <r>    57.7625     0.0000     0.0000 </r>
       <r>    58.0702     0.0000     0.0000 </r>
       <r>    58.3778     0.0000     0.0000 </r>
       <r>    58.6854     0.0000     0.0000 </r>
       <r>    58.9931     0.0000     0.0000 </r>
       <r>    59.3007     0.0000     0.0000 </r>
       <r>    59.6083     0.0000     0.0000 </r>
       <r>    59.9160     0.0000     0.0000 </r>
       <r>    60.2236     0.0000     0.0000 </r>
       <r>    60.5313     0.0000     0.0000 </r>
       <r>    60.8389     0.0000     0.0000 </r>
       <r>    61.1465     0.0000     0.0000 </r>
       <r>    61.4542     0.0000     0.0000 </r>
       <r>    61.7618     0.0000     0.0000 </r>
       <r>    62.0694     0.0000     0.0000 </r>
       <r>    62.3771     0.0000     0.0000 </r>
       <r>    62.6847     0.0000     0.0000 </r>
       <r>    62.9923     0.0000     0.0000 </r>
       <r>    63.3000     0.0000     0.0000 </r>
       <r>    63.6076     0.0000     0.0000 </r>
       <r>    63.9152     0.0000     0.0000 </r>
       <r>    64.2229     0.0000     0.0000 </r>
       <r>    64.5305     0.0000     0.0000 </r>
       <r>    64.8381     0.0000     0.0000 </r>
       <r>    65.1458     0.0000     0.0000 </r>
       <r>    65.4534     0.0000     0.0000 </r>
       <r>    65.7610     0.0000     0.0000 </r>
       <r>    66.0687     0.0000     0.0000 </r>
       <r>    66.3763     0.0000     0.0000 </r>
       <r>    66.6839     0.0000     0.0000 </r>
       <r>    66.9916     0.0000     0.0000 </r>
       <r>    67.2992     0.0000     0.0000 </r>
       <r>    67.6068     0.0000     0.0000 </r>
       <r>    67.9145     0.0000     0.0000 </r>
       <r>    68.2221     0.0000     0.0000 </r>
       <r>    68.5297     0.0000     0.0000 </r>
       <r>    68.8374     0.0000     0.0000 </r>
       <r>    69.1450     0.0000     0.0000 </r>
       <r>    69.4526     0.0000     0.0000 </r>
      </set>
      <set comment="spin 4">
       <r>   -22.8376     0.0000     0.0000 </r>
       <r>   -22.5300     0.0000     0.0000 </r>
       <r>   -22.2223     0.0000     0.0000 </r>
       <r>   -21.9147     0.0000     0.0000 </r>
       <r>   -21.6071     0.0000     0.0000 </r>
       <r>   -21.2994     0.0000     0.0000 </r>
       <r>   -20.9918     0.0000     0.0000 </r>
       <r>   -20.6842     0.0000     0.0000 </r>
       <r>   -20.3765     0.0000     0.0000 </r>
       <r>   -20.0689     0.0000     0.0000 </r>
       <r>   -19.7613     0.0000     0.0000 </r>
       <r>   -19.4536     0.0000     0.0000 </r>
       <r>   -19.1460     0.0000     0.0000 </r>
       <r>   -18.8384     0.0000     0.0000 </r>
       <r>   -18.5307     0.0000     0.0000 </r>
       <r>   -18.2231     0.0000     0.0000 </r>
       <r>   -17.9155     0.0000     0.0000 </r>
       <r>   -17.6078     0.0000     0.0000 </r>
       <r>   -17.3002     0.0000     0.0000 </r>
       <r>   -16.9926     0.0000     0.0000 </r>
       <r>   -16.6849     0.0000     0.0000 </r>
       <r>   -16.3773     0.0000     0.0000 </r>
       <r>   -16.0697     0.0000     0.0000 </r>
       <r>   -15.7620     0.0000     0.0000 </r>
       <r>   -15.4544     0.0000     0.0000 </r>
       <r>   -15.1468     0.0000     0.0000 </r>
       <r>   -14.8391     0.0000     0.0000 </r>
       <r>   -14.5315     0.0000     0.0000 </r>
       <r>   -14.2239     0.0000     0.0000 </r>
       <r>   -13.9162     0.0000     0.0000 </r>
       <r>   -13.6086     0.0000     0.0000 </r>
       <r>   -13.3010     0.0000     0.0000 </r>
       <r>   -12.9933     0.0000     0.0000 </r>
       <r>   -12.6857     0.0000     0.0000 </r>
       <r>   -12.3781     0.0000     0.0000 </r>
       <r>   -12.0704     0.0000     0.0000 </r>
       <r>   -11.7628     0.0000     0.0000 </r>
       <r>   -11.4551     0.0000     0.0000 </r>
       <r>   -11.1475     0.0000     0.0000 </r>
       <r>   -10.8399     0.0000     0.0000 </r>
       <r>   -10.5322     0.0000     0.0000 </r>
       <r>   -10.2246     0.0000     0.0000 </r>
       <r>    -9.9170     0.0000     0.0000 </r>
       <r>    -9.6093     0.0000     0.0000 </r>
       <r>    -9.3017     0.0000     0.0000 </r>
       <r>    -8.9941     0.0000     0.0000 </r>
       <r>    -8.6864     0.0000     0.0000 </r>
       <r>    -8.3788     0.0000     0.0000 </r>
       <r>    -8.0712     0.0000     0.0000 </r>
       <r>    -7.7635     0.0000     0.0000 </r>
       <r>    -7.4559     0.0000     0.0000 </r>
       <r>    -7.1483     0.0000     0.0000 </r>
       <r>    -6.8406     0.0000     0.0000 </r>
       <r>    -6.5330     0.0000     0.0000 </r>
       <r>    -6.2254     0.0000     0.0000 </r>
       <r>    -5.9177     0.0000     0.0000 </r>
       <r>    -5.6101     0.0000     0.0000 </r>
       <r>    -5.3025     0.0000     0.0000 </r>
       <r>    -4.9948     0.0000     0.0000 </r>
       <r>    -4.6872     0.0000     0.0000 </r>
       <r>    -4.3796     0.0000     0.0000 </r>
       <r>    -4.0719     0.0000     0.0000 </r>
       <r>    -3.7643     0.0000     0.0000 </r>
       <r>    -3.4567     0.0000     0.0000 </r>
       <r>    -3.1490     0.0000     0.0000 </r>
       <r>    -2.8414     0.0000     0.0000 </r>
       <r>    -2.5338     0.0000     0.0000 </r>
       <r>    -2.2261     0.0000     0.0000 </r>
       <r>    -1.9185     0.0000     0.0000 </r>
       <r>    -1.6109     0.0000     0.0000 </r>
       <r>    -1.3032     0.0000     0.0000 </r>
       <r>    -0.9956     0.0000     0.0000 </r>
       <r>    -0.6880     0.0000     0.0000 </r>
       <r>    -0.3803     0.0000     0.0000 </r>
       <r>    -0.0727     0.0000     0.0000 </r>
       <r>     0.2350     0.0000     0.0000 </r>
       <r>     0.5426     0.0000     0.0000 </r>
       <r>     0.8502     0.0000     0.0000 </r>
       <r>     1.1579     0.0000     0.0000 </r>
       <r>     1.4655     0.0000     0.0000 </r>
       <r>     1.7731     0.0000     0.0000 </r>
       <r>     2.0808     0.0000     0.0000 </r>
       <r>     2.3884     0.0000     0.0000 </r>
       <r>     2.6960     0.0000     0.0000 </r>
       <r>     3.0037     0.0000     0.0000 </r>
       <r>     3.3113     0.0000     0.0000 </r>
       <r>     3.6189     0.0000     0.0000 </r>
       <r>     3.9266     0.0000     0.0000 </r>
       <r>     4.2342     0.0000     0.0000 </r>
       <r>     4.5418     0.0000     0.0000 </r>
       <r>     4.8495     0.0000     0.0000 </r>
       <r>     5.1571     0.0000     0.0000 </r>
       <r>     5.4647     0.0000     0.0000 </r>
       <r>     5.7724     0.0000     0.0000 </r>
       <r>     6.0800     0.0000     0.0000 </r>
       <r>     6.3876     0.0000     0.0000 </r>
       <r>     6.6953     0.0000     0.0000 </r>
       <r>     7.0029     0.0000     0.0000 </r>
       <r>     7.3105     0.0000     0.0000 </r>
       <r>     7.6182     0.0000     0.0000 </r>
       <r>     7.9258     0.0000     0.0000 </r>
       <r>     8.2334     0.0000     0.0000 </r>
       <r>     8.5411     0.0000     0.0000 </r>
       <r>     8.8487     0.0000     0.0000 </r>
       <r>     9.1563     0.0000     0.0000 </r>
       <r>     9.4640     0.0000     0.0000 </r>
       <r>     9.7716     0.0000     0.0000 </r>
       <r>    10.0792     0.0000     0.0000 </r>
       <r>    10.3869     0.0000     0.0000 </r>
       <r>    10.6945     0.0000     0.0000 </r>
       <r>    11.0021     0.0000     0.0000 </r>
       <r>    11.3098     0.0000     0.0000 </r>
       <r>    11.6174     0.0000     0.0000 </r>
       <r>    11.9250     0.0000     0.0000 </r>
       <r>    12.2327     0.0000     0.0000 </r>
       <r>    12.5403     0.0000     0.0000 </r>
       <r>    12.8480     0.0000     0.0000 </r>
       <r>    13.1556     0.0000     0.0000 </r>
       <r>    13.4632     0.0000     0.0000 </r>
       <r>    13.7709     0.0000     0.0000 </r>
       <r>    14.0785     0.0000     0.0000 </r>
       <r>    14.3861     0.0000     0.0000 </r>
       <r>    14.6938     0.0000     0.0000 </r>
       <r>    15.0014     0.0000     0.0000 </r>
       <r>    15.3090     0.0000     0.0000 </r>
       <r>    15.6167     0.0000     0.0000 </r>
       <r>    15.9243     0.0000     0.0000 </r>
       <r>    16.2319     0.0000     0.0000 </r>
       <r>    16.5396     0.0000     0.0000 </r>
       <r>    16.8472     0.0000     0.0000 </r>
       <r>    17.1548     0.0000     0.0000 </r>
       <r>    17.4625     0.0000     0.0000 </r>
       <r>    17.7701     0.0000     0.0000 </r>
       <r>    18.0777     0.0000     0.0000 </r>
       <r>    18.3854     0.0000     0.0000 </r>
       <r>    18.6930     0.0000     0.0000 </r>
       <r>    19.0006     0.0000     0.0000 </r>
       <r>    19.3083     0.0000     0.0000 </r>
       <r>    19.6159     0.0000     0.0000 </r>
       <r>    19.9235     0.0000     0.0000 </r>
       <r>    20.2312     0.0000     0.0000 </r>
       <r>    20.5388     0.0000     0.0000 </r>
       <r>    20.8464     0.0000     0.0000 </r>
       <r>    21.1541     0.0000     0.0000 </r>
       <r>    21.4617     0.0000     0.0000 </r>
       <r>    21.7693     0.0000     0.0000 </r>
       <r>    22.0770     0.0000     0.0000 </r>
       <r>    22.3846     0.0000     0.0000 </r>
       <r>    22.6922     0.0000     0.0000 </r>
       <r>    22.9999     0.0000     0.0000 </r>
       <r>    23.3075     0.0000     0.0000 </r>
       <r>    23.6151     0.0000     0.0000 </r>
       <r>    23.9228     0.0000     0.0000 </r>
       <r>    24.2304     0.0000     0.0000 </r>
       <r>    24.5381     0.0000     0.0000 </r>
       <r>    24.8457     0.0000     0.0000 </r>
       <r>    25.1533     0.0000     0.0000 </r>
       <r>    25.4610     0.0000     0.0000 </r>
       <r>    25.7686     0.0000     0.0000 </r>
       <r>    26.0762     0.0000     0.0000 </r>
       <r>    26.3839     0.0000     0.0000 </r>
       <r>    26.6915     0.0000     0.0000 </r>
       <r>    26.9991     0.0000     0.0000 </r>
       <r>    27.3068     0.0000     0.0000 </r>
       <r>    27.6144     0.0000     0.0000 </r>
       <r>    27.9220     0.0000     0.0000 </r>
       <r>    28.2297     0.0000     0.0000 </r>
       <r>    28.5373     0.0000     0.0000 </r>
       <r>    28.8449     0.0000     0.0000 </r>
       <r>    29.1526     0.0000     0.0000 </r>
       <r>    29.4602     0.0000     0.0000 </r>
       <r>    29.7678     0.0000     0.0000 </r>
       <r>    30.0755     0.0000     0.0000 </r>
       <r>    30.3831     0.0000     0.0000 </r>
       <r>    30.6907     0.0000     0.0000 </r>
       <r>    30.9984     0.0000     0.0000 </r>
       <r>    31.3060     0.0000     0.0000 </r>
       <r>    31.6136     0.0000     0.0000 </r>
       <r>    31.9213     0.0000     0.0000 </r>
       <r>    32.2289     0.0000     0.0000 </r>
       <r>    32.5365     0.0000     0.0000 </r>
       <r>    32.8442     0.0000     0.0000 </r>
       <r>    33.1518     0.0000     0.0000 </r>
       <r>    33.4594     0.0000     0.0000 </r>
       <r>    33.7671     0.0000     0.0000 </r>
       <r>    34.0747     0.0000     0.0000 </r>
       <r>    34.3823     0.0000     0.0000 </r>
       <r>    34.6900     0.0000     0.0000 </r>
       <r>    34.9976     0.0000     0.0000 </r>
       <r>    35.3052     0.0000     0.0000 </r>
       <r>    35.6129     0.0000     0.0000 </r>
       <r>    35.9205     0.0000     0.0000 </r>
       <r>    36.2282     0.0000     0.0000 </r>
       <r>    36.5358     0.0000     0.0000 </r>
       <r>    36.8434     0.0000     0.0000 </r>
       <r>    37.1511     0.0000     0.0000 </r>
       <r>    37.4587     0.0000     0.0000 </r>
       <r>    37.7663     0.0000     0.0000 </r>
       <r>    38.0740     0.0000     0.0000 </r>
       <r>    38.3816     0.0000     0.0000 </r>
       <r>    38.6892     0.0000     0.0000 </r>
       <r>    38.9969     0.0000     0.0000 </r>
       <r>    39.3045     0.0000     0.0000 </r>
       <r>    39.6121     0.0000     0.0000 </r>
       <r>    39.9198     0.0000     0.0000 </r>
       <r>    40.2274     0.0000     0.0000 </r>
       <r>    40.5350     0.0000     0.0000 </r>
       <r>    40.8427     0.0000     0.0000 </r>
       <r>    41.1503     0.0000     0.0000 </r>
       <r>    41.4579     0.0000     0.0000 </r>
       <r>    41.7656     0.0000     0.0000 </r>
       <r>    42.0732     0.0000     0.0000 </r>
       <r>    42.3808     0.0000     0.0000 </r>
       <r>    42.6885     0.0000     0.0000 </r>
       <r>    42.9961     0.0000     0.0000 </r>
       <r>    43.3037     0.0000     0.0000 </r>
       <r>    43.6114     0.0000     0.0000 </r>
       <r>    43.9190     0.0000     0.0000 </r>
       <r>    44.2266     0.0000     0.0000 </r>
       <r>    44.5343     0.0000     0.0000 </r>
       <r>    44.8419     0.0000     0.0000 </r>
       <r>    45.1495     0.0000     0.0000 </r>
       <r>    45.4572     0.0000     0.0000 </r>
       <r>    45.7648     0.0000     0.0000 </r>
       <r>    46.0724     0.0000     0.0000 </r>
       <r>    46.3801     0.0000     0.0000 </r>
       <r>    46.6877     0.0000     0.0000 </r>
       <r>    46.9953     0.0000     0.0000 </r>
       <r>    47.3030     0.0000     0.0000 </r>
       <r>    47.6106     0.0000     0.0000 </r>
       <r>    47.9183     0.0000     0.0000 </r>
       <r>    48.2259     0.0000     0.0000 </r>
       <r>    48.5335     0.0000     0.0000 </r>
       <r>    48.8412     0.0000     0.0000 </r>
       <r>    49.1488     0.0000     0.0000 </r>
       <r>    49.4564     0.0000     0.0000 </r>
       <r>    49.7641     0.0000     0.0000 </r>
       <r>    50.0717     0.0000     0.0000 </r>
       <r>    50.3793     0.0000     0.0000 </r>
       <r>    50.6870     0.0000     0.0000 </r>
       <r>    50.9946     0.0000     0.0000 </r>
       <r>    51.3022     0.0000     0.0000 </r>
       <r>    51.6099     0.0000     0.0000 </r>
       <r>    51.9175     0.0000     0.0000 </r>
       <r>    52.2251     0.0000     0.0000 </r>
       <r>    52.5328     0.0000     0.0000 </r>
       <r>    52.8404     0.0000     0.0000 </r>
       <r>    53.1480     0.0000     0.0000 </r>
       <r>    53.4557     0.0000     0.0000 </r>
       <r>    53.7633     0.0000     0.0000 </r>
       <r>    54.0709     0.0000     0.0000 </r>
       <r>    54.3786     0.0000     0.0000 </r>
       <r>    54.6862     0.0000     0.0000 </r>
       <r>    54.9938     0.0000     0.0000 </r>
       <r>    55.3015     0.0000     0.0000 </r>
       <r>    55.6091     0.0000     0.0000 </r>
       <r>    55.9167     0.0000     0.0000 </r>
       <r>    56.2244     0.0000     0.0000 </r>
       <r>    56.5320     0.0000     0.0000 </r>
       <r>    56.8396     0.0000     0.0000 </r>
       <r>    57.1473     0.0000     0.0000 </r>
       <r>    57.4549     0.0000     0.0000 </r>
       <r>    57.7625     0.0000     0.0000 </r>
       <r>    58.0702     0.0000     0.0000 </r>
       <r>    58.3778     0.0000     0.0000 </r>
       <r>    58.6854     0.0000     0.0000 </r>
       <r>    58.9931     0.0000     0.0000 </r>
       <r>    59.3007     0.0000     0.0000 </r>
       <r>    59.6083     0.0000     0.0000 </r>
       <r>    59.9160     0.0000     0.0000 </r>
       <r>    60.2236     0.0000     0.0000 </r>
       <r>    60.5313     0.0000     0.0000 </r>
       <r>    60.8389     0.0000     0.0000 </r>
       <r>    61.1465     0.0000     0.0000 </r>
       <r>    61.4542     0.0000     0.0000 </r>
       <r>    61.7618     0.0000     0.0000 </r>
       <r>    62.0694     0.0000     0.0000 </r>
       <r>    62.3771     0.0000     0.0000 </r>
       <r>    62.6847     0.0000     0.0000 </r>
       <r>    62.9923     0.0000     0.0000 </r>
       <r>    63.3000     0.0000     0.0000 </r>
       <r>    63.6076     0.0000     0.0000 </r>
       <r>    63.9152     0.0000     0.0000 </r>
       <r>    64.2229     0.0000     0.0000 </r>
       <r>    64.5305     0.0000     0.0000 </r>
       <r>    64.8381     0.0000     0.0000 </r>
       <r>    65.1458     0.0000     0.0000 </r>
       <r>    65.4534     0.0000     0.0000 </r>
       <r>    65.7610     0.0000     0.0000 </r>
       <r>    66.0687     0.0000     0.0000 </r>
       <r>    66.3763     0.0000     0.0000 </r>
       <r>    66.6839     0.0000     0.0000 </r>
       <r>    66.9916     0.0000     0.0000 </r>
       <r>    67.2992     0.0000     0.0000 </r>
       <r>    67.6068     0.0000     0.0000 </r>
       <r>    67.9145     0.0000     0.0000 </r>
       <r>    68.2221     0.0000     0.0000 </r>
       <r>    68.5297     0.0000     0.0000 </r>
       <r>    68.8374     0.0000     0.0000 </r>
       <r>    69.1450     0.0000     0.0000 </r>
       <r>    69.4526     0.0000     0.0000 </r>
      </set>
     </set>
    </array>
   </total>
  </dos>
 </calculation>
 <structure name="finalpos" >
  <crystal>
   <varray name="basis" >
    <v>       4.11534301       0.00000000       0.00000000 </v>
    <v>       2.05767151       3.56399159      -0.00000000 </v>
    <v>       2.05767151       1.18799720       3.36016350 </v>
   </varray>
   <i name="volume">     49.28367901 </i>
   <varray name="rec_basis" >
    <v>       0.24299311      -0.14029214      -0.09920152 </v>
    <v>       0.00000000       0.28058428      -0.09920152 </v>
    <v>      -0.00000000       0.00000000       0.29760457 </v>
   </varray>
  </crystal>
  <varray name="positions" >
   <v>       0.00000000       0.00000000       0.00000000 </v>
  </varray>
  <varray name="velocities" >
   <v>       0.00000000       0.00000000       0.00000000 </v>
  </varray>
 </structure>
</modeling>
