   1   1   0   0
  0.6541804E+02  0.4522767E-09  0.4522767E-09  0.4522767E-09  0.1000000E-15
  1.000000000000000E-004
  CAR 
 Og_FCC                                  
     14.25582875    -46.89367628  301     -1.33729504      1.00000000
    -46.894  0.0000E+00  0.0000E+00
    -46.690  0.0000E+00  0.0000E+00
    -46.486  0.0000E+00  0.0000E+00
    -46.282  0.0000E+00  0.0000E+00
    -46.078  0.0000E+00  0.0000E+00
    -45.875  0.0000E+00  0.0000E+00
    -45.671  0.0000E+00  0.0000E+00
    -45.467  0.0000E+00  0.0000E+00
    -45.263  0.0000E+00  0.0000E+00
    -45.059  0.0000E+00  0.0000E+00
    -44.855  0.0000E+00  0.0000E+00
    -44.652  0.0000E+00  0.0000E+00
    -44.448  0.0000E+00  0.0000E+00
    -44.244  0.0000E+00  0.0000E+00
    -44.040  0.0000E+00  0.4000E+01
    -43.836  0.0000E+00  0.4000E+01
    -43.632  0.0000E+00  0.4000E+01
    -43.429  0.0000E+00  0.4000E+01
    -43.225  0.0000E+00  0.4000E+01
    -43.021  0.0000E+00  0.4000E+01
    -42.817  0.0000E+00  0.4000E+01
    -42.613  0.0000E+00  0.4000E+01
    -42.409  0.0000E+00  0.4000E+01
    -42.206  0.0000E+00  0.4000E+01
    -42.002  0.0000E+00  0.4000E+01
    -41.798  0.0000E+00  0.4000E+01
    -41.594  0.0000E+00  0.4000E+01
    -41.390  0.0000E+00  0.4000E+01
    -41.186  0.0000E+00  0.4000E+01
    -40.983  0.0000E+00  0.4000E+01
    -40.779  0.0000E+00  0.4000E+01
    -40.575  0.0000E+00  0.4000E+01
    -40.371  0.0000E+00  0.4000E+01
    -40.167  0.0000E+00  0.4000E+01
    -39.963  0.0000E+00  0.4000E+01
    -39.760  0.0000E+00  0.4000E+01
    -39.556  0.0000E+00  0.1000E+02
    -39.352  0.0000E+00  0.1000E+02
    -39.148  0.0000E+00  0.1000E+02
    -38.944  0.0000E+00  0.1000E+02
    -38.740  0.0000E+00  0.1000E+02
    -38.537  0.0000E+00  0.1000E+02
    -38.333  0.0000E+00  0.1000E+02
    -38.129  0.0000E+00  0.1000E+02
    -37.925  0.0000E+00  0.1000E+02
    -37.721  0.0000E+00  0.1000E+02
    -37.517  0.0000E+00  0.1000E+02
    -37.314  0.0000E+00  0.1000E+02
    -37.110  0.0000E+00  0.1000E+02
    -36.906  0.0000E+00  0.1000E+02
    -36.702  0.0000E+00  0.1000E+02
    -36.498  0.0000E+00  0.1000E+02
    -36.294  0.0000E+00  0.1000E+02
    -36.091  0.0000E+00  0.1000E+02
    -35.887  0.0000E+00  0.1000E+02
    -35.683  0.0000E+00  0.1000E+02
    -35.479  0.0000E+00  0.1000E+02
    -35.275  0.0000E+00  0.1000E+02
    -35.071  0.0000E+00  0.1000E+02
    -34.868  0.0000E+00  0.1000E+02
    -34.664  0.0000E+00  0.1000E+02
    -34.460  0.0000E+00  0.1000E+02
    -34.256  0.0000E+00  0.1000E+02
    -34.052  0.0000E+00  0.1000E+02
    -33.848  0.0000E+00  0.1000E+02
    -33.645  0.0000E+00  0.1000E+02
    -33.441  0.0000E+00  0.1000E+02
    -33.237  0.0000E+00  0.1000E+02
    -33.033  0.0000E+00  0.1000E+02
    -32.829  0.0000E+00  0.1000E+02
    -32.625  0.0000E+00  0.1000E+02
    -32.422  0.0000E+00  0.1000E+02
    -32.218  0.0000E+00  0.1000E+02
    -32.014  0.0000E+00  0.1000E+02
    -31.810  0.0000E+00  0.1000E+02
    -31.606  0.0000E+00  0.1000E+02
    -31.402  0.0000E+00  0.1000E+02
    -31.199  0.0000E+00  0.1000E+02
    -30.995  0.0000E+00  0.1000E+02
    -30.791  0.0000E+00  0.1000E+02
    -30.587  0.0000E+00  0.1000E+02
    -30.383  0.0000E+00  0.1000E+02
    -30.179  0.0000E+00  0.1000E+02
    -29.976  0.0000E+00  0.1000E+02
    -29.772  0.0000E+00  0.1000E+02
    -29.568  0.0000E+00  0.1000E+02
    -29.364  0.0000E+00  0.1000E+02
    -29.160  0.0000E+00  0.1000E+02
    -28.956  0.0000E+00  0.1000E+02
    -28.753  0.0000E+00  0.1000E+02
    -28.549  0.0000E+00  0.1000E+02
    -28.345  0.0000E+00  0.1000E+02
    -28.141  0.0000E+00  0.1000E+02
    -27.937  0.0000E+00  0.1000E+02
    -27.733  0.0000E+00  0.1000E+02
    -27.530  0.0000E+00  0.1000E+02
    -27.326  0.0000E+00  0.1000E+02
    -27.122  0.0000E+00  0.1000E+02
    -26.918  0.0000E+00  0.1000E+02
    -26.714  0.0000E+00  0.1000E+02
    -26.511  0.0000E+00  0.1000E+02
    -26.307  0.0000E+00  0.1000E+02
    -26.103  0.0000E+00  0.1000E+02
    -25.899  0.0000E+00  0.1000E+02
    -25.695  0.0000E+00  0.1000E+02
    -25.491  0.0000E+00  0.1000E+02
    -25.288  0.0000E+00  0.1000E+02
    -25.084  0.0000E+00  0.1000E+02
    -24.880  0.0000E+00  0.1000E+02
    -24.676  0.0000E+00  0.1000E+02
    -24.472  0.0000E+00  0.1000E+02
    -24.268  0.0000E+00  0.1000E+02
    -24.065  0.0000E+00  0.1000E+02
    -23.861  0.0000E+00  0.1000E+02
    -23.657  0.0000E+00  0.1000E+02
    -23.453  0.0000E+00  0.1000E+02
    -23.249  0.0000E+00  0.1000E+02
    -23.045  0.0000E+00  0.1000E+02
    -22.842  0.0000E+00  0.1000E+02
    -22.638  0.0000E+00  0.1000E+02
    -22.434  0.0000E+00  0.1000E+02
    -22.230  0.0000E+00  0.1000E+02
    -22.026  0.0000E+00  0.1000E+02
    -21.822  0.0000E+00  0.1000E+02
    -21.619  0.0000E+00  0.1000E+02
    -21.415  0.0000E+00  0.1000E+02
    -21.211  0.0000E+00  0.1000E+02
    -21.007  0.0000E+00  0.1000E+02
    -20.803  0.0000E+00  0.1000E+02
    -20.599  0.0000E+00  0.1000E+02
    -20.396  0.0000E+00  0.1000E+02
    -20.192  0.0000E+00  0.1000E+02
    -19.988  0.0000E+00  0.1000E+02
    -19.784  0.0000E+00  0.1000E+02
    -19.580  0.0000E+00  0.1000E+02
    -19.376  0.0000E+00  0.1000E+02
    -19.173  0.0000E+00  0.1000E+02
    -18.969  0.0000E+00  0.1000E+02
    -18.765  0.0000E+00  0.1000E+02
    -18.561  0.0000E+00  0.1000E+02
    -18.357  0.0000E+00  0.1000E+02
    -18.153  0.0000E+00  0.1000E+02
    -17.950  0.0000E+00  0.1000E+02
    -17.746  0.0000E+00  0.1000E+02
    -17.542  0.0000E+00  0.1000E+02
    -17.338  0.0000E+00  0.1003E+02
    -17.134  0.0000E+00  0.1200E+02
    -16.930  0.0000E+00  0.1200E+02
    -16.727  0.0000E+00  0.1200E+02
    -16.523  0.0000E+00  0.1200E+02
    -16.319  0.0000E+00  0.1200E+02
    -16.115  0.0000E+00  0.1200E+02
    -15.911  0.0000E+00  0.1200E+02
    -15.707  0.0000E+00  0.1200E+02
    -15.504  0.0000E+00  0.1200E+02
    -15.300  0.0000E+00  0.1200E+02
    -15.096  0.0000E+00  0.1200E+02
    -14.892  0.0000E+00  0.1200E+02
    -14.688  0.0000E+00  0.1200E+02
    -14.484  0.0000E+00  0.1200E+02
    -14.281  0.0000E+00  0.1200E+02
    -14.077  0.0000E+00  0.1200E+02
    -13.873  0.0000E+00  0.1200E+02
    -13.669  0.0000E+00  0.1200E+02
    -13.465  0.0000E+00  0.1200E+02
    -13.261  0.0000E+00  0.1200E+02
    -13.058  0.0000E+00  0.1200E+02
    -12.854  0.0000E+00  0.1200E+02
    -12.650  0.0000E+00  0.1200E+02
    -12.446  0.0000E+00  0.1200E+02
    -12.242  0.0000E+00  0.1200E+02
    -12.038  0.0000E+00  0.1200E+02
    -11.835  0.0000E+00  0.1200E+02
    -11.631  0.0000E+00  0.1200E+02
    -11.427  0.0000E+00  0.1200E+02
    -11.223  0.0000E+00  0.1200E+02
    -11.019  0.0000E+00  0.1200E+02
    -10.815  0.0000E+00  0.1200E+02
    -10.612  0.0000E+00  0.1200E+02
    -10.408  0.0000E+00  0.1200E+02
    -10.204  0.0000E+00  0.1200E+02
    -10.000  0.0000E+00  0.1200E+02
     -9.796  0.0000E+00  0.1200E+02
     -9.592  0.0000E+00  0.1200E+02
     -9.389  0.0000E+00  0.1200E+02
     -9.185  0.0000E+00  0.1200E+02
     -8.981  0.0000E+00  0.1200E+02
     -8.777  0.0000E+00  0.1200E+02
     -8.573  0.0000E+00  0.1200E+02
     -8.369  0.0000E+00  0.1200E+02
     -8.166  0.0000E+00  0.1200E+02
     -7.962  0.0000E+00  0.1200E+02
     -7.758  0.0000E+00  0.1200E+02
     -7.554  0.0000E+00  0.1200E+02
     -7.350  0.0000E+00  0.1200E+02
     -7.146  0.0000E+00  0.1200E+02
     -6.943  0.0000E+00  0.1200E+02
     -6.739  0.0000E+00  0.1200E+02
     -6.535  0.0000E+00  0.1200E+02
     -6.331  0.0000E+00  0.1200E+02
     -6.127  0.0000E+00  0.1200E+02
     -5.924  0.0000E+00  0.1200E+02
     -5.720  0.3802E+00  0.1208E+02
     -5.516  0.0000E+00  0.1353E+02
     -5.312  0.0000E+00  0.1397E+02
     -5.108  0.0000E+00  0.1397E+02
     -4.904  0.0000E+00  0.1400E+02
     -4.701  0.0000E+00  0.1400E+02
     -4.497  0.0000E+00  0.1400E+02
     -4.293  0.0000E+00  0.1400E+02
     -4.089  0.0000E+00  0.1400E+02
     -3.885  0.0000E+00  0.1400E+02
     -3.681  0.0000E+00  0.1400E+02
     -3.478  0.0000E+00  0.1400E+02
     -3.274  0.0000E+00  0.1400E+02
     -3.070  0.0000E+00  0.1400E+02
     -2.866  0.3064E-15  0.1400E+02
     -2.662  0.0000E+00  0.1553E+02
     -2.458  0.0000E+00  0.1553E+02
     -2.255  0.0000E+00  0.1591E+02
     -2.051  0.0000E+00  0.1700E+02
     -1.847  0.0000E+00  0.1738E+02
     -1.643  0.0000E+00  0.1756E+02
     -1.439  0.0000E+00  0.1794E+02
     -1.235  0.0000E+00  0.1800E+02
     -1.032  0.0000E+00  0.1800E+02
     -0.828  0.0000E+00  0.1800E+02
     -0.624  0.0000E+00  0.1800E+02
     -0.420  0.0000E+00  0.1800E+02
     -0.216  0.0000E+00  0.1800E+02
     -0.012  0.0000E+00  0.1800E+02
      0.191  0.0000E+00  0.1800E+02
      0.395  0.0000E+00  0.1800E+02
      0.599  0.0000E+00  0.1800E+02
      0.803  0.0000E+00  0.1800E+02
      1.007  0.0000E+00  0.1800E+02
      1.211  0.0000E+00  0.1800E+02
      1.414  0.0000E+00  0.1800E+02
      1.618  0.0000E+00  0.1800E+02
      1.822  0.0000E+00  0.1800E+02
      2.026  0.0000E+00  0.1800E+02
      2.230  0.0000E+00  0.1800E+02
      2.434  0.0000E+00  0.1803E+02
      2.637  0.0000E+00  0.1803E+02
      2.841  0.0000E+00  0.1803E+02
      3.045  0.0000E+00  0.1803E+02
      3.249  0.0000E+00  0.1803E+02
      3.453  0.0000E+00  0.1803E+02
      3.657  0.0000E+00  0.1803E+02
      3.860  0.0000E+00  0.1828E+02
      4.064  0.0000E+00  0.1828E+02
      4.268  0.0000E+00  0.1850E+02
      4.472  0.0000E+00  0.1869E+02
      4.676  0.0000E+00  0.1869E+02
      4.880  0.0000E+00  0.1869E+02
      5.083  0.0000E+00  0.1944E+02
      5.287  0.0000E+00  0.1953E+02
      5.491  0.0000E+00  0.2009E+02
      5.695  0.0000E+00  0.2009E+02
      5.899  0.0000E+00  0.2009E+02
      6.103  0.0000E+00  0.2103E+02
      6.306  0.0000E+00  0.2141E+02
      6.510  0.0000E+00  0.2141E+02
      6.714  0.0000E+00  0.2159E+02
      6.918  0.0000E+00  0.2222E+02
      7.122  0.0000E+00  0.2241E+02
      7.326  0.0000E+00  0.2347E+02
      7.529  0.0000E+00  0.2378E+02
      7.733  0.0000E+00  0.2409E+02
      7.937  0.0000E+00  0.2450E+02
      8.141  0.0000E+00  0.2450E+02
      8.345  0.0000E+00  0.2488E+02
      8.549  0.0000E+00  0.2488E+02
      8.752  0.0000E+00  0.2581E+02
      8.956  0.0000E+00  0.2591E+02
      9.160  0.0000E+00  0.2609E+02
      9.364  0.0000E+00  0.2647E+02
      9.568  0.7666E-01  0.2675E+02
      9.772  0.0000E+00  0.2688E+02
      9.975  0.0000E+00  0.2688E+02
     10.179  0.0000E+00  0.2688E+02
     10.383  0.0000E+00  0.2762E+02
     10.587  0.0000E+00  0.2762E+02
     10.791  0.0000E+00  0.2762E+02
     10.995  0.7666E-01  0.2772E+02
     11.198  0.0000E+00  0.2772E+02
     11.402  0.5053E-01  0.2787E+02
     11.606  0.0000E+00  0.2800E+02
     11.810  0.0000E+00  0.2800E+02
     12.014  0.0000E+00  0.2800E+02
     12.218  0.0000E+00  0.2800E+02
     12.421  0.0000E+00  0.2800E+02
     12.625  0.0000E+00  0.2800E+02
     12.829  0.0000E+00  0.2800E+02
     13.033  0.0000E+00  0.2800E+02
     13.237  0.0000E+00  0.2800E+02
     13.441  0.0000E+00  0.2800E+02
     13.644  0.0000E+00  0.2800E+02
     13.848  0.0000E+00  0.2800E+02
     14.052  0.0000E+00  0.2800E+02
     14.256  0.0000E+00  0.2800E+02
