   1   1   0   0
  0.6666048E+02  0.4551220E-09  0.4551220E-09  0.4551220E-09  0.5000000E-15
  1.000000000000000E-004
  CAR 
 Og_FCC                                  
     14.99267858    -31.56263604  301      0.22674057      1.00000000
    -31.563  0.0000E+00  0.0000E+00
    -31.407  0.0000E+00  0.0000E+00
    -31.252  0.0000E+00  0.0000E+00
    -31.097  0.0000E+00  0.0000E+00
    -30.942  0.0000E+00  0.0000E+00
    -30.787  0.0000E+00  0.0000E+00
    -30.632  0.0000E+00  0.0000E+00
    -30.476  0.0000E+00  0.0000E+00
    -30.321  0.0000E+00  0.0000E+00
    -30.166  0.0000E+00  0.0000E+00
    -30.011  0.0000E+00  0.0000E+00
    -29.856 -0.4587E-27 -0.7119E-28
    -29.700 -0.2915E-09 -0.4523E-10
    -29.545 -0.4453E+00 -0.6911E-01
    -29.390  0.6680E+02  0.1030E+02
    -29.235 -0.1919E+01  0.1000E+02
    -29.080 -0.2240E-05  0.1000E+02
    -28.925  0.0000E+00  0.1000E+02
    -28.769  0.0000E+00  0.1000E+02
    -28.614  0.0000E+00  0.1000E+02
    -28.459  0.0000E+00  0.1000E+02
    -28.304  0.0000E+00  0.1000E+02
    -28.149  0.0000E+00  0.1000E+02
    -27.993  0.0000E+00  0.1000E+02
    -27.838  0.0000E+00  0.1000E+02
    -27.683  0.0000E+00  0.1000E+02
    -27.528  0.0000E+00  0.1000E+02
    -27.373  0.0000E+00  0.1000E+02
    -27.217  0.0000E+00  0.1000E+02
    -27.062  0.0000E+00  0.1000E+02
    -26.907  0.0000E+00  0.1000E+02
    -26.752  0.0000E+00  0.1000E+02
    -26.597  0.0000E+00  0.1000E+02
    -26.442  0.0000E+00  0.1000E+02
    -26.286  0.0000E+00  0.1000E+02
    -26.131  0.0000E+00  0.1000E+02
    -25.976  0.0000E+00  0.1000E+02
    -25.821  0.0000E+00  0.1000E+02
    -25.666  0.0000E+00  0.1000E+02
    -25.510  0.0000E+00  0.1000E+02
    -25.355  0.0000E+00  0.1000E+02
    -25.200  0.0000E+00  0.1000E+02
    -25.045  0.0000E+00  0.1000E+02
    -24.890  0.0000E+00  0.1000E+02
    -24.735  0.0000E+00  0.1000E+02
    -24.579  0.0000E+00  0.1000E+02
    -24.424  0.0000E+00  0.1000E+02
    -24.269  0.0000E+00  0.1000E+02
    -24.114  0.0000E+00  0.1000E+02
    -23.959  0.0000E+00  0.1000E+02
    -23.803  0.0000E+00  0.1000E+02
    -23.648  0.0000E+00  0.1000E+02
    -23.493  0.0000E+00  0.1000E+02
    -23.338  0.0000E+00  0.1000E+02
    -23.183  0.0000E+00  0.1000E+02
    -23.027  0.0000E+00  0.1000E+02
    -22.872  0.0000E+00  0.1000E+02
    -22.717 -0.1496E-29  0.1000E+02
    -22.562 -0.1024E-11  0.1000E+02
    -22.407 -0.3905E-02  0.9999E+01
    -22.252  0.5441E+01  0.1084E+02
    -22.096  0.7453E+01  0.1200E+02
    -21.941 -0.2905E-02  0.1200E+02
    -21.786  0.0000E+00  0.1200E+02
    -21.631  0.0000E+00  0.1200E+02
    -21.476  0.0000E+00  0.1200E+02
    -21.320  0.0000E+00  0.1200E+02
    -21.165  0.0000E+00  0.1200E+02
    -21.010  0.0000E+00  0.1200E+02
    -20.855  0.0000E+00  0.1200E+02
    -20.700  0.0000E+00  0.1200E+02
    -20.545  0.0000E+00  0.1200E+02
    -20.389  0.0000E+00  0.1200E+02
    -20.234  0.0000E+00  0.1200E+02
    -20.079  0.0000E+00  0.1200E+02
    -19.924  0.0000E+00  0.1200E+02
    -19.769  0.0000E+00  0.1200E+02
    -19.613  0.0000E+00  0.1200E+02
    -19.458  0.0000E+00  0.1200E+02
    -19.303  0.0000E+00  0.1200E+02
    -19.148  0.0000E+00  0.1200E+02
    -18.993  0.0000E+00  0.1200E+02
    -18.838  0.0000E+00  0.1200E+02
    -18.682  0.0000E+00  0.1200E+02
    -18.527  0.0000E+00  0.1200E+02
    -18.372  0.0000E+00  0.1200E+02
    -18.217  0.0000E+00  0.1200E+02
    -18.062  0.0000E+00  0.1200E+02
    -17.906  0.0000E+00  0.1200E+02
    -17.751  0.0000E+00  0.1200E+02
    -17.596  0.0000E+00  0.1200E+02
    -17.441  0.0000E+00  0.1200E+02
    -17.286  0.0000E+00  0.1200E+02
    -17.130  0.0000E+00  0.1200E+02
    -16.975  0.0000E+00  0.1200E+02
    -16.820  0.0000E+00  0.1200E+02
    -16.665  0.0000E+00  0.1200E+02
    -16.510  0.0000E+00  0.1200E+02
    -16.355  0.0000E+00  0.1200E+02
    -16.199  0.0000E+00  0.1200E+02
    -16.044  0.0000E+00  0.1200E+02
    -15.889  0.0000E+00  0.1200E+02
    -15.734  0.0000E+00  0.1200E+02
    -15.579  0.0000E+00  0.1200E+02
    -15.423  0.0000E+00  0.1200E+02
    -15.268  0.0000E+00  0.1200E+02
    -15.113  0.0000E+00  0.1200E+02
    -14.958  0.0000E+00  0.1200E+02
    -14.803  0.0000E+00  0.1200E+02
    -14.648  0.0000E+00  0.1200E+02
    -14.492  0.0000E+00  0.1200E+02
    -14.337  0.0000E+00  0.1200E+02
    -14.182  0.0000E+00  0.1200E+02
    -14.027  0.0000E+00  0.1200E+02
    -13.872  0.0000E+00  0.1200E+02
    -13.716  0.0000E+00  0.1200E+02
    -13.561  0.0000E+00  0.1200E+02
    -13.406  0.0000E+00  0.1200E+02
    -13.251  0.0000E+00  0.1200E+02
    -13.096  0.0000E+00  0.1200E+02
    -12.941  0.0000E+00  0.1200E+02
    -12.785  0.0000E+00  0.1200E+02
    -12.630  0.0000E+00  0.1200E+02
    -12.475  0.0000E+00  0.1200E+02
    -12.320  0.0000E+00  0.1200E+02
    -12.165  0.0000E+00  0.1200E+02
    -12.009  0.0000E+00  0.1200E+02
    -11.854  0.0000E+00  0.1200E+02
    -11.699  0.0000E+00  0.1200E+02
    -11.544  0.0000E+00  0.1200E+02
    -11.389  0.0000E+00  0.1200E+02
    -11.233  0.0000E+00  0.1200E+02
    -11.078  0.0000E+00  0.1200E+02
    -10.923  0.0000E+00  0.1200E+02
    -10.768  0.0000E+00  0.1200E+02
    -10.613  0.0000E+00  0.1200E+02
    -10.458  0.0000E+00  0.1200E+02
    -10.302  0.0000E+00  0.1200E+02
    -10.147  0.0000E+00  0.1200E+02
     -9.992  0.0000E+00  0.1200E+02
     -9.837  0.0000E+00  0.1200E+02
     -9.682  0.0000E+00  0.1200E+02
     -9.526  0.0000E+00  0.1200E+02
     -9.371  0.0000E+00  0.1200E+02
     -9.216  0.0000E+00  0.1200E+02
     -9.061  0.0000E+00  0.1200E+02
     -8.906  0.0000E+00  0.1200E+02
     -8.751  0.0000E+00  0.1200E+02
     -8.595  0.0000E+00  0.1200E+02
     -8.440  0.0000E+00  0.1200E+02
     -8.285  0.0000E+00  0.1200E+02
     -8.130  0.0000E+00  0.1200E+02
     -7.975  0.0000E+00  0.1200E+02
     -7.819  0.0000E+00  0.1200E+02
     -7.664  0.0000E+00  0.1200E+02
     -7.509  0.0000E+00  0.1200E+02
     -7.354  0.0000E+00  0.1200E+02
     -7.199  0.0000E+00  0.1200E+02
     -7.044  0.0000E+00  0.1200E+02
     -6.888  0.0000E+00  0.1200E+02
     -6.733  0.0000E+00  0.1200E+02
     -6.578  0.0000E+00  0.1200E+02
     -6.423  0.0000E+00  0.1200E+02
     -6.268  0.0000E+00  0.1200E+02
     -6.112  0.0000E+00  0.1200E+02
     -5.957  0.0000E+00  0.1200E+02
     -5.802  0.0000E+00  0.1200E+02
     -5.647  0.0000E+00  0.1200E+02
     -5.492  0.0000E+00  0.1200E+02
     -5.336  0.0000E+00  0.1200E+02
     -5.181  0.0000E+00  0.1200E+02
     -5.026  0.0000E+00  0.1200E+02
     -4.871  0.0000E+00  0.1200E+02
     -4.716  0.0000E+00  0.1200E+02
     -4.561  0.0000E+00  0.1200E+02
     -4.405  0.0000E+00  0.1200E+02
     -4.250  0.0000E+00  0.1200E+02
     -4.095  0.0000E+00  0.1200E+02
     -3.940  0.0000E+00  0.1200E+02
     -3.785  0.0000E+00  0.1200E+02
     -3.629  0.0000E+00  0.1200E+02
     -3.474  0.0000E+00  0.1200E+02
     -3.319  0.0000E+00  0.1200E+02
     -3.164  0.0000E+00  0.1200E+02
     -3.009  0.0000E+00  0.1200E+02
     -2.854  0.0000E+00  0.1200E+02
     -2.698 -0.7824E-51  0.1200E+02
     -2.543 -0.5039E-26  0.1200E+02
     -2.388 -0.1116E-09  0.1200E+02
     -2.233 -0.5367E-02  0.1200E+02
     -2.078  0.5598E+00  0.1209E+02
     -1.922  0.1675E+01  0.1235E+02
     -1.767  0.3510E+01  0.1289E+02
     -1.612  0.3799E+01  0.1348E+02
     -1.457  0.1519E+01  0.1372E+02
     -1.302  0.9791E+00  0.1387E+02
     -1.146  0.1721E+01  0.1413E+02
     -0.991  0.1256E+01  0.1433E+02
     -0.836  0.2322E+01  0.1469E+02
     -0.681  0.2730E+01  0.1511E+02
     -0.526  0.3256E+01  0.1562E+02
     -0.371  0.3447E+01  0.1615E+02
     -0.215  0.4609E+01  0.1687E+02
     -0.060  0.3682E+01  0.1744E+02
      0.095  0.2733E+01  0.1786E+02
      0.250  0.8817E+00  0.1800E+02
      0.405 -0.1152E-01  0.1800E+02
      0.561 -0.2194E-07  0.1800E+02
      0.716  0.0000E+00  0.1800E+02
      0.871  0.0000E+00  0.1800E+02
      1.026  0.0000E+00  0.1800E+02
      1.181  0.0000E+00  0.1800E+02
      1.336  0.0000E+00  0.1800E+02
      1.492  0.0000E+00  0.1800E+02
      1.647  0.0000E+00  0.1800E+02
      1.802  0.0000E+00  0.1800E+02
      1.957  0.0000E+00  0.1800E+02
      2.112  0.0000E+00  0.1800E+02
      2.268  0.0000E+00  0.1800E+02
      2.423 -0.2521E-38  0.1800E+02
      2.578 -0.1028E-17  0.1800E+02
      2.733 -0.1206E-05  0.1800E+02
      2.888  0.9560E-02  0.1800E+02
      3.043  0.8121E-02  0.1800E+02
      3.199 -0.6889E-06  0.1800E+02
      3.354 -0.1560E-04  0.1800E+02
      3.509  0.8657E-01  0.1802E+02
      3.664  0.5225E-01  0.1802E+02
      3.819  0.1093E+00  0.1804E+02
      3.975 -0.5910E-03  0.1804E+02
      4.130 -0.8245E-03  0.1804E+02
      4.285  0.2153E+00  0.1807E+02
      4.440 -0.4906E-02  0.1807E+02
      4.595  0.2360E+00  0.1811E+02
      4.751  0.3324E+00  0.1816E+02
      4.906 -0.1663E-03  0.1816E+02
      5.061 -0.4312E-02  0.1816E+02
      5.216  0.6264E+00  0.1826E+02
      5.371  0.2036E+00  0.1829E+02
      5.526  0.8487E+00  0.1842E+02
      5.682  0.4180E+00  0.1849E+02
      5.837  0.1345E+01  0.1870E+02
      5.992  0.7737E+00  0.1882E+02
      6.147  0.4482E+00  0.1888E+02
      6.302  0.2296E+01  0.1924E+02
      6.458  0.4321E+00  0.1931E+02
      6.613  0.1593E+01  0.1956E+02
      6.768  0.1176E+01  0.1974E+02
      6.923 -0.2139E-01  0.1973E+02
      7.078  0.9965E+00  0.1989E+02
      7.233  0.5910E+00  0.1998E+02
      7.389  0.9343E+00  0.2013E+02
      7.544  0.4739E+00  0.2020E+02
      7.699 -0.2941E-01  0.2019E+02
      7.854  0.1289E+01  0.2039E+02
      8.009  0.1769E+01  0.2067E+02
      8.165  0.2231E+01  0.2102E+02
      8.320  0.2451E+01  0.2140E+02
      8.475  0.5705E+00  0.2148E+02
      8.630  0.1457E+01  0.2171E+02
      8.785  0.4680E+01  0.2244E+02
      8.940  0.1456E+01  0.2266E+02
      9.096  0.2140E+00  0.2270E+02
      9.251  0.3488E+00  0.2275E+02
      9.406  0.5094E+00  0.2283E+02
      9.561  0.3547E+00  0.2288E+02
      9.716  0.3562E+01  0.2344E+02
      9.872  0.2870E+01  0.2388E+02
     10.027  0.1807E+01  0.2416E+02
     10.182  0.1789E+01  0.2444E+02
     10.337  0.2428E+01  0.2482E+02
     10.492  0.2149E+01  0.2515E+02
     10.648  0.3691E+00  0.2521E+02
     10.803  0.7870E+00  0.2533E+02
     10.958  0.6006E+00  0.2542E+02
     11.113  0.4383E+00  0.2549E+02
     11.268  0.1440E+00  0.2551E+02
     11.423  0.7892E+00  0.2564E+02
     11.579  0.7663E+00  0.2576E+02
     11.734  0.4554E+00  0.2583E+02
     11.889  0.5226E+00  0.2591E+02
     12.044  0.4958E+00  0.2598E+02
     12.199 -0.1311E-02  0.2598E+02
     12.355 -0.1453E-47  0.2598E+02
     12.510 -0.9314E-24  0.2598E+02
     12.665 -0.1991E-08  0.2598E+02
     12.820 -0.3590E-02  0.2598E+02
     12.975  0.1106E+00  0.2600E+02
     13.130 -0.9184E-03  0.2600E+02
     13.286  0.0000E+00  0.2600E+02
     13.441  0.0000E+00  0.2600E+02
     13.596  0.0000E+00  0.2600E+02
     13.751  0.0000E+00  0.2600E+02
     13.906  0.0000E+00  0.2600E+02
     14.062  0.0000E+00  0.2600E+02
     14.217  0.0000E+00  0.2600E+02
     14.372  0.0000E+00  0.2600E+02
     14.527  0.0000E+00  0.2600E+02
     14.682  0.0000E+00  0.2600E+02
     14.837  0.0000E+00  0.2600E+02
     14.993  0.0000E+00  0.2600E+02
