    1    1    1    1
  0.6666048E+02  0.4551220E-09  0.4551220E-09  0.4551220E-09  0.5000000E-15
  1.000000000000000E-004
  CAR 
 Og_FCC                                  
     18     35     13
 
  0.0000000E+00  0.0000000E+00  0.0000000E+00  0.1371742E-02
    1      -29.444862   1.000000
    2      -29.444861   1.000000
    3      -29.444861   1.000000
    4      -29.444019   1.000000
    5      -29.444019   1.000000
    6      -22.310402   1.000000
    7        0.213490   0.715773
    8        0.213490   0.715772
    9        0.213494   0.715721
   10        2.885889   0.000000
   11        9.831720   0.000000
   12        9.831721   0.000000
   13        9.831722   0.000000
 
  0.1111111E+00  0.7945537E-17  0.1387779E-16  0.1097394E-01
    1      -29.444607   1.000000
    2      -29.444542   1.000000
    3      -29.444541   1.000000
    4      -29.443754   1.000000
    5      -29.443754   1.000000
    6      -22.303066   1.000000
    7       -0.294900   1.000000
    8        0.175313   1.027842
    9        0.175316   1.027837
   10        3.502351   0.000000
   11        9.150439   0.000000
   12        9.954079   0.000000
   13        9.954079   0.000000
 
  0.2222222E+00  0.2013286E-17  0.2775558E-16  0.1097394E-01
    1      -29.444610   1.000000
    2      -29.444609   1.000000
    3      -29.444294   1.000000
    4      -29.442833   1.000000
    5      -29.442832   1.000000
    6      -22.284410   1.000000
    7       -1.134071   1.000000
    8        0.081445   1.000157
    9        0.081448   1.000157
   10        4.525544   0.000000
   11        8.862650   0.000000
   12        9.977786   0.000000
   13        9.977787   0.000000
 
  0.3333333E+00  0.3019929E-17  0.2775558E-16  0.1097394E-01
    1      -29.444876   1.000000
    2      -29.444875   1.000000
    3      -29.443662   1.000000
    4      -29.441465   1.000000
    5      -29.441463   1.000000
    6      -22.263031   1.000000
    7       -1.801322   1.000000
    8       -0.020650   1.000000
    9       -0.020647   1.000000
   10        5.137289   0.000000
   11        9.437301   0.000000
   12        9.646850   0.000000
   13        9.646850   0.000000
 
  0.4444444E+00  0.4026572E-17  0.5551115E-16  0.1097394E-01
    1      -29.445120   1.000000
    2      -29.445119   1.000000
    3      -29.443510   1.000000
    4      -29.440570   1.000000
    5      -29.440569   1.000000
    6      -22.248987   1.000000
    7       -2.157887   1.000000
    8       -0.084885   1.000000
    9       -0.084883   1.000000
   10        5.295646   0.000000
   11        9.411569   0.000000
   12        9.411570   0.000000
   13        9.765778   0.000000
 
  0.1111111E+00  0.1111111E+00  0.0000000E+00  0.8230453E-02
    1      -29.445004   1.000000
    2      -29.444113   1.000000
    3      -29.444113   1.000000
    4      -29.444049   1.000000
    5      -29.443668   1.000000
    6      -22.300625   1.000000
    7       -0.318702   1.000000
    8        0.093368   1.000531
    9        0.093370   1.000531
   10        3.714050   0.000000
   11        8.864355   0.000000
   12       10.119824   0.000000
   13       10.119835   0.000000
 
  0.2222222E+00  0.1111111E+00  0.1387779E-16  0.3292181E-01
    1      -29.444953   1.000000
    2      -29.444353   1.000000
    3      -29.444034   1.000000
    4      -29.443291   1.000000
    5      -29.442752   1.000000
    6      -22.285756   1.000000
    7       -0.948770   1.000000
    8       -0.030405   1.000000
    9        0.005620   1.000000
   10        4.614057   0.000000
   11        8.474522   0.000000
   12        9.576525   0.000000
   13       10.339538   0.000000
 
  0.3333333E+00  0.1111111E+00  0.2775558E-16  0.3292181E-01
    1      -29.444980   1.000000
    2      -29.444291   1.000000
    3      -29.444014   1.000000
    4      -29.442161   1.000000
    5      -29.441395   1.000000
    6      -22.265287   1.000000
    7       -1.599149   1.000000
    8       -0.136243   1.000000
    9       -0.130060   1.000000
   10        5.407167   0.000000
   11        8.739205   0.000000
   12        8.937984   0.000000
   13       10.138763   0.000000
 
  0.4444444E+00  0.1111111E+00  0.2775558E-16  0.3292181E-01
    1      -29.445145   1.000000
    2      -29.444561   1.000000
    3      -29.443473   1.000000
    4      -29.441257   1.000000
    5      -29.440489   1.000000
    6      -22.248776   1.000000
    7       -2.015765   1.000000
    8       -0.280138   1.000000
    9       -0.178935   1.000000
   10        5.709352   0.000000
   11        8.535521   0.000000
   12        9.799597   0.000000
   13        9.893342   0.000000
 
 -0.4444444E+00  0.1111111E+00 -0.6938894E-16  0.3292181E-01
    1      -29.445153   1.000000
    2      -29.444696   1.000000
    3      -29.443255   1.000000
    4      -29.440719   1.000000
    5      -29.440609   1.000000
    6      -22.244080   1.000000
    7       -2.120742   1.000000
    8       -0.374389   1.000000
    9       -0.141812   1.000000
   10        5.760987   0.000000
   11        8.477536   0.000000
   12        9.622125   0.000000
   13       10.603845   0.000000
 
 -0.3333333E+00  0.1111111E+00 -0.2775558E-16  0.3292181E-01
    1      -29.444915   1.000000
    2      -29.444599   1.000000
    3      -29.443464   1.000000
    4      -29.441508   1.000000
    5      -29.440897   1.000000
    6      -22.253449   1.000000
    7       -1.901801   1.000000
    8       -0.368848   1.000000
    9       -0.039573   1.000000
   10        5.670001   0.000000
   11        8.727050   0.000000
   12        9.624864   0.000000
   13        9.687403   0.000000
 
 -0.2222222E+00  0.1111111E+00 -0.1387779E-16  0.3292181E-01
    1      -29.444598   1.000000
    2      -29.444361   1.000000
    3      -29.444035   1.000000
    4      -29.442928   1.000000
    5      -29.441748   1.000000
    6      -22.272395   1.000000
    7       -1.402931   1.000000
    8       -0.252418   1.000000
    9        0.084528   1.000217
   10        5.184937   0.000000
   11        8.740976   0.000000
   12        9.259903   0.000000
   13       10.003148   0.000000
 
 -0.1111111E+00  0.1111111E+00 -0.1846186E-16  0.1646091E-01
    1      -29.444513   1.000000
    2      -29.444429   1.000000
    3      -29.444132   1.000000
    4      -29.443973   1.000000
    5      -29.443003   1.000000
    6      -22.291959   1.000000
    7       -0.763232   1.000000
    8       -0.039955   1.000000
    9        0.171602   1.032768
   10        4.240074   0.000000
   11        8.751104   0.000000
   12        9.884734   0.000000
   13       10.117888   0.000000
 
  0.2222222E+00  0.2222222E+00  0.0000000E+00  0.8230453E-02
    1      -29.445482   1.000000
    2      -29.444593   1.000000
    3      -29.442967   1.000000
    4      -29.442604   1.000000
    5      -29.442604   1.000000
    6      -22.275807   1.000000
    7       -1.112530   1.000000
    8       -0.189468   1.000000
    9       -0.189466   1.000000
   10        5.196043   0.000000
   11        7.928743   0.000000
   12        9.096223   0.000000
   13       10.881574   0.000000
 
  0.3333333E+00  0.2222222E+00  0.0000000E+00  0.3292181E-01
    1      -29.445467   1.000000
    2      -29.444706   1.000000
    3      -29.443021   1.000000
    4      -29.441626   1.000000
    5      -29.441232   1.000000
    6      -22.259142   1.000000
    7       -1.515136   1.000000
    8       -0.372944   1.000000
    9       -0.319693   1.000000
   10        5.847854   0.000000
   11        7.798201   0.000000
   12        8.709110   0.000000
   13       11.034176   0.000000
 
  0.4444444E+00  0.2222222E+00  0.0000000E+00  0.3292181E-01
    1      -29.445383   1.000000
    2      -29.444097   1.000000
    3      -29.443277   1.000000
    4      -29.441198   1.000000
    5      -29.440295   1.000000
    6      -22.243522   1.000000
    7       -1.821567   1.000000
    8       -0.643844   1.000000
    9       -0.367515   1.000000
   10        6.264616   0.000000
   11        8.177796   0.000000
   12        8.665267   0.000000
   13       10.706453   0.000000
 
 -0.4444444E+00  0.2222222E+00 -0.4163336E-16  0.3292181E-01
    1      -29.445264   1.000000
    2      -29.443498   1.000000
    3      -29.442947   1.000000
    4      -29.441262   1.000000
    5      -29.440373   1.000000
    6      -22.236325   1.000000
    7       -1.914706   1.000000
    8       -0.892234   1.000000
    9       -0.314992   1.000000
   10        6.490140   0.000000
   11        8.082522   0.000000
   12        9.848611   0.000000
   13       10.377135   0.000000
 
 -0.3333333E+00  0.2222222E+00 -0.2081668E-16  0.3292181E-01
    1      -29.445067   1.000000
    2      -29.443688   1.000000
    3      -29.442649   1.000000
    4      -29.441323   1.000000
    5      -29.441301   1.000000
    6      -22.240978   1.000000
    7       -1.814632   1.000000
    8       -0.958069   1.000000
    9       -0.181758   1.000000
   10        6.610517   0.000000
   11        8.086897   0.000000
   12        9.611730   0.000000
   13       10.209774   0.000000
 
 -0.2222222E+00  0.2222222E+00 -0.1203609E-16  0.1646091E-01
    1      -29.444783   1.000000
    2      -29.443830   1.000000
    3      -29.443409   1.000000
    4      -29.442483   1.000000
    5      -29.441177   1.000000
    6      -22.255251   1.000000
    7       -1.629572   1.000000
    8       -0.715137   1.000000
    9       -0.023004   1.000000
   10        6.165179   0.000000
   11        8.458335   0.000000
   12        8.777159   0.000000
   13       10.178037   0.000000
 
  0.3333333E+00  0.3333333E+00  0.0000000E+00  0.8230453E-02
    1      -29.446086   1.000000
    2      -29.445160   1.000000
    3      -29.442156   1.000000
    4      -29.440701   1.000000
    5      -29.440701   1.000000
    6      -22.247449   1.000000
    7       -1.686109   1.000000
    8       -0.480665   1.000000
    9       -0.480663   1.000000
   10        5.848105   0.000000
   11        7.296170   0.000000
   12        9.355013   0.000000
   13       11.909349   0.000000
 
  0.4444444E+00  0.3333333E+00  0.5551115E-16  0.3292181E-01
    1      -29.445955   1.000000
    2      -29.445117   1.000000
    3      -29.442112   1.000000
    4      -29.440185   1.000000
    5      -29.439950   1.000000
    6      -22.235658   1.000000
    7       -1.843502   1.000000
    8       -0.710852   1.000000
    9       -0.553013   1.000000
   10        5.942567   0.000000
   11        7.357674   0.000000
   12        9.754116   0.000000
   13       11.930402   0.000000
 
 -0.4444444E+00  0.3333333E+00 -0.2775558E-16  0.3292181E-01
    1      -29.445611   1.000000
    2      -29.444160   1.000000
    3      -29.442381   1.000000
    4      -29.440446   1.000000
    5      -29.439983   1.000000
    6      -22.229320   1.000000
    7       -1.790998   1.000000
    8       -1.117909   1.000000
    9       -0.510419   1.000000
   10        6.234615   0.000000
   11        8.053158   0.000000
   12        9.772938   0.000000
   13       11.498226   0.000000
 
 -0.3333333E+00  0.3333333E+00 -0.5465458E-16  0.1646091E-01
    1      -29.445323   1.000000
    2      -29.442824   1.000000
    3      -29.442657   1.000000
    4      -29.441365   1.000000
    5      -29.440706   1.000000
    6      -22.231432   1.000000
    7       -1.541322   1.000000
    8       -1.473408   1.000000
    9       -0.367918   1.000000
   10        6.613175   0.000000
   11        8.549614   0.000000
   12       10.000874   0.000000
   13       10.366090   0.000000
 
  0.4444444E+00  0.4444444E+00  0.0000000E+00  0.8230453E-02
    1      -29.446485   1.000000
    2      -29.445530   1.000000
    3      -29.441624   1.000000
    4      -29.439520   1.000000
    5      -29.439520   1.000000
    6      -22.228859   1.000000
    7       -1.971961   1.000000
    8       -0.656589   1.000000
    9       -0.656587   1.000000
   10        5.599674   0.000000
   11        6.978698   0.000000
   12       11.311277   0.000000
   13       12.876528   0.000000
 
 -0.4444444E+00  0.4444444E+00 -0.2407217E-16  0.1646091E-01
    1      -29.446065   1.000000
    2      -29.445311   1.000000
    3      -29.441688   1.000000
    4      -29.439619   1.000000
    5      -29.439487   1.000000
    6      -22.226353   1.000000
    7       -1.944472   1.000000
    8       -0.844865   1.000000
    9       -0.640542   1.000000
   10        5.766391   0.000000
   11        7.208186   0.000000
   12       11.673288   0.000000
   13       11.722127   0.000000
 
  0.3333333E+00  0.2222222E+00  0.1111111E+00  0.3292181E-01
    1      -29.444788   1.000000
    2      -29.444570   1.000000
    3      -29.443680   1.000000
    4      -29.442631   1.000000
    5      -29.441676   1.000000
    6      -22.269980   1.000000
    7       -1.339153   1.000000
    8       -0.350145   1.000000
    9       -0.046832   1.000000
   10        5.462215   0.000000
   11        8.240055   0.000000
   12        8.867826   0.000000
   13       10.778881   0.000000
 
  0.4444444E+00  0.2222222E+00  0.1111111E+00  0.6584362E-01
    1      -29.444886   1.000000
    2      -29.444113   1.000000
    3      -29.443685   1.000000
    4      -29.441703   1.000000
    5      -29.440891   1.000000
    6      -22.251933   1.000000
    7       -1.720908   1.000000
    8       -0.608361   1.000000
    9       -0.165210   1.000000
   10        6.198987   0.000000
   11        8.270072   0.000000
   12        8.647148   0.000000
   13       10.429707   0.000000
 
 -0.4444444E+00  0.2222222E+00  0.1111111E+00  0.6584362E-01
    1      -29.445013   1.000000
    2      -29.444084   1.000000
    3      -29.442942   1.000000
    4      -29.441322   1.000000
    5      -29.440490   1.000000
    6      -22.240091   1.000000
    7       -1.948044   1.000000
    8       -0.730920   1.000000
    9       -0.269288   1.000000
   10        6.458855   0.000000
   11        7.939201   0.000000
   12        9.830502   0.000000
   13       10.239561   0.000000
 
  0.4444444E+00  0.3333333E+00  0.1111111E+00  0.3292181E-01
    1      -29.445220   1.000000
    2      -29.444913   1.000000
    3      -29.442814   1.000000
    4      -29.440708   1.000000
    5      -29.440639   1.000000
    6      -22.244909   1.000000
    7       -1.713807   1.000000
    8       -0.665085   1.000000
    9       -0.418681   1.000000
   10        6.268564   0.000000
   11        7.741733   0.000000
   12        8.655725   0.000000
   13       11.562152   0.000000
 
 -0.4444444E+00  0.3333333E+00  0.1111111E+00  0.6584362E-01
    1      -29.445112   1.000000
    2      -29.444101   1.000000
    3      -29.442914   1.000000
    4      -29.440995   1.000000
    5      -29.440040   1.000000
    6      -22.233946   1.000000
    7       -1.779218   1.000000
    8       -0.978185   1.000000
    9       -0.513469   1.000000
   10        6.669838   0.000000
   11        8.153487   0.000000
   12        8.661814   0.000000
   13       11.288830   0.000000
 
 -0.3333333E+00  0.3333333E+00  0.1111111E+00  0.6584362E-01
    1      -29.445031   1.000000
    2      -29.443323   1.000000
    3      -29.442464   1.000000
    4      -29.442024   1.000000
    5      -29.440109   1.000000
    6      -22.231430   1.000000
    7       -1.703863   1.000000
    8       -1.224303   1.000000
    9       -0.471300   1.000000
   10        7.016454   0.000000
   11        7.975103   0.000000
   12        9.675745   0.000000
   13       10.257007   0.000000
 
 -0.2222222E+00  0.3333333E+00  0.1111111E+00  0.3292181E-01
    1      -29.444866   1.000000
    2      -29.443388   1.000000
    3      -29.443359   1.000000
    4      -29.441310   1.000000
    5      -29.440841   1.000000
    6      -22.238553   1.000000
    7       -1.708164   1.000000
    8       -1.075874   1.000000
    9       -0.319115   1.000000
   10        7.121849   0.000000
   11        7.751743   0.000000
   12        8.857779   0.000000
   13       10.863087   0.000000
 
 -0.4444444E+00  0.4444444E+00  0.1111111E+00  0.3292181E-01
    1      -29.445586   1.000000
    2      -29.445162   1.000000
    3      -29.442001   1.000000
    4      -29.440237   1.000000
    5      -29.439494   1.000000
    6      -22.228511   1.000000
    7       -1.867056   1.000000
    8       -0.853606   1.000000
    9       -0.692482   1.000000
   10        6.079837   0.000000
   11        7.469569   0.000000
   12       10.090631   0.000000
   13       11.829256   0.000000
 
 -0.3333333E+00  0.4444444E+00  0.1111111E+00  0.3292181E-01
    1      -29.445201   1.000000
    2      -29.444150   1.000000
    3      -29.442277   1.000000
    4      -29.441128   1.000000
    5      -29.439515   1.000000
    6      -22.226846   1.000000
    7       -1.704239   1.000000
    8       -1.204366   1.000000
    9       -0.657080   1.000000
   10        6.540849   0.000000
   11        8.163747   0.000000
   12        9.681138   0.000000
   13       10.420591   0.000000
 
 -0.3333333E+00  0.4444444E+00  0.2222222E+00  0.3292181E-01
    1      -29.444610   1.000000
    2      -29.443505   1.000000
    3      -29.442821   1.000000
    4      -29.441975   1.000000
    5      -29.439477   1.000000
    6      -22.227683   1.000000
    7       -1.583009   1.000000
    8       -1.288057   1.000000
    9       -0.717355   1.000000
   10        7.270067   0.000000
   11        8.293940   0.000000
   12        8.753115   0.000000
   13       10.037788   0.000000
