Og_FCC                                  
           1
     4.551220    0.000000    0.000000
     2.275610    3.941472   -0.000000
     2.275610    1.313824    3.716055
   Og
   1
Direct configuration=     1
   0.00000000  0.00000000  0.00000000
