   1   1   0   0
  0.3298244E+02  0.3599697E-09  0.3599697E-09  0.3599697E-09  0.1000000E-15
  1.000000000000000E-004
  CAR 
 Og_FCC                                  
     89.99487715    -24.54909267  301     -4.12208472      1.00000000
    -24.549  0.0000E+00  0.0000E+00
    -24.167  0.0000E+00  0.0000E+00
    -23.785  0.0000E+00  0.0000E+00
    -23.404  0.0000E+00  0.0000E+00
    -23.022  0.0000E+00  0.0000E+00
    -22.640  0.0000E+00  0.0000E+00
    -22.258  0.0000E+00  0.0000E+00
    -21.876  0.0000E+00  0.0000E+00
    -21.495  0.0000E+00  0.0000E+00
    -21.113  0.0000E+00  0.0000E+00
    -20.731  0.0000E+00  0.0000E+00
    -20.349  0.0000E+00  0.0000E+00
    -19.967  0.0000E+00  0.0000E+00
    -19.586  0.0000E+00  0.0000E+00
    -19.204  0.0000E+00  0.1389E+00
    -18.822  0.0000E+00  0.2000E+01
    -18.440  0.0000E+00  0.2000E+01
    -18.058  0.0000E+00  0.2000E+01
    -17.676  0.0000E+00  0.2000E+01
    -17.295  0.0000E+00  0.2000E+01
    -16.913  0.0000E+00  0.2000E+01
    -16.531  0.0000E+00  0.2000E+01
    -16.149  0.0000E+00  0.2000E+01
    -15.767  0.0000E+00  0.2000E+01
    -15.386  0.0000E+00  0.2000E+01
    -15.004  0.0000E+00  0.2000E+01
    -14.622  0.0000E+00  0.2000E+01
    -14.240  0.0000E+00  0.2000E+01
    -13.858  0.0000E+00  0.2000E+01
    -13.477  0.0000E+00  0.2000E+01
    -13.095  0.0000E+00  0.2000E+01
    -12.713  0.0000E+00  0.2000E+01
    -12.331  0.0000E+00  0.2000E+01
    -11.949  0.0000E+00  0.2000E+01
    -11.567  0.0000E+00  0.2000E+01
    -11.186  0.0000E+00  0.2000E+01
    -10.804  0.0000E+00  0.2000E+01
    -10.422  0.0000E+00  0.2000E+01
    -10.040  0.0000E+00  0.2000E+01
     -9.658  0.0000E+00  0.2000E+01
     -9.277  0.0000E+00  0.2000E+01
     -8.895  0.0000E+00  0.2000E+01
     -8.513  0.0000E+00  0.2000E+01
     -8.131  0.0000E+00  0.2000E+01
     -7.749  0.0000E+00  0.2000E+01
     -7.367  0.0000E+00  0.2000E+01
     -6.986  0.0000E+00  0.2000E+01
     -6.604  0.0000E+00  0.2000E+01
     -6.222  0.0000E+00  0.2000E+01
     -5.840  0.0000E+00  0.2287E+01
     -5.458  0.0000E+00  0.3528E+01
     -5.077  0.0000E+00  0.4306E+01
     -4.695  0.8687E+00  0.6489E+01
     -4.313  0.1923E-01  0.7989E+01
     -3.931  0.0000E+00  0.8000E+01
     -3.549  0.0000E+00  0.8000E+01
     -3.168  0.0000E+00  0.8000E+01
     -2.786  0.0000E+00  0.8000E+01
     -2.404  0.0000E+00  0.8000E+01
     -2.022  0.0000E+00  0.8000E+01
     -1.640  0.0000E+00  0.8000E+01
     -1.258  0.0000E+00  0.8000E+01
     -0.877  0.0000E+00  0.8000E+01
     -0.495  0.0000E+00  0.8000E+01
     -0.113  0.0000E+00  0.8000E+01
      0.269  0.0000E+00  0.8000E+01
      0.651  0.0000E+00  0.8000E+01
      1.032  0.0000E+00  0.8000E+01
      1.414  0.0000E+00  0.8000E+01
      1.796  0.0000E+00  0.8000E+01
      2.178  0.0000E+00  0.8000E+01
      2.560  0.0000E+00  0.8000E+01
      2.941  0.0000E+00  0.8000E+01
      3.323  0.0000E+00  0.8000E+01
      3.705  0.0000E+00  0.8000E+01
      4.087  0.0000E+00  0.8000E+01
      4.469  0.0000E+00  0.8009E+01
      4.851  0.0000E+00  0.8009E+01
      5.232  0.0000E+00  0.8009E+01
      5.614  0.0000E+00  0.8139E+01
      5.996  0.0000E+00  0.8139E+01
      6.378  0.0000E+00  0.8250E+01
      6.760  0.5820E+00  0.8546E+01
      7.141  0.0000E+00  0.8630E+01
      7.523  0.0000E+00  0.8889E+01
      7.905  0.0000E+00  0.9667E+01
      8.287  0.2910E+00  0.9806E+01
      8.669  0.0000E+00  0.1003E+02
      9.050  0.0000E+00  0.1075E+02
      9.432  0.0000E+00  0.1119E+02
      9.814  0.0000E+00  0.1186E+02
     10.196  0.0000E+00  0.1231E+02
     10.578  0.0000E+00  0.1269E+02
     10.960  0.0000E+00  0.1360E+02
     11.341  0.0000E+00  0.1379E+02
     11.723  0.0000E+00  0.1399E+02
     12.105  0.0000E+00  0.1469E+02
     12.487  0.0000E+00  0.1542E+02
     12.869  0.0000E+00  0.1586E+02
     13.250  0.0000E+00  0.1586E+02
     13.632  0.0000E+00  0.1645E+02
     14.014  0.0000E+00  0.1681E+02
     14.396  0.0000E+00  0.1708E+02
     14.778  0.2910E+00  0.1734E+02
     15.159  0.0000E+00  0.1790E+02
     15.541  0.0000E+00  0.1851E+02
     15.923  0.0000E+00  0.1883E+02
     16.305  0.2910E+00  0.1944E+02
     16.687  0.0000E+00  0.2006E+02
     17.069  0.0000E+00  0.2029E+02
     17.450  0.0000E+00  0.2073E+02
     17.832  0.0000E+00  0.2136E+02
     18.214  0.9700E-01  0.2162E+02
     18.596  0.0000E+00  0.2218E+02
     18.978  0.0000E+00  0.2273E+02
     19.359  0.0000E+00  0.2297E+02
     19.741  0.5819E+00  0.2339E+02
     20.123  0.3231E-16  0.2375E+02
     20.505  0.0000E+00  0.2460E+02
     20.887  0.4510E-14  0.2516E+02
     21.268  0.0000E+00  0.2551E+02
     21.650  0.0000E+00  0.2621E+02
     22.032  0.0000E+00  0.2655E+02
     22.414  0.0000E+00  0.2700E+02
     22.796  0.0000E+00  0.2728E+02
     23.178  0.0000E+00  0.2790E+02
     23.559  0.0000E+00  0.2818E+02
     23.941  0.0000E+00  0.2840E+02
     24.323  0.2359E+00  0.2856E+02
     24.705  0.0000E+00  0.2910E+02
     25.087  0.0000E+00  0.2981E+02
     25.468  0.0000E+00  0.3014E+02
     25.850  0.0000E+00  0.3017E+02
     26.232  0.2910E+00  0.3117E+02
     26.614  0.0000E+00  0.3136E+02
     26.996  0.0000E+00  0.3210E+02
     27.378  0.0000E+00  0.3310E+02
     27.759  0.0000E+00  0.3342E+02
     28.141  0.0000E+00  0.3392E+02
     28.523  0.0000E+00  0.3414E+02
     28.905  0.0000E+00  0.3436E+02
     29.287  0.0000E+00  0.3481E+02
     29.668  0.0000E+00  0.3531E+02
     30.050  0.0000E+00  0.3614E+02
     30.432  0.0000E+00  0.3640E+02
     30.814  0.0000E+00  0.3690E+02
     31.196  0.0000E+00  0.3744E+02
     31.577  0.0000E+00  0.3837E+02
     31.959  0.0000E+00  0.3893E+02
     32.341  0.0000E+00  0.3915E+02
     32.723  0.0000E+00  0.3984E+02
     33.105  0.0000E+00  0.4018E+02
     33.487  0.0000E+00  0.4062E+02
     33.868  0.0000E+00  0.4132E+02
     34.250  0.0000E+00  0.4156E+02
     34.632  0.0000E+00  0.4190E+02
     35.014  0.4151E+00  0.4265E+02
     35.396  0.0000E+00  0.4327E+02
     35.777  0.0000E+00  0.4434E+02
     36.159  0.0000E+00  0.4516E+02
     36.541  0.0000E+00  0.4541E+02
     36.923  0.0000E+00  0.4607E+02
     37.305  0.0000E+00  0.4663E+02
     37.686  0.0000E+00  0.4685E+02
     38.068  0.0000E+00  0.4746E+02
     38.450  0.0000E+00  0.4761E+02
     38.832  0.0000E+00  0.4823E+02
     39.214  0.0000E+00  0.4868E+02
     39.596  0.0000E+00  0.4901E+02
     39.977  0.0000E+00  0.4997E+02
     40.359  0.0000E+00  0.5079E+02
     40.741  0.0000E+00  0.5145E+02
     41.123  0.1189E-02  0.5173E+02
     41.505  0.5820E+00  0.5251E+02
     41.886  0.0000E+00  0.5346E+02
     42.268  0.0000E+00  0.5376E+02
     42.650  0.0000E+00  0.5470E+02
     43.032  0.0000E+00  0.5543E+02
     43.414  0.0000E+00  0.5587E+02
     43.795  0.0000E+00  0.5643E+02
     44.177  0.0000E+00  0.5665E+02
     44.559  0.0000E+00  0.5715E+02
     44.941  0.0000E+00  0.5761E+02
     45.323  0.0000E+00  0.5802E+02
     45.705  0.0000E+00  0.5957E+02
     46.086  0.0000E+00  0.5982E+02
     46.468  0.0000E+00  0.6049E+02
     46.850  0.0000E+00  0.6075E+02
     47.232  0.0000E+00  0.6164E+02
     47.614  0.0000E+00  0.6229E+02
     47.995  0.7275E-01  0.6294E+02
     48.377  0.0000E+00  0.6319E+02
     48.759  0.0000E+00  0.6448E+02
     49.141  0.4072E-05  0.6493E+02
     49.523  0.2870E+00  0.6567E+02
     49.904  0.0000E+00  0.6628E+02
     50.286  0.0000E+00  0.6706E+02
     50.668  0.1746E-04  0.6731E+02
     51.050  0.0000E+00  0.6861E+02
     51.432  0.0000E+00  0.6906E+02
     51.814  0.0000E+00  0.6928E+02
     52.195  0.0000E+00  0.6982E+02
     52.577  0.0000E+00  0.7056E+02
     52.959  0.0000E+00  0.7126E+02
     53.341  0.0000E+00  0.7167E+02
     53.723  0.2910E+00  0.7219E+02
     54.104  0.8607E-03  0.7247E+02
     54.486  0.0000E+00  0.7332E+02
     54.868  0.0000E+00  0.7423E+02
     55.250  0.0000E+00  0.7508E+02
     55.632  0.2910E+00  0.7607E+02
     56.013  0.0000E+00  0.7640E+02
     56.395  0.0000E+00  0.7678E+02
     56.777  0.0000E+00  0.7725E+02
     57.159  0.0000E+00  0.7775E+02
     57.541  0.0000E+00  0.7875E+02
     57.923  0.0000E+00  0.7932E+02
     58.304  0.6438E-01  0.8020E+02
     58.686  0.0000E+00  0.8131E+02
     59.068  0.0000E+00  0.8197E+02
     59.450  0.0000E+00  0.8321E+02
     59.832  0.0000E+00  0.8338E+02
     60.213  0.0000E+00  0.8339E+02
     60.595  0.0000E+00  0.8383E+02
     60.977  0.0000E+00  0.8464E+02
     61.359  0.0000E+00  0.8573E+02
     61.741  0.4575E-10  0.8656E+02
     62.123  0.0000E+00  0.8744E+02
     62.504  0.2910E+00  0.8780E+02
     62.886  0.0000E+00  0.8848E+02
     63.268  0.0000E+00  0.8913E+02
     63.650  0.0000E+00  0.9071E+02
     64.032  0.0000E+00  0.9108E+02
     64.413  0.0000E+00  0.9175E+02
     64.795  0.0000E+00  0.9232E+02
     65.177  0.0000E+00  0.9291E+02
     65.559  0.0000E+00  0.9405E+02
     65.941  0.0000E+00  0.9479E+02
     66.322  0.0000E+00  0.9540E+02
     66.704  0.0000E+00  0.9631E+02
     67.086  0.0000E+00  0.9729E+02
     67.468  0.2910E+00  0.9774E+02
     67.850  0.2910E+00  0.9838E+02
     68.232  0.0000E+00  0.9931E+02
     68.613  0.8496E-02  0.9953E+02
     68.995  0.0000E+00  0.1008E+03
     69.377  0.0000E+00  0.1015E+03
     69.759  0.0000E+00  0.1023E+03
     70.141  0.4986E+00  0.1031E+03
     70.522  0.0000E+00  0.1038E+03
     70.904  0.0000E+00  0.1050E+03
     71.286  0.0000E+00  0.1057E+03
     71.668  0.0000E+00  0.1058E+03
     72.050  0.0000E+00  0.1065E+03
     72.431  0.0000E+00  0.1074E+03
     72.813  0.0000E+00  0.1077E+03
     73.195  0.0000E+00  0.1085E+03
     73.577  0.1453E+00  0.1091E+03
     73.959  0.0000E+00  0.1099E+03
     74.341  0.0000E+00  0.1106E+03
     74.722  0.0000E+00  0.1110E+03
     75.104  0.0000E+00  0.1119E+03
     75.486  0.0000E+00  0.1131E+03
     75.868  0.0000E+00  0.1138E+03
     76.250  0.5794E+00  0.1147E+03
     76.631  0.4039E-17  0.1161E+03
     77.013  0.0000E+00  0.1171E+03
     77.395  0.0000E+00  0.1177E+03
     77.777  0.0000E+00  0.1186E+03
     78.159  0.5820E+00  0.1198E+03
     78.540  0.0000E+00  0.1201E+03
     78.922  0.4807E-01  0.1210E+03
     79.304  0.0000E+00  0.1215E+03
     79.686  0.0000E+00  0.1222E+03
     80.068  0.0000E+00  0.1230E+03
     80.450  0.0000E+00  0.1237E+03
     80.831  0.0000E+00  0.1240E+03
     81.213  0.0000E+00  0.1249E+03
     81.595  0.0000E+00  0.1258E+03
     81.977  0.0000E+00  0.1266E+03
     82.359  0.0000E+00  0.1272E+03
     82.740  0.0000E+00  0.1272E+03
     83.122  0.0000E+00  0.1273E+03
     83.504  0.0000E+00  0.1275E+03
     83.886  0.0000E+00  0.1278E+03
     84.268  0.0000E+00  0.1279E+03
     84.649  0.0000E+00  0.1279E+03
     85.031  0.0000E+00  0.1280E+03
     85.413  0.0000E+00  0.1280E+03
     85.795  0.0000E+00  0.1280E+03
     86.177  0.0000E+00  0.1280E+03
     86.559  0.0000E+00  0.1280E+03
     86.940  0.0000E+00  0.1280E+03
     87.322  0.0000E+00  0.1280E+03
     87.704  0.0000E+00  0.1280E+03
     88.086  0.0000E+00  0.1280E+03
     88.468  0.0000E+00  0.1280E+03
     88.849  0.0000E+00  0.1280E+03
     89.231  0.0000E+00  0.1280E+03
     89.613  0.0000E+00  0.1280E+03
     89.995  0.0000E+00  0.1280E+03
