   1   1   0   0
  0.1860393E+02  0.2974221E-09  0.2974221E-09  0.2974221E-09  0.1000000E-15
  1.000000000000000E-004
  CAR 
 Og_FCC                                  
    134.50618260    -43.18319441  301    -10.31065966      1.00000000
    -43.183  0.0000E+00  0.0000E+00
    -42.591  0.0000E+00  0.0000E+00
    -41.999  0.0000E+00  0.0000E+00
    -41.406  0.0000E+00  0.0000E+00
    -40.814  0.0000E+00  0.0000E+00
    -40.222  0.0000E+00  0.0000E+00
    -39.629  0.0000E+00  0.0000E+00
    -39.037  0.0000E+00  0.0000E+00
    -38.445  0.0000E+00  0.0000E+00
    -37.853  0.0000E+00  0.0000E+00
    -37.260  0.0000E+00  0.0000E+00
    -36.668  0.0000E+00  0.0000E+00
    -36.076  0.0000E+00  0.0000E+00
    -35.483  0.0000E+00  0.0000E+00
    -34.891  0.0000E+00  0.2000E+01
    -34.299  0.0000E+00  0.2000E+01
    -33.706  0.0000E+00  0.2000E+01
    -33.114  0.0000E+00  0.2000E+01
    -32.522  0.0000E+00  0.2000E+01
    -31.930  0.0000E+00  0.2000E+01
    -31.337  0.0000E+00  0.2000E+01
    -30.745  0.0000E+00  0.2000E+01
    -30.153  0.0000E+00  0.2000E+01
    -29.560  0.0000E+00  0.2000E+01
    -28.968  0.0000E+00  0.2000E+01
    -28.376  0.0000E+00  0.2000E+01
    -27.783  0.0000E+00  0.2000E+01
    -27.191  0.0000E+00  0.2000E+01
    -26.599  0.0000E+00  0.2000E+01
    -26.007  0.0000E+00  0.2000E+01
    -25.414  0.0000E+00  0.2000E+01
    -24.822  0.0000E+00  0.2000E+01
    -24.230  0.0000E+00  0.2000E+01
    -23.637  0.0000E+00  0.2000E+01
    -23.045  0.0000E+00  0.2000E+01
    -22.453  0.0000E+00  0.2000E+01
    -21.860  0.0000E+00  0.2000E+01
    -21.268  0.0000E+00  0.2000E+01
    -20.676  0.0000E+00  0.2000E+01
    -20.084  0.0000E+00  0.2000E+01
    -19.491  0.0000E+00  0.2000E+01
    -18.899  0.0000E+00  0.2000E+01
    -18.307  0.0000E+00  0.2000E+01
    -17.714  0.0000E+00  0.2000E+01
    -17.122  0.0000E+00  0.2000E+01
    -16.530  0.0000E+00  0.2000E+01
    -15.937  0.0000E+00  0.2000E+01
    -15.345  0.0000E+00  0.2000E+01
    -14.753  0.0000E+00  0.2000E+01
    -14.161  0.0000E+00  0.2000E+01
    -13.568  0.0000E+00  0.2000E+01
    -12.976  0.0000E+00  0.2000E+01
    -12.384  0.0000E+00  0.2000E+01
    -11.791  0.0000E+00  0.2037E+01
    -11.199  0.3752E+00  0.4083E+01
    -10.607  0.0000E+00  0.7685E+01
    -10.015  0.0000E+00  0.8000E+01
     -9.422  0.0000E+00  0.8000E+01
     -8.830  0.0000E+00  0.8000E+01
     -8.238  0.0000E+00  0.8000E+01
     -7.645  0.0000E+00  0.8000E+01
     -7.053  0.0000E+00  0.8000E+01
     -6.461  0.0000E+00  0.8000E+01
     -5.868  0.0000E+00  0.8000E+01
     -5.276  0.0000E+00  0.8000E+01
     -4.684  0.0000E+00  0.8000E+01
     -4.092  0.0000E+00  0.8000E+01
     -3.499  0.0000E+00  0.8000E+01
     -2.907  0.0000E+00  0.8000E+01
     -2.315  0.0000E+00  0.8000E+01
     -1.722  0.0000E+00  0.8000E+01
     -1.130  0.0000E+00  0.8000E+01
     -0.538  0.0000E+00  0.8000E+01
      0.055  0.0000E+00  0.8000E+01
      0.647  0.0000E+00  0.8000E+01
      1.239  0.0000E+00  0.8009E+01
      1.831  0.0000E+00  0.8009E+01
      2.424  0.0000E+00  0.8083E+01
      3.016  0.0000E+00  0.8139E+01
      3.608  0.0000E+00  0.8250E+01
      4.201  0.0000E+00  0.8250E+01
      4.793  0.0000E+00  0.8546E+01
      5.385  0.0000E+00  0.8602E+01
      5.978  0.0000E+00  0.8602E+01
      6.570  0.0000E+00  0.9046E+01
      7.162  0.0000E+00  0.9269E+01
      7.754  0.0000E+00  0.9528E+01
      8.347  0.0000E+00  0.9565E+01
      8.939  0.0000E+00  0.9926E+01
      9.531  0.0000E+00  0.1004E+02
     10.124  0.0000E+00  0.1051E+02
     10.716  0.0000E+00  0.1062E+02
     11.308  0.0000E+00  0.1095E+02
     11.901  0.0000E+00  0.1136E+02
     12.493  0.0000E+00  0.1147E+02
     13.085  0.0000E+00  0.1214E+02
     13.677  0.0000E+00  0.1261E+02
     14.270  0.0000E+00  0.1267E+02
     14.862  0.0000E+00  0.1283E+02
     15.454  0.0000E+00  0.1306E+02
     16.047  0.0000E+00  0.1339E+02
     16.639  0.0000E+00  0.1357E+02
     17.231  0.0000E+00  0.1407E+02
     17.823  0.0000E+00  0.1430E+02
     18.416  0.0000E+00  0.1457E+02
     19.008  0.0000E+00  0.1524E+02
     19.600  0.0000E+00  0.1554E+02
     20.193  0.0000E+00  0.1607E+02
     20.785  0.0000E+00  0.1633E+02
     21.377  0.0000E+00  0.1658E+02
     21.970  0.0000E+00  0.1714E+02
     22.562  0.0000E+00  0.1736E+02
     23.154  0.0000E+00  0.1748E+02
     23.746  0.0000E+00  0.1781E+02
     24.339  0.0000E+00  0.1803E+02
     24.931  0.0000E+00  0.1851E+02
     25.523  0.0000E+00  0.1901E+02
     26.116  0.0000E+00  0.1923E+02
     26.708  0.0000E+00  0.1981E+02
     27.300  0.0000E+00  0.2059E+02
     27.893  0.1864E-11  0.2065E+02
     28.485  0.0000E+00  0.2133E+02
     29.077  0.0000E+00  0.2189E+02
     29.669  0.0000E+00  0.2208E+02
     30.262  0.0000E+00  0.2234E+02
     30.854  0.0000E+00  0.2290E+02
     31.446  0.1187E-13  0.2345E+02
     32.039  0.1876E+00  0.2466E+02
     32.631  0.0000E+00  0.2527E+02
     33.223  0.0000E+00  0.2545E+02
     33.816  0.0000E+00  0.2642E+02
     34.408  0.0000E+00  0.2722E+02
     35.000  0.0000E+00  0.2756E+02
     35.592  0.0000E+00  0.2756E+02
     36.185  0.0000E+00  0.2844E+02
     36.777  0.0000E+00  0.2884E+02
     37.369  0.0000E+00  0.2912E+02
     37.962  0.0000E+00  0.2934E+02
     38.554  0.0000E+00  0.2982E+02
     39.146  0.0000E+00  0.2985E+02
     39.739  0.0000E+00  0.3019E+02
     40.331  0.0000E+00  0.3026E+02
     40.923  0.0000E+00  0.3109E+02
     41.515  0.0000E+00  0.3216E+02
     42.108  0.0000E+00  0.3289E+02
     42.700  0.0000E+00  0.3344E+02
     43.292  0.0000E+00  0.3389E+02
     43.885  0.0000E+00  0.3441E+02
     44.477  0.0000E+00  0.3463E+02
     45.069  0.0000E+00  0.3485E+02
     45.661  0.0000E+00  0.3563E+02
     46.254  0.0000E+00  0.3628E+02
     46.846  0.0000E+00  0.3654E+02
     47.438  0.3456E+00  0.3733E+02
     48.031  0.0000E+00  0.3798E+02
     48.623  0.0000E+00  0.3854E+02
     49.215  0.0000E+00  0.3898E+02
     49.808  0.0000E+00  0.3954E+02
     50.400  0.0000E+00  0.4004E+02
     50.992  0.0000E+00  0.4086E+02
     51.584  0.0000E+00  0.4108E+02
     52.177  0.3348E-04  0.4136E+02
     52.769  0.0000E+00  0.4264E+02
     53.361  0.1873E+00  0.4358E+02
     53.954  0.0000E+00  0.4384E+02
     54.546  0.0000E+00  0.4436E+02
     55.138  0.0000E+00  0.4440E+02
     55.731  0.0000E+00  0.4540E+02
     56.323  0.0000E+00  0.4584E+02
     56.915  0.0000E+00  0.4592E+02
     57.507  0.0000E+00  0.4692E+02
     58.100  0.1876E+00  0.4713E+02
     58.692  0.0000E+00  0.4802E+02
     59.284  0.0000E+00  0.4881E+02
     59.877  0.0000E+00  0.4936E+02
     60.469  0.0000E+00  0.5008E+02
     61.061  0.0000E+00  0.5112E+02
     61.654  0.0000E+00  0.5154E+02
     62.246  0.3752E+00  0.5254E+02
     62.838  0.0000E+00  0.5295E+02
     63.430  0.0000E+00  0.5355E+02
     64.023  0.0000E+00  0.5376E+02
     64.615  0.0000E+00  0.5498E+02
     65.207  0.0000E+00  0.5550E+02
     65.800  0.0000E+00  0.5630E+02
     66.392  0.0000E+00  0.5719E+02
     66.984  0.0000E+00  0.5757E+02
     67.577  0.3752E+00  0.5869E+02
     68.169  0.0000E+00  0.5898E+02
     68.761  0.0000E+00  0.5969E+02
     69.353  0.0000E+00  0.6016E+02
     69.946  0.0000E+00  0.6068E+02
     70.538  0.0000E+00  0.6171E+02
     71.130  0.0000E+00  0.6219E+02
     71.723  0.0000E+00  0.6286E+02
     72.315  0.0000E+00  0.6322E+02
     72.907  0.0000E+00  0.6389E+02
     73.499  0.0000E+00  0.6465E+02
     74.092  0.0000E+00  0.6544E+02
     74.684  0.0000E+00  0.6631E+02
     75.276  0.0000E+00  0.6703E+02
     75.869  0.0000E+00  0.6773E+02
     76.461  0.0000E+00  0.6834E+02
     77.053  0.0000E+00  0.6864E+02
     77.646  0.8909E-01  0.6880E+02
     78.238  0.3588E+00  0.6999E+02
     78.830  0.0000E+00  0.7075E+02
     79.422  0.0000E+00  0.7124E+02
     80.015  0.0000E+00  0.7181E+02
     80.607  0.0000E+00  0.7220E+02
     81.199  0.0000E+00  0.7263E+02
     81.792  0.0000E+00  0.7307E+02
     82.384  0.0000E+00  0.7402E+02
     82.976  0.0000E+00  0.7533E+02
     83.569  0.0000E+00  0.7625E+02
     84.161  0.0000E+00  0.7690E+02
     84.753  0.0000E+00  0.7832E+02
     85.345  0.1876E+00  0.7906E+02
     85.938  0.0000E+00  0.7975E+02
     86.530  0.3752E+00  0.8068E+02
     87.122  0.0000E+00  0.8122E+02
     87.715  0.0000E+00  0.8189E+02
     88.307  0.0000E+00  0.8290E+02
     88.899  0.0000E+00  0.8318E+02
     89.492  0.0000E+00  0.8347E+02
     90.084  0.1518E-02  0.8370E+02
     90.676  0.1680E+00  0.8451E+02
     91.268  0.0000E+00  0.8481E+02
     91.861  0.0000E+00  0.8626E+02
     92.453  0.0000E+00  0.8709E+02
     93.045  0.0000E+00  0.8769E+02
     93.638  0.1461E+00  0.8866E+02
     94.230  0.0000E+00  0.8972E+02
     94.822  0.0000E+00  0.8994E+02
     95.415  0.0000E+00  0.9050E+02
     96.007  0.0000E+00  0.9178E+02
     96.599  0.0000E+00  0.9248E+02
     97.191  0.0000E+00  0.9343E+02
     97.784  0.0000E+00  0.9481E+02
     98.376  0.0000E+00  0.9514E+02
     98.968  0.0000E+00  0.9603E+02
     99.561  0.0000E+00  0.9725E+02
    100.153  0.0000E+00  0.9781E+02
    100.745  0.0000E+00  0.9864E+02
    101.337  0.0000E+00  0.9908E+02
    101.930  0.0000E+00  0.9986E+02
    102.522  0.0000E+00  0.1009E+03
    103.114  0.4287E-07  0.1017E+03
    103.707  0.0000E+00  0.1025E+03
    104.299  0.0000E+00  0.1032E+03
    104.891  0.0000E+00  0.1041E+03
    105.484  0.0000E+00  0.1043E+03
    106.076  0.0000E+00  0.1047E+03
    106.668  0.0000E+00  0.1056E+03
    107.260  0.0000E+00  0.1063E+03
    107.853  0.0000E+00  0.1071E+03
    108.445  0.0000E+00  0.1077E+03
    109.037  0.0000E+00  0.1087E+03
    109.630  0.0000E+00  0.1096E+03
    110.222  0.0000E+00  0.1107E+03
    110.814  0.0000E+00  0.1121E+03
    111.407  0.0000E+00  0.1128E+03
    111.999  0.0000E+00  0.1139E+03
    112.591  0.0000E+00  0.1151E+03
    113.183  0.0000E+00  0.1157E+03
    113.776  0.0000E+00  0.1167E+03
    114.368  0.1251E+00  0.1176E+03
    114.960  0.0000E+00  0.1182E+03
    115.553  0.7808E-02  0.1191E+03
    116.145  0.0000E+00  0.1197E+03
    116.737  0.0000E+00  0.1201E+03
    117.330  0.0000E+00  0.1209E+03
    117.922  0.0000E+00  0.1212E+03
    118.514  0.0000E+00  0.1218E+03
    119.106  0.0000E+00  0.1226E+03
    119.699  0.0000E+00  0.1235E+03
    120.291  0.0000E+00  0.1245E+03
    120.883  0.0000E+00  0.1254E+03
    121.476  0.0000E+00  0.1262E+03
    122.068  0.0000E+00  0.1270E+03
    122.660  0.3752E+00  0.1277E+03
    123.253  0.0000E+00  0.1277E+03
    123.845  0.0000E+00  0.1277E+03
    124.437  0.0000E+00  0.1279E+03
    125.029  0.0000E+00  0.1279E+03
    125.622  0.0000E+00  0.1279E+03
    126.214  0.0000E+00  0.1279E+03
    126.806  0.0000E+00  0.1280E+03
    127.399  0.0000E+00  0.1280E+03
    127.991  0.0000E+00  0.1280E+03
    128.583  0.0000E+00  0.1280E+03
    129.176  0.0000E+00  0.1280E+03
    129.768  0.0000E+00  0.1280E+03
    130.360  0.0000E+00  0.1280E+03
    130.952  0.0000E+00  0.1280E+03
    131.545  0.0000E+00  0.1280E+03
    132.137  0.0000E+00  0.1280E+03
    132.729  0.0000E+00  0.1280E+03
    133.322  0.0000E+00  0.1280E+03
    133.914  0.0000E+00  0.1280E+03
    134.506  0.0000E+00  0.1280E+03
