    1    1    1    1
  0.1860393E+02  0.2974221E-09  0.2974221E-09  0.2974221E-09  0.1000000E-15
  1.000000000000000E-004
  CAR 
 Og_FCC                                  
      8    216    128
 
  0.0000000E+00  0.0000000E+00  0.0000000E+00  0.4629630E-02
    1      -35.106405   1.000000
    2      -35.106405   1.000000
    3      -10.807339   1.000000
    4      -10.807339   1.000000
    5      -10.708571   1.000000
    6      -10.708571   1.000000
    7      -10.708570   1.000000
    8      -10.708570   1.000000
    9        1.200596   0.000000
   10        1.200596   0.000000
   11       20.889094   0.000000
   12       20.889094   0.000000
   13       20.889105   0.000000
   14       20.889105   0.000000
   15       20.889341   0.000000
   16       20.889341   0.000000
   17       23.107930   0.000000
   18       23.107930   0.000000
   19       26.194291   0.000000
   20       26.194291   0.000000
   21       26.205509   0.000000
   22       26.205509   0.000000
   23       26.205515   0.000000
   24       26.205515   0.000000
   25       27.897109   0.000000
   26       27.897109   0.000000
   27       27.897111   0.000000
   28       27.897111   0.000000
   29       29.120614   0.000000
   30       29.120614   0.000000
   31       36.091869   0.000000
   32       36.091869   0.000000
   33       36.126323   0.000000
   34       36.126323   0.000000
   35       36.126338   0.000000
   36       36.126338   0.000000
   37       50.967640   0.000000
   38       50.967640   0.000000
   39       58.980354   0.000000
   40       58.980354   0.000000
   41       58.980362   0.000000
   42       58.980362   0.000000
   43       58.981950   0.000000
   44       58.981950   0.000000
   45       61.219776   0.000000
   46       61.219776   0.000000
   47       61.219780   0.000000
   48       61.219780   0.000000
   49       62.423936   0.000000
   50       62.423936   0.000000
   51       62.423949   0.000000
   52       62.423949   0.000000
   53       62.423955   0.000000
   54       62.423955   0.000000
   55       70.695838   0.000000
   56       70.695838   0.000000
   57       70.714283   0.000000
   58       70.714283   0.000000
   59       70.714305   0.000000
   60       70.714305   0.000000
   61       78.955402   0.000000
   62       78.955402   0.000000
   63       79.939697   0.000000
   64       79.939697   0.000000
   65       79.939703   0.000000
   66       79.939703   0.000000
   67       83.224320   0.000000
   68       83.224320   0.000000
   69       83.224342   0.000000
   70       83.224342   0.000000
   71       83.226322   0.000000
   72       83.226322   0.000000
   73       86.764544   0.000000
   74       86.764544   0.000000
   75       86.764750   0.000000
   76       86.764750   0.000000
   77       86.764764   0.000000
   78       86.764764   0.000000
   79       87.970328   0.000000
   80       87.970328   0.000000
   81       88.325161   0.000000
   82       88.325161   0.000000
   83       88.325197   0.000000
   84       88.325197   0.000000
   85       88.325205   0.000000
   86       88.325205   0.000000
   87       88.341403   0.000000
   88       88.341403   0.000000
   89       88.341411   0.000000
   90       88.341411   0.000000
   91       88.341414   0.000000
   92       88.341414   0.000000
   93       90.238089   0.000000
   94       90.238089   0.000000
   95       90.238092   0.000000
   96       90.238092   0.000000
   97       90.238137   0.000000
   98       90.238137   0.000000
   99       90.578532   0.000000
  100       90.578532   0.000000
  101       90.578534   0.000000
  102       90.578534   0.000000
  103       96.043360   0.000000
  104       96.043360   0.000000
  105       96.047464   0.000000
  106       96.047464   0.000000
  107       96.047481   0.000000
  108       96.047481   0.000000
  109       96.830264   0.000000
  110       96.830264   0.000000
  111       96.830283   0.000000
  112       96.830283   0.000000
  113       96.830527   0.000000
  114       96.830527   0.000000
  115       97.101524   0.000000
  116       97.101524   0.000000
  117       97.299321   0.000000
  118       97.299321   0.000000
  119      110.051276   0.000000
  120      110.051276   0.000000
  121      110.112253   0.000000
  122      110.112253   0.000000
  123      110.112268   0.000000
  124      110.112268   0.000000
  125      126.260284   0.000000
  126      126.260284   0.000000
  127      126.260288   0.000000
  128      126.260288   0.000000
 
  0.1666667E+00  0.0000000E+00  0.6938894E-17  0.4629630E-02
    1      -35.055682   1.000000
    2      -35.055682   1.000000
    3      -10.888361   1.000000
    4      -10.888361   1.000000
    5      -10.417112   1.000000
    6      -10.417112   1.000000
    7      -10.358785   1.000000
    8      -10.358785   1.000000
    9        2.142847   0.000000
   10        2.142847   0.000000
   11       16.514143   0.000000
   12       16.514143   0.000000
   13       20.721832   0.000000
   14       20.721832   0.000000
   15       20.723235   0.000000
   16       20.723235   0.000000
   17       23.332781   0.000000
   18       23.332781   0.000000
   19       24.889905   0.000000
   20       24.889905   0.000000
   21       24.890045   0.000000
   22       24.890045   0.000000
   23       28.045630   0.000000
   24       28.045630   0.000000
   25       30.040459   0.000000
   26       30.040459   0.000000
   27       30.054140   0.000000
   28       30.054140   0.000000
   29       32.724454   0.000000
   30       32.724454   0.000000
   31       36.193982   0.000000
   32       36.193982   0.000000
   33       37.990840   0.000000
   34       37.990840   0.000000
   35       38.003072   0.000000
   36       38.003072   0.000000
   37       52.223472   0.000000
   38       52.223472   0.000000
   39       52.226087   0.000000
   40       52.226087   0.000000
   41       52.282058   0.000000
   42       52.282058   0.000000
   43       57.953644   0.000000
   44       57.953644   0.000000
   45       60.739044   0.000000
   46       60.739044   0.000000
   47       60.740706   0.000000
   48       60.740706   0.000000
   49       63.100904   0.000000
   50       63.100904   0.000000
   51       68.152964   0.000000
   52       68.152964   0.000000
   53       68.493646   0.000000
   54       68.493646   0.000000
   55       68.499735   0.000000
   56       68.499735   0.000000
   57       71.633873   0.000000
   58       71.633873   0.000000
   59       71.635113   0.000000
   60       71.635113   0.000000
   61       75.792850   0.000000
   62       75.792850   0.000000
   63       75.794772   0.000000
   64       75.794772   0.000000
   65       76.558282   0.000000
   66       76.558282   0.000000
   67       78.988899   0.000000
   68       78.988899   0.000000
   69       78.989703   0.000000
   70       78.989703   0.000000
   71       80.616808   0.000000
   72       80.616808   0.000000
   73       80.992066   0.000000
   74       80.992066   0.000000
   75       82.456780   0.000000
   76       82.456780   0.000000
   77       82.461279   0.000000
   78       82.461279   0.000000
   79       83.737150   0.000000
   80       83.737150   0.000000
   81       85.312944   0.000000
   82       85.312944   0.000000
   83       85.313582   0.000000
   84       85.313582   0.000000
   85       85.897342   0.000000
   86       85.897342   0.000000
   87       89.304534   0.000000
   88       89.304534   0.000000
   89       91.517221   0.000000
   90       91.517221   0.000000
   91       91.517741   0.000000
   92       91.517741   0.000000
   93       93.636734   0.000000
   94       93.636734   0.000000
   95       93.638066   0.000000
   96       93.638066   0.000000
   97       94.111571   0.000000
   98       94.111571   0.000000
   99       96.516246   0.000000
  100       96.516246   0.000000
  101       96.516441   0.000000
  102       96.516441   0.000000
  103       97.512896   0.000000
  104       97.512896   0.000000
  105       98.730732   0.000000
  106       98.730732   0.000000
  107      102.768779   0.000000
  108      102.768779   0.000000
  109      102.771905   0.000000
  110      102.771905   0.000000
  111      103.271314   0.000000
  112      103.271314   0.000000
  113      103.271942   0.000000
  114      103.271942   0.000000
  115      103.408464   0.000000
  116      103.408464   0.000000
  117      107.549834   0.000000
  118      107.549834   0.000000
  119      108.427242   0.000000
  120      108.427242   0.000000
  121      108.451495   0.000000
  122      108.451495   0.000000
  123      114.416925   0.000000
  124      114.416925   0.000000
  125      121.168649   0.000000
  126      121.168649   0.000000
  127      121.694957   0.000000
  128      121.694957   0.000000
 
  0.3333333E+00 -0.2775558E-16  0.0000000E+00  0.4629630E-02
    1      -35.013985   1.000000
    2      -35.013985   1.000000
    3      -11.475931   1.000000
    4      -11.475931   1.000000
    5      -10.828221   1.000000
    6      -10.828221   1.000000
    7      -10.766289   1.000000
    8      -10.766289   1.000000
    9        4.491459   0.000000
   10        4.491459   0.000000
   11       11.735097   0.000000
   12       11.735097   0.000000
   13       19.838870   0.000000
   14       19.838870   0.000000
   15       19.839528   0.000000
   16       19.839528   0.000000
   17       21.937806   0.000000
   18       21.937806   0.000000
   19       24.967430   0.000000
   20       24.967430   0.000000
   21       24.975812   0.000000
   22       24.975812   0.000000
   23       29.105416   0.000000
   24       29.105416   0.000000
   25       31.955814   0.000000
   26       31.955814   0.000000
   27       31.968693   0.000000
   28       31.968693   0.000000
   29       36.123325   0.000000
   30       36.123325   0.000000
   31       41.674737   0.000000
   32       41.674737   0.000000
   33       41.675106   0.000000
   34       41.675106   0.000000
   35       43.592248   0.000000
   36       43.592248   0.000000
   37       46.578496   0.000000
   38       46.578496   0.000000
   39       46.587492   0.000000
   40       46.587492   0.000000
   41       50.945439   0.000000
   42       50.945439   0.000000
   43       56.472394   0.000000
   44       56.472394   0.000000
   45       61.180993   0.000000
   46       61.180993   0.000000
   47       61.181692   0.000000
   48       61.181692   0.000000
   49       62.845712   0.000000
   50       62.845712   0.000000
   51       62.846547   0.000000
   52       62.846547   0.000000
   53       65.030668   0.000000
   54       65.030668   0.000000
   55       65.432651   0.000000
   56       65.432651   0.000000
   57       67.192710   0.000000
   58       67.192710   0.000000
   59       70.179353   0.000000
   60       70.179353   0.000000
   61       70.183035   0.000000
   62       70.183035   0.000000
   63       73.382493   0.000000
   64       73.382493   0.000000
   65       73.382977   0.000000
   66       73.382977   0.000000
   67       73.653273   0.000000
   68       73.653273   0.000000
   69       74.449014   0.000000
   70       74.449014   0.000000
   71       78.373147   0.000000
   72       78.373147   0.000000
   73       78.383784   0.000000
   74       78.383784   0.000000
   75       84.418420   0.000000
   76       84.418420   0.000000
   77       84.457575   0.000000
   78       84.457575   0.000000
   79       84.458065   0.000000
   80       84.458065   0.000000
   81       86.262990   0.000000
   82       86.262990   0.000000
   83       86.263401   0.000000
   84       86.263401   0.000000
   85       86.792383   0.000000
   86       86.792383   0.000000
   87       91.125178   0.000000
   88       91.125178   0.000000
   89       92.788748   0.000000
   90       92.788748   0.000000
   91       92.793707   0.000000
   92       92.793707   0.000000
   93       97.217926   0.000000
   94       97.217926   0.000000
   95       98.816108   0.000000
   96       98.816108   0.000000
   97       98.825957   0.000000
   98       98.825957   0.000000
   99      104.405277   0.000000
  100      104.405277   0.000000
  101      104.409469   0.000000
  102      104.409469   0.000000
  103      104.991839   0.000000
  104      104.991839   0.000000
  105      106.569654   0.000000
  106      106.569654   0.000000
  107      106.569974   0.000000
  108      106.569974   0.000000
  109      108.108751   0.000000
  110      108.108751   0.000000
  111      110.780281   0.000000
  112      110.780281   0.000000
  113      111.457038   0.000000
  114      111.457038   0.000000
  115      111.916962   0.000000
  116      111.916962   0.000000
  117      111.917122   0.000000
  118      111.917122   0.000000
  119      113.360450   0.000000
  120      113.360450   0.000000
  121      113.364628   0.000000
  122      113.364628   0.000000
  123      114.360956   0.000000
  124      114.360956   0.000000
  125      118.749120   0.000000
  126      118.749120   0.000000
  127      118.750442   0.000000
  128      118.750442   0.000000
 
  0.5000000E+00  0.0000000E+00 -0.2775558E-16  0.4629630E-02
    1      -34.992252   1.000000
    2      -34.992252   1.000000
    3      -11.928396   1.000000
    4      -11.928396   1.000000
    5      -10.915689   1.000000
    6      -10.915689   1.000000
    7      -10.852431   1.000000
    8      -10.852431   1.000000
    9        7.595157   0.000000
   10        7.595157   0.000000
   11        7.795598   0.000000
   12        7.795598   0.000000
   13       19.352116   0.000000
   14       19.352116   0.000000
   15       19.352336   0.000000
   16       19.352336   0.000000
   17       21.646008   0.000000
   18       21.646008   0.000000
   19       25.303347   0.000000
   20       25.303347   0.000000
   21       25.319564   0.000000
   22       25.319564   0.000000
   23       28.009135   0.000000
   24       28.009135   0.000000
   25       33.469684   0.000000
   26       33.469684   0.000000
   27       33.469889   0.000000
   28       33.469889   0.000000
   29       40.230686   0.000000
   30       40.230686   0.000000
   31       40.242702   0.000000
   32       40.242702   0.000000
   33       41.022844   0.000000
   34       41.022844   0.000000
   35       45.720192   0.000000
   36       45.720192   0.000000
   37       50.421808   0.000000
   38       50.421808   0.000000
   39       50.421844   0.000000
   40       50.421844   0.000000
   41       53.497125   0.000000
   42       53.497125   0.000000
   43       54.341450   0.000000
   44       54.341450   0.000000
   45       54.345555   0.000000
   46       54.345555   0.000000
   47       54.601398   0.000000
   48       54.601398   0.000000
   49       58.892088   0.000000
   50       58.892088   0.000000
   51       63.085384   0.000000
   52       63.085384   0.000000
   53       63.638760   0.000000
   54       63.638760   0.000000
   55       63.641064   0.000000
   56       63.641064   0.000000
   57       67.029993   0.000000
   58       67.029993   0.000000
   59       69.411257   0.000000
   60       69.411257   0.000000
   61       69.411648   0.000000
   62       69.411648   0.000000
   63       70.784009   0.000000
   64       70.784009   0.000000
   65       70.784030   0.000000
   66       70.784030   0.000000
   67       71.038094   0.000000
   68       71.038094   0.000000
   69       74.199175   0.000000
   70       74.199175   0.000000
   71       78.542529   0.000000
   72       78.542529   0.000000
   73       78.557598   0.000000
   74       78.557598   0.000000
   75       83.977347   0.000000
   76       83.977347   0.000000
   77       83.978489   0.000000
   78       83.978489   0.000000
   79       84.719048   0.000000
   80       84.719048   0.000000
   81       85.224109   0.000000
   82       85.224109   0.000000
   83       91.693978   0.000000
   84       91.693978   0.000000
   85       91.706050   0.000000
   86       91.706050   0.000000
   87       93.750104   0.000000
   88       93.750104   0.000000
   89       96.810347   0.000000
   90       96.810347   0.000000
   91       96.812504   0.000000
   92       96.812504   0.000000
   93      101.477442   0.000000
   94      101.477442   0.000000
   95      101.478521   0.000000
   96      101.478521   0.000000
   97      101.638736   0.000000
   98      101.638736   0.000000
   99      102.147168   0.000000
  100      102.147168   0.000000
  101      102.147223   0.000000
  102      102.147223   0.000000
  103      102.419517   0.000000
  104      102.419517   0.000000
  105      108.800940   0.000000
  106      108.800940   0.000000
  107      108.810524   0.000000
  108      108.810524   0.000000
  109      110.588354   0.000000
  110      110.588354   0.000000
  111      112.957190   0.000000
  112      112.957190   0.000000
  113      112.957410   0.000000
  114      112.957410   0.000000
  115      115.220488   0.000000
  116      115.220488   0.000000
  117      117.837415   0.000000
  118      117.837415   0.000000
  119      117.838410   0.000000
  120      117.838410   0.000000
  121      118.665100   0.000000
  122      118.665100   0.000000
  123      118.665414   0.000000
  124      118.665414   0.000000
  125      119.922208   0.000000
  126      119.922208   0.000000
  127      120.328789   0.000000
  128      120.328789   0.000000
 
 -0.3333333E+00  0.2775558E-16  0.0000000E+00  0.4629630E-02
    1      -35.013985   1.000000
    2      -35.013985   1.000000
    3      -11.475931   1.000000
    4      -11.475931   1.000000
    5      -10.828221   1.000000
    6      -10.828221   1.000000
    7      -10.766289   1.000000
    8      -10.766289   1.000000
    9        4.491459   0.000000
   10        4.491459   0.000000
   11       11.735097   0.000000
   12       11.735097   0.000000
   13       19.838870   0.000000
   14       19.838870   0.000000
   15       19.839528   0.000000
   16       19.839528   0.000000
   17       21.937806   0.000000
   18       21.937806   0.000000
   19       24.967430   0.000000
   20       24.967430   0.000000
   21       24.975812   0.000000
   22       24.975812   0.000000
   23       29.105416   0.000000
   24       29.105416   0.000000
   25       31.955814   0.000000
   26       31.955814   0.000000
   27       31.968693   0.000000
   28       31.968693   0.000000
   29       36.123325   0.000000
   30       36.123325   0.000000
   31       41.674737   0.000000
   32       41.674737   0.000000
   33       41.675106   0.000000
   34       41.675106   0.000000
   35       43.592248   0.000000
   36       43.592248   0.000000
   37       46.578496   0.000000
   38       46.578496   0.000000
   39       46.587492   0.000000
   40       46.587492   0.000000
   41       50.945439   0.000000
   42       50.945439   0.000000
   43       56.472394   0.000000
   44       56.472394   0.000000
   45       61.180993   0.000000
   46       61.180993   0.000000
   47       61.181692   0.000000
   48       61.181692   0.000000
   49       62.845712   0.000000
   50       62.845712   0.000000
   51       62.846547   0.000000
   52       62.846547   0.000000
   53       65.030668   0.000000
   54       65.030668   0.000000
   55       65.432651   0.000000
   56       65.432651   0.000000
   57       67.192710   0.000000
   58       67.192710   0.000000
   59       70.179353   0.000000
   60       70.179353   0.000000
   61       70.183035   0.000000
   62       70.183035   0.000000
   63       73.382493   0.000000
   64       73.382493   0.000000
   65       73.382977   0.000000
   66       73.382977   0.000000
   67       73.653273   0.000000
   68       73.653273   0.000000
   69       74.449014   0.000000
   70       74.449014   0.000000
   71       78.373147   0.000000
   72       78.373147   0.000000
   73       78.383784   0.000000
   74       78.383784   0.000000
   75       84.418420   0.000000
   76       84.418420   0.000000
   77       84.457575   0.000000
   78       84.457575   0.000000
   79       84.458065   0.000000
   80       84.458065   0.000000
   81       86.262990   0.000000
   82       86.262990   0.000000
   83       86.263401   0.000000
   84       86.263401   0.000000
   85       86.792383   0.000000
   86       86.792383   0.000000
   87       91.125178   0.000000
   88       91.125178   0.000000
   89       92.788748   0.000000
   90       92.788748   0.000000
   91       92.793707   0.000000
   92       92.793707   0.000000
   93       97.217926   0.000000
   94       97.217926   0.000000
   95       98.816108   0.000000
   96       98.816108   0.000000
   97       98.825957   0.000000
   98       98.825957   0.000000
   99      104.405277   0.000000
  100      104.405277   0.000000
  101      104.409469   0.000000
  102      104.409469   0.000000
  103      104.991839   0.000000
  104      104.991839   0.000000
  105      106.569654   0.000000
  106      106.569654   0.000000
  107      106.569974   0.000000
  108      106.569974   0.000000
  109      108.108751   0.000000
  110      108.108751   0.000000
  111      110.780281   0.000000
  112      110.780281   0.000000
  113      111.457038   0.000000
  114      111.457038   0.000000
  115      111.916962   0.000000
  116      111.916962   0.000000
  117      111.917122   0.000000
  118      111.917122   0.000000
  119      113.360450   0.000000
  120      113.360450   0.000000
  121      113.364628   0.000000
  122      113.364628   0.000000
  123      114.360956   0.000000
  124      114.360956   0.000000
  125      118.749120   0.000000
  126      118.749120   0.000000
  127      118.750442   0.000000
  128      118.750442   0.000000
 
 -0.1666667E+00  0.0000000E+00 -0.6938894E-17  0.4629630E-02
    1      -35.055682   1.000000
    2      -35.055682   1.000000
    3      -10.888361   1.000000
    4      -10.888361   1.000000
    5      -10.417112   1.000000
    6      -10.417112   1.000000
    7      -10.358785   1.000000
    8      -10.358785   1.000000
    9        2.142847   0.000000
   10        2.142847   0.000000
   11       16.514143   0.000000
   12       16.514143   0.000000
   13       20.721832   0.000000
   14       20.721832   0.000000
   15       20.723235   0.000000
   16       20.723235   0.000000
   17       23.332781   0.000000
   18       23.332781   0.000000
   19       24.889905   0.000000
   20       24.889905   0.000000
   21       24.890045   0.000000
   22       24.890045   0.000000
   23       28.045630   0.000000
   24       28.045630   0.000000
   25       30.040459   0.000000
   26       30.040459   0.000000
   27       30.054140   0.000000
   28       30.054140   0.000000
   29       32.724454   0.000000
   30       32.724454   0.000000
   31       36.193982   0.000000
   32       36.193982   0.000000
   33       37.990840   0.000000
   34       37.990840   0.000000
   35       38.003072   0.000000
   36       38.003072   0.000000
   37       52.223472   0.000000
   38       52.223472   0.000000
   39       52.226087   0.000000
   40       52.226087   0.000000
   41       52.282058   0.000000
   42       52.282058   0.000000
   43       57.953644   0.000000
   44       57.953644   0.000000
   45       60.739044   0.000000
   46       60.739044   0.000000
   47       60.740706   0.000000
   48       60.740706   0.000000
   49       63.100904   0.000000
   50       63.100904   0.000000
   51       68.152964   0.000000
   52       68.152964   0.000000
   53       68.493646   0.000000
   54       68.493646   0.000000
   55       68.499735   0.000000
   56       68.499735   0.000000
   57       71.633873   0.000000
   58       71.633873   0.000000
   59       71.635113   0.000000
   60       71.635113   0.000000
   61       75.792850   0.000000
   62       75.792850   0.000000
   63       75.794772   0.000000
   64       75.794772   0.000000
   65       76.558282   0.000000
   66       76.558282   0.000000
   67       78.988899   0.000000
   68       78.988899   0.000000
   69       78.989703   0.000000
   70       78.989703   0.000000
   71       80.616808   0.000000
   72       80.616808   0.000000
   73       80.992066   0.000000
   74       80.992066   0.000000
   75       82.456780   0.000000
   76       82.456780   0.000000
   77       82.461279   0.000000
   78       82.461279   0.000000
   79       83.737150   0.000000
   80       83.737150   0.000000
   81       85.312944   0.000000
   82       85.312944   0.000000
   83       85.313582   0.000000
   84       85.313582   0.000000
   85       85.897342   0.000000
   86       85.897342   0.000000
   87       89.304534   0.000000
   88       89.304534   0.000000
   89       91.517221   0.000000
   90       91.517221   0.000000
   91       91.517741   0.000000
   92       91.517741   0.000000
   93       93.636734   0.000000
   94       93.636734   0.000000
   95       93.638066   0.000000
   96       93.638066   0.000000
   97       94.111571   0.000000
   98       94.111571   0.000000
   99       96.516246   0.000000
  100       96.516246   0.000000
  101       96.516441   0.000000
  102       96.516441   0.000000
  103       97.512896   0.000000
  104       97.512896   0.000000
  105       98.730732   0.000000
  106       98.730732   0.000000
  107      102.768779   0.000000
  108      102.768779   0.000000
  109      102.771905   0.000000
  110      102.771905   0.000000
  111      103.271314   0.000000
  112      103.271314   0.000000
  113      103.271942   0.000000
  114      103.271942   0.000000
  115      103.408464   0.000000
  116      103.408464   0.000000
  117      107.549834   0.000000
  118      107.549834   0.000000
  119      108.427242   0.000000
  120      108.427242   0.000000
  121      108.451495   0.000000
  122      108.451495   0.000000
  123      114.416925   0.000000
  124      114.416925   0.000000
  125      121.168649   0.000000
  126      121.168649   0.000000
  127      121.694957   0.000000
  128      121.694957   0.000000
 
  0.0000000E+00  0.1666667E+00  0.6938894E-17  0.4629630E-02
    1      -35.055682   1.000000
    2      -35.055682   1.000000
    3      -10.888361   1.000000
    4      -10.888361   1.000000
    5      -10.417112   1.000000
    6      -10.417112   1.000000
    7      -10.358784   1.000000
    8      -10.358784   1.000000
    9        2.142847   0.000000
   10        2.142847   0.000000
   11       16.514143   0.000000
   12       16.514143   0.000000
   13       20.721832   0.000000
   14       20.721832   0.000000
   15       20.723235   0.000000
   16       20.723235   0.000000
   17       23.332782   0.000000
   18       23.332782   0.000000
   19       24.889905   0.000000
   20       24.889905   0.000000
   21       24.890046   0.000000
   22       24.890046   0.000000
   23       28.045632   0.000000
   24       28.045632   0.000000
   25       30.040458   0.000000
   26       30.040458   0.000000
   27       30.054139   0.000000
   28       30.054139   0.000000
   29       32.724453   0.000000
   30       32.724453   0.000000
   31       36.193981   0.000000
   32       36.193981   0.000000
   33       37.990840   0.000000
   34       37.990840   0.000000
   35       38.003073   0.000000
   36       38.003073   0.000000
   37       52.223473   0.000000
   38       52.223473   0.000000
   39       52.226087   0.000000
   40       52.226087   0.000000
   41       52.282058   0.000000
   42       52.282058   0.000000
   43       57.953646   0.000000
   44       57.953646   0.000000
   45       60.739042   0.000000
   46       60.739042   0.000000
   47       60.740705   0.000000
   48       60.740705   0.000000
   49       63.100905   0.000000
   50       63.100905   0.000000
   51       68.152967   0.000000
   52       68.152967   0.000000
   53       68.493644   0.000000
   54       68.493644   0.000000
   55       68.499733   0.000000
   56       68.499733   0.000000
   57       71.633873   0.000000
   58       71.633873   0.000000
   59       71.635114   0.000000
   60       71.635114   0.000000
   61       75.792851   0.000000
   62       75.792851   0.000000
   63       75.794773   0.000000
   64       75.794773   0.000000
   65       76.558286   0.000000
   66       76.558286   0.000000
   67       78.988898   0.000000
   68       78.988898   0.000000
   69       78.989701   0.000000
   70       78.989701   0.000000
   71       80.616810   0.000000
   72       80.616810   0.000000
   73       80.992064   0.000000
   74       80.992064   0.000000
   75       82.456778   0.000000
   76       82.456778   0.000000
   77       82.461277   0.000000
   78       82.461277   0.000000
   79       83.737151   0.000000
   80       83.737151   0.000000
   81       85.312945   0.000000
   82       85.312945   0.000000
   83       85.313583   0.000000
   84       85.313583   0.000000
   85       85.897343   0.000000
   86       85.897343   0.000000
   87       89.304533   0.000000
   88       89.304533   0.000000
   89       91.517221   0.000000
   90       91.517221   0.000000
   91       91.517740   0.000000
   92       91.517740   0.000000
   93       93.636731   0.000000
   94       93.636731   0.000000
   95       93.638064   0.000000
   96       93.638064   0.000000
   97       94.111577   0.000000
   98       94.111577   0.000000
   99       96.516246   0.000000
  100       96.516246   0.000000
  101       96.516442   0.000000
  102       96.516442   0.000000
  103       97.512898   0.000000
  104       97.512898   0.000000
  105       98.730732   0.000000
  106       98.730732   0.000000
  107      102.768775   0.000000
  108      102.768775   0.000000
  109      102.771902   0.000000
  110      102.771902   0.000000
  111      103.271315   0.000000
  112      103.271315   0.000000
  113      103.271943   0.000000
  114      103.271943   0.000000
  115      103.408469   0.000000
  116      103.408469   0.000000
  117      107.549833   0.000000
  118      107.549833   0.000000
  119      108.427241   0.000000
  120      108.427241   0.000000
  121      108.451494   0.000000