    1    1    1    1
  0.3298244E+02  0.3599697E-09  0.3599697E-09  0.3599697E-09  0.1000000E-15
  1.000000000000000E-004
  CAR 
 Og_FCC                                  
      8    216    128
 
  0.0000000E+00  0.0000000E+00  0.0000000E+00  0.4629630E-02
    1      -19.342549   1.000000
    2      -19.342548   1.000000
    3       -4.507397   1.000000
    4       -4.507397   1.000000
    5       -4.312806   1.000000
    6       -4.312806   1.000000
    7       -4.312806   1.000000
    8       -4.312806   1.000000
    9        4.447012   0.000000
   10        4.447014   0.000000
   11       11.508521   0.000000
   12       11.508521   0.000000
   13       11.508521   0.000000
   14       11.508522   0.000000
   15       11.511263   0.000000
   16       11.511263   0.000000
   17       13.932986   0.000000
   18       13.932986   0.000000
   19       13.932986   0.000000
   20       13.932986   0.000000
   21       16.984690   0.000000
   22       16.984691   0.000000
   23       20.035462   0.000000
   24       20.035462   0.000000
   25       20.048209   0.000000
   26       20.048209   0.000000
   27       20.048210   0.000000
   28       20.048210   0.000000
   29       22.351520   0.000000
   30       22.351529   0.000000
   31       29.507238   0.000000
   32       29.507238   0.000000
   33       29.507239   0.000000
   34       29.507239   0.000000
   35       29.514357   0.000000
   36       29.514357   0.000000
   37       31.406553   0.000000
   38       31.406553   0.000000
   39       31.538941   0.000000
   40       31.538941   0.000000
   41       31.538942   0.000000
   42       31.538942   0.000000
   43       33.951025   0.000000
   44       33.951025   0.000000
   45       33.951026   0.000000
   46       33.951027   0.000000
   47       40.816036   0.000000
   48       40.816036   0.000000
   49       40.816036   0.000000
   50       40.816037   0.000000
   51       40.816037   0.000000
   52       40.816037   0.000000
   53       41.540299   0.000000
   54       41.540304   0.000000
   55       48.169726   0.000000
   56       48.169726   0.000000
   57       48.169727   0.000000
   58       48.169727   0.000000
   59       51.861192   0.000000
   60       51.861193   0.000000
   61       51.861193   0.000000
   62       51.861193   0.000000
   63       51.863767   0.000000
   64       51.863767   0.000000
   65       52.293231   0.000000
   66       52.293232   0.000000
   67       52.342600   0.000000
   68       52.342601   0.000000
   69       52.342602   0.000000
   70       52.342602   0.000000
   71       55.968538   0.000000
   72       55.968540   0.000000
   73       56.261281   0.000000
   74       56.261282   0.000000
   75       56.269407   0.000000
   76       56.269407   0.000000
   77       56.269408   0.000000
   78       56.269408   0.000000
   79       59.511846   0.000000
   80       59.511847   0.000000
   81       59.511847   0.000000
   82       59.511848   0.000000
   83       59.511848   0.000000
   84       59.511848   0.000000
   85       59.718550   0.000000
   86       59.718550   0.000000
   87       59.718550   0.000000
   88       59.718550   0.000000
   89       59.718550   0.000000
   90       59.718550   0.000000
   91       59.845950   0.000000
   92       59.845961   0.000000
   93       62.156964   0.000000
   94       62.156964   0.000000
   95       62.156965   0.000000
   96       62.156965   0.000000
   97       62.156971   0.000000
   98       62.156971   0.000000
   99       62.864122   0.000000
  100       62.864123   0.000000
  101       62.864123   0.000000
  102       62.864124   0.000000
  103       66.774629   0.000000
  104       66.774629   0.000000
  105       66.777531   0.000000
  106       66.777532   0.000000
  107       66.777532   0.000000
  108       66.777533   0.000000
  109       66.954727   0.000000
  110       66.954727   0.000000
  111       66.954728   0.000000
  112       66.954728   0.000000
  113       66.954973   0.000000
  114       66.954974   0.000000
  115       67.092418   0.000000
  116       67.092423   0.000000
  117       67.506335   0.000000
  118       67.506337   0.000000
  119       78.920614   0.000000
  120       78.920614   0.000000
  121       78.920615   0.000000
  122       78.920616   0.000000
  123       83.772320   0.000000
  124       83.772320   0.000000
  125       83.772321   0.000000
  126       83.772321   0.000000
  127       83.779791   0.000000
  128       83.779791   0.000000
 
  0.1666667E+00  0.1890198E-17 -0.2775558E-16  0.4629630E-02
    1      -19.273326   1.000000
    2      -19.273326   1.000000
    3       -4.864138   1.000000
    4       -4.864138   1.000000
    5       -4.468342   1.000000
    6       -4.468341   1.000000
    7       -4.359781   1.000000
    8       -4.359781   1.000000
    9        5.246526   0.000000
   10        5.246527   0.000000
   11       10.628347   0.000000
   12       10.628347   0.000000
   13       11.757115   0.000000
   14       11.757115   0.000000
   15       11.759373   0.000000
   16       11.759373   0.000000
   17       13.551129   0.000000
   18       13.551129   0.000000
   19       13.552951   0.000000
   20       13.552951   0.000000
   21       17.756925   0.000000
   22       17.756928   0.000000
   23       19.127108   0.000000
   24       19.127110   0.000000
   25       21.609946   0.000000
   26       21.609946   0.000000
   27       21.618487   0.000000
   28       21.618488   0.000000
   29       24.616039   0.000000
   30       24.616042   0.000000
   31       26.986651   0.000000
   32       26.986654   0.000000
   33       27.078466   0.000000
   34       27.078466   0.000000
   35       27.101498   0.000000
   36       27.101498   0.000000
   37       31.378089   0.000000
   38       31.378090   0.000000
   39       31.405315   0.000000
   40       31.405315   0.000000
   41       33.750299   0.000000
   42       33.750299   0.000000
   43       34.935595   0.000000
   44       34.935595   0.000000
   45       34.963463   0.000000
   46       34.963463   0.000000
   47       41.141042   0.000000
   48       41.141042   0.000000
   49       41.143607   0.000000
   50       41.143608   0.000000
   51       41.174398   0.000000
   52       41.174398   0.000000
   53       42.714872   0.000000
   54       42.714877   0.000000
   55       46.288043   0.000000
   56       46.288044   0.000000
   57       47.255706   0.000000
   58       47.255707   0.000000
   59       47.263372   0.000000
   60       47.263373   0.000000
   61       50.416669   0.000000
   62       50.416669   0.000000
   63       50.422536   0.000000
   64       50.422537   0.000000
   65       51.917859   0.000000
   66       51.917862   0.000000
   67       52.929819   0.000000
   68       52.929819   0.000000
   69       52.930871   0.000000
   70       52.930871   0.000000
   71       54.545799   0.000000
   72       54.545800   0.000000
   73       55.162971   0.000000
   74       55.162972   0.000000
   75       55.175298   0.000000
   76       55.175299   0.000000
   77       55.539787   0.000000
   78       55.539788   0.000000
   79       56.810886   0.000000
   80       56.810888   0.000000
   81       57.074040   0.000000
   82       57.074040   0.000000
   83       57.080078   0.000000
   84       57.080078   0.000000
   85       59.041673   0.000000
   86       59.041674   0.000000
   87       61.298591   0.000000
   88       61.298591   0.000000
   89       61.298799   0.000000
   90       61.298799   0.000000
   91       62.662041   0.000000
   92       62.662047   0.000000
   93       62.763998   0.000000
   94       62.763998   0.000000
   95       62.765420   0.000000
   96       62.765420   0.000000
   97       64.567926   0.000000
   98       64.567929   0.000000
   99       65.660099   0.000000
  100       65.660100   0.000000
  101       65.660531   0.000000
  102       65.660532   0.000000
  103       65.740677   0.000000
  104       65.740678   0.000000
  105       65.821025   0.000000
  106       65.821026   0.000000
  107       70.320648   0.000000
  108       70.320648   0.000000
  109       70.320906   0.000000
  110       70.320907   0.000000
  111       71.595466   0.000000
  112       71.595467   0.000000
  113       71.595535   0.000000
  114       71.595536   0.000000
  115       71.741220   0.000000
  116       71.741223   0.000000
  117       74.920051   0.000000
  118       74.920052   0.000000
  119       74.940112   0.000000
  120       74.940113   0.000000
  121       77.872438   0.000000
  122       77.872439   0.000000
  123       79.505837   0.000000
  124       79.505837   0.000000
  125       80.048336   0.000000
  126       80.048336   0.000000
  127       80.048986   0.000000
  128       80.048986   0.000000
 
  0.3333333E+00  0.3780395E-17 -0.2775558E-16  0.4629630E-02
    1      -19.129915   1.000000
    2      -19.129914   1.000000
    3       -5.658773   1.000000
    4       -5.658772   1.000000
    5       -4.571640   1.000000
    6       -4.571640   1.000000
    7       -4.450293   1.000000
    8       -4.450293   1.000000
    9        6.689155   0.000000
   10        6.689156   0.000000
   11        9.827291   0.000000
   12        9.827292   0.000000
   13       11.426978   0.000000
   14       11.426978   0.000000
   15       11.429815   0.000000
   16       11.429815   0.000000
   17       14.465037   0.000000
   18       14.465038   0.000000
   19       14.468997   0.000000
   20       14.468997   0.000000
   21       16.442211   0.000000
   22       16.442214   0.000000
   23       20.285009   0.000000
   24       20.285010   0.000000
   25       23.115677   0.000000
   26       23.115677   0.000000
   27       23.148024   0.000000
   28       23.148024   0.000000
   29       23.978177   0.000000
   30       23.978179   0.000000
   31       24.930788   0.000000
   32       24.930789   0.000000
   33       24.932289   0.000000
   34       24.932290   0.000000
   35       31.417013   0.000000
   36       31.417013   0.000000
   37       31.439947   0.000000
   38       31.439947   0.000000
   39       31.440436   0.000000
   40       31.440442   0.000000
   41       33.768355   0.000000
   42       33.768356   0.000000
   43       35.963935   0.000000
   44       35.963935   0.000000
   45       35.996965   0.000000
   46       35.996965   0.000000
   47       38.496408   0.000000
   48       38.496409   0.000000
   49       38.498600   0.000000
   50       38.498600   0.000000
   51       39.925269   0.000000
   52       39.925271   0.000000
   53       42.126121   0.000000
   54       42.126121   0.000000
   55       45.303575   0.000000
   56       45.303581   0.000000
   57       46.308937   0.000000
   58       46.308937   0.000000
   59       46.310302   0.000000
   60       46.310302   0.000000
   61       47.953396   0.000000
   62       47.953397   0.000000
   63       49.344110   0.000000
   64       49.344111   0.000000
   65       49.344602   0.000000
   66       49.344603   0.000000
   67       50.770196   0.000000
   68       50.770197   0.000000
   69       52.380872   0.000000
   70       52.380873   0.000000
   71       52.398381   0.000000
   72       52.398382   0.000000
   73       53.022122   0.000000
   74       53.022123   0.000000
   75       54.974478   0.000000
   76       54.974478   0.000000
   77       54.975020   0.000000
   78       54.975020   0.000000
   79       55.142666   0.000000
   80       55.142667   0.000000
   81       58.295709   0.000000
   82       58.295709   0.000000
   83       58.304686   0.000000
   84       58.304687   0.000000
   85       59.163699   0.000000
   86       59.163699   0.000000
   87       62.022009   0.000000
   88       62.022010   0.000000
   89       62.022585   0.000000
   90       62.022586   0.000000
   91       63.702838   0.000000
   92       63.702843   0.000000
   93       66.798207   0.000000
   94       66.798207   0.000000
   95       66.800358   0.000000
   96       66.800358   0.000000
   97       68.926903   0.000000
   98       68.926905   0.000000
   99       69.206616   0.000000
  100       69.206617   0.000000
  101       69.230219   0.000000
  102       69.230220   0.000000
  103       71.122476   0.000000
  104       71.122480   0.000000
  105       71.206024   0.000000
  106       71.206024   0.000000
  107       71.215409   0.000000
  108       71.215409   0.000000
  109       72.853164   0.000000
  110       72.853164   0.000000
  111       73.285467   0.000000
  112       73.285467   0.000000
  113       73.285617   0.000000
  114       73.285617   0.000000
  115       74.264981   0.000000
  116       74.264983   0.000000
  117       75.543593   0.000000
  118       75.543595   0.000000
  119       77.225195   0.000000
  120       77.225196   0.000000
  121       77.225685   0.000000
  122       77.225686   0.000000
  123       78.293638   0.000000
  124       78.293641   0.000000
  125       80.880285   0.000000
  126       80.880285   0.000000
  127       80.880478   0.000000
  128       80.880479   0.000000
 
  0.5000000E+00  0.5670593E-17 -0.8326673E-16  0.4629630E-02
    1      -19.055498   1.000000
    2      -19.055498   1.000000
    3       -6.019280   1.000000
    4       -6.019279   1.000000
    5       -4.616743   1.000000
    6       -4.616743   1.000000
    7       -4.494414   1.000000
    8       -4.494414   1.000000
    9        7.181758   0.000000
   10        7.181758   0.000000
   11        9.938617   0.000000
   12        9.938620   0.000000
   13       11.107901   0.000000
   14       11.107901   0.000000
   15       11.110741   0.000000
   16       11.110742   0.000000
   17       15.708967   0.000000
   18       15.708967   0.000000
   19       15.711509   0.000000
   20       15.711509   0.000000
   21       16.514766   0.000000
   22       16.514769   0.000000
   23       18.206491   0.000000
   24       18.206491   0.000000
   25       20.970332   0.000000
   26       20.970332   0.000000
   27       21.001990   0.000000
   28       21.001990   0.000000
   29       27.139284   0.000000
   30       27.139285   0.000000
   31       27.144749   0.000000
   32       27.144749   0.000000
   33       27.485705   0.000000
   34       27.485706   0.000000
   35       30.413445   0.000000
   36       30.413448   0.000000
   37       31.170924   0.000000
   38       31.170924   0.000000
   39       31.215206   0.000000
   40       31.215207   0.000000
   41       35.478288   0.000000
   42       35.478288   0.000000
   43       35.480953   0.000000
   44       35.480953   0.000000
   45       37.559815   0.000000
   46       37.559815   0.000000
   47       37.585061   0.000000
   48       37.585061   0.000000
   49       37.625168   0.000000
   50       37.625170   0.000000
   51       38.164115   0.000000
   52       38.164122   0.000000
   53       40.319337   0.000000
   54       40.319338   0.000000
   55       42.801398   0.000000
   56       42.801398   0.000000
   57       44.672328   0.000000
   58       44.672329   0.000000
   59       44.674227   0.000000
   60       44.674228   0.000000
   61       46.650507   0.000000
   62       46.650511   0.000000
   63       48.450872   0.000000
   64       48.450873   0.000000
   65       48.450899   0.000000
   66       48.450899   0.000000
   67       49.143642   0.000000
   68       49.143642   0.000000
   69       54.459931   0.000000
   70       54.459932   0.000000
   71       54.461920   0.000000
   72       54.461921   0.000000
   73       55.045017   0.000000
   74       55.045018   0.000000
   75       55.728384   0.000000
   76       55.728386   0.000000
   77       56.284643   0.000000
   78       56.284643   0.000000
   79       56.287605   0.000000
   80       56.287605   0.000000
   81       57.667100   0.000000
   82       57.667100   0.000000
   83       57.686516   0.000000
   84       57.686517   0.000000
   85       58.942951   0.000000
   86       58.942952   0.000000
   87       63.249759   0.000000
   88       63.249760   0.000000
   89       63.734855   0.000000
   90       63.734856   0.000000
   91       63.762737   0.000000
   92       63.762737   0.000000
   93       66.472539   0.000000
   94       66.472540   0.000000
   95       66.475116   0.000000
   96       66.475117   0.000000
   97       67.502170   0.000000
   98       67.502172   0.000000
   99       67.509314   0.000000
  100       67.509315   0.000000
  101       68.185912   0.000000
  102       68.185921   0.000000
  103       70.994669   0.000000
  104       70.994670   0.000000
  105       74.427990   0.000000
  106       74.427990   0.000000
  107       74.429289   0.000000
  108       74.429290   0.000000
  109       76.251548   0.000000
  110       76.251548   0.000000
  111       76.521064   0.000000
  112       76.521065   0.000000
  113       76.536568   0.000000
  114       76.536569   0.000000
  115       77.592399   0.000000
  116       77.592399   0.000000
  117       77.593142   0.000000
  118       77.593142   0.000000
  119       78.874450   0.000000
  120       78.874451   0.000000
  121       78.878331   0.000000
  122       78.878332   0.000000
  123       80.243322   0.000000
  124       80.243323   0.000000
  125       80.426625   0.000000
  126       80.426626   0.000000
  127       81.134375   0.000000
  128       81.134380   0.000000
 
 -0.3333333E+00 -0.3780395E-17  0.2775558E-16  0.4629630E-02
    1      -19.129915   1.000000
    2      -19.129914   1.000000
    3       -5.658773   1.000000
    4       -5.658772   1.000000
    5       -4.571640   1.000000
    6       -4.571640   1.000000
    7       -4.450293   1.000000
    8       -4.450293   1.000000
    9        6.689155   0.000000
   10        6.689156   0.000000
   11        9.827291   0.000000
   12        9.827292   0.000000
   13       11.426978   0.000000
   14       11.426978   0.000000
   15       11.429815   0.000000
   16       11.429815   0.000000
   17       14.465037   0.000000
   18       14.465038   0.000000
   19       14.468997   0.000000
   20       14.468997   0.000000
   21       16.442211   0.000000
   22       16.442214   0.000000
   23       20.285009   0.000000
   24       20.285010   0.000000
   25       23.115677   0.000000
   26       23.115677   0.000000
   27       23.148024   0.000000
   28       23.148024   0.000000
   29       23.978177   0.000000
   30       23.978179   0.000000
   31       24.930788   0.000000
   32       24.930789   0.000000
   33       24.932289   0.000000
   34       24.932290   0.000000
   35       31.417013   0.000000
   36       31.417013   0.000000
   37       31.439947   0.000000
   38       31.439947   0.000000
   39       31.440436   0.000000
   40       31.440442   0.000000
   41       33.768355   0.000000
   42       33.768356   0.000000
   43       35.963935   0.000000
   44       35.963935   0.000000
   45       35.996965   0.000000
   46       35.996965   0.000000
   47       38.496408   0.000000
   48       38.496409   0.000000
   49       38.498600   0.000000
   50       38.498600   0.000000
   51       39.925269   0.000000
   52       39.925271   0.000000
   53       42.126121   0.000000
   54       42.126121   0.000000
   55       45.303575   0.000000
   56       45.303581   0.000000
   57       46.308937   0.000000
   58       46.308937   0.000000
   59       46.310302   0.000000
   60       46.310302   0.000000
   61       47.953396   0.000000
   62       47.953397   0.000000
   63       49.344110   0.000000
   64       49.344111   0.000000
   65       49.344602   0.000000
   66       49.344603   0.000000
   67       50.770196   0.000000
   68       50.770197   0.000000
   69       52.380872   0.000000
   70       52.380873   0.000000
   71       52.398381   0.000000
   72       52.398382   0.000000
   73       53.022122   0.000000
   74       53.022123   0.000000
   75       54.974478   0.000000
   76       54.974478   0.000000
   77       54.975020   0.000000
   78       54.975020   0.000000
   79       55.142666   0.000000
   80       55.142667   0.000000
   81       58.295709   0.000000
   82       58.295709   0.000000
   83       58.304686   0.000000
   84       58.304687   0.000000
   85       59.163699   0.000000
   86       59.163699   0.000000
   87       62.022009   0.000000
   88       62.022010   0.000000
   89       62.022585   0.000000
   90       62.022586   0.000000
   91       63.702838   0.000000
   92       63.702843   0.000000
   93       66.798207   0.000000
   94       66.798207   0.000000
   95       66.800358   0.000000
   96       66.800358   0.000000
   97       68.926903   0.000000
   98       68.926905   0.000000
   99       69.206616   0.000000
  100       69.206617   0.000000
  101       69.230219   0.000000
  102       69.230220   0.000000
  103       71.122476   0.000000
  104       71.122480   0.000000
  105       71.206024   0.000000
  106       71.206024   0.000000
  107       71.215409   0.000000
  108       71.215409   0.000000
  109       72.853164   0.000000
  110       72.853164   0.000000
  111       73.285467   0.000000
  112       73.285467   0.000000
  113       73.285617   0.000000
  114       73.285617   0.000000
  115       74.264981   0.000000
  116       74.264983   0.000000
  117       75.543593   0.000000
  118       75.543595   0.000000
  119       77.225195   0.000000
  120       77.225196   0.000000
  121       77.225685   0.000000
  122       77.225686   0.000000
  123       78.293638   0.000000
  124       78.293641   0.000000
  125       80.880285   0.000000
  126       80.880285   0.000000
  127       80.880478   0.000000
  128       80.880479   0.000000
 
 -0.1666667E+00 -0.1890198E-17  0.2775558E-16  0.4629630E-02
    1      -19.273326   1.000000
    2      -19.273326   1.000000
    3       -4.864138   1.000000
    4       -4.864138   1.000000
    5       -4.468342   1.000000
    6       -4.468341   1.000000
    7       -4.359781   1.000000
    8       -4.359781   1.000000
    9        5.246526   0.000000
   10        5.246527   0.000000
   11       10.628347   0.000000
   12       10.628347   0.000000
   13       11.757115   0.000000
   14       11.757115   0.000000
   15       11.759373   0.000000
   16       11.759373   0.000000
   17       13.551129   0.000000
   18       13.551129   0.000000
   19       13.552951   0.000000
   20       13.552951   0.000000
   21       17.756925   0.000000
   22       17.756928   0.000000
   23       19.127108   0.000000
   24       19.127110   0.000000
   25       21.609946   0.000000
   26       21.609946   0.000000
   27       21.618487   0.000000
   28       21.618488   0.000000
   29       24.616039   0.000000
   30       24.616042   0.000000
   31       26.986651   0.000000
   32       26.986654   0.000000
   33       27.078466   0.000000
   34       27.078466   0.000000
   35       27.101498   0.000000
   36       27.101498   0.000000
   37       31.378089   0.000000
   38       31.378090   0.000000
   39       31.405315   0.000000
   40       31.405315   0.000000
   41       33.750299   0.000000
   42       33.750299   0.000000
   43       34.935595   0.000000
   44       34.935595   0.000000
   45       34.963463   0.000000
   46       34.963463   0.000000
   47       41.141042   0.000000
   48       41.141042   0.000000
   49       41.143607   0.000000
   50       41.143608   0.000000
   51       41.174398   0.000000
   52       41.174398   0.000000
   53       42.714872   0.000000
   54       42.714877   0.000000
   55       46.288043   0.000000
   56       46.288044   0.000000
   57       47.255706   0.000000
   58       47.255707   0.000000
   59       47.263372   0.000000
   60       47.263373   0.000000
   61       50.416669   0.000000
   62       50.416669   0.000000
   63       50.422536   0.000000
   64       50.422537   0.000000
   65       51.917859   0.000000
   66       51.917862   0.000000
   67       52.929819   0.000000
   68       52.929819   0.000000
   69       52.930871   0.000000
   70       52.930871   0.000000
   71       54.545799   0.000000
   72       54.545800   0.000000
   73       55.162971   0.000000
   74       55.162972   0.000000
   75       55.175298   0.000000
   76       55.175299   0.000000
   77       55.539787   0.000000
   78       55.539788   0.000000
   79       56.810886   0.000000
   80       56.810888   0.000000
   81       57.074040   0.000000
   82       57.074040   0.000000
   83       57.080078   0.000000
   84       57.080078   0.000000
   85       59.041673   0.000000
   86       59.041674   0.000000
   87       61.298590   0.000000
   88       61.298591   0.000000
   89       61.298799   0.000000
   90       61.298799   0.000000
   91       62.662041   0.000000
   92       62.662047   0.000000
   93       62.763998   0.000000
   94       62.763998   0.000000
   95       62.765420   0.000000
   96       62.765420   0.000000
   97       64.567926   0.000000
   98       64.567929   0.000000
   99       65.660099   0.000000
  100       65.660100   0.000000
  101       65.660531   0.000000
  102       65.660532   0.000000
  103       65.740677   0.000000
  104       65.740678   0.000000
  105       65.821025   0.000000
  106       65.821026   0.000000
  107       70.320648   0.000000
  108       70.320648   0.000000
  109       70.320906   0.000000
  110       70.320907   0.000000
  111       71.595466   0.000000
  112       71.595467   0.000000
  113       71.595535   0.000000
  114       71.595536   0.000000
  115       71.741220   0.000000
  116       71.741223   0.000000
  117       74.920051   0.000000
  118       74.920052   0.000000
  119       74.940112   0.000000
  120       74.940113   0.000000
  121       77.872438   0.000000
  122       77.872439   0.000000
  123       79.505837   0.000000
  124       79.505837   0.000000
  125       80.048336   0.000000
  126       80.048336   0.000000
  127       80.048986   0.000000
  128       80.048986   0.000000
 
  0.3851860E-33  0.1666667E+00 -0.1387779E-16  0.4629630E-02
    1      -19.273326   1.000000
    2      -19.273326   1.000000
    3       -4.864138   1.000000
    4       -4.864138   1.000000
    5       -4.468342   1.000000
    6       -4.468341   1.000000
    7       -4.359781   1.000000
    8       -4.359781   1.000000
    9        5.246526   0.000000
   10        5.246527   0.000000
   11       10.628347   0.000000
   12       10.628347   0.000000
   13       11.757115   0.000000
   14       11.757115   0.000000
   15       11.759373   0.000000
   16       11.759373   0.000000
   17       13.551129   0.000000
   18       13.551129   0.000000
   19       13.552951   0.000000
   20       13.552951   0.000000
   21       17.756925   0.000000
   22       17.756928   0.000000
   23       19.127108   0.000000
   24       19.127110   0.000000
   25       21.609946   0.000000
   26       21.609946   0.000000
   27       21.618488   0.000000
   28       21.618488   0.000000
   29       24.616039   0.000000
   30       24.616042   0.000000
   31       26.986651   0.000000
   32       26.986653   0.000000
   33       27.078466   0.000000
   34       27.078466   0.000000
   35       27.101498   0.000000
   36       27.101499   0.000000
   37       31.378089   0.000000
   38       31.378089   0.000000
   39       31.405314   0.000000
   40       31.405315   0.000000
   41       33.750298   0.000000
   42       33.750299   0.000000
   43       34.935595   0.000000
   44       34.935595   0.000000
   45       34.963463   0.000000
   46       34.963463   0.000000
   47       41.141042   0.000000
   48       41.141042   0.000000
   49       41.143607   0.000000
   50       41.143607   0.000000
   51       41.174398   0.000000
   52       41.174399   0.000000
   53       42.714872   0.000000
   54       42.714877   0.000000
   55       46.288043   0.000000
   56       46.288044   0.000000
   57       47.255707   0.000000
   58       47.255707   0.000000
   59       47.263372   0.000000
   60       47.263373   0.000000
   61       50.416669   0.000000
   62       50.416669   0.000000
   63       50.422537   0.000000
   64       50.422537   0.000000
   65       51.917859   0.000000
   66       51.917862   0.000000
   67       52.929819   0.000000
   68       52.929820   0.000000
   69       52.930871   0.000000
   70       52.930871   0.000000
   71       54.545800   0.000000
   72       54.545800   0.000000
   73       55.162972   0.000000
   74       55.162972   0.000000
   75       55.175298   0.000000
   76       55.175298   0.000000
   77       55.539787   0.000000
   78       55.539788   0.000000
   79       56.810886   0.000000
   80       56.810887   0.000000
   81       57.074040   0.000000
   82       57.074040   0.000000
   83       57.080078   0.000000
   84       57.080078   0.000000
   85       59.041673   0.000000
   86       59.041674   0.000000
   87       61.298591   0.000000
   88       61.298591   0.000000
   89       61.298799   0.000000
   90       61.298799   0.000000
   91       62.662040   0.000000
   92       62.662047   0.000000
   93       62.763998   0.000000
   94       62.763998   0.000000
   95       62.765420   0.000000
   96       62.765420   0.000000
   97       64.567926   0.000000
   98       64.567929   0.000000
   99       65.660099   0.000000
  100       65.660100   0.000000
  101       65.660531   0.000000
  102       65.660532   0.000000
  103       65.740678   0.000000
  104       65.740678   0.000000
  105       65.821025   0.000000
  106       65.821027   0.000000
  107       70.320648   0.000000
  108       70.320648   0.000000
  109       70.320906   0.000000
  110       70.320907   0.000000
  111       71.595466   0.000000
  112       71.595466   0.000000
  113       71.595535   0.000000
  114       71.595535   0.000000
  115       71.741220   0.000000
  116       71.741223   0.000000
  117       74.920051   0.000000
  118       74.920052   0.000000
  119       74.940112   0.000000
  120       74.940113   0.000000
  121       77.872438   0.000000