<?xml version="1.0" encoding="ISO-8859-1"?>
<modeling>
 <generator>
  <i name="program" type="string">vasp </i>
  <i name="version" type="string">5.4.4.18Apr17-6-g9f103f2a35  </i>
  <i name="subversion" type="string">(build Jul 09 2018 16:43:14) complex            parallel </i>
  <i name="platform" type="string">LinuxIFC </i>
  <i name="date" type="string">2018 11 21 </i>
  <i name="time" type="string">22:27:54 </i>
 </generator>
 <incar>
  <i type="string" name="SYSTEM">   Og_FCC</i>
  <i type="string" name="PREC">accurate</i>
  <i type="string" name="ALGO">   EXACT</i>
  <i type="logical" name="ADDGRID"> T  </i>
  <i type="logical" name="LSORBIT"> T  </i>
  <i type="int" name="ISPIN">     1</i>
  <i type="int" name="MAXMIX">    50</i>
  <i type="int" name="NELM">    50</i>
  <i type="int" name="NELMDL">    -5</i>
  <i type="int" name="NELMIN">     2</i>
  <i type="int" name="IBRION">    -1</i>
  <i type="int" name="NFREE">     5</i>
  <i name="EDIFF">      0.00000001</i>
  <i name="EDIFFG">      0.00001000</i>
  <i type="int" name="NSW">     1</i>
  <i type="int" name="ISIF">     3</i>
  <i type="int" name="ISYM">     0</i>
  <i name="SYMPREC">      0.00000010</i>
  <i name="ENCUT">    300.00000000</i>
  <i type="int" name="NBANDS">   128</i>
  <i name="POTIM">      0.10000000</i>
  <i type="logical" name="LREAL"> F  </i>
  <i type="int" name="ISMEAR">     0</i>
  <i name="SIGMA">      0.00100000</i>
  <i type="int" name="NWRITE">     2</i>
  <i type="logical" name="LWAVE"> T  </i>
  <i type="logical" name="LCHARG"> F  </i>
  <i type="logical" name="LVTOT"> F  </i>
  <i type="logical" name="LOPTICS"> T  </i>
  <i type="logical" name="GGA_COMPAT"> F  </i>
  <v type="int" name="KPOINT_BSE">    -1     0     0     0</v>
  <i type="int" name="NELM">    50</i>
  <i type="string" name="GGA"> PE</i>
 </incar>
 <structure name="primitive_cell" >
  <crystal>
   <varray name="basis" >
    <v>       2.97422087       0.00000000       0.00000000 </v>
    <v>       1.48711043       2.57575083       0.00000000 </v>
    <v>       1.48711043       0.85858361       2.42844117 </v>
   </varray>
   <i name="volume">     18.60392805 </i>
   <varray name="rec_basis" >
    <v>       0.33622251      -0.19411816      -0.13726226 </v>
    <v>       0.00000000       0.38823631      -0.13726226 </v>
    <v>       0.00000000       0.00000000       0.41178679 </v>
   </varray>
  </crystal>
  <varray name="positions" >
   <v>       0.00000000       0.00000000       0.00000000 </v>
  </varray>
 </structure>
 <varray name="primitive_index" >
  <v type="int" >        1 </v>
 </varray>
 <kpoints>
  <generation param="Gamma">
   <v type="int" name="divisions">       6        6        6 </v>
   <v name="usershift">      0.00000000       0.00000000       0.00000000 </v>
   <v name="genvec1">      0.16666667       0.00000000      -0.00000000 </v>
   <v name="genvec2">      0.00000000       0.16666667       0.00000000 </v>
   <v name="genvec3">      0.00000000       0.00000000       0.16666667 </v>
   <v name="shift">      0.00000000       0.00000000       0.00000000 </v>
  </generation>
  <varray name="kpointlist" >
   <v>       0.00000000       0.00000000       0.00000000 </v>
   <v>       0.16666667       0.00000000       0.00000000 </v>
   <v>       0.33333333      -0.00000000       0.00000000 </v>
   <v>       0.50000000       0.00000000      -0.00000000 </v>
   <v>      -0.33333333       0.00000000       0.00000000 </v>
   <v>      -0.16666667       0.00000000      -0.00000000 </v>
   <v>       0.00000000       0.16666667       0.00000000 </v>
   <v>       0.16666667       0.16666667       0.00000000 </v>
   <v>       0.33333333       0.16666667       0.00000000 </v>
   <v>       0.50000000       0.16666667       0.00000000 </v>
   <v>      -0.33333333       0.16666667      -0.00000000 </v>
   <v>      -0.16666667       0.16666667      -0.00000000 </v>
   <v>       0.00000000       0.33333333       0.00000000 </v>
   <v>       0.16666667       0.33333333       0.00000000 </v>
   <v>       0.33333333       0.33333333       0.00000000 </v>
   <v>       0.50000000       0.33333333       0.00000000 </v>
   <v>      -0.33333333       0.33333333      -0.00000000 </v>
   <v>      -0.16666667       0.33333333       0.00000000 </v>
   <v>       0.00000000       0.50000000       0.00000000 </v>
   <v>       0.16666667       0.50000000       0.00000000 </v>
   <v>       0.33333333       0.50000000       0.00000000 </v>
   <v>       0.50000000       0.50000000       0.00000000 </v>
   <v>      -0.33333333       0.50000000       0.00000000 </v>
   <v>      -0.16666667       0.50000000       0.00000000 </v>
   <v>       0.00000000      -0.33333333      -0.00000000 </v>
   <v>       0.16666667      -0.33333333      -0.00000000 </v>
   <v>       0.33333333      -0.33333333       0.00000000 </v>
   <v>       0.50000000      -0.33333333       0.00000000 </v>
   <v>      -0.33333333      -0.33333333      -0.00000000 </v>
   <v>      -0.16666667      -0.33333333      -0.00000000 </v>
   <v>       0.00000000      -0.16666667      -0.00000000 </v>
   <v>       0.16666667      -0.16666667       0.00000000 </v>
   <v>       0.33333333      -0.16666667       0.00000000 </v>
   <v>       0.50000000      -0.16666667       0.00000000 </v>
   <v>      -0.33333333      -0.16666667      -0.00000000 </v>
   <v>      -0.16666667      -0.16666667      -0.00000000 </v>
   <v>       0.00000000       0.00000000       0.16666667 </v>
   <v>       0.16666667       0.00000000       0.16666667 </v>
   <v>       0.33333333      -0.00000000       0.16666667 </v>
   <v>       0.50000000       0.00000000       0.16666667 </v>
   <v>      -0.33333333       0.00000000       0.16666667 </v>
   <v>      -0.16666667       0.00000000       0.16666667 </v>
   <v>       0.00000000       0.16666667       0.16666667 </v>
   <v>       0.16666667       0.16666667       0.16666667 </v>
   <v>       0.33333333       0.16666667       0.16666667 </v>
   <v>       0.50000000       0.16666667       0.16666667 </v>
   <v>      -0.33333333       0.16666667       0.16666667 </v>
   <v>      -0.16666667       0.16666667       0.16666667 </v>
   <v>       0.00000000       0.33333333       0.16666667 </v>
   <v>       0.16666667       0.33333333       0.16666667 </v>
   <v>       0.33333333       0.33333333       0.16666667 </v>
   <v>       0.50000000       0.33333333       0.16666667 </v>
   <v>      -0.33333333       0.33333333       0.16666667 </v>
   <v>      -0.16666667       0.33333333       0.16666667 </v>
   <v>       0.00000000       0.50000000       0.16666667 </v>
   <v>       0.16666667       0.50000000       0.16666667 </v>
   <v>       0.33333333       0.50000000       0.16666667 </v>
   <v>       0.50000000       0.50000000       0.16666667 </v>
   <v>      -0.33333333       0.50000000       0.16666667 </v>
   <v>      -0.16666667       0.50000000       0.16666667 </v>
   <v>       0.00000000      -0.33333333       0.16666667 </v>
   <v>       0.16666667      -0.33333333       0.16666667 </v>
   <v>       0.33333333      -0.33333333       0.16666667 </v>
   <v>       0.50000000      -0.33333333       0.16666667 </v>
   <v>      -0.33333333      -0.33333333       0.16666667 </v>
   <v>      -0.16666667      -0.33333333       0.16666667 </v>
   <v>       0.00000000      -0.16666667       0.16666667 </v>
   <v>       0.16666667      -0.16666667       0.16666667 </v>
   <v>       0.33333333      -0.16666667       0.16666667 </v>
   <v>       0.50000000      -0.16666667       0.16666667 </v>
   <v>      -0.33333333      -0.16666667       0.16666667 </v>
   <v>      -0.16666667      -0.16666667       0.16666667 </v>
   <v>       0.00000000       0.00000000       0.33333333 </v>
   <v>       0.16666667       0.00000000       0.33333333 </v>
   <v>       0.33333333      -0.00000000       0.33333333 </v>
   <v>       0.50000000       0.00000000       0.33333333 </v>
   <v>      -0.33333333       0.00000000       0.33333333 </v>
   <v>      -0.16666667       0.00000000       0.33333333 </v>
   <v>       0.00000000       0.16666667       0.33333333 </v>
   <v>       0.16666667       0.16666667       0.33333333 </v>
   <v>       0.33333333       0.16666667       0.33333333 </v>
   <v>       0.50000000       0.16666667       0.33333333 </v>
   <v>      -0.33333333       0.16666667       0.33333333 </v>
   <v>      -0.16666667       0.16666667       0.33333333 </v>
   <v>       0.00000000       0.33333333       0.33333333 </v>
   <v>       0.16666667       0.33333333       0.33333333 </v>
   <v>       0.33333333       0.33333333       0.33333333 </v>
   <v>       0.50000000       0.33333333       0.33333333 </v>
   <v>      -0.33333333       0.33333333       0.33333333 </v>
   <v>      -0.16666667       0.33333333       0.33333333 </v>
   <v>       0.00000000       0.50000000       0.33333333 </v>
   <v>       0.16666667       0.50000000       0.33333333 </v>
   <v>       0.33333333       0.50000000       0.33333333 </v>
   <v>       0.50000000       0.50000000       0.33333333 </v>
   <v>      -0.33333333       0.50000000       0.33333333 </v>
   <v>      -0.16666667       0.50000000       0.33333333 </v>
   <v>       0.00000000      -0.33333333       0.33333333 </v>
   <v>       0.16666667      -0.33333333       0.33333333 </v>
   <v>       0.33333333      -0.33333333       0.33333333 </v>
   <v>       0.50000000      -0.33333333       0.33333333 </v>
   <v>      -0.33333333      -0.33333333       0.33333333 </v>
   <v>      -0.16666667      -0.33333333       0.33333333 </v>
   <v>       0.00000000      -0.16666667       0.33333333 </v>
   <v>       0.16666667      -0.16666667       0.33333333 </v>
   <v>       0.33333333      -0.16666667       0.33333333 </v>
   <v>       0.50000000      -0.16666667       0.33333333 </v>
   <v>      -0.33333333      -0.16666667       0.33333333 </v>
   <v>      -0.16666667      -0.16666667       0.33333333 </v>
   <v>       0.00000000       0.00000000       0.50000000 </v>
   <v>       0.16666667       0.00000000       0.50000000 </v>
   <v>       0.33333333      -0.00000000       0.50000000 </v>
   <v>       0.50000000       0.00000000       0.50000000 </v>
   <v>      -0.33333333       0.00000000       0.50000000 </v>
   <v>      -0.16666667       0.00000000       0.50000000 </v>
   <v>       0.00000000       0.16666667       0.50000000 </v>
   <v>       0.16666667       0.16666667       0.50000000 </v>
   <v>       0.33333333       0.16666667       0.50000000 </v>
   <v>       0.50000000       0.16666667       0.50000000 </v>
   <v>      -0.33333333       0.16666667       0.50000000 </v>
   <v>      -0.16666667       0.16666667       0.50000000 </v>
   <v>       0.00000000       0.33333333       0.50000000 </v>
   <v>       0.16666667       0.33333333       0.50000000 </v>
   <v>       0.33333333       0.33333333       0.50000000 </v>
   <v>       0.50000000       0.33333333       0.50000000 </v>
   <v>      -0.33333333       0.33333333       0.50000000 </v>
   <v>      -0.16666667       0.33333333       0.50000000 </v>
   <v>       0.00000000       0.50000000       0.50000000 </v>
   <v>       0.16666667       0.50000000       0.50000000 </v>
   <v>       0.33333333       0.50000000       0.50000000 </v>
   <v>       0.50000000       0.50000000       0.50000000 </v>
   <v>      -0.33333333       0.50000000       0.50000000 </v>
   <v>      -0.16666667       0.50000000       0.50000000 </v>
   <v>       0.00000000      -0.33333333       0.50000000 </v>
   <v>       0.16666667      -0.33333333       0.50000000 </v>
   <v>       0.33333333      -0.33333333       0.50000000 </v>
   <v>       0.50000000      -0.33333333       0.50000000 </v>
   <v>      -0.33333333      -0.33333333       0.50000000 </v>
   <v>      -0.16666667      -0.33333333       0.50000000 </v>
   <v>       0.00000000      -0.16666667       0.50000000 </v>
   <v>       0.16666667      -0.16666667       0.50000000 </v>
   <v>       0.33333333      -0.16666667       0.50000000 </v>
   <v>       0.50000000      -0.16666667       0.50000000 </v>
   <v>      -0.33333333      -0.16666667       0.50000000 </v>
   <v>      -0.16666667      -0.16666667       0.50000000 </v>
   <v>       0.00000000       0.00000000      -0.33333333 </v>
   <v>       0.16666667       0.00000000      -0.33333333 </v>
   <v>       0.33333333      -0.00000000      -0.33333333 </v>
   <v>       0.50000000       0.00000000      -0.33333333 </v>
   <v>      -0.33333333       0.00000000      -0.33333333 </v>
   <v>      -0.16666667       0.00000000      -0.33333333 </v>
   <v>       0.00000000       0.16666667      -0.33333333 </v>
   <v>       0.16666667       0.16666667      -0.33333333 </v>
   <v>       0.33333333       0.16666667      -0.33333333 </v>
   <v>       0.50000000       0.16666667      -0.33333333 </v>
   <v>      -0.33333333       0.16666667      -0.33333333 </v>
   <v>      -0.16666667       0.16666667      -0.33333333 </v>
   <v>       0.00000000       0.33333333      -0.33333333 </v>
   <v>       0.16666667       0.33333333      -0.33333333 </v>
   <v>       0.33333333       0.33333333      -0.33333333 </v>
   <v>       0.50000000       0.33333333      -0.33333333 </v>
   <v>      -0.33333333       0.33333333      -0.33333333 </v>
   <v>      -0.16666667       0.33333333      -0.33333333 </v>
   <v>       0.00000000       0.50000000      -0.33333333 </v>
   <v>       0.16666667       0.50000000      -0.33333333 </v>
   <v>       0.33333333       0.50000000      -0.33333333 </v>
   <v>       0.50000000       0.50000000      -0.33333333 </v>
   <v>      -0.33333333       0.50000000      -0.33333333 </v>
   <v>      -0.16666667       0.50000000      -0.33333333 </v>
   <v>       0.00000000      -0.33333333      -0.33333333 </v>
   <v>       0.16666667      -0.33333333      -0.33333333 </v>
   <v>       0.33333333      -0.33333333      -0.33333333 </v>
   <v>       0.50000000      -0.33333333      -0.33333333 </v>
   <v>      -0.33333333      -0.33333333      -0.33333333 </v>
   <v>      -0.16666667      -0.33333333      -0.33333333 </v>
   <v>       0.00000000      -0.16666667      -0.33333333 </v>
   <v>       0.16666667      -0.16666667      -0.33333333 </v>
   <v>       0.33333333      -0.16666667      -0.33333333 </v>
   <v>       0.50000000      -0.16666667      -0.33333333 </v>
   <v>      -0.33333333      -0.16666667      -0.33333333 </v>
   <v>      -0.16666667      -0.16666667      -0.33333333 </v>
   <v>       0.00000000       0.00000000      -0.16666667 </v>
   <v>       0.16666667       0.00000000      -0.16666667 </v>
   <v>       0.33333333      -0.00000000      -0.16666667 </v>
   <v>       0.50000000       0.00000000      -0.16666667 </v>
   <v>      -0.33333333       0.00000000      -0.16666667 </v>
   <v>      -0.16666667       0.00000000      -0.16666667 </v>
   <v>       0.00000000       0.16666667      -0.16666667 </v>
   <v>       0.16666667       0.16666667      -0.16666667 </v>
   <v>       0.33333333       0.16666667      -0.16666667 </v>
   <v>       0.50000000       0.16666667      -0.16666667 </v>
   <v>      -0.33333333       0.16666667      -0.16666667 </v>
   <v>      -0.16666667       0.16666667      -0.16666667 </v>
   <v>       0.00000000       0.33333333      -0.16666667 </v>
   <v>       0.16666667       0.33333333      -0.16666667 </v>
   <v>       0.33333333       0.33333333      -0.16666667 </v>
   <v>       0.50000000       0.33333333      -0.16666667 </v>
   <v>      -0.33333333       0.33333333      -0.16666667 </v>
   <v>      -0.16666667       0.33333333      -0.16666667 </v>
   <v>       0.00000000       0.50000000      -0.16666667 </v>
   <v>       0.16666667       0.50000000      -0.16666667 </v>
   <v>       0.33333333       0.50000000      -0.16666667 </v>
   <v>       0.50000000       0.50000000      -0.16666667 </v>
   <v>      -0.33333333       0.50000000      -0.16666667 </v>
   <v>      -0.16666667       0.50000000      -0.16666667 </v>
   <v>       0.00000000      -0.33333333      -0.16666667 </v>
   <v>       0.16666667      -0.33333333      -0.16666667 </v>
   <v>       0.33333333      -0.33333333      -0.16666667 </v>
   <v>       0.50000000      -0.33333333      -0.16666667 </v>
   <v>      -0.33333333      -0.33333333      -0.16666667 </v>
   <v>      -0.16666667      -0.33333333      -0.16666667 </v>
   <v>       0.00000000      -0.16666667      -0.16666667 </v>
   <v>       0.16666667      -0.16666667      -0.16666667 </v>
   <v>       0.33333333      -0.16666667      -0.16666667 </v>
   <v>       0.50000000      -0.16666667      -0.16666667 </v>
   <v>      -0.33333333      -0.16666667      -0.16666667 </v>
   <v>      -0.16666667      -0.16666667      -0.16666667 </v>
  </varray>
  <varray name="weights" >
   <v>       0.00462963 </v>
   <v>       0.00462963 </v>
   <v>       0.00462963 </v>
   <v>       0.00462963 </v>
   <v>       0.00462963 </v>
   <v>       0.00462963 </v>
   <v>       0.00462963 </v>
   <v>       0.00462963 </v>
   <v>       0.00462963 </v>
   <v>       0.00462963 </v>
   <v>       0.00462963 </v>
   <v>       0.00462963 </v>
   <v>       0.00462963 </v>
   <v>       0.00462963 </v>
   <v>       0.00462963 </v>
   <v>       0.00462963 </v>
   <v>       0.00462963 </v>
   <v>       0.00462963 </v>
   <v>       0.00462963 </v>
   <v>       0.00462963 </v>
   <v>       0.00462963 </v>
   <v>       0.00462963 </v>
   <v>       0.00462963 </v>
   <v>       0.00462963 </v>
   <v>       0.00462963 </v>
   <v>       0.00462963 </v>
   <v>       0.00462963 </v>
   <v>       0.00462963 </v>
   <v>       0.00462963 </v>
   <v>       0.00462963 </v>
   <v>       0.00462963 </v>
   <v>       0.00462963 </v>
   <v>       0.00462963 </v>
   <v>       0.00462963 </v>
   <v>       0.00462963 </v>
   <v>       0.00462963 </v>
   <v>       0.00462963 </v>
   <v>       0.00462963 </v>
   <v>       0.00462963 </v>
   <v>       0.00462963 </v>
   <v>       0.00462963 </v>
   <v>       0.00462963 </v>
   <v>       0.00462963 </v>
   <v>       0.00462963 </v>
   <v>       0.00462963 </v>
   <v>       0.00462963 </v>
   <v>       0.00462963 </v>
   <v>       0.00462963 </v>
   <v>       0.00462963 </v>
   <v>       0.00462963 </v>
   <v>       0.00462963 </v>
   <v>       0.00462963 </v>
   <v>       0.00462963 </v>
   <v>       0.00462963 </v>
   <v>       0.00462963 </v>
   <v>       0.00462963 </v>
   <v>       0.00462963 </v>
   <v>       0.00462963 </v>
   <v>       0.00462963 </v>
   <v>       0.00462963 </v>
   <v>       0.00462963 </v>
   <v>       0.00462963 </v>
   <v>       0.00462963 </v>
   <v>       0.00462963 </v>
   <v>       0.00462963 </v>
   <v>       0.00462963 </v>
   <v>       0.00462963 </v>
   <v>       0.00462963 </v>
   <v>       0.00462963 </v>
   <v>       0.00462963 </v>
   <v>       0.00462963 </v>
   <v>       0.00462963 </v>
   <v>       0.00462963 </v>
   <v>       0.00462963 </v>
   <v>       0.00462963 </v>
   <v>       0.00462963 </v>
   <v>       0.00462963 </v>
   <v>       0.00462963 </v>
   <v>       0.00462963 </v>
   <v>       0.00462963 </v>
   <v>       0.00462963 </v>
   <v>       0.00462963 </v>
   <v>       0.00462963 </v>
   <v>       0.00462963 </v>
   <v>       0.00462963 </v>
   <v>       0.00462963 </v>
   <v>       0.00462963 </v>
   <v>       0.00462963 </v>
   <v>       0.00462963 </v>
   <v>       0.00462963 </v>
   <v>       0.00462963 </v>
   <v>       0.00462963 </v>
   <v>       0.00462963 </v>
   <v>       0.00462963 </v>
   <v>       0.00462963 </v>
   <v>       0.00462963 </v>
   <v>       0.00462963 </v>
   <v>       0.00462963 </v>
   <v>       0.00462963 </v>
   <v>       0.00462963 </v>
   <v>       0.00462963 </v>
   <v>       0.00462963 </v>
   <v>       0.00462963 </v>
   <v>       0.00462963 </v>
   <v>       0.00462963 </v>
   <v>       0.00462963 </v>
   <v>       0.00462963 </v>
   <v>       0.00462963 </v>
   <v>       0.00462963 </v>
   <v>       0.00462963 </v>
   <v>       0.00462963 </v>
   <v>       0.00462963 </v>
   <v>       0.00462963 </v>
   <v>       0.00462963 </v>
   <v>       0.00462963 </v>
   <v>       0.00462963 </v>
   <v>       0.00462963 </v>
   <v>       0.00462963 </v>
   <v>       0.00462963 </v>
   <v>       0.00462963 </v>
   <v>       0.00462963 </v>
   <v>       0.00462963 </v>
   <v>       0.00462963 </v>
   <v>       0.00462963 </v>
   <v>       0.00462963 </v>
   <v>       0.00462963 </v>
   <v>       0.00462963 </v>
   <v>       0.00462963 </v>
   <v>       0.00462963 </v>
   <v>       0.00462963 </v>
   <v>       0.00462963 </v>
   <v>       0.00462963 </v>
   <v>       0.00462963 </v>
   <v>       0.00462963 </v>
   <v>       0.00462963 </v>
   <v>       0.00462963 </v>
   <v>       0.00462963 </v>
   <v>       0.00462963 </v>
   <v>       0.00462963 </v>
   <v>       0.00462963 </v>
   <v>       0.00462963 </v>
   <v>       0.00462963 </v>
   <v>       0.00462963 </v>
   <v>       0.00462963 </v>
   <v>       0.00462963 </v>
   <v>       0.00462963 </v>
   <v>       0.00462963 </v>
   <v>       0.00462963 </v>
   <v>       0.00462963 </v>
   <v>       0.00462963 </v>
   <v>       0.00462963 </v>
   <v>       0.00462963 </v>
   <v>       0.00462963 </v>
   <v>       0.00462963 </v>
   <v>       0.00462963 </v>
   <v>       0.00462963 </v>
   <v>       0.00462963 </v>
   <v>       0.00462963 </v>
   <v>       0.00462963 </v>
   <v>       0.00462963 </v>
   <v>       0.00462963 </v>
   <v>       0.00462963 </v>
   <v>       0.00462963 </v>
   <v>       0.00462963 </v>
   <v>       0.00462963 </v>
   <v>       0.00462963 </v>
   <v>       0.00462963 </v>
   <v>       0.00462963 </v>
   <v>       0.00462963 </v>
   <v>       0.00462963 </v>
   <v>       0.00462963 </v>
   <v>       0.00462963 </v>
   <v>       0.00462963 </v>
   <v>       0.00462963 </v>
   <v>       0.00462963 </v>
   <v>       0.00462963 </v>
   <v>       0.00462963 </v>
   <v>       0.00462963 </v>
   <v>       0.00462963 </v>
   <v>       0.00462963 </v>
   <v>       0.00462963 </v>
   <v>       0.00462963 </v>
   <v>       0.00462963 </v>
   <v>       0.00462963 </v>
   <v>       0.00462963 </v>
   <v>       0.00462963 </v>
   <v>       0.00462963 </v>
   <v>       0.00462963 </v>
   <v>       0.00462963 </v>
   <v>       0.00462963 </v>
   <v>       0.00462963 </v>
   <v>       0.00462963 </v>
   <v>       0.00462963 </v>
   <v>       0.00462963 </v>
   <v>       0.00462963 </v>
   <v>       0.00462963 </v>
   <v>       0.00462963 </v>
   <v>       0.00462963 </v>
   <v>       0.00462963 </v>
   <v>       0.00462963 </v>
   <v>       0.00462963 </v>
   <v>       0.00462963 </v>
   <v>       0.00462963 </v>
   <v>       0.00462963 </v>
   <v>       0.00462963 </v>
   <v>       0.00462963 </v>
   <v>       0.00462963 </v>
   <v>       0.00462963 </v>
   <v>       0.00462963 </v>
   <v>       0.00462963 </v>
   <v>       0.00462963 </v>
   <v>       0.00462963 </v>
   <v>       0.00462963 </v>
   <v>       0.00462963 </v>
   <v>       0.00462963 </v>
   <v>       0.00462963 </v>
  </varray>
 </kpoints>
 <parameters>
  <separator name="general" >
   <i type="string" name="SYSTEM">Og_FCC</i>
   <i type="logical" name="LCOMPAT"> F  </i>
  </separator>
  <separator name="electronic" >
   <i type="string" name="PREC">accura</i>
   <i name="ENMAX">    300.00000000</i>
   <i name="ENAUG">    755.75300000</i>
   <i name="EDIFF">      0.00000001</i>
   <i type="int" name="IALGO">    90</i>
   <i type="int" name="IWAVPR">    10</i>
   <i type="int" name="NBANDS">   128</i>
   <i name="NELECT">      8.00000000</i>
   <i type="int" name="TURBO">     0</i>
   <i type="int" name="IRESTART">     0</i>
   <i type="int" name="NREBOOT">     0</i>
   <i type="int" name="NMIN">     0</i>
   <i name="EREF">      0.00000000</i>
   <separator name="electronic smearing" >
    <i type="int" name="ISMEAR">     0</i>
    <i name="SIGMA">      0.00100000</i>
    <i name="KSPACING">      0.50000000</i>
    <i type="logical" name="KGAMMA"> T  </i>
   </separator>
   <separator name="electronic projectors" >
    <i type="logical" name="LREAL"> F  </i>
    <v name="ROPT">      0.00000000</v>
    <i type="int" name="LMAXPAW">  -100</i>
    <i type="int" name="LMAXMIX">     2</i>
    <i type="logical" name="NLSPLINE"> F  </i>
   </separator>
   <separator name="electronic startup" >
    <i type="int" name="ISTART">     1</i>
    <i type="int" name="ICHARG">     0</i>
    <i type="int" name="INIWAV">     1</i>
   </separator>
   <separator name="electronic spin" >
    <i type="int" name="ISPIN">     1</i>
    <i type="logical" name="LNONCOLLINEAR"> T  </i>
    <v name="MAGMOM">      1.00000000      1.00000000      1.00000000</v>
    <i name="NUPDOWN">     -1.00000000</i>
    <i type="logical" name="LSORBIT"> T  </i>
    <v name="SAXIS">      0.00000000      0.00000000      1.00000000</v>
    <i type="logical" name="LSPIRAL"> F  </i>
    <v name="QSPIRAL">      0.00000000      0.00000000      0.00000000</v>
    <i type="logical" name="LZEROZ"> F  </i>
   </separator>
   <separator name="electronic exchange-correlation" >
    <i type="logical" name="LASPH"> F  </i>
    <i type="logical" name="LMETAGGA"> F  </i>
   </separator>
   <separator name="electronic convergence" >
    <i type="int" name="NELM">    50</i>
    <i type="int" name="NELMDL">    -5</i>
    <i type="int" name="NELMIN">     2</i>
    <i name="ENINI">    300.00000000</i>
    <separator name="electronic convergence detail" >
     <i type="logical" name="LDIAG"> T  </i>
     <i type="logical" name="LSUBROT"> F  </i>
     <i name="WEIMIN">      0.00000000</i>
     <i name="EBREAK">      0.00000000</i>
     <i name="DEPER">      0.30000000</i>
     <i type="int" name="NRMM">     4</i>
     <i name="TIME">      0.40000000</i>
    </separator>
   </separator>
   <separator name="electronic mixer" >
    <i name="AMIX">      0.40000000</i>
    <i name="BMIX">      1.00000000</i>
    <i name="AMIN">      0.10000000</i>
    <i name="AMIX_MAG">      1.60000000</i>
    <i name="BMIX_MAG">      1.00000000</i>
    <separator name="electronic mixer details" >
     <i type="int" name="IMIX">     4</i>
     <i type="logical" name="MIXFIRST"> F  </i>
     <i type="int" name="MAXMIX">    50</i>
     <i name="WC">    100.00000000</i>
     <i type="int" name="INIMIX">     1</i>
     <i type="int" name="MIXPRE">     1</i>
     <i type="int" name="MREMOVE">     5</i>
    </separator>
   </separator>
   <separator name="electronic dipolcorrection" >
    <i type="logical" name="LDIPOL"> F  </i>
    <i type="logical" name="LMONO"> F  </i>
    <i type="int" name="IDIPOL">     0</i>
    <i name="EPSILON">      1.00000000</i>
    <v name="DIPOL">   -100.00000000   -100.00000000   -100.00000000</v>
    <i name="EFIELD">      0.00000000</i>
   </separator>
  </separator>
  <separator name="grids" >
   <i type="int" name="NGX">    18</i>
   <i type="int" name="NGY">    18</i>
   <i type="int" name="NGZ">    18</i>
   <i type="int" name="NGXF">    36</i>
   <i type="int" name="NGYF">    36</i>
   <i type="int" name="NGZF">    36</i>
   <i type="logical" name="ADDGRID"> T  </i>
  </separator>
  <separator name="ionic" >
   <i type="int" name="NSW">     1</i>
   <i type="int" name="IBRION">    -1</i>
   <i type="int" name="MDALGO">     0</i>
   <i type="int" name="ISIF">     3</i>
   <i name="PSTRESS">      0.00000000</i>
   <i name="EDIFFG">      0.00001000</i>
   <i type="int" name="NFREE">     5</i>
   <i name="POTIM">      0.10000000</i>
   <i name="SMASS">     -3.00000000</i>
   <i name="SCALEE">      1.00000000</i>
  </separator>
  <separator name="ionic md" >
   <i name="TEBEG">      0.00010000</i>
   <i name="TEEND">      0.00010000</i>
   <i type="int" name="NBLOCK">     1</i>
   <i type="int" name="KBLOCK">     1</i>
   <i type="int" name="NPACO">   256</i>
   <i name="APACO">     16.00000000</i>
  </separator>
  <separator name="symmetry" >
   <i type="int" name="ISYM">     0</i>
   <i name="SYMPREC">      0.00000010</i>
  </separator>
  <separator name="dos" >
   <i type="int" name="LORBIT">     0</i>
   <v name="RWIGS">     -1.00000000</v>
   <i type="int" name="NEDOS">   301</i>
   <i name="EMIN">     10.00000000</i>
   <i name="EMAX">    -10.00000000</i>
   <i name="EFERMI">      0.00000000</i>
  </separator>
  <separator name="writing" >
   <i type="int" name="NWRITE">     2</i>
   <i type="logical" name="LWAVE"> T  </i>
   <i type="logical" name="LDOWNSAMPLE"> F  </i>
   <i type="logical" name="LCHARG"> F  </i>
   <i type="logical" name="LPARD"> F  </i>
   <i type="logical" name="LVTOT"> F  </i>
   <i type="logical" name="LVHAR"> F  </i>
   <i type="logical" name="LELF"> F  </i>
   <i type="logical" name="LOPTICS"> T  </i>
   <v name="STM">      0.00000000      0.00000000      0.00000000      0.00000000      0.00000000      0.00000000      0.00000000</v>
  </separator>
  <separator name="performance" >
   <i type="int" name="NPAR">     4</i>
   <i type="int" name="NSIM">     4</i>
   <i type="int" name="NBLK">    -1</i>
   <i type="logical" name="LPLANE"> T  </i>
   <i type="logical" name="LSCALAPACK"> T  </i>
   <i type="logical" name="LSCAAWARE"> T  </i>
   <i type="logical" name="LSCALU"> F  </i>
   <i type="logical" name="LASYNC"> F  </i>
   <i type="logical" name="LORBITALREAL"> F  </i>
  </separator>
  <separator name="miscellaneous" >
   <i type="int" name="IDIOT">     3</i>
   <i type="int" name="ISPECIAL">     0</i>
   <i type="logical" name="LMUSIC"> F  </i>
   <v name="POMASS">     20.18000000</v>
   <v name="DARWINR">      0.00000000</v>
   <v name="DARWINV">      1.00000000</v>
   <i type="logical" name="LCORR"> T  </i>
  </separator>
  <i type="logical" name="GGA_COMPAT"> F  </i>
  <i type="logical" name="LBERRY"> F  </i>
  <i type="int" name="ICORELEVEL">     0</i>
  <i type="logical" name="LDAU"> F  </i>
  <i type="int" name="I_CONSTRAINED_M">     0</i>
  <separator name="electronic exchange-correlation" >
   <i type="string" name="GGA">PE</i>
   <i type="int" name="VOSKOWN">     0</i>
   <i type="logical" name="LHFCALC"> F  </i>
   <i type="string" name="PRECFOCK"></i>
   <i type="logical" name="LSYMGRAD"> F  </i>
   <i type="logical" name="LHFONE"> F  </i>
   <i type="logical" name="LRHFCALC"> F  </i>
   <i type="logical" name="LTHOMAS"> F  </i>
   <i type="logical" name="LMODELHF"> F  </i>
   <i name="ENCUT4O">     -1.00000000</i>
   <i type="int" name="EXXOEP">     0</i>
   <i type="int" name="FOURORBIT">     0</i>
   <i name="AEXX">      0.00000000</i>
   <i name="HFALPHA">      0.00000000</i>
   <i name="MCALPHA">      0.00000000</i>
   <i name="ALDAX">      1.00000000</i>
   <i name="AGGAX">      1.00000000</i>
   <i name="ALDAC">      1.00000000</i>
   <i name="AGGAC">      1.00000000</i>
   <i type="int" name="NKREDX">     1</i>
   <i type="int" name="NKREDY">     1</i>
   <i type="int" name="NKREDZ">     1</i>
   <i type="logical" name="SHIFTRED"> F  </i>
   <i type="logical" name="ODDONLY"> F  </i>
   <i type="logical" name="EVENONLY"> F  </i>
   <i type="int" name="LMAXFOCK">     0</i>
   <i type="int" name="NMAXFOCKAE">     0</i>
   <i type="logical" name="LFOCKAEDFT"> F  </i>
   <i name="HFSCREEN">      0.00000000</i>
   <i name="HFSCREENC">      0.00000000</i>
   <i type="int" name="NBANDSGWLOW">     0</i>
  </separator>
  <separator name="vdW DFT" >
   <i type="logical" name="LUSE_VDW"> F  </i>
   <i name="Zab_VDW">     -0.84910000</i>
   <i name="PARAM1">      0.12340000</i>
   <i name="PARAM2">      1.00000000</i>
   <i name="PARAM3">      0.00000000</i>
  </separator>
  <separator name="model GW" >
   <i type="int" name="MODEL_GW">     0</i>
   <i name="MODEL_EPS0">     11.16235683</i>
   <i name="MODEL_ALPHA">      1.00000000</i>
  </separator>
  <separator name="linear response parameters" >
   <i type="logical" name="LEPSILON"> F  </i>
   <i type="logical" name="LRPA"> F  </i>
   <i type="logical" name="LNABLA"> F  </i>
   <i type="logical" name="LVEL"> F  </i>
   <i type="int" name="KINTER">     0</i>
   <i name="CSHIFT">      0.10000000</i>
   <i name="OMEGAMAX">     -1.00000000</i>
   <i name="DEG_THRESHOLD">      0.00200000</i>
   <i name="RTIME">     -0.10000000</i>
   <i name="WPLASMAI">      0.00000000</i>
   <v name="DFIELD">      0.00000000      0.00000000      0.00000000</v>
   <v name="WPLASMA">      0.00000000      0.00000000      0.00000000      0.00000000      0.00000000      0.00000000      0.00000000      0.00000000      0.00000000</v>
  </separator>
  <separator name="orbital magnetization" >
   <i type="logical" name="NUCIND"> F  </i>
   <v name="MAGPOS">      0.00000000      0.00000000      0.00000000</v>
   <i type="logical" name="LNICSALL"> T  </i>
   <i type="logical" name="ORBITALMAG"> F  </i>
   <i type="logical" name="LMAGBLOCH"> F  </i>
   <i type="logical" name="LCHIMAG"> F  </i>
   <i type="logical" name="LGAUGE"> T  </i>
   <i type="int" name="MAGATOM">     0</i>
   <v name="MAGDIPOL">      0.00000000      0.00000000      0.00000000</v>
   <v name="AVECCONST">      0.00000000      0.00000000      0.00000000</v>
  </separator>
  <separator name="response functions" >
   <i type="logical" name="LADDER"> F  </i>
   <i type="logical" name="LRPAFORCE"> F  </i>
   <i type="logical" name="LFXC"> F  </i>
   <i type="logical" name="LHARTREE"> T  </i>
   <i type="int" name="IBSE">     0</i>
   <v type="int" name="KPOINT">    -1     0     0     0</v>
   <i type="logical" name="LTCTE"> F  </i>
   <i type="logical" name="LTETE"> F  </i>
   <i type="logical" name="LTRIPLET"> F  </i>
   <i type="logical" name="LFXCEPS"> F  </i>
   <i type="logical" name="LFXHEG"> F  </i>
   <i type="int" name="NATURALO">     2</i>
   <i type="logical" name="L2ORDER"> F  </i>
   <i type="logical" name="LMP2LT"> F  </i>
   <i type="logical" name="LUSEW"> F  </i>
   <i name="ENCUTGW">     -2.00000000</i>
   <i name="ENCUTGWSOFT">     -2.00000000</i>
   <i name="ENCUTLF">     -1.00000000</i>
   <i type="int" name="LMAXMP2">    -1</i>
   <i name="SCISSOR">      0.00000000</i>
   <i type="int" name="NOMEGA">     0</i>
   <i type="int" name="NOMEGAR">     0</i>
   <i type="int" name="NBANDSGW">    -1</i>
   <i type="int" name="NBANDSO">    -1</i>
   <i type="int" name="NBANDSV">    -1</i>
   <i type="int" name="NELM">    50</i>
   <i type="int" name="NELMHF">     1</i>
   <i type="int" name="DIM">     3</i>
   <i type="int" name="ANTIRES">     0</i>
   <i name="OMEGAMAX">    -30.00000000</i>
   <i name="OMEGAMIN">    -30.00000000</i>
   <i name="OMEGATL">   -200.00000000</i>
   <i type="int" name="OMEGAGRID">   140</i>
   <i name="CSHIFT">     -0.10000000</i>
   <i type="logical" name="SELFENERGY"> F  </i>
   <i type="logical" name="LSPECTRAL"> F  </i>
   <i type="logical" name="LSPECTRALGW"> F  </i>
   <i type="logical" name="LSINGLES"> F  </i>
   <i type="logical" name="LFERMIGW"> F  </i>
   <i type="logical" name="ODDONLYGW"> F  </i>
   <i type="logical" name="EVENONLYGW"> F  </i>
   <i type="int" name="NKREDLFX">     1</i>
   <i type="int" name="NKREDLFY">     1</i>
   <i type="int" name="NKREDLFZ">     1</i>
   <i type="int" name="MAXMEM">  2800</i>
   <i type="int" name="TELESCOPE">     0</i>
   <i type="int" name="TAUPAR">     1</i>
   <i type="int" name="OMEGAPAR">    -1</i>
   <i name="LAMBDA">      1.00000000</i>
  </separator>
  <separator name="External order field" >
   <i name="OFIELD_KAPPA">      0.00000000</i>
   <v name="OFIELD_K">      0.00000000      0.00000000      0.00000000</v>
   <i name="OFIELD_Q6_NEAR">      0.00000000</i>
   <i name="OFIELD_Q6_FAR">      0.00000000</i>
   <i name="OFIELD_A">      0.00000000</i>
  </separator>
 </parameters>
 <atominfo>
  <atoms>       1 </atoms>
  <types>       1 </types>
  <array name="atoms" >
   <dimension dim="1">ion</dimension>
   <field type="string">element</field>
   <field type="int">atomtype</field>
   <set>
    <rc><c>Ne</c><c>   1</c></rc>
   </set>
  </array>
  <array name="atomtypes" >
   <dimension dim="1">type</dimension>
   <field type="int">atomspertype</field>
   <field type="string">element</field>
   <field>mass</field>
   <field>valence</field>
   <field type="string">pseudopotential</field>
   <set>
    <rc><c>   1</c><c>Ne</c><c>     20.18000000</c><c>      8.00000000</c><c>  PAW_PBE Ne_GW 22Sep2014               </c></rc>
   </set>
  </array>
 </atominfo>
 <structure name="initialpos" >
  <crystal>
   <varray name="basis" >
    <v>       2.97422087       0.00000000       0.00000000 </v>
    <v>       1.48711043       2.57575083       0.00000000 </v>
    <v>       1.48711043       0.85858361       2.42844117 </v>
   </varray>
   <i name="volume">     18.60392805 </i>
   <varray name="rec_basis" >
    <v>       0.33622251      -0.19411816      -0.13726226 </v>
    <v>       0.00000000       0.38823631      -0.13726226 </v>
    <v>       0.00000000       0.00000000       0.41178679 </v>
   </varray>
  </crystal>
  <varray name="positions" >
   <v>       0.00000000       0.00000000       0.00000000 </v>
  </varray>
  <varray name="velocities" >
   <v>       0.00000000       0.00000000       0.00000000 </v>
  </varray>
 </structure>
 <calculation>
  <scstep>
   <time name="diag">   13.58   13.58</time>
   <time name="total">   13.61   13.61</time>
   <energy>
    <i name="alphaZ">     16.68370675 </i>
    <i name="ewald">   -502.27794943 </i>
    <i name="hartreedc">   -331.90264988 </i>
    <i name="XCdc">     45.55543059 </i>
    <i name="pawpsdc">    737.54481553 </i>
    <i name="pawaedc">   -778.91955166 </i>
    <i name="eentropy">      0.00000000 </i>
    <i name="bandstr">   -136.23345782 </i>
    <i name="atom">    952.67806118 </i>
    <i name="e_fr_energy">      3.12840525 </i>
    <i name="e_wo_entrp">      3.12840525 </i>
    <i name="e_0_energy">      3.12840525 </i>
   </energy>
  </scstep>
  <scstep>
   <time name="diag">   13.59   13.59</time>
   <time name="total">   13.59   13.60</time>
   <energy>
    <i name="e_fr_energy">      3.12840525 </i>
    <i name="e_wo_entrp">      3.12840525 </i>
    <i name="e_0_energy">      3.12840525 </i>
   </energy>
  </scstep>
  <scstep>
   <time name="diag">   13.58   13.58</time>
   <time name="total">   13.58   13.58</time>
   <energy>
    <i name="e_fr_energy">      3.12840525 </i>
    <i name="e_wo_entrp">      3.12840525 </i>
    <i name="e_0_energy">      3.12840525 </i>
   </energy>
  </scstep>
  <scstep>
   <time name="diag">   13.57   13.57</time>
   <time name="total">   13.57   13.58</time>
   <energy>
    <i name="e_fr_energy">      3.12840525 </i>
    <i name="e_wo_entrp">      3.12840525 </i>
    <i name="e_0_energy">      3.12840525 </i>
   </energy>
  </scstep>
  <scstep>
   <time name="diag">   13.55   13.55</time>
   <time name="total">   13.59   13.59</time>
   <energy>
    <i name="e_fr_energy">      3.12840525 </i>
    <i name="e_wo_entrp">      3.12840525 </i>
    <i name="e_0_energy">      3.12840525 </i>
   </energy>
  </scstep>
  <scstep>
   <time name="diag">   13.55   13.55</time>
   <time name="total">   13.57   13.58</time>
   <energy>
    <i name="alphaZ">     16.68370675 </i>
    <i name="ewald">   -502.27794943 </i>
    <i name="hartreedc">   -331.90263942 </i>
    <i name="XCdc">     45.55542991 </i>
    <i name="pawpsdc">    737.54480566 </i>
    <i name="pawaedc">   -778.91953947 </i>
    <i name="eentropy">      0.00000000 </i>
    <i name="bandstr">   -136.23346993 </i>
    <i name="atom">    952.67806118 </i>
    <i name="e_fr_energy">      3.12840525 </i>
    <i name="e_wo_entrp">      3.12840525 </i>
    <i name="e_0_energy">      3.12840525 </i>
   </energy>
  </scstep>
  <structure>
   <crystal>
    <varray name="basis" >
     <v>       2.97422087       0.00000000       0.00000000 </v>
     <v>       1.48711043       2.57575083       0.00000000 </v>
     <v>       1.48711043       0.85858361       2.42844117 </v>
    </varray>
    <i name="volume">     18.60392805 </i>
    <varray name="rec_basis" >
     <v>       0.33622251      -0.19411816      -0.13726226 </v>
     <v>       0.00000000       0.38823631      -0.13726226 </v>
     <v>       0.00000000       0.00000000       0.41178679 </v>
    </varray>
   </crystal>
   <varray name="positions" >
    <v>       0.00000000       0.00000000       0.00000000 </v>
   </varray>
  </structure>
  <varray name="forces" >
   <v>      -0.00000000       0.00000000       0.00000000 </v>
  </varray>
  <varray name="stress" >
   <v>   -2684.75405392      -0.00023161      -0.00156537 </v>
   <v>      -0.00023157   -2684.75522998       0.00135957 </v>
   <v>      -0.00156518       0.00135936   -2684.75809515 </v>
  </varray>
  <energy>
   <i name="e_fr_energy">      3.10489007 </i>
   <i name="e_wo_entrp">      3.10489007 </i>
   <i name="e_0_energy">      0.00000000 </i>
  </energy>
  <time name="totalsc">   83.04   83.12</time>
  <eigenvalues>
   <array>
    <dimension dim="1">band</dimension>
    <dimension dim="2">kpoint</dimension>
    <dimension dim="3">spin</dimension>
    <field>eigene</field>
    <field>occ</field>
    <set>
     <set comment="spin 1">
      <set comment="kpoint 1">
       <r>  -35.1064    1.0000 </r>
       <r>  -35.1064    1.0000 </r>
       <r>  -10.8073    1.0000 </r>
       <r>  -10.8073    1.0000 </r>
       <r>  -10.7086    1.0000 </r>
       <r>  -10.7086    1.0000 </r>
       <r>  -10.7086    1.0000 </r>
       <r>  -10.7086    1.0000 </r>
       <r>    1.2006    0.0000 </r>
       <r>    1.2006    0.0000 </r>
       <r>   20.8891    0.0000 </r>
       <r>   20.8891    0.0000 </r>
       <r>   20.8891    0.0000 </r>
       <r>   20.8891    0.0000 </r>
       <r>   20.8893    0.0000 </r>
       <r>   20.8893    0.0000 </r>
       <r>   23.1079    0.0000 </r>
       <r>   23.1079    0.0000 </r>
       <r>   26.1943    0.0000 </r>
       <r>   26.1943    0.0000 </r>
       <r>   26.2055    0.0000 </r>
       <r>   26.2055    0.0000 </r>
       <r>   26.2055    0.0000 </r>
       <r>   26.2055    0.0000 </r>
       <r>   27.8971    0.0000 </r>
       <r>   27.8971    0.0000 </r>
       <r>   27.8971    0.0000 </r>
       <r>   27.8971    0.0000 </r>
       <r>   29.1206    0.0000 </r>
       <r>   29.1206    0.0000 </r>
       <r>   36.0919    0.0000 </r>
       <r>   36.0919    0.0000 </r>
       <r>   36.1263    0.0000 </r>
       <r>   36.1263    0.0000 </r>
       <r>   36.1263    0.0000 </r>
       <r>   36.1263    0.0000 </r>
       <r>   50.9676    0.0000 </r>
       <r>   50.9676    0.0000 </r>
       <r>   58.9804    0.0000 </r>
       <r>   58.9804    0.0000 </r>
       <r>   58.9804    0.0000 </r>
       <r>   58.9804    0.0000 </r>
       <r>   58.9819    0.0000 </r>
       <r>   58.9819    0.0000 </r>
       <r>   61.2198    0.0000 </r>
       <r>   61.2198    0.0000 </r>
       <r>   61.2198    0.0000 </r>
       <r>   61.2198    0.0000 </r>
       <r>   62.4239    0.0000 </r>
       <r>   62.4239    0.0000 </r>
       <r>   62.4239    0.0000 </r>
       <r>   62.4239    0.0000 </r>
       <r>   62.4240    0.0000 </r>
       <r>   62.4240    0.0000 </r>
       <r>   70.6958    0.0000 </r>
       <r>   70.6958    0.0000 </r>
       <r>   70.7143    0.0000 </r>
       <r>   70.7143    0.0000 </r>
       <r>   70.7143    0.0000 </r>
       <r>   70.7143    0.0000 </r>
       <r>   78.9554    0.0000 </r>
       <r>   78.9554    0.0000 </r>
       <r>   79.9397    0.0000 </r>
       <r>   79.9397    0.0000 </r>
       <r>   79.9397    0.0000 </r>
       <r>   79.9397    0.0000 </r>
       <r>   83.2243    0.0000 </r>
       <r>   83.2243    0.0000 </r>
       <r>   83.2243    0.0000 </r>
       <r>   83.2243    0.0000 </r>
       <r>   83.2263    0.0000 </r>
       <r>   83.2263    0.0000 </r>
       <r>   86.7645    0.0000 </r>
       <r>   86.7645    0.0000 </r>
       <r>   86.7648    0.0000 </r>
       <r>   86.7648    0.0000 </r>
       <r>   86.7648    0.0000 </r>
       <r>   86.7648    0.0000 </r>
       <r>   87.9703    0.0000 </r>
       <r>   87.9703    0.0000 </r>
       <r>   88.3252    0.0000 </r>
       <r>   88.3252    0.0000 </r>
       <r>   88.3252    0.0000 </r>
       <r>   88.3252    0.0000 </r>
       <r>   88.3252    0.0000 </r>
       <r>   88.3252    0.0000 </r>
       <r>   88.3414    0.0000 </r>
       <r>   88.3414    0.0000 </r>
       <r>   88.3414    0.0000 </r>
       <r>   88.3414    0.0000 </r>
       <r>   88.3414    0.0000 </r>
       <r>   88.3414    0.0000 </r>
       <r>   90.2381    0.0000 </r>
       <r>   90.2381    0.0000 </r>
       <r>   90.2381    0.0000 </r>
       <r>   90.2381    0.0000 </r>
       <r>   90.2381    0.0000 </r>
       <r>   90.2381    0.0000 </r>
       <r>   90.5785    0.0000 </r>
       <r>   90.5785    0.0000 </r>
       <r>   90.5785    0.0000 </r>
       <r>   90.5785    0.0000 </r>
       <r>   96.0434    0.0000 </r>
       <r>   96.0434    0.0000 </r>
       <r>   96.0475    0.0000 </r>
       <r>   96.0475    0.0000 </r>
       <r>   96.0475    0.0000 </r>
       <r>   96.0475    0.0000 </r>
       <r>   96.8303    0.0000 </r>
       <r>   96.8303    0.0000 </r>
       <r>   96.8303    0.0000 </r>
       <r>   96.8303    0.0000 </r>
       <r>   96.8305    0.0000 </r>
       <r>   96.8305    0.0000 </r>
       <r>   97.1015    0.0000 </r>
       <r>   97.1015    0.0000 </r>
       <r>   97.2993    0.0000 </r>
       <r>   97.2993    0.0000 </r>
       <r>  110.0513    0.0000 </r>
       <r>  110.0513    0.0000 </r>
       <r>  110.1123    0.0000 </r>
       <r>  110.1123    0.0000 </r>
       <r>  110.1123    0.0000 </r>
       <r>  110.1123    0.0000 </r>
       <r>  126.2603    0.0000 </r>
       <r>  126.2603    0.0000 </r>
       <r>  126.2603    0.0000 </r>
       <r>  126.2603    0.0000 </r>
      </set>
      <set comment="kpoint 2">
       <r>  -35.0557    1.0000 </r>
       <r>  -35.0557    1.0000 </r>
       <r>  -10.8884    1.0000 </r>
       <r>  -10.8884    1.0000 </r>
       <r>  -10.4171    1.0000 </r>
       <r>  -10.4171    1.0000 </r>
       <r>  -10.3588    1.0000 </r>
       <r>  -10.3588    1.0000 </r>
       <r>    2.1428    0.0000 </r>
       <r>    2.1428    0.0000 </r>
       <r>   16.5141    0.0000 </r>
       <r>   16.5141    0.0000 </r>
       <r>   20.7218    0.0000 </r>
       <r>   20.7218    0.0000 </r>
       <r>   20.7232    0.0000 </r>
       <r>   20.7232    0.0000 </r>
       <r>   23.3328    0.0000 </r>
       <r>   23.3328    0.0000 </r>
       <r>   24.8899    0.0000 </r>
       <r>   24.8899    0.0000 </r>
       <r>   24.8900    0.0000 </r>
       <r>   24.8900    0.0000 </r>
       <r>   28.0456    0.0000 </r>
       <r>   28.0456    0.0000 </r>
       <r>   30.0405    0.0000 </r>
       <r>   30.0405    0.0000 </r>
       <r>   30.0541    0.0000 </r>
       <r>   30.0541    0.0000 </r>
       <r>   32.7245    0.0000 </r>
       <r>   32.7245    0.0000 </r>
       <r>   36.1940    0.0000 </r>
       <r>   36.1940    0.0000 </r>
       <r>   37.9908    0.0000 </r>
       <r>   37.9908    0.0000 </r>
       <r>   38.0031    0.0000 </r>
       <r>   38.0031    0.0000 </r>
       <r>   52.2235    0.0000 </r>
       <r>   52.2235    0.0000 </r>
       <r>   52.2261    0.0000 </r>
       <r>   52.2261    0.0000 </r>
       <r>   52.2821    0.0000 </r>
       <r>   52.2821    0.0000 </r>
       <r>   57.9536    0.0000 </r>
       <r>   57.9536    0.0000 </r>
       <r>   60.7390    0.0000 </r>
       <r>   60.7390    0.0000 </r>
       <r>   60.7407    0.0000 </r>
       <r>   60.7407    0.0000 </r>
       <r>   63.1009    0.0000 </r>
       <r>   63.1009    0.0000 </r>
       <r>   68.1530    0.0000 </r>
       <r>   68.1530    0.0000 </r>
       <r>   68.4936    0.0000 </r>
       <r>   68.4936    0.0000 </r>
       <r>   68.4997    0.0000 </r>
       <r>   68.4997    0.0000 </r>
       <r>   71.6339    0.0000 </r>
       <r>   71.6339    0.0000 </r>
       <r>   71.6351    0.0000 </r>
       <r>   71.6351    0.0000 </r>
       <r>   75.7928    0.0000 </r>
       <r>   75.7928    0.0000 </r>
       <r>   75.7948    0.0000 </r>
       <r>   75.7948    0.0000 </r>
       <r>   76.5583    0.0000 </r>
       <r>   76.5583    0.0000 </r>
       <r>   78.9889    0.0000 </r>
       <r>   78.9889    0.0000 </r>
       <r>   78.9897    0.0000 </r>
       <r>   78.9897    0.0000 </r>
       <r>   80.6168    0.0000 </r>
       <r>   80.6168    0.0000 </r>
       <r>   80.9921    0.0000 </r>
       <r>   80.9921    0.0000 </r>
       <r>   82.4568    0.0000 </r>
       <r>   82.4568    0.0000 </r>
       <r>   82.4613    0.0000 </r>
       <r>   82.4613    0.0000 </r>
       <r>   83.7372    0.0000 </r>
       <r>   83.7372    0.0000 </r>
       <r>   85.3129    0.0000 </r>
       <r>   85.3129    0.0000 </r>
       <r>   85.3136    0.0000 </r>
       <r>   85.3136    0.0000 </r>
       <r>   85.8973    0.0000 </r>
       <r>   85.8973    0.0000 </r>
       <r>   89.3045    0.0000 </r>
       <r>   89.3045    0.0000 </r>
       <r>   91.5172    0.0000 </r>
       <r>   91.5172    0.0000 </r>
       <r>   91.5177    0.0000 </r>
       <r>   91.5177    0.0000 </r>
       <r>   93.6367    0.0000 </r>
       <r>   93.6367    0.0000 </r>
       <r>   93.6381    0.0000 </r>
       <r>   93.6381    0.0000 </r>
       <r>   94.1116    0.0000 </r>
       <r>   94.1116    0.0000 </r>
       <r>   96.5162    0.0000 </r>
       <r>   96.5162    0.0000 </r>
       <r>   96.5164    0.0000 </r>
       <r>   96.5164    0.0000 </r>
       <r>   97.5129    0.0000 </r>
       <r>   97.5129    0.0000 </r>
       <r>   98.7307    0.0000 </r>
       <r>   98.7307    0.0000 </r>
       <r>  102.7688    0.0000 </r>
       <r>  102.7688    0.0000 </r>
       <r>  102.7719    0.0000 </r>
       <r>  102.7719    0.0000 </r>
       <r>  103.2713    0.0000 </r>
       <r>  103.2713    0.0000 </r>
       <r>  103.2719    0.0000 </r>
       <r>  103.2719    0.0000 </r>
       <r>  103.4085    0.0000 </r>
       <r>  103.4085    0.0000 </r>
       <r>  107.5498    0.0000 </r>
       <r>  107.5498    0.0000 </r>
       <r>  108.4272    0.0000 </r>
       <r>  108.4272    0.0000 </r>
       <r>  108.4515    0.0000 </r>
       <r>  108.4515    0.0000 </r>
       <r>  114.4169    0.0000 </r>
       <r>  114.4169    0.0000 </r>
       <r>  121.1686    0.0000 </r>
       <r>  121.1686    0.0000 </r>
       <r>  121.6950    0.0000 </r>
       <r>  121.6950    0.0000 </r>
      </set>
      <set comment="kpoint 3">
       <r>  -35.0140    1.0000 </r>
       <r>  -35.0140    1.0000 </r>
       <r>  -11.4759    1.0000 </r>
       <r>  -11.4759    1.0000 </r>
       <r>  -10.8282    1.0000 </r>
       <r>  -10.8282    1.0000 </r>
       <r>  -10.7663    1.0000 </r>
       <r>  -10.7663    1.0000 </r>
       <r>    4.4915    0.0000 </r>
       <r>    4.4915    0.0000 </r>
       <r>   11.7351    0.0000 </r>
       <r>   11.7351    0.0000 </r>
       <r>   19.8389    0.0000 </r>
       <r>   19.8389    0.0000 </r>
       <r>   19.8395    0.0000 </r>
       <r>   19.8395    0.0000 </r>
       <r>   21.9378    0.0000 </r>
       <r>   21.9378    0.0000 </r>
       <r>   24.9674    0.0000 </r>
       <r>   24.9674    0.0000 </r>
       <r>   24.9758    0.0000 </r>
       <r>   24.9758    0.0000 </r>
       <r>   29.1054    0.0000 </r>
       <r>   29.1054    0.0000 </r>
       <r>   31.9558    0.0000 </r>
       <r>   31.9558    0.0000 </r>
       <r>   31.9687    0.0000 </r>
       <r>   31.9687    0.0000 </r>
       <r>   36.1233    0.0000 </r>
       <r>   36.1233    0.0000 </r>
       <r>   41.6747    0.0000 </r>
       <r>   41.6747    0.0000 </r>
       <r>   41.6751    0.0000 </r>
       <r>   41.6751    0.0000 </r>
       <r>   43.5922    0.0000 </r>
       <r>   43.5922    0.0000 </r>
       <r>   46.5785    0.0000 </r>
       <r>   46.5785    0.0000 </r>
       <r>   46.5875    0.0000 </r>
       <r>   46.5875    0.0000 </r>
       <r>   50.9454    0.0000 </r>
       <r>   50.9454    0.0000 </r>
       <r>   56.4724    0.0000 </r>
       <r>   56.4724    0.0000 </r>
       <r>   61.1810    0.0000 </r>
       <r>   61.1810    0.0000 </r>
       <r>   61.1817    0.0000 </r>
       <r>   61.1817    0.0000 </r>
       <r>   62.8457    0.0000 </r>
       <r>   62.8457    0.0000 </r>
       <r>   62.8465    0.0000 </r>
       <r>   62.8465    0.0000 </r>
       <r>   65.0307    0.0000 </r>
       <r>   65.0307    0.0000 </r>
       <r>   65.4327    0.0000 </r>
       <r>   65.4327    0.0000 </r>
       <r>   67.1927    0.0000 </r>
       <r>   67.1927    0.0000 </r>
       <r>   70.1794    0.0000 </r>
       <r>   70.1794    0.0000 </r>
       <r>   70.1830    0.0000 </r>
       <r>   70.1830    0.0000 </r>
       <r>   73.3825    0.0000 </r>
       <r>   73.3825    0.0000 </r>
       <r>   73.3830    0.0000 </r>
       <r>   73.3830    0.0000 </r>
       <r>   73.6533    0.0000 </r>
       <r>   73.6533    0.0000 </r>
       <r>   74.4490    0.0000 </r>
       <r>   74.4490    0.0000 </r>
       <r>   78.3731    0.0000 </r>
       <r>   78.3731    0.0000 </r>
       <r>   78.3838    0.0000 </r>
       <r>   78.3838    0.0000 </r>
       <r>   84.4184    0.0000 </r>
       <r>   84.4184    0.0000 </r>
       <r>   84.4576    0.0000 </r>
       <r>   84.4576    0.0000 </r>
       <r>   84.4581    0.0000 </r>
       <r>   84.4581    0.0000 </r>
       <r>   86.2630    0.0000 </r>
       <r>   86.2630    0.0000 </r>
       <r>   86.2634    0.0000 </r>
       <r>   86.2634    0.0000 </r>
       <r>   86.7924    0.0000 </r>
       <r>   86.7924    0.0000 </r>
       <r>   91.1252    0.0000 </r>
       <r>   91.1252    0.0000 </r>
       <r>   92.7887    0.0000 </r>
       <r>   92.7887    0.0000 </r>
       <r>   92.7937    0.0000 </r>
       <r>   92.7937    0.0000 </r>
       <r>   97.2179    0.0000 </r>
       <r>   97.2179    0.0000 </r>
       <r>   98.8161    0.0000 </r>
       <r>   98.8161    0.0000 </r>
       <r>   98.8260    0.0000 </r>
       <r>   98.8260    0.0000 </r>
       <r>  104.4053    0.0000 </r>
       <r>  104.4053    0.0000 </r>
       <r>  104.4095    0.0000 </r>
       <r>  104.4095    0.0000 </r>
       <r>  104.9918    0.0000 </r>
       <r>  104.9918    0.0000 </r>
       <r>  106.5697    0.0000 </r>
       <r>  106.5697    0.0000 </r>
       <r>  106.5700    0.0000 </r>
       <r>  106.5700    0.0000 </r>
       <r>  108.1088    0.0000 </r>
       <r>  108.1088    0.0000 </r>
       <r>  110.7803    0.0000 </r>
       <r>  110.7803    0.0000 </r>
       <r>  111.4570    0.0000 </r>
       <r>  111.4570    0.0000 </r>
       <r>  111.9170    0.0000 </r>
       <r>  111.9170    0.0000 </r>
       <r>  111.9171    0.0000 </r>
       <r>  111.9171    0.0000 </r>
       <r>  113.3605    0.0000 </r>
       <r>  113.3605    0.0000 </r>
       <r>  113.3646    0.0000 </r>
       <r>  113.3646    0.0000 </r>
       <r>  114.3610    0.0000 </r>
       <r>  114.3610    0.0000 </r>
       <r>  118.7491    0.0000 </r>
       <r>  118.7491    0.0000 </r>
       <r>  118.7504    0.0000 </r>
       <r>  118.7504    0.0000 </r>
      </set>
      <set comment="kpoint 4">
       <r>  -34.9923    1.0000 </r>
       <r>  -34.9923    1.0000 </r>
       <r>  -11.9284    1.0000 </r>
       <r>  -11.9284    1.0000 </r>
       <r>  -10.9157    1.0000 </r>
       <r>  -10.9157    1.0000 </r>
       <r>  -10.8524    1.0000 </r>
       <r>  -10.8524    1.0000 </r>
       <r>    7.5952    0.0000 </r>
       <r>    7.5952    0.0000 </r>
       <r>    7.7956    0.0000 </r>
       <r>    7.7956    0.0000 </r>
       <r>   19.3521    0.0000 </r>
       <r>   19.3521    0.0000 </r>
       <r>   19.3523    0.0000 </r>
       <r>   19.3523    0.0000 </r>
       <r>   21.6460    0.0000 </r>
       <r>   21.6460    0.0000 </r>
       <r>   25.3033    0.0000 </r>
       <r>   25.3033    0.0000 </r>
       <r>   25.3196    0.0000 </r>
       <r>   25.3196    0.0000 </r>
       <r>   28.0091    0.0000 </r>
       <r>   28.0091    0.0000 </r>
       <r>   33.4697    0.0000 </r>
       <r>   33.4697    0.0000 </r>
       <r>   33.4699    0.0000 </r>
       <r>   33.4699    0.0000 </r>
       <r>   40.2307    0.0000 </r>
       <r>   40.2307    0.0000 </r>
       <r>   40.2427    0.0000 </r>
       <r>   40.2427    0.0000 </r>
       <r>   41.0228    0.0000 </r>
       <r>   41.0228    0.0000 </r>
       <r>   45.7202    0.0000 </r>
       <r>   45.7202    0.0000 </r>
       <r>   50.4218    0.0000 </r>
       <r>   50.4218    0.0000 </r>
       <r>   50.4218    0.0000 </r>
       <r>   50.4218    0.0000 </r>
       <r>   53.4971    0.0000 </r>
       <r>   53.4971    0.0000 </r>
       <r>   54.3415    0.0000 </r>
       <r>   54.3415    0.0000 </r>
       <r>   54.3456    0.0000 </r>
       <r>   54.3456    0.0000 </r>
       <r>   54.6014    0.0000 </r>
       <r>   54.6014    0.0000 </r>
       <r>   58.8921    0.0000 </r>
       <r>   58.8921    0.0000 </r>
       <r>   63.0854    0.0000 </r>
       <r>   63.0854    0.0000 </r>
       <r>   63.6388    0.0000 </r>
       <r>   63.6388    0.0000 </r>
       <r>   63.6411    0.0000 </r>
       <r>   63.6411    0.0000 </r>
       <r>   67.0300    0.0000 </r>
       <r>   67.0300    0.0000 </r>
       <r>   69.4113    0.0000 </r>
       <r>   69.4113    0.0000 </r>
       <r>   69.4116    0.0000 </r>
       <r>   69.4116    0.0000 </r>
       <r>   70.7840    0.0000 </r>
       <r>   70.7840    0.0000 </r>
       <r>   70.7840    0.0000 </r>
       <r>   70.7840    0.0000 </r>
       <r>   71.0381    0.0000 </r>
       <r>   71.0381    0.0000 </r>
       <r>   74.1992    0.0000 </r>
       <r>   74.1992    0.0000 </r>
       <r>   78.5425    0.0000 </r>
       <r>   78.5425    0.0000 </r>
       <r>   78.5576    0.0000 </r>
       <r>   78.5576    0.0000 </r>
       <r>   83.9773    0.0000 </r>
       <r>   83.9773    0.0000 </r>
       <r>   83.9785    0.0000 </r>
       <r>   83.9785    0.0000 </r>
       <r>   84.7190    0.0000 </r>
       <r>   84.7190    0.0000 </r>
       <r>   85.2241    0.0000 </r>
       <r>   85.2241    0.0000 </r>
       <r>   91.6940    0.0000 </r>
       <r>   91.6940    0.0000 </r>
       <r>   91.7061    0.0000 </r>
       <r>   91.7061    0.0000 </r>
       <r>   93.7501    0.0000 </r>
       <r>   93.7501    0.0000 </r>
       <r>   96.8103    0.0000 </r>
       <r>   96.8103    0.0000 </r>
       <r>   96.8125    0.0000 </r>
       <r>   96.8125    0.0000 </r>
       <r>  101.4774    0.0000 </r>
       <r>  101.4774    0.0000 </r>
       <r>  101.4785    0.0000 </r>
       <r>  101.4785    0.0000 </r>
       <r>  101.6387    0.0000 </r>
       <r>  101.6387    0.0000 </r>
       <r>  102.1472    0.0000 </r>
       <r>  102.1472    0.0000 </r>
       <r>  102.1472    0.0000 </r>
       <r>  102.1472    0.0000 </r>
       <r>  102.4195    0.0000 </r>
       <r>  102.4195    0.0000 </r>
       <r>  108.8009    0.0000 </r>
       <r>  108.8009    0.0000 </r>
       <r>  108.8105    0.0000 </r>
       <r>  108.8105    0.0000 </r>
       <r>  110.5884    0.0000 </r>
       <r>  110.5884    0.0000 </r>
       <r>  112.9572    0.0000 </r>
       <r>  112.9572    0.0000 </r>
       <r>  112.9574    0.0000 </r>
       <r>  112.9574    0.0000 </r>
       <r>  115.2205    0.0000 </r>
       <r>  115.2205    0.0000 </r>
       <r>  117.8374    0.0000 </r>
       <r>  117.8374    0.0000 </r>
       <r>  117.8384    0.0000 </r>
       <r>  117.8384    0.0000 </r>
       <r>  118.6651    0.0000 </r>
       <r>  118.6651    0.0000 </r>
       <r>  118.6654    0.0000 </r>
       <r>  118.6654    0.0000 </r>
       <r>  119.9222    0.0000 </r>
       <r>  119.9222    0.0000 </r>
       <r>  120.3288    0.0000 </r>
       <r>  120.3288    0.0000 </r>
      </set>
      <set comment="kpoint 5">
       <r>  -35.0140    1.0000 </r>
       <r>  -35.0140    1.0000 </r>
       <r>  -11.4759    1.0000 </r>
       <r>  -11.4759    1.0000 </r>
       <r>  -10.8282    1.0000 </r>
       <r>  -10.8282    1.0000 </r>
       <r>  -10.7663    1.0000 </r>
       <r>  -10.7663    1.0000 </r>
       <r>    4.4915    0.0000 </r>
       <r>    4.4915    0.0000 </r>
       <r>   11.7351    0.0000 </r>
       <r>   11.7351    0.0000 </r>
       <r>   19.8389    0.0000 </r>
       <r>   19.8389    0.0000 </r>
       <r>   19.8395    0.0000 </r>
       <r>   19.8395    0.0000 </r>
       <r>   21.9378    0.0000 </r>
       <r>   21.9378    0.0000 </r>
       <r>   24.9674    0.0000 </r>
       <r>   24.9674    0.0000 </r>
       <r>   24.9758    0.0000 </r>
       <r>   24.9758    0.0000 </r>
       <r>   29.1054    0.0000 </r>
       <r>   29.1054    0.0000 </r>
       <r>   31.9558    0.0000 </r>
       <r>   31.9558    0.0000 </r>
       <r>   31.9687    0.0000 </r>
       <r>   31.9687    0.0000 </r>
       <r>   36.1233    0.0000 </r>
       <r>   36.1233    0.0000 </r>
       <r>   41.6747    0.0000 </r>
       <r>   41.6747    0.0000 </r>
       <r>   41.6751    0.0000 </r>
       <r>   41.6751    0.0000 </r>
       <r>   43.5922    0.0000 </r>
       <r>   43.5922    0.0000 </r>
       <r>   46.5785    0.0000 </r>
       <r>   46.5785    0.0000 </r>
       <r>   46.5875    0.0000 </r>
       <r>   46.5875    0.0000 </r>
       <r>   50.9454    0.0000 </r>
       <r>   50.9454    0.0000 </r>
       <r>   56.4724    0.0000 </r>
       <r>   56.4724    0.0000 </r>
       <r>   61.1810    0.0000 </r>
       <r>   61.1810    0.0000 </r>
       <r>   61.1817    0.0000 </r>
       <r>   61.1817    0.0000 </r>
       <r>   62.8457    0.0000 </r>
       <r>   62.8457    0.0000 </r>
       <r>   62.8465    0.0000 </r>
       <r>   62.8465    0.0000 </r>
       <r>   65.0307    0.0000 </r>
       <r>   65.0307    0.0000 </r>
       <r>   65.4327    0.0000 </r>
       <r>   65.4327    0.0000 </r>
       <r>   67.1927    0.0000 </r>
       <r>   67.1927    0.0000 </r>
       <r>   70.1794    0.0000 </r>
       <r>   70.1794    0.0000 </r>
       <r>   70.1830    0.0000 </r>
       <r>   70.1830    0.0000 </r>
       <r>   73.3825    0.0000 </r>
       <r>   73.3825    0.0000 </r>
       <r>   73.3830    0.0000 </r>
       <r>   73.3830    0.0000 </r>
       <r>   73.6533    0.0000 </r>
       <r>   73.6533    0.0000 </r>
       <r>   74.4490    0.0000 </r>
       <r>   74.4490    0.0000 </r>
       <r>   78.3731    0.0000 </r>
       <r>   78.3731    0.0000 </r>
       <r>   78.3838    0.0000 </r>
       <r>   78.3838    0.0000 </r>
       <r>   84.4184    0.0000 </r>
       <r>   84.4184    0.0000 </r>
       <r>   84.4576    0.0000 </r>
       <r>   84.4576    0.0000 </r>
       <r>   84.4581    0.0000 </r>
       <r>   84.4581    0.0000 </r>
       <r>   86.2630    0.0000 </r>
       <r>   86.2630    0.0000 </r>
       <r>   86.2634    0.0000 </r>
       <r>   86.2634    0.0000 </r>
       <r>   86.7924    0.0000 </r>
       <r>   86.7924    0.0000 </r>
       <r>   91.1252    0.0000 </r>
       <r>   91.1252    0.0000 </r>
       <r>   92.7887    0.0000 </r>
       <r>   92.7887    0.0000 </r>
       <r>   92.7937    0.0000 </r>
       <r>   92.7937    0.0000 </r>
       <r>   97.2179    0.0000 </r>
       <r>   97.2179    0.0000 </r>
       <r>   98.8161    0.0000 </r>
       <r>   98.8161    0.0000 </r>
       <r>   98.8260    0.0000 </r>
       <r>   98.8260    0.0000 </r>
       <r>  104.4053    0.0000 </r>
       <r>  104.4053    0.0000 </r>
       <r>  104.4095    0.0000 </r>
       <r>  104.4095    0.0000 </r>
       <r>  104.9918    0.0000 </r>
       <r>  104.9918    0.0000 </r>
       <r>  106.5697    0.0000 </r>
       <r>  106.5697    0.0000 </r>
       <r>  106.5700    0.0000 </r>
       <r>  106.5700    0.0000 </r>
       <r>  108.1088    0.0000 </r>
       <r>  108.1088    0.0000 </r>
       <r>  110.7803    0.0000 </r>
       <r>  110.7803    0.0000 </r>
       <r>  111.4570    0.0000 </r>
       <r>  111.4570    0.0000 </r>
       <r>  111.9170    0.0000 </r>
       <r>  111.9170    0.0000 </r>
       <r>  111.9171    0.0000 </r>
       <r>  111.9171    0.0000 </r>
       <r>  113.3605    0.0000 </r>
       <r>  113.3605    0.0000 </r>
       <r>  113.3646    0.0000 </r>
       <r>  113.3646    0.0000 </r>
       <r>  114.3610    0.0000 </r>
       <r>  114.3610    0.0000 </r>
       <r>  118.7491    0.0000 </r>
       <r>  118.7491    0.0000 </r>
       <r>  118.7504    0.0000 </r>
       <r>  118.7504    0.0000 </r>
      </set>
      <set comment="kpoint 6">
       <r>  -35.0557    1.0000 </r>
       <r>  -35.0557    1.0000 </r>
       <r>  -10.8884    1.0000 </r>
       <r>  -10.8884    1.0000 </r>
       <r>  -10.4171    1.0000 </r>
       <r>  -10.4171    1.0000 </r>
       <r>  -10.3588    1.0000 </r>
       <r>  -10.3588    1.0000 </r>
       <r>    2.1428    0.0000 </r>
       <r>    2.1428    0.0000 </r>
       <r>   16.5141    0.0000 </r>
       <r>   16.5141    0.0000 </r>
       <r>   20.7218    0.0000 </r>
       <r>   20.7218    0.0000 </r>
       <r>   20.7232    0.0000 </r>
       <r>   20.7232    0.0000 </r>
       <r>   23.3328    0.0000 </r>
       <r>   23.3328    0.0000 </r>
       <r>   24.8899    0.0000 </r>
       <r>   24.8899    0.0000 </r>
       <r>   24.8900    0.0000 </r>
       <r>   24.8900    0.0000 </r>
       <r>   28.0456    0.0000 </r>
       <r>   28.0456    0.0000 </r>
       <r>   30.0405    0.0000 </r>
       <r>   30.0405    0.0000 </r>
       <r>   30.0541    0.0000 </r>
       <r>   30.0541    0.0000 </r>
       <r>   32.7245    0.0000 </r>
       <r>   32.7245    0.0000 </r>
       <r>   36.1940    0.0000 </r>
       <r>   36.1940    0.0000 </r>
       <r>   37.9908    0.0000 </r>
       <r>   37.9908    0.0000 </r>
       <r>   38.0031    0.0000 </r>
       <r>   38.0031    0.0000 </r>
       <r>   52.2235    0.0000 </r>
       <r>   52.2235    0.0000 </r>
       <r>   52.2261    0.0000 </r>
       <r>   52.2261    0.0000 </r>
       <r>   52.2821    0.0000 </r>
       <r>   52.2821    0.0000 </r>
       <r>   57.9536    0.0000 </r>
       <r>   57.9536    0.0000 </r>
       <r>   60.7390    0.0000 </r>
       <r>   60.7390    0.0000 </r>
       <r>   60.7407    0.0000 </r>
       <r>   60.7407    0.0000 </r>
       <r>   63.1009    0.0000 </r>
       <r>   63.1009    0.0000 </r>
       <r>   68.1530    0.0000 </r>
       <r>   68.1530    0.0000 </r>
       <r>   68.4936    0.0000 </r>
       <r>   68.4936    0.0000 </r>
       <r>   68.4997    0.0000 </r>
       <r>   68.4997    0.0000 </r>
       <r>   71.6339    0.0000 </r>
       <r>   71.6339    0.0000 </r>
       <r>   71.6351    0.0000 </r>
       <r>   71.6351    0.0000 </r>
       <r>   75.7928    0.0000 </r>
       <r>   75.7928    0.0000 </r>
       <r>   75.7948    0.0000 </r>
       <r>   75.7948    0.0000 </r>
       <r>   76.5583    0.0000 </r>
       <r>   76.5583    0.0000 </r>
       <r>   78.9889    0.0000 </r>
       <r>   78.9889    0.0000 </r>
       <r>   78.9897    0.0000 </r>
       <r>   78.9897    0.0000 </r>
       <r>   80.6168    0.0000 </r>
       <r>   80.6168    0.0000 </r>
       <r>   80.9921    0.0000 </r>
       <r>   80.9921    0.0000 </r>
       <r>   82.4568    0.0000 </r>
       <r>   82.4568    0.0000 </r>
       <r>   82.4613    0.0000 </r>
       <r>   82.4613    0.0000 </r>
       <r>   83.7372    0.0000 </r>
       <r>   83.7372    0.0000 </r>
       <r>   85.3129    0.0000 </r>
       <r>   85.3129    0.0000 </r>
       <r>   85.3136    0.0000 </r>
       <r>   85.3136    0.0000 </r>
       <r>   85.8973    0.0000 </r>
       <r>   85.8973    0.0000 </r>
       <r>   89.3045    0.0000 </r>
       <r>   89.3045    0.0000 </r>
       <r>   91.5172    0.0000 </r>
       <r>   91.5172    0.0000 </r>
       <r>   91.5177    0.0000 </r>
       <r>   91.5177    0.0000 </r>
       <r>   93.6367    0.0000 </r>
       <r>   93.6367    0.0000 </r>
       <r>   93.6381    0.0000 </r>
       <r>   93.6381    0.0000 </r>
       <r>   94.1116    0.0000 </r>
       <r>   94.1116    0.0000 </r>
       <r>   96.5162    0.0000 </r>
       <r>   96.5162    0.0000 </r>
       <r>   96.5164    0.0000 </r>
       <r>   96.5164    0.0000 </r>
       <r>   97.5129    0.0000 </r>
       <r>   97.5129    0.0000 </r>
       <r>   98.7307    0.0000 </r>
       <r>   98.7307    0.0000 </r>
       <r>  102.7688    0.0000 </r>
       <r>  102.7688    0.0000 </r>
       <r>  102.7719    0.0000 </r>
       <r>  102.7719    0.0000 </r>
       <r>  103.2713    0.0000 </r>
       <r>  103.2713    0.0000 </r>
       <r>  103.2719    0.0000 </r>
       <r>  103.2719    0.0000 </r>
       <r>  103.4085    0.0000 </r>
       <r>  103.4085    0.0000 </r>
       <r>  107.5498    0.0000 </r>
       <r>  107.5498    0.0000 </r>
       <r>  108.4272    0.0000 </r>
       <r>  108.4272    0.0000 </r>
       <r>  108.4515    0.0000 </r>
       <r>  108.4515    0.0000 </r>
       <r>  114.4169    0.0000 </r>
       <r>  114.4169    0.0000 </r>
       <r>  121.1686    0.0000 </r>
       <r>  121.1686    0.0000 </r>
       <r>  121.6950    0.0000 </r>
       <r>  121.6950    0.0000 </r>
      </set>
      <set comment="kpoint 7">
       <r>  -35.0557    1.0000 </r>
       <r>  -35.0557    1.0000 </r>
       <r>  -10.8884    1.0000 </r>
       <r>  -10.8884    1.0000 </r>
       <r>  -10.4171    1.0000 </r>
       <r>  -10.4171    1.0000 </r>
       <r>  -10.3588    1.0000 </r>
       <r>  -10.3588    1.0000 </r>
       <r>    2.1428    0.0000 </r>
       <r>    2.1428    0.0000 </r>
       <r>   16.5141    0.0000 </r>
       <r>   16.5141    0.0000 </r>
       <r>   20.7218    0.0000 </r>
       <r>   20.7218    0.0000 </r>
       <r>   20.7232    0.0000 </r>
       <r>   20.7232    0.0000 </r>
       <r>   23.3328    0.0000 </r>
       <r>   23.3328    0.0000 </r>
       <r>   24.8899    0.0000 </r>
       <r>   24.8899    0.0000 </r>
       <r>   24.8900    0.0000 </r>
       <r>   24.8900    0.0000 </r>
       <r>   28.0456    0.0000 </r>
       <r>   28.0456    0.0000 </r>
       <r>   30.0405    0.0000 </r>
       <r>   30.0405    0.0000 </r>
       <r>   30.0541    0.0000 </r>
       <r>   30.0541    0.0000 </r>
       <r>   32.7245    0.0000 </r>
       <r>   32.7245    0.0000 </r>
       <r>   36.1940    0.0000 </r>
       <r>   36.1940    0.0000 </r>
       <r>   37.9908    0.0000 </r>
       <r>   37.9908    0.0000 </r>
       <r>   38.0031    0.0000 </r>
       <r>   38.0031    0.0000 </r>
       <r>   52.2235    0.0000 </r>
       <r>   52.2235    0.0000 </r>
       <r>   52.2261    0.0000 </r>
       <r>   52.2261    0.0000 </r>
       <r>   52.2821    0.0000 </r>
       <r>   52.2821    0.0000 </r>
       <r>   57.9536    0.0000 </r>
       <r>   57.9536    0.0000 </r>
       <r>   60.7390    0.0000 </r>
       <r>   60.7390    0.0000 </r>
       <r>   60.7407    0.0000 </r>
       <r>   60.7407    0.0000 </r>
       <r>   63.1009    0.0000 </r>
       <r>   63.1009    0.0000 </r>
       <r>   68.1530    0.0000 </r>
       <r>   68.1530    0.0000 </r>
       <r>   68.4936    0.0000 </r>
       <r>   68.4936    0.0000 </r>
       <r>   68.4997    0.0000 </r>
       <r>   68.4997    0.0000 </r>
       <r>   71.6339    0.0000 </r>
       <r>   71.6339    0.0000 </r>
       <r>   71.6351    0.0000 </r>
       <r>   71.6351    0.0000 </r>
       <r>   75.7929    0.0000 </r>
       <r>   75.7929    0.0000 </r>
       <r>   75.7948    0.0000 </r>
       <r>   75.7948    0.0000 </r>
       <r>   76.5583    0.0000 </r>
       <r>   76.5583    0.0000 </r>
       <r>   78.9889    0.0000 </r>
       <r>   78.9889    0.0000 </r>
       <r>   78.9897    0.0000 </r>
       <r>   78.9897    0.0000 </r>
       <r>   80.6168    0.0000 </r>
       <r>   80.6168    0.0000 </r>
       <r>   80.9921    0.0000 </r>
       <r>   80.9921    0.0000 </r>
       <r>   82.4568    0.0000 </r>
       <r>   82.4568    0.0000 </r>
       <r>   82.4613    0.0000 </r>
       <r>   82.4613    0.0000 </r>
       <r>   83.7372    0.0000 </r>
       <r>   83.7372    0.0000 </r>
       <r>   85.3129    0.0000 </r>
       <r>   85.3129    0.0000 </r>
       <r>   85.3136    0.0000 </r>
       <r>   85.3136    0.0000 </r>
       <r>   85.8973    0.0000 </r>
       <r>   85.8973    0.0000 </r>
       <r>   89.3045    0.0000 </r>
       <r>   89.3045    0.0000 </r>
       <r>   91.5172    0.0000 </r>
       <r>   91.5172    0.0000 </r>
       <r>   91.5177    0.0000 </r>
       <r>   91.5177    0.0000 </r>
       <r>   93.6367    0.0000 </r>
       <r>   93.6367    0.0000 </r>
       <r>   93.6381    0.0000 </r>
       <r>   93.6381    0.0000 </r>
       <r>   94.1116    0.0000 </r>
       <r>   94.1116    0.0000 </r>
       <r>   96.5162    0.0000 </r>
       <r>   96.5162    0.0000 </r>
       <r>   96.5164    0.0000 </r>
       <r>   96.5164    0.0000 </r>
       <r>   97.5129    0.0000 </r>
       <r>   97.5129    0.0000 </r>
       <r>   98.7307    0.0000 </r>
       <r>   98.7307    0.0000 </r>
       <r>  102.7688    0.0000 </r>
       <r>  102.7688    0.0000 </r>
       <r>  102.7719    0.0000 </r>
       <r>  102.7719    0.0000 </r>
       <r>  103.2713    0.0000 </r>
       <r>  103.2713    0.0000 </r>
       <r>  103.2719    0.0000 </r>
       <r>  103.2719    0.0000 </r>
       <r>  103.4085    0.0000 </r>
       <r>  103.4085    0.0000 </r>
       <r>  107.5498    0.0000 </r>
       <r>  107.5498    0.0000 </r>
       <r>  108.4272    0.0000 </r>
       <r>  108.4272    0.0000 </r>
       <r>  108.4515    0.0000 </r>
       <r>  108.4515    0.0000 </r>
       <r>  114.4169    0.0000 </r>
       <r>  114.4169    0.0000 </r>
       <r>  121.1687    0.0000 </r>
       <r>  121.1687    0.0000 </r>
       <r>  121.6950    0.0000 </r>
       <r>  121.6950    0.0000 </r>
      </set>
      <set comment="kpoint 8">
       <r>  -35.0555    1.0000 </r>
       <r>  -35.0555    1.0000 </r>
       <r>  -10.8806    1.0000 </r>
       <r>  -10.8806    1.0000 </r>
       <r>  -10.6519    1.0000 </r>
       <r>  -10.6519    1.0000 </r>
       <r>  -10.5973    1.0000 </r>
       <r>  -10.5973    1.0000 </r>
       <r>    2.4327    0.0000 </r>
       <r>    2.4327    0.0000 </r>
       <r>   17.1827    0.0000 </r>
       <r>   17.1827    0.0000 </r>
       <r>   19.7018    0.0000 </r>
       <r>   19.7018    0.0000 </r>
       <r>   19.7075    0.0000 </r>
       <r>   19.7075    0.0000 </r>
       <r>   19.8771    0.0000 </r>
       <r>   19.8771    0.0000 </r>
       <r>   27.7076    0.0000 </r>
       <r>   27.7076    0.0000 </r>
       <r>   28.6944    0.0000 </r>
       <r>   28.6944    0.0000 </r>
       <r>   28.8169    0.0000 </r>
       <r>   28.8169    0.0000 </r>
       <r>   29.4509    0.0000 </r>
       <r>   29.4509    0.0000 </r>
       <r>   29.4543    0.0000 </r>
       <r>   29.4543    0.0000 </r>
       <r>   32.3066    0.0000 </r>
       <r>   32.3066    0.0000 </r>
       <r>   36.1307    0.0000 </r>
       <r>   36.1307    0.0000 </r>
       <r>   36.1490    0.0000 </r>
       <r>   36.1490    0.0000 </r>
       <r>   40.5206    0.0000 </r>
       <r>   40.5206    0.0000 </r>
       <r>   51.6780    0.0000 </r>
       <r>   51.6780    0.0000 </r>
       <r>   52.6073    0.0000 </r>
       <r>   52.6073    0.0000 </r>
       <r>   53.3543    0.0000 </r>
       <r>   53.3543    0.0000 </r>
       <r>   53.3594    0.0000 </r>
       <r>   53.3594    0.0000 </r>
       <r>   59.7347    0.0000 </r>
       <r>   59.7347    0.0000 </r>
       <r>   60.3620    0.0000 </r>
       <r>   60.3620    0.0000 </r>
       <r>   66.4179    0.0000 </r>
       <r>   66.4179    0.0000 </r>
       <r>   67.3351    0.0000 </r>
       <r>   67.3351    0.0000 </r>
       <r>   67.3406    0.0000 </r>
       <r>   67.3406    0.0000 </r>
       <r>   70.3888    0.0000 </r>
       <r>   70.3888    0.0000 </r>
       <r>   70.3897    0.0000 </r>
       <r>   70.3897    0.0000 </r>
       <r>   73.3006    0.0000 </r>
       <r>   73.3006    0.0000 </r>
       <r>   73.5131    0.0000 </r>
       <r>   73.5131    0.0000 </r>
       <r>   75.0418    0.0000 </r>
       <r>   75.0418    0.0000 </r>
       <r>   75.0446    0.0000 </r>
       <r>   75.0446    0.0000 </r>
       <r>   76.0628    0.0000 </r>
       <r>   76.0628    0.0000 </r>
       <r>   78.5581    0.0000 </r>
       <r>   78.5581    0.0000 </r>
       <r>   80.4558    0.0000 </r>
       <r>   80.4558    0.0000 </r>
       <r>   83.5200    0.0000 </r>
       <r>   83.5200    0.0000 </r>
       <r>   83.5200    0.0000 </r>
       <r>   83.5200    0.0000 </r>
       <r>   83.9505    0.0000 </r>
       <r>   83.9505    0.0000 </r>
       <r>   84.6261    0.0000 </r>
       <r>   84.6261    0.0000 </r>
       <r>   86.8962    0.0000 </r>
       <r>   86.8962    0.0000 </r>
       <r>   86.8988    0.0000 </r>
       <r>   86.8988    0.0000 </r>
       <r>   87.8578    0.0000 </r>
       <r>   87.8578    0.0000 </r>
       <r>   87.8703    0.0000 </r>
       <r>   87.8703    0.0000 </r>
       <r>   87.8737    0.0000 </r>
       <r>   87.8737    0.0000 </r>
       <r>   88.2328    0.0000 </r>
       <r>   88.2328    0.0000 </r>
       <r>   92.1894    0.0000 </r>
       <r>   92.1894    0.0000 </r>
       <r>   93.6464    0.0000 </r>
       <r>   93.6464    0.0000 </r>
       <r>   94.0320    0.0000 </r>
       <r>   94.0320    0.0000 </r>
       <r>   95.5469    0.0000 </r>
       <r>   95.5469    0.0000 </r>
       <r>   95.5470    0.0000 </r>
       <r>   95.5470    0.0000 </r>
       <r>   96.1849    0.0000 </r>
       <r>   96.1849    0.0000 </r>
       <r>  102.6744    0.0000 </r>
       <r>  102.6744    0.0000 </r>
       <r>  102.6813    0.0000 </r>
       <r>  102.6813    0.0000 </r>
       <r>  103.1179    0.0000 </r>
       <r>  103.1179    0.0000 </r>
       <r>  106.2809    0.0000 </r>
       <r>  106.2809    0.0000 </r>
       <r>  107.8274    0.0000 </r>
       <r>  107.8274    0.0000 </r>
       <r>  107.8437    0.0000 </r>
       <r>  107.8437    0.0000 </r>
       <r>  109.1867    0.0000 </r>
       <r>  109.1867    0.0000 </r>
       <r>  110.2001    0.0000 </r>
       <r>  110.2001    0.0000 </r>
       <r>  110.9095    0.0000 </r>
       <r>  110.9095    0.0000 </r>
       <r>  110.9226    0.0000 </r>
       <r>  110.9226    0.0000 </r>
       <r>  116.1299    0.0000 </r>
       <r>  116.1299    0.0000 </r>
       <r>  126.4294    0.0000 </r>
       <r>  126.4294    0.0000 </r>
      </set>
      <set comment="kpoint 9">
       <r>  -35.0123    1.0000 </r>
       <r>  -35.0123    1.0000 </r>
       <r>  -11.3445    1.0000 </r>
       <r>  -11.3445    1.0000 </r>
       <r>  -10.8346    1.0000 </r>
       <r>  -10.8346    1.0000 </r>
       <r>  -10.7709    1.0000 </r>
       <r>  -10.7709    1.0000 </r>
       <r>    4.2445    0.0000 </r>
       <r>    4.2445    0.0000 </r>
       <r>   13.5650    0.0000 </r>
       <r>   13.5650    0.0000 </r>
       <r>   16.8365    0.0000 </r>
       <r>   16.8365    0.0000 </r>
       <r>   19.0859    0.0000 </r>
       <r>   19.0859    0.0000 </r>
       <r>   20.9389    0.0000 </r>
       <r>   20.9389    0.0000 </r>
       <r>   27.0705    0.0000 </r>
       <r>   27.0705    0.0000 </r>
       <r>   28.0468    0.0000 </r>
       <r>   28.0468    0.0000 </r>
       <r>   28.9897    0.0000 </r>
       <r>   28.9897    0.0000 </r>
       <r>   31.8256    0.0000 </r>
       <r>   31.8256    0.0000 </r>
       <r>   33.2793    0.0000 </r>
       <r>   33.2793    0.0000 </r>
       <r>   36.1508    0.0000 </r>
       <r>   36.1508    0.0000 </r>
       <r>   37.9822    0.0000 </r>
       <r>   37.9822    0.0000 </r>
       <r>   39.4747    0.0000 </r>
       <r>   39.4747    0.0000 </r>
       <r>   45.4176    0.0000 </r>
       <r>   45.4176    0.0000 </r>
       <r>   45.7093    0.0000 </r>
       <r>   45.7093    0.0000 </r>
       <r>   48.2021    0.0000 </r>
       <r>   48.2021    0.0000 </r>
       <r>   52.6441    0.0000 </r>
       <r>   52.6441    0.0000 </r>
       <r>   54.0449    0.0000 </r>
       <r>   54.0449    0.0000 </r>
       <r>   58.3515    0.0000 </r>
       <r>   58.3515    0.0000 </r>
       <r>   60.2073    0.0000 </r>
[...]
       <r>    82.9763     0.0000     0.0000 </r>
       <r>    83.5686     0.0000     0.0000 </r>
       <r>    84.1609     0.0000     0.0000 </r>
       <r>    84.7532     0.0000     0.0000 </r>
       <r>    85.3455     0.0000     0.0000 </r>
       <r>    85.9378     0.0000     0.0000 </r>
       <r>    86.5301     0.0000     0.0000 </r>
       <r>    87.1223     0.0000     0.0000 </r>
       <r>    87.7146     0.0000     0.0000 </r>
       <r>    88.3069     0.0000     0.0000 </r>
       <r>    88.8992     0.0000     0.0000 </r>
       <r>    89.4915     0.0000     0.0000 </r>
       <r>    90.0838     0.0000     0.0000 </r>
       <r>    90.6761     0.0000     0.0000 </r>
       <r>    91.2684     0.0000     0.0000 </r>
       <r>    91.8607     0.0000     0.0000 </r>
       <r>    92.4530     0.0000     0.0000 </r>
       <r>    93.0453     0.0000     0.0000 </r>
       <r>    93.6376     0.0000     0.0000 </r>
       <r>    94.2299     0.0000     0.0000 </r>
       <r>    94.8222     0.0000     0.0000 </r>
       <r>    95.4145     0.0000     0.0000 </r>
       <r>    96.0068     0.0000     0.0000 </r>
       <r>    96.5991     0.0000     0.0000 </r>
       <r>    97.1914     0.0000     0.0000 </r>
       <r>    97.7837     0.0000     0.0000 </r>
       <r>    98.3760     0.0000     0.0000 </r>
       <r>    98.9683     0.0000     0.0000 </r>
       <r>    99.5606     0.0000     0.0000 </r>
       <r>   100.1529     0.0000     0.0000 </r>
       <r>   100.7452     0.0000     0.0000 </r>
       <r>   101.3375     0.0000     0.0000 </r>
       <r>   101.9298     0.0000     0.0000 </r>
       <r>   102.5221     0.0000     0.0000 </r>
       <r>   103.1144     0.0000     0.0000 </r>
       <r>   103.7067     0.0000     0.0000 </r>
       <r>   104.2990     0.0000     0.0000 </r>
       <r>   104.8913     0.0000     0.0000 </r>
       <r>   105.4836     0.0000     0.0000 </r>
       <r>   106.0759     0.0000     0.0000 </r>
       <r>   106.6682     0.0000     0.0000 </r>
       <r>   107.2605     0.0000     0.0000 </r>
       <r>   107.8528     0.0000     0.0000 </r>
       <r>   108.4451     0.0000     0.0000 </r>
       <r>   109.0374     0.0000     0.0000 </r>
       <r>   109.6297     0.0000     0.0000 </r>
       <r>   110.2220     0.0000     0.0000 </r>
       <r>   110.8143     0.0000     0.0000 </r>
       <r>   111.4066     0.0000     0.0000 </r>
       <r>   111.9989     0.0000     0.0000 </r>
       <r>   112.5912     0.0000     0.0000 </r>
       <r>   113.1835     0.0000     0.0000 </r>
       <r>   113.7758     0.0000     0.0000 </r>
       <r>   114.3681     0.0000     0.0000 </r>
       <r>   114.9604     0.0000     0.0000 </r>
       <r>   115.5526     0.0000     0.0000 </r>
       <r>   116.1449     0.0000     0.0000 </r>
       <r>   116.7372     0.0000     0.0000 </r>
       <r>   117.3295     0.0000     0.0000 </r>
       <r>   117.9218     0.0000     0.0000 </r>
       <r>   118.5141     0.0000     0.0000 </r>
       <r>   119.1064     0.0000     0.0000 </r>
       <r>   119.6987     0.0000     0.0000 </r>
       <r>   120.2910     0.0000     0.0000 </r>
       <r>   120.8833     0.0000     0.0000 </r>
       <r>   121.4756     0.0000     0.0000 </r>
       <r>   122.0679     0.0000     0.0000 </r>
       <r>   122.6602     0.0000     0.0000 </r>
       <r>   123.2525     0.0000     0.0000 </r>
       <r>   123.8448     0.0000     0.0000 </r>
       <r>   124.4371     0.0000     0.0000 </r>
       <r>   125.0294     0.0000     0.0000 </r>
       <r>   125.6217     0.0000     0.0000 </r>
       <r>   126.2140     0.0000     0.0000 </r>
       <r>   126.8063     0.0000     0.0000 </r>
       <r>   127.3986     0.0000     0.0000 </r>
       <r>   127.9909     0.0000     0.0000 </r>
       <r>   128.5832     0.0000     0.0000 </r>
       <r>   129.1755     0.0000     0.0000 </r>
       <r>   129.7678     0.0000     0.0000 </r>
       <r>   130.3601     0.0000     0.0000 </r>
       <r>   130.9524     0.0000     0.0000 </r>
       <r>   131.5447     0.0000     0.0000 </r>
       <r>   132.1370     0.0000     0.0000 </r>
       <r>   132.7293     0.0000     0.0000 </r>
       <r>   133.3216     0.0000     0.0000 </r>
       <r>   133.9139     0.0000     0.0000 </r>
       <r>   134.5062     0.0000     0.0000 </r>
      </set>
      <set comment="spin 4">
       <r>   -43.1832     0.0000     0.0000 </r>
       <r>   -42.5909     0.0000     0.0000 </r>
       <r>   -41.9986     0.0000     0.0000 </r>
       <r>   -41.4063     0.0000     0.0000 </r>
       <r>   -40.8140     0.0000     0.0000 </r>
       <r>   -40.2217     0.0000     0.0000 </r>
       <r>   -39.6294     0.0000     0.0000 </r>
       <r>   -39.0371     0.0000     0.0000 </r>
       <r>   -38.4448     0.0000     0.0000 </r>
       <r>   -37.8525     0.0000     0.0000 </r>
       <r>   -37.2602     0.0000     0.0000 </r>
       <r>   -36.6679     0.0000     0.0000 </r>
       <r>   -36.0756     0.0000     0.0000 </r>
       <r>   -35.4833     0.0000     0.0000 </r>
       <r>   -34.8910     0.0000     0.0000 </r>
       <r>   -34.2987     0.0000     0.0000 </r>
       <r>   -33.7064     0.0000     0.0000 </r>
       <r>   -33.1141     0.0000     0.0000 </r>
       <r>   -32.5218     0.0000     0.0000 </r>
       <r>   -31.9295     0.0000     0.0000 </r>
       <r>   -31.3372     0.0000     0.0000 </r>
       <r>   -30.7449     0.0000     0.0000 </r>
       <r>   -30.1526     0.0000     0.0000 </r>
       <r>   -29.5603     0.0000     0.0000 </r>
       <r>   -28.9680     0.0000     0.0000 </r>
       <r>   -28.3757     0.0000     0.0000 </r>
       <r>   -27.7834     0.0000     0.0000 </r>
       <r>   -27.1912     0.0000     0.0000 </r>
       <r>   -26.5989     0.0000     0.0000 </r>
       <r>   -26.0066     0.0000     0.0000 </r>
       <r>   -25.4143     0.0000     0.0000 </r>
       <r>   -24.8220     0.0000     0.0000 </r>
       <r>   -24.2297     0.0000     0.0000 </r>
       <r>   -23.6374     0.0000     0.0000 </r>
       <r>   -23.0451     0.0000     0.0000 </r>
       <r>   -22.4528     0.0000     0.0000 </r>
       <r>   -21.8605     0.0000     0.0000 </r>
       <r>   -21.2682     0.0000     0.0000 </r>
       <r>   -20.6759     0.0000     0.0000 </r>
       <r>   -20.0836     0.0000     0.0000 </r>
       <r>   -19.4913     0.0000     0.0000 </r>
       <r>   -18.8990     0.0000     0.0000 </r>
       <r>   -18.3067     0.0000     0.0000 </r>
       <r>   -17.7144     0.0000     0.0000 </r>
       <r>   -17.1221     0.0000     0.0000 </r>
       <r>   -16.5298     0.0000     0.0000 </r>
       <r>   -15.9375     0.0000     0.0000 </r>
       <r>   -15.3452     0.0000     0.0000 </r>
       <r>   -14.7529     0.0000     0.0000 </r>
       <r>   -14.1606     0.0000     0.0000 </r>
       <r>   -13.5683     0.0000     0.0000 </r>
       <r>   -12.9760     0.0000     0.0000 </r>
       <r>   -12.3837     0.0000     0.0000 </r>
       <r>   -11.7914     0.0000     0.0000 </r>
       <r>   -11.1991     0.0000     0.0000 </r>
       <r>   -10.6068     0.0000     0.0000 </r>
       <r>   -10.0145     0.0000     0.0000 </r>
       <r>    -9.4222     0.0000     0.0000 </r>
       <r>    -8.8299     0.0000     0.0000 </r>
       <r>    -8.2376     0.0000     0.0000 </r>
       <r>    -7.6453     0.0000     0.0000 </r>
       <r>    -7.0530     0.0000     0.0000 </r>
       <r>    -6.4607     0.0000     0.0000 </r>
       <r>    -5.8684     0.0000     0.0000 </r>
       <r>    -5.2761     0.0000     0.0000 </r>
       <r>    -4.6838     0.0000     0.0000 </r>
       <r>    -4.0915     0.0000     0.0000 </r>
       <r>    -3.4992     0.0000     0.0000 </r>
       <r>    -2.9069     0.0000     0.0000 </r>
       <r>    -2.3146     0.0000     0.0000 </r>
       <r>    -1.7223     0.0000     0.0000 </r>
       <r>    -1.1300     0.0000     0.0000 </r>
       <r>    -0.5377     0.0000     0.0000 </r>
       <r>     0.0546     0.0000     0.0000 </r>
       <r>     0.6469     0.0000     0.0000 </r>
       <r>     1.2391     0.0000     0.0000 </r>
       <r>     1.8314     0.0000     0.0000 </r>
       <r>     2.4237     0.0000     0.0000 </r>
       <r>     3.0160     0.0000     0.0000 </r>
       <r>     3.6083     0.0000     0.0000 </r>
       <r>     4.2006     0.0000     0.0000 </r>
       <r>     4.7929     0.0000     0.0000 </r>
       <r>     5.3852     0.0000     0.0000 </r>
       <r>     5.9775     0.0000     0.0000 </r>
       <r>     6.5698     0.0000     0.0000 </r>
       <r>     7.1621     0.0000     0.0000 </r>
       <r>     7.7544     0.0000     0.0000 </r>
       <r>     8.3467     0.0000     0.0000 </r>
       <r>     8.9390     0.0000     0.0000 </r>
       <r>     9.5313     0.0000     0.0000 </r>
       <r>    10.1236     0.0000     0.0000 </r>
       <r>    10.7159     0.0000     0.0000 </r>
       <r>    11.3082     0.0000     0.0000 </r>
       <r>    11.9005     0.0000     0.0000 </r>
       <r>    12.4928     0.0000     0.0000 </r>
       <r>    13.0851     0.0000     0.0000 </r>
       <r>    13.6774     0.0000     0.0000 </r>
       <r>    14.2697     0.0000     0.0000 </r>
       <r>    14.8620     0.0000     0.0000 </r>
       <r>    15.4543     0.0000     0.0000 </r>
       <r>    16.0466     0.0000     0.0000 </r>
       <r>    16.6389     0.0000     0.0000 </r>
       <r>    17.2312     0.0000     0.0000 </r>
       <r>    17.8235     0.0000     0.0000 </r>
       <r>    18.4158     0.0000     0.0000 </r>
       <r>    19.0081     0.0000     0.0000 </r>
       <r>    19.6004     0.0000     0.0000 </r>
       <r>    20.1927     0.0000     0.0000 </r>
       <r>    20.7850     0.0000     0.0000 </r>
       <r>    21.3773     0.0000     0.0000 </r>
       <r>    21.9696     0.0000     0.0000 </r>
       <r>    22.5619     0.0000     0.0000 </r>
       <r>    23.1542     0.0000     0.0000 </r>
       <r>    23.7465     0.0000     0.0000 </r>
       <r>    24.3388     0.0000     0.0000 </r>
       <r>    24.9311     0.0000     0.0000 </r>
       <r>    25.5234     0.0000     0.0000 </r>
       <r>    26.1157     0.0000     0.0000 </r>
       <r>    26.7080     0.0000     0.0000 </r>
       <r>    27.3003     0.0000     0.0000 </r>
       <r>    27.8926     0.0000     0.0000 </r>
       <r>    28.4849     0.0000     0.0000 </r>
       <r>    29.0772     0.0000     0.0000 </r>
       <r>    29.6695     0.0000     0.0000 </r>
       <r>    30.2617     0.0000     0.0000 </r>
       <r>    30.8540     0.0000     0.0000 </r>
       <r>    31.4463     0.0000     0.0000 </r>
       <r>    32.0386     0.0000     0.0000 </r>
       <r>    32.6309     0.0000     0.0000 </r>
       <r>    33.2232     0.0000     0.0000 </r>
       <r>    33.8155     0.0000     0.0000 </r>
       <r>    34.4078     0.0000     0.0000 </r>
       <r>    35.0001     0.0000     0.0000 </r>
       <r>    35.5924     0.0000     0.0000 </r>
       <r>    36.1847     0.0000     0.0000 </r>
       <r>    36.7770     0.0000     0.0000 </r>
       <r>    37.3693     0.0000     0.0000 </r>
       <r>    37.9616     0.0000     0.0000 </r>
       <r>    38.5539     0.0000     0.0000 </r>
       <r>    39.1462     0.0000     0.0000 </r>
       <r>    39.7385     0.0000     0.0000 </r>
       <r>    40.3308     0.0000     0.0000 </r>
       <r>    40.9231     0.0000     0.0000 </r>
       <r>    41.5154     0.0000     0.0000 </r>
       <r>    42.1077     0.0000     0.0000 </r>
       <r>    42.7000     0.0000     0.0000 </r>
       <r>    43.2923     0.0000     0.0000 </r>
       <r>    43.8846     0.0000     0.0000 </r>
       <r>    44.4769     0.0000     0.0000 </r>
       <r>    45.0692     0.0000     0.0000 </r>
       <r>    45.6615     0.0000     0.0000 </r>
       <r>    46.2538     0.0000     0.0000 </r>
       <r>    46.8461     0.0000     0.0000 </r>
       <r>    47.4384     0.0000     0.0000 </r>
       <r>    48.0307     0.0000     0.0000 </r>
       <r>    48.6230     0.0000     0.0000 </r>
       <r>    49.2153     0.0000     0.0000 </r>
       <r>    49.8076     0.0000     0.0000 </r>
       <r>    50.3999     0.0000     0.0000 </r>
       <r>    50.9922     0.0000     0.0000 </r>
       <r>    51.5845     0.0000     0.0000 </r>
       <r>    52.1768     0.0000     0.0000 </r>
       <r>    52.7691     0.0000     0.0000 </r>
       <r>    53.3614     0.0000     0.0000 </r>
       <r>    53.9537     0.0000     0.0000 </r>
       <r>    54.5460     0.0000     0.0000 </r>
       <r>    55.1383     0.0000     0.0000 </r>
       <r>    55.7306     0.0000     0.0000 </r>
       <r>    56.3229     0.0000     0.0000 </r>
       <r>    56.9152     0.0000     0.0000 </r>
       <r>    57.5075     0.0000     0.0000 </r>
       <r>    58.0998     0.0000     0.0000 </r>
       <r>    58.6920     0.0000     0.0000 </r>
       <r>    59.2843     0.0000     0.0000 </r>
       <r>    59.8766     0.0000     0.0000 </r>
       <r>    60.4689     0.0000     0.0000 </r>
       <r>    61.0612     0.0000     0.0000 </r>
       <r>    61.6535     0.0000     0.0000 </r>
       <r>    62.2458     0.0000     0.0000 </r>
       <r>    62.8381     0.0000     0.0000 </r>
       <r>    63.4304     0.0000     0.0000 </r>
       <r>    64.0227     0.0000     0.0000 </r>
       <r>    64.6150     0.0000     0.0000 </r>
       <r>    65.2073     0.0000     0.0000 </r>
       <r>    65.7996     0.0000     0.0000 </r>
       <r>    66.3919     0.0000     0.0000 </r>
       <r>    66.9842     0.0000     0.0000 </r>
       <r>    67.5765     0.0000     0.0000 </r>
       <r>    68.1688     0.0000     0.0000 </r>
       <r>    68.7611     0.0000     0.0000 </r>
       <r>    69.3534     0.0000     0.0000 </r>
       <r>    69.9457     0.0000     0.0000 </r>
       <r>    70.5380     0.0000     0.0000 </r>
       <r>    71.1303     0.0000     0.0000 </r>
       <r>    71.7226     0.0000     0.0000 </r>
       <r>    72.3149     0.0000     0.0000 </r>
       <r>    72.9072     0.0000     0.0000 </r>
       <r>    73.4995     0.0000     0.0000 </r>
       <r>    74.0918     0.0000     0.0000 </r>
       <r>    74.6841     0.0000     0.0000 </r>
       <r>    75.2764     0.0000     0.0000 </r>
       <r>    75.8687     0.0000     0.0000 </r>
       <r>    76.4610     0.0000     0.0000 </r>
       <r>    77.0533     0.0000     0.0000 </r>
       <r>    77.6456     0.0000     0.0000 </r>
       <r>    78.2379     0.0000     0.0000 </r>
       <r>    78.8302     0.0000     0.0000 </r>
       <r>    79.4225     0.0000     0.0000 </r>
       <r>    80.0148     0.0000     0.0000 </r>
       <r>    80.6071     0.0000     0.0000 </r>
       <r>    81.1994     0.0000     0.0000 </r>
       <r>    81.7917     0.0000     0.0000 </r>
       <r>    82.3840     0.0000     0.0000 </r>
       <r>    82.9763     0.0000     0.0000 </r>
       <r>    83.5686     0.0000     0.0000 </r>
       <r>    84.1609     0.0000     0.0000 </r>
       <r>    84.7532     0.0000     0.0000 </r>
       <r>    85.3455     0.0000     0.0000 </r>
       <r>    85.9378     0.0000     0.0000 </r>
       <r>    86.5301     0.0000     0.0000 </r>
       <r>    87.1223     0.0000     0.0000 </r>
       <r>    87.7146     0.0000     0.0000 </r>
       <r>    88.3069     0.0000     0.0000 </r>
       <r>    88.8992     0.0000     0.0000 </r>
       <r>    89.4915     0.0000     0.0000 </r>
       <r>    90.0838     0.0000     0.0000 </r>
       <r>    90.6761     0.0000     0.0000 </r>
       <r>    91.2684     0.0000     0.0000 </r>
       <r>    91.8607     0.0000     0.0000 </r>
       <r>    92.4530     0.0000     0.0000 </r>
       <r>    93.0453     0.0000     0.0000 </r>
       <r>    93.6376     0.0000     0.0000 </r>
       <r>    94.2299     0.0000     0.0000 </r>
       <r>    94.8222     0.0000     0.0000 </r>
       <r>    95.4145     0.0000     0.0000 </r>
       <r>    96.0068     0.0000     0.0000 </r>
       <r>    96.5991     0.0000     0.0000 </r>
       <r>    97.1914     0.0000     0.0000 </r>
       <r>    97.7837     0.0000     0.0000 </r>
       <r>    98.3760     0.0000     0.0000 </r>
       <r>    98.9683     0.0000     0.0000 </r>
       <r>    99.5606     0.0000     0.0000 </r>
       <r>   100.1529     0.0000     0.0000 </r>
       <r>   100.7452     0.0000     0.0000 </r>
       <r>   101.3375     0.0000     0.0000 </r>
       <r>   101.9298     0.0000     0.0000 </r>
       <r>   102.5221     0.0000     0.0000 </r>
       <r>   103.1144     0.0000     0.0000 </r>
       <r>   103.7067     0.0000     0.0000 </r>
       <r>   104.2990     0.0000     0.0000 </r>
       <r>   104.8913     0.0000     0.0000 </r>
       <r>   105.4836     0.0000     0.0000 </r>
       <r>   106.0759     0.0000     0.0000 </r>
       <r>   106.6682     0.0000     0.0000 </r>
       <r>   107.2605     0.0000     0.0000 </r>
       <r>   107.8528     0.0000     0.0000 </r>
       <r>   108.4451     0.0000     0.0000 </r>
       <r>   109.0374     0.0000     0.0000 </r>
       <r>   109.6297     0.0000     0.0000 </r>
       <r>   110.2220     0.0000     0.0000 </r>
       <r>   110.8143     0.0000     0.0000 </r>
       <r>   111.4066     0.0000     0.0000 </r>
       <r>   111.9989     0.0000     0.0000 </r>
       <r>   112.5912     0.0000     0.0000 </r>
       <r>   113.1835     0.0000     0.0000 </r>
       <r>   113.7758     0.0000     0.0000 </r>
       <r>   114.3681     0.0000     0.0000 </r>
       <r>   114.9604     0.0000     0.0000 </r>
       <r>   115.5526     0.0000     0.0000 </r>
       <r>   116.1449     0.0000     0.0000 </r>
       <r>   116.7372     0.0000     0.0000 </r>
       <r>   117.3295     0.0000     0.0000 </r>
       <r>   117.9218     0.0000     0.0000 </r>
       <r>   118.5141     0.0000     0.0000 </r>
       <r>   119.1064     0.0000     0.0000 </r>
       <r>   119.6987     0.0000     0.0000 </r>
       <r>   120.2910     0.0000     0.0000 </r>
       <r>   120.8833     0.0000     0.0000 </r>
       <r>   121.4756     0.0000     0.0000 </r>
       <r>   122.0679     0.0000     0.0000 </r>
       <r>   122.6602     0.0000     0.0000 </r>
       <r>   123.2525     0.0000     0.0000 </r>
       <r>   123.8448     0.0000     0.0000 </r>
       <r>   124.4371     0.0000     0.0000 </r>
       <r>   125.0294     0.0000     0.0000 </r>
       <r>   125.6217     0.0000     0.0000 </r>
       <r>   126.2140     0.0000     0.0000 </r>
       <r>   126.8063     0.0000     0.0000 </r>
       <r>   127.3986     0.0000     0.0000 </r>
       <r>   127.9909     0.0000     0.0000 </r>
       <r>   128.5832     0.0000     0.0000 </r>
       <r>   129.1755     0.0000     0.0000 </r>
       <r>   129.7678     0.0000     0.0000 </r>
       <r>   130.3601     0.0000     0.0000 </r>
       <r>   130.9524     0.0000     0.0000 </r>
       <r>   131.5447     0.0000     0.0000 </r>
       <r>   132.1370     0.0000     0.0000 </r>
       <r>   132.7293     0.0000     0.0000 </r>
       <r>   133.3216     0.0000     0.0000 </r>
       <r>   133.9139     0.0000     0.0000 </r>
       <r>   134.5062     0.0000     0.0000 </r>
      </set>
     </set>
    </array>
   </total>
  </dos>
 </calculation>
 <structure name="finalpos" >
  <crystal>
   <varray name="basis" >
    <v>       2.97422087       0.00000000       0.00000000 </v>
    <v>       1.48711043       2.57575083       0.00000000 </v>
    <v>       1.48711043       0.85858361       2.42844117 </v>
   </varray>
   <i name="volume">     18.60392805 </i>
   <varray name="rec_basis" >
    <v>       0.33622251      -0.19411816      -0.13726226 </v>
    <v>       0.00000000       0.38823631      -0.13726226 </v>
    <v>       0.00000000       0.00000000       0.41178679 </v>
   </varray>
  </crystal>
  <varray name="positions" >
   <v>       0.00000000       0.00000000       0.00000000 </v>
  </varray>
  <varray name="velocities" >
   <v>       0.00000000       0.00000000       0.00000000 </v>
  </varray>
 </structure>
</modeling>
