   1   1   0   0
  0.6541804E+02  0.4522767E-09  0.4522767E-09  0.4522767E-09  0.1000000E-15
  1.000000000000000E-004
  CAR 
 Og_FCC                                  
     41.88286526    -48.20929752  301     -1.28629607      1.00000000
    -48.209  0.0000E+00  0.0000E+00
    -47.909  0.0000E+00  0.0000E+00
    -47.609  0.0000E+00  0.0000E+00
    -47.308  0.0000E+00  0.0000E+00
    -47.008  0.0000E+00  0.0000E+00
    -46.708  0.0000E+00  0.0000E+00
    -46.407  0.0000E+00  0.0000E+00
    -46.107  0.0000E+00  0.0000E+00
    -45.807  0.0000E+00  0.0000E+00
    -45.507  0.0000E+00  0.0000E+00
    -45.206  0.0000E+00  0.0000E+00
    -44.906  0.0000E+00  0.0000E+00
    -44.606  0.0000E+00  0.0000E+00
    -44.305  0.0000E+00  0.0000E+00
    -44.005  0.0000E+00  0.4000E+01
    -43.705  0.0000E+00  0.4000E+01
    -43.404  0.0000E+00  0.4000E+01
    -43.104  0.0000E+00  0.4000E+01
    -42.804  0.0000E+00  0.4000E+01
    -42.503  0.0000E+00  0.4000E+01
    -42.203  0.0000E+00  0.4000E+01
    -41.903  0.0000E+00  0.4000E+01
    -41.603  0.0000E+00  0.4000E+01
    -41.302  0.0000E+00  0.4000E+01
    -41.002  0.0000E+00  0.4000E+01
    -40.702  0.0000E+00  0.4000E+01
    -40.401  0.0000E+00  0.4000E+01
    -40.101  0.0000E+00  0.4000E+01
    -39.801  0.0000E+00  0.4000E+01
    -39.500  0.0000E+00  0.1000E+02
    -39.200  0.0000E+00  0.1000E+02
    -38.900  0.0000E+00  0.1000E+02
    -38.599  0.0000E+00  0.1000E+02
    -38.299  0.0000E+00  0.1000E+02
    -37.999  0.0000E+00  0.1000E+02
    -37.699  0.0000E+00  0.1000E+02
    -37.398  0.0000E+00  0.1000E+02
    -37.098  0.0000E+00  0.1000E+02
    -36.798  0.0000E+00  0.1000E+02
    -36.497  0.0000E+00  0.1000E+02
    -36.197  0.0000E+00  0.1000E+02
    -35.897  0.0000E+00  0.1000E+02
    -35.596  0.0000E+00  0.1000E+02
    -35.296  0.0000E+00  0.1000E+02
    -34.996  0.0000E+00  0.1000E+02
    -34.695  0.0000E+00  0.1000E+02
    -34.395  0.0000E+00  0.1000E+02
    -34.095  0.0000E+00  0.1000E+02
    -33.795  0.0000E+00  0.1000E+02
    -33.494  0.0000E+00  0.1000E+02
    -33.194  0.0000E+00  0.1000E+02
    -32.894  0.0000E+00  0.1000E+02
    -32.593  0.0000E+00  0.1000E+02
    -32.293  0.0000E+00  0.1000E+02
    -31.993  0.0000E+00  0.1000E+02
    -31.692  0.0000E+00  0.1000E+02
    -31.392  0.0000E+00  0.1000E+02
    -31.092  0.0000E+00  0.1000E+02
    -30.791  0.0000E+00  0.1000E+02
    -30.491  0.0000E+00  0.1000E+02
    -30.191  0.0000E+00  0.1000E+02
    -29.891  0.0000E+00  0.1000E+02
    -29.590  0.0000E+00  0.1000E+02
    -29.290  0.0000E+00  0.1000E+02
    -28.990  0.0000E+00  0.1000E+02
    -28.689  0.0000E+00  0.1000E+02
    -28.389  0.0000E+00  0.1000E+02
    -28.089  0.0000E+00  0.1000E+02
    -27.788  0.0000E+00  0.1000E+02
    -27.488  0.0000E+00  0.1000E+02
    -27.188  0.0000E+00  0.1000E+02
    -26.887  0.0000E+00  0.1000E+02
    -26.587  0.0000E+00  0.1000E+02
    -26.287  0.0000E+00  0.1000E+02
    -25.987  0.0000E+00  0.1000E+02
    -25.686  0.0000E+00  0.1000E+02
    -25.386  0.0000E+00  0.1000E+02
    -25.086  0.0000E+00  0.1000E+02
    -24.785  0.0000E+00  0.1000E+02
    -24.485  0.0000E+00  0.1000E+02
    -24.185  0.0000E+00  0.1000E+02
    -23.884  0.0000E+00  0.1000E+02
    -23.584  0.0000E+00  0.1000E+02
    -23.284  0.0000E+00  0.1000E+02
    -22.983  0.0000E+00  0.1000E+02
    -22.683  0.0000E+00  0.1000E+02
    -22.383  0.0000E+00  0.1000E+02
    -22.083  0.0000E+00  0.1000E+02
    -21.782  0.0000E+00  0.1000E+02
    -21.482  0.0000E+00  0.1000E+02
    -21.182  0.0000E+00  0.1000E+02
    -20.881  0.0000E+00  0.1000E+02
    -20.581  0.0000E+00  0.1000E+02
    -20.281  0.0000E+00  0.1000E+02
    -19.980  0.0000E+00  0.1000E+02
    -19.680  0.0000E+00  0.1000E+02
    -19.380  0.0000E+00  0.1000E+02
    -19.079  0.0000E+00  0.1000E+02
    -18.779  0.0000E+00  0.1000E+02
    -18.479  0.0000E+00  0.1000E+02
    -18.179  0.0000E+00  0.1000E+02
    -17.878  0.0000E+00  0.1000E+02
    -17.578  0.0000E+00  0.1000E+02
    -17.278  0.3549E+00  0.1039E+02
    -16.977  0.0000E+00  0.1200E+02
    -16.677  0.0000E+00  0.1200E+02
    -16.377  0.0000E+00  0.1200E+02
    -16.076  0.0000E+00  0.1200E+02
    -15.776  0.0000E+00  0.1200E+02
    -15.476  0.0000E+00  0.1200E+02
    -15.176  0.0000E+00  0.1200E+02
    -14.875  0.0000E+00  0.1200E+02
    -14.575  0.0000E+00  0.1200E+02
    -14.275  0.0000E+00  0.1200E+02
    -13.974  0.0000E+00  0.1200E+02
    -13.674  0.0000E+00  0.1200E+02
    -13.374  0.0000E+00  0.1200E+02
    -13.073  0.0000E+00  0.1200E+02
    -12.773  0.0000E+00  0.1200E+02
    -12.473  0.0000E+00  0.1200E+02
    -12.172  0.0000E+00  0.1200E+02
    -11.872  0.0000E+00  0.1200E+02
    -11.572  0.0000E+00  0.1200E+02
    -11.272  0.0000E+00  0.1200E+02
    -10.971  0.0000E+00  0.1200E+02
    -10.671  0.0000E+00  0.1200E+02
    -10.371  0.0000E+00  0.1200E+02
    -10.070  0.0000E+00  0.1200E+02
     -9.770  0.0000E+00  0.1200E+02
     -9.470  0.0000E+00  0.1200E+02
     -9.169  0.0000E+00  0.1200E+02
     -8.869  0.0000E+00  0.1200E+02
     -8.569  0.0000E+00  0.1200E+02
     -8.268  0.0000E+00  0.1200E+02
     -7.968  0.0000E+00  0.1200E+02
     -7.668  0.0000E+00  0.1200E+02
     -7.368  0.0000E+00  0.1200E+02
     -7.067  0.0000E+00  0.1200E+02
     -6.767  0.0000E+00  0.1200E+02
     -6.467  0.0000E+00  0.1200E+02
     -6.166  0.0000E+00  0.1200E+02
     -5.866  0.0000E+00  0.1200E+02
     -5.566  0.0000E+00  0.1353E+02
     -5.265  0.0000E+00  0.1397E+02
     -4.965  0.0000E+00  0.1400E+02
     -4.665  0.0000E+00  0.1400E+02
     -4.364  0.0000E+00  0.1400E+02
     -4.064  0.0000E+00  0.1400E+02
     -3.764  0.0000E+00  0.1400E+02
     -3.464  0.0000E+00  0.1400E+02
     -3.163  0.0000E+00  0.1400E+02
     -2.863  0.5852E-04  0.1400E+02
     -2.563  0.0000E+00  0.1553E+02
     -2.262  0.0000E+00  0.1591E+02
     -1.962  0.0000E+00  0.1700E+02
     -1.662  0.0000E+00  0.1756E+02
     -1.361  0.0000E+00  0.1800E+02
     -1.061  0.0000E+00  0.1800E+02
     -0.761  0.0000E+00  0.1800E+02
     -0.460  0.0000E+00  0.1800E+02
     -0.160  0.0000E+00  0.1800E+02
      0.140  0.0000E+00  0.1800E+02
      0.440  0.0000E+00  0.1800E+02
      0.741  0.0000E+00  0.1800E+02
      1.041  0.0000E+00  0.1800E+02
      1.341  0.0000E+00  0.1800E+02
      1.642  0.0000E+00  0.1800E+02
      1.942  0.0000E+00  0.1800E+02
      2.242  0.0000E+00  0.1800E+02
      2.543  0.0000E+00  0.1803E+02
      2.843  0.0000E+00  0.1803E+02
      3.143  0.0000E+00  0.1803E+02
      3.444  0.0000E+00  0.1803E+02
      3.744  0.0000E+00  0.1803E+02
      4.044  0.0000E+00  0.1828E+02
      4.344  0.0000E+00  0.1869E+02
      4.645  0.0000E+00  0.1869E+02
      4.945  0.1277E-01  0.1869E+02
      5.245  0.0000E+00  0.1953E+02
      5.546  0.0000E+00  0.2009E+02
      5.846  0.0000E+00  0.2009E+02
      6.146  0.0000E+00  0.2103E+02
      6.447  0.0000E+00  0.2141E+02
      6.747  0.0000E+00  0.2159E+02
      7.047  0.8960E-07  0.2222E+02
      7.348  0.0000E+00  0.2347E+02
      7.648  0.0000E+00  0.2384E+02
      7.948  0.0000E+00  0.2450E+02
      8.248  0.0000E+00  0.2488E+02
      8.549  0.0000E+00  0.2488E+02
      8.849  0.0000E+00  0.2581E+02
      9.149  0.0000E+00  0.2609E+02
      9.450  0.0000E+00  0.2675E+02
      9.750  0.0000E+00  0.2712E+02
     10.050  0.2081E+00  0.2744E+02
     10.351  0.0000E+00  0.2819E+02
     10.651  0.0000E+00  0.2819E+02
     10.951  0.0000E+00  0.2838E+02
     11.252  0.0000E+00  0.2847E+02
     11.552  0.0000E+00  0.2922E+02
     11.852  0.0000E+00  0.2922E+02
     12.152  0.0000E+00  0.3028E+02
     12.453  0.1249E+01  0.3187E+02
     12.753  0.0000E+00  0.3288E+02
     13.053  0.0000E+00  0.3534E+02
     13.354  0.0000E+00  0.3591E+02
     13.654  0.0000E+00  0.3591E+02
     13.954  0.1041E+00  0.3603E+02
     14.255  0.0000E+00  0.3653E+02
     14.555  0.0000E+00  0.3653E+02
     14.855  0.0000E+00  0.3653E+02
     15.156  0.0000E+00  0.3672E+02
     15.456  0.0000E+00  0.3709E+02
     15.756  0.0000E+00  0.3822E+02
     16.056  0.0000E+00  0.3941E+02
     16.357  0.2497E+01  0.4106E+02
     16.657  0.0000E+00  0.4222E+02
     16.957  0.0000E+00  0.4384E+02
     17.258  0.0000E+00  0.4447E+02
     17.558  0.1061E+01  0.4619E+02
     17.858  0.0000E+00  0.4719E+02
     18.159  0.0000E+00  0.4738E+02
     18.459  0.0000E+00  0.4791E+02
     18.759  0.0000E+00  0.4803E+02
     19.060  0.0000E+00  0.4878E+02
     19.360  0.0000E+00  0.4878E+02
     19.660  0.0000E+00  0.4928E+02
     19.960  0.0000E+00  0.5003E+02
     20.261  0.0000E+00  0.5078E+02
     20.561  0.0000E+00  0.5225E+02
     20.861  0.0000E+00  0.5291E+02
     21.162  0.5474E-01  0.5305E+02
     21.462  0.9412E-02  0.5416E+02
     21.762  0.0000E+00  0.5603E+02
     22.063  0.2553E+00  0.5636E+02
     22.363  0.0000E+00  0.5666E+02
     22.663  0.0000E+00  0.5741E+02
     22.964  0.0000E+00  0.5759E+02
     23.264  0.0000E+00  0.5869E+02
     23.564  0.0000E+00  0.5931E+02
     23.864  0.0000E+00  0.6028E+02
     24.165  0.2079E+00  0.6072E+02
     24.465  0.0000E+00  0.6188E+02
     24.765  0.0000E+00  0.6297E+02
     25.066  0.0000E+00  0.6341E+02
     25.366  0.0000E+00  0.6378E+02
     25.666  0.4162E+00  0.6516E+02
     25.967  0.0000E+00  0.6572E+02
     26.267  0.1890E-02  0.6600E+02
     26.567  0.0000E+00  0.6753E+02
     26.868  0.0000E+00  0.6869E+02
     27.168  0.0000E+00  0.6916E+02
     27.468  0.1156E-08  0.7028E+02
     27.768  0.0000E+00  0.7150E+02
     28.069  0.0000E+00  0.7150E+02
     28.369  0.0000E+00  0.7225E+02
     28.669  0.0000E+00  0.7325E+02
     28.970  0.0000E+00  0.7325E+02
     29.270  0.0000E+00  0.7362E+02
     29.570  0.2497E+01  0.7456E+02
     29.871  0.0000E+00  0.7550E+02
     30.171  0.0000E+00  0.7672E+02
     30.471  0.0000E+00  0.7794E+02
     30.771  0.0000E+00  0.7931E+02
     31.072  0.0000E+00  0.8050E+02
     31.372  0.0000E+00  0.8091E+02
     31.672  0.0000E+00  0.8091E+02
     31.973  0.0000E+00  0.8291E+02
     32.273  0.0000E+00  0.8384E+02
     32.573  0.0000E+00  0.8409E+02
     32.874  0.0000E+00  0.8575E+02
     33.174  0.0000E+00  0.8584E+02
     33.474  0.0000E+00  0.8678E+02
     33.775  0.0000E+00  0.8706E+02
     34.075  0.0000E+00  0.8738E+02
     34.375  0.0000E+00  0.8806E+02
     34.675  0.0000E+00  0.8950E+02
     34.976  0.0000E+00  0.9034E+02
     35.276  0.0000E+00  0.9084E+02
     35.576  0.0000E+00  0.9197E+02
     35.877  0.0000E+00  0.9222E+02
     36.177  0.0000E+00  0.9356E+02
     36.477  0.0000E+00  0.9400E+02
     36.778  0.0000E+00  0.9419E+02
     37.078  0.0000E+00  0.9494E+02
     37.378  0.0000E+00  0.9581E+02
     37.679  0.0000E+00  0.9581E+02
     37.979  0.0000E+00  0.9600E+02
     38.279  0.0000E+00  0.9600E+02
     38.579  0.0000E+00  0.9600E+02
     38.880  0.0000E+00  0.9600E+02
     39.180  0.0000E+00  0.9600E+02
     39.480  0.0000E+00  0.9600E+02
     39.781  0.0000E+00  0.9600E+02
     40.081  0.0000E+00  0.9600E+02
     40.381  0.0000E+00  0.9600E+02
     40.682  0.0000E+00  0.9600E+02
     40.982  0.0000E+00  0.9600E+02
     41.282  0.0000E+00  0.9600E+02
     41.583  0.0000E+00  0.9600E+02
     41.883  0.0000E+00  0.9600E+02
