    1    1    1    1
  0.6541804E+02  0.4522767E-09  0.4522767E-09  0.4522767E-09  0.1000000E-15
  1.000000000000000E-004
  CAR 
 Og_FCC                                  
     18     64     96
 
  0.0000000E+00  0.0000000E+00  0.0000000E+00  0.1562500E-01
    1      -44.114199   1.000000
    2      -44.114199   1.000000
    3      -44.114198   1.000000
    4      -44.114198   1.000000
    5      -39.710041   1.000000
    6      -39.710041   1.000000
    7      -39.709664   1.000000
    8      -39.709663   1.000000
    9      -39.709662   1.000000
   10      -39.709662   1.000000
   11      -17.363340   1.000000
   12      -17.363340   1.000000
   13       -5.089405   1.000000
   14       -5.089405   1.000000
   15       -1.381180   1.000000
   16       -1.381179   1.000000
   17       -1.381179   1.000000
   18       -1.381179   1.000000
   19        2.416852   0.000000
   20        2.416853   0.000000
   21        7.611006   0.000000
   22        7.611006   0.000000
   23        7.611006   0.000000
   24        7.611006   0.000000
   25        7.766589   0.000000
   26        7.766589   0.000000
   27        9.431673   0.000000
   28        9.431673   0.000000
   29       10.045108   0.000000
   30       10.045108   0.000000
   31       10.045108   0.000000
   32       10.045108   0.000000
   33       11.381219   0.000000
   34       11.381219   0.000000
   35       11.477315   0.000000
   36       11.477315   0.000000
   37       11.477315   0.000000
   38       11.477315   0.000000
   39       13.951480   0.000000
   40       13.951482   0.000000
   41       18.233028   0.000000
   42       18.233028   0.000000
   43       18.265352   0.000000
   44       18.265352   0.000000
   45       18.265353   0.000000
   46       18.265353   0.000000
   47       20.665148   0.000000
   48       20.665148   0.000000
   49       22.050415   0.000000
   50       22.050415   0.000000
   51       22.050415   0.000000
   52       22.050415   0.000000
   53       23.008040   0.000000
   54       23.008041   0.000000
   55       24.162605   0.000000
   56       24.162605   0.000000
   57       24.162606   0.000000
   58       24.162606   0.000000
   59       24.329139   0.000000
   60       24.329139   0.000000
   61       24.515070   0.000000
   62       24.515070   0.000000
   63       25.155396   0.000000
   64       25.155396   0.000000
   65       25.155396   0.000000
   66       25.155397   0.000000
   67       25.301761   0.000000
   68       25.301761   0.000000
   69       25.301761   0.000000
   70       25.301761   0.000000
   71       26.706106   0.000000
   72       26.706107   0.000000
   73       32.744413   0.000000
   74       32.744414   0.000000
   75       32.773777   0.000000
   76       32.773777   0.000000
   77       32.773777   0.000000
   78       32.773778   0.000000
   79       34.487597   0.000000
   80       34.487597   0.000000
   81       34.487598   0.000000
   82       34.487598   0.000000
   83       34.704351   0.000000
   84       34.704351   0.000000
   85       35.295338   0.000000
   86       35.295338   0.000000
   87       35.295338   0.000000
   88       35.295338   0.000000
   89       35.295339   0.000000
   90       35.295339   0.000000
   91       35.728899   0.000000
   92       35.728899   0.000000
   93       35.728900   0.000000
   94       35.728900   0.000000
   95       35.911766   0.000000
   96       35.911766   0.000000
 
  0.2500000E+00  0.2256629E-17  0.0000000E+00  0.1562500E-01
    1      -44.114131   1.000000
    2      -44.114131   1.000000
    3      -44.114016   1.000000
    4      -44.114016   1.000000
    5      -39.710312   1.000000
    6      -39.710312   1.000000
    7      -39.709941   1.000000
    8      -39.709941   1.000000
    9      -39.709837   1.000000
   10      -39.709837   1.000000
   11      -17.299451   1.000000
   12      -17.299451   1.000000
   13       -5.360251   1.000000
   14       -5.360251   1.000000
   15       -2.245213   1.000000
   16       -2.245213   1.000000
   17       -1.513243   1.000000
   18       -1.513243   1.000000
   19        3.804665   0.000000
   20        3.804665   0.000000
   21        6.833748   0.000000
   22        6.833748   0.000000
   23        7.714676   0.000000
   24        7.714676   0.000000
   25        7.885763   0.000000
   26        7.885763   0.000000
   27        9.434830   0.000000
   28        9.434830   0.000000
   29        9.556582   0.000000
   30        9.556582   0.000000
   31        9.762002   0.000000
   32        9.762002   0.000000
   33       12.641662   0.000000
   34       12.641662   0.000000
   35       14.116628   0.000000
   36       14.116628   0.000000
   37       14.167733   0.000000
   38       14.167733   0.000000
   39       15.979766   0.000000
   40       15.979766   0.000000
   41       16.217457   0.000000
   42       16.217457   0.000000
   43       16.848660   0.000000
   44       16.848661   0.000000
   45       17.149530   0.000000
   46       17.149531   0.000000
   47       18.377541   0.000000
   48       18.377541   0.000000
   49       20.521012   0.000000
   50       20.521012   0.000000
   51       21.211438   0.000000
   52       21.211438   0.000000
   53       22.174109   0.000000
   54       22.174109   0.000000
   55       23.035429   0.000000
   56       23.035429   0.000000
   57       23.223586   0.000000
   58       23.223586   0.000000
   59       23.502237   0.000000
   60       23.502237   0.000000
   61       24.989098   0.000000
   62       24.989098   0.000000
   63       25.230043   0.000000
   64       25.230043   0.000000
   65       25.939480   0.000000
   66       25.939481   0.000000
   67       26.715025   0.000000
   68       26.715025   0.000000
   69       27.305805   0.000000
   70       27.305805   0.000000
   71       28.599862   0.000000
   72       28.599863   0.000000
   73       30.619773   0.000000
   74       30.619773   0.000000
   75       30.750731   0.000000
   76       30.750732   0.000000
   77       30.809569   0.000000
   78       30.809570   0.000000
   79       31.701892   0.000000
   80       31.701892   0.000000
   81       31.956004   0.000000
   82       31.956005   0.000000
   83       32.482530   0.000000
   84       32.482531   0.000000
   85       32.816425   0.000000
   86       32.816425   0.000000
   87       34.419656   0.000000
   88       34.419656   0.000000
   89       34.601818   0.000000
   90       34.601818   0.000000
   91       35.185549   0.000000
   92       35.185549   0.000000
   93       35.235191   0.000000
   94       35.235191   0.000000
   95       36.238194   0.000000
   96       36.238194   0.000000
 
  0.5000000E+00  0.4513259E-17  0.0000000E+00  0.1562500E-01
    1      -44.114081   1.000000
    2      -44.114081   1.000000
    3      -44.113881   1.000000
    4      -44.113881   1.000000
    5      -39.710390   1.000000
    6      -39.710390   1.000000
    7      -39.709432   1.000000
    8      -39.709432   1.000000
    9      -39.709395   1.000000
   10      -39.709395   1.000000
   11      -17.232704   1.000000
   12      -17.232703   1.000000
   13       -5.650335   1.000000
   14       -5.650335   1.000000
   15       -2.765248   1.000000
   16       -2.765248   1.000000
   17       -1.635854   1.000000
   18       -1.635854   1.000000
   19        4.234147   0.000000
   20        4.234147   0.000000
   21        7.245767   0.000000
   22        7.245767   0.000000
   23        7.401730   0.000000
   24        7.401730   0.000000
   25        7.797321   0.000000
   26        7.797322   0.000000
   27        9.671169   0.000000
   28        9.671169   0.000000
   29       12.021262   0.000000
   30       12.021263   0.000000
   31       12.164765   0.000000
   32       12.164765   0.000000
   33       12.223308   0.000000
   34       12.223308   0.000000
   35       12.430673   0.000000
   36       12.430673   0.000000
   37       12.886961   0.000000
   38       12.886962   0.000000
   39       16.419623   0.000000
   40       16.419623   0.000000
   41       16.870289   0.000000
   42       16.870290   0.000000
   43       16.885673   0.000000
   44       16.885673   0.000000
   45       18.508013   0.000000
   46       18.508013   0.000000
   47       19.507776   0.000000
   48       19.507776   0.000000
   49       20.614085   0.000000
   50       20.614086   0.000000
   51       20.813343   0.000000
   52       20.813343   0.000000
   53       20.869139   0.000000
   54       20.869139   0.000000
   55       21.218103   0.000000
   56       21.218103   0.000000
   57       22.062386   0.000000
   58       22.062386   0.000000
   59       23.820671   0.000000
   60       23.820671   0.000000
   61       24.473346   0.000000
   62       24.473347   0.000000
   63       25.435205   0.000000
   64       25.435206   0.000000
   65       25.660540   0.000000
   66       25.660540   0.000000
   67       25.936557   0.000000
   68       25.936557   0.000000
   69       26.289959   0.000000
   70       26.289959   0.000000
   71       26.852520   0.000000
   72       26.852520   0.000000
   73       27.445628   0.000000
   74       27.445629   0.000000
   75       29.591857   0.000000
   76       29.591857   0.000000
   77       29.644019   0.000000
   78       29.644019   0.000000
   79       29.690506   0.000000
   80       29.690506   0.000000
   81       30.759084   0.000000
   82       30.759084   0.000000
   83       31.081628   0.000000
   84       31.081628   0.000000
   85       34.015589   0.000000
   86       34.015589   0.000000
   87       34.089086   0.000000
   88       34.089086   0.000000
   89       34.550101   0.000000
   90       34.550102   0.000000
   91       34.792730   0.000000
   92       34.792730   0.000000
   93       34.946267   0.000000
   94       34.946267   0.000000
   95       37.163266   0.000000
   96       37.163266   0.000000
 
 -0.2500000E+00 -0.2256629E-17  0.0000000E+00  0.1562500E-01
    1      -44.114131   1.000000
    2      -44.114131   1.000000
    3      -44.114016   1.000000
    4      -44.114016   1.000000
    5      -39.710312   1.000000
    6      -39.710312   1.000000
    7      -39.709941   1.000000
    8      -39.709941   1.000000
    9      -39.709837   1.000000
   10      -39.709837   1.000000
   11      -17.299451   1.000000
   12      -17.299451   1.000000
   13       -5.360251   1.000000
   14       -5.360251   1.000000
   15       -2.245213   1.000000
   16       -2.245213   1.000000
   17       -1.513243   1.000000
   18       -1.513243   1.000000
   19        3.804665   0.000000
   20        3.804665   0.000000
   21        6.833748   0.000000
   22        6.833748   0.000000
   23        7.714676   0.000000
   24        7.714676   0.000000
   25        7.885763   0.000000
   26        7.885763   0.000000
   27        9.434830   0.000000
   28        9.434830   0.000000
   29        9.556582   0.000000
   30        9.556582   0.000000
   31        9.762002   0.000000
   32        9.762002   0.000000
   33       12.641662   0.000000
   34       12.641662   0.000000
   35       14.116628   0.000000
   36       14.116628   0.000000
   37       14.167733   0.000000
   38       14.167733   0.000000
   39       15.979766   0.000000
   40       15.979766   0.000000
   41       16.217457   0.000000
   42       16.217457   0.000000
   43       16.848660   0.000000
   44       16.848661   0.000000
   45       17.149530   0.000000
   46       17.149531   0.000000
   47       18.377541   0.000000
   48       18.377541   0.000000
   49       20.521012   0.000000
   50       20.521012   0.000000
   51       21.211438   0.000000
   52       21.211438   0.000000
   53       22.174109   0.000000
   54       22.174109   0.000000
   55       23.035429   0.000000
   56       23.035429   0.000000
   57       23.223586   0.000000
   58       23.223586   0.000000
   59       23.502237   0.000000
   60       23.502237   0.000000
   61       24.989098   0.000000
   62       24.989098   0.000000
   63       25.230043   0.000000
   64       25.230043   0.000000
   65       25.939480   0.000000
   66       25.939481   0.000000
   67       26.715025   0.000000
   68       26.715025   0.000000
   69       27.305805   0.000000
   70       27.305805   0.000000
   71       28.599862   0.000000
   72       28.599863   0.000000
   73       30.619773   0.000000
   74       30.619773   0.000000
   75       30.750731   0.000000
   76       30.750732   0.000000
   77       30.809569   0.000000
   78       30.809570   0.000000
   79       31.701892   0.000000
   80       31.701892   0.000000
   81       31.956004   0.000000
   82       31.956005   0.000000
   83       32.482530   0.000000
   84       32.482531   0.000000
   85       32.816425   0.000000
   86       32.816425   0.000000
   87       34.419656   0.000000
   88       34.419656   0.000000
   89       34.601818   0.000000
   90       34.601818   0.000000
   91       35.185549   0.000000
   92       35.185549   0.000000
   93       35.235191   0.000000
   94       35.235191   0.000000
   95       36.238194   0.000000
   96       36.238194   0.000000
 
  0.0000000E+00  0.2500000E+00  0.0000000E+00  0.1562500E-01
    1      -44.114131   1.000000
    2      -44.114131   1.000000
    3      -44.114016   1.000000
    4      -44.114016   1.000000
    5      -39.710312   1.000000
    6      -39.710312   1.000000
    7      -39.709941   1.000000
    8      -39.709941   1.000000
    9      -39.709837   1.000000
   10      -39.709837   1.000000
   11      -17.299451   1.000000
   12      -17.299451   1.000000
   13       -5.360251   1.000000
   14       -5.360251   1.000000
   15       -2.245213   1.000000
   16       -2.245213   1.000000
   17       -1.513243   1.000000
   18       -1.513243   1.000000
   19        3.804665   0.000000
   20        3.804665   0.000000
   21        6.833748   0.000000
   22        6.833748   0.000000
   23        7.714676   0.000000
   24        7.714676   0.000000
   25        7.885763   0.000000
   26        7.885763   0.000000
   27        9.434830   0.000000
   28        9.434830   0.000000
   29        9.556582   0.000000
   30        9.556582   0.000000
   31        9.762002   0.000000
   32        9.762002   0.000000
   33       12.641662   0.000000
   34       12.641662   0.000000
   35       14.116628   0.000000
   36       14.116628   0.000000
   37       14.167733   0.000000
   38       14.167733   0.000000
   39       15.979766   0.000000
   40       15.979766   0.000000
   41       16.217457   0.000000
   42       16.217457   0.000000
   43       16.848660   0.000000
   44       16.848661   0.000000
   45       17.149530   0.000000
   46       17.149531   0.000000
   47       18.377541   0.000000
   48       18.377541   0.000000
   49       20.521012   0.000000
   50       20.521012   0.000000
   51       21.211438   0.000000
   52       21.211438   0.000000
   53       22.174109   0.000000
   54       22.174109   0.000000
   55       23.035429   0.000000
   56       23.035429   0.000000
   57       23.223586   0.000000
   58       23.223586   0.000000
   59       23.502237   0.000000
   60       23.502237   0.000000
   61       24.989098   0.000000
   62       24.989098   0.000000
   63       25.230043   0.000000
   64       25.230043   0.000000
   65       25.939480   0.000000
   66       25.939481   0.000000
   67       26.715025   0.000000
   68       26.715025   0.000000
   69       27.305805   0.000000
   70       27.305805   0.000000
   71       28.599862   0.000000
   72       28.599863   0.000000
   73       30.619773   0.000000
   74       30.619773   0.000000
   75       30.750732   0.000000
   76       30.750732   0.000000
   77       30.809569   0.000000
   78       30.809570   0.000000
   79       31.701892   0.000000
   80       31.701892   0.000000
   81       31.956004   0.000000
   82       31.956005   0.000000
   83       32.482530   0.000000
   84       32.482531   0.000000
   85       32.816425   0.000000
   86       32.816425   0.000000
   87       34.419656   0.000000
   88       34.419656   0.000000
   89       34.601818   0.000000
   90       34.601818   0.000000
   91       35.185549   0.000000
   92       35.185549   0.000000
   93       35.235191   0.000000
   94       35.235191   0.000000
   95       36.238194   0.000000
   96       36.238194   0.000000
 
  0.2500000E+00  0.2500000E+00  0.0000000E+00  0.1562500E-01
    1      -44.114080   1.000000
    2      -44.114080   1.000000
    3      -44.113994   1.000000
    4      -44.113994   1.000000
    5      -39.710283   1.000000
    6      -39.710283   1.000000
    7      -39.709769   1.000000
    8      -39.709769   1.000000
    9      -39.709467   1.000000
   10      -39.709467   1.000000
   11      -17.277777   1.000000
   12      -17.277777   1.000000
   13       -5.419701   1.000000
   14       -5.419701   1.000000
   15       -2.310814   1.000000
   16       -2.310814   1.000000
   17       -1.779629   1.000000
   18       -1.779629   1.000000
   19        4.292076   0.000000
   20        4.292076   0.000000
   21        5.907101   0.000000
   22        5.907101   0.000000
   23        7.200703   0.000000
   24        7.200703   0.000000
   25        8.703148   0.000000
   26        8.703148   0.000000
   27        9.001903   0.000000
   28        9.001903   0.000000
   29       10.733494   0.000000
   30       10.733494   0.000000
   31       12.699847   0.000000
   32       12.699847   0.000000
   33       12.910305   0.000000
   34       12.910305   0.000000
   35       12.953318   0.000000
   36       12.953319   0.000000
   37       13.200036   0.000000
   38       13.200037   0.000000
   39       16.111927   0.000000
   40       16.111927   0.000000
   41       16.173448   0.000000
   42       16.173448   0.000000
   43       16.522527   0.000000
   44       16.522527   0.000000
   45       17.101787   0.000000
   46       17.101787   0.000000
   47       18.383695   0.000000
   48       18.383695   0.000000
   49       19.876542   0.000000
   50       19.876542   0.000000
   51       20.347791   0.000000
   52       20.347791   0.000000
   53       22.029697   0.000000
   54       22.029698   0.000000
   55       22.401843   0.000000
   56       22.401843   0.000000
   57       22.413470   0.000000
   58       22.413470   0.000000
   59       22.862376   0.000000
   60       22.862377   0.000000
   61       25.011707   0.000000
   62       25.011708   0.000000
   63       26.097158   0.000000
   64       26.097158   0.000000
   65       26.268831   0.000000
   66       26.268832   0.000000
   67       27.607006   0.000000
   68       27.607006   0.000000
   69       28.412395   0.000000
   70       28.412395   0.000000
   71       28.440459   0.000000
   72       28.440459   0.000000
   73       29.332458   0.000000
   74       29.332458   0.000000
   75       29.625833   0.000000
   76       29.625833   0.000000
   77       30.030902   0.000000
   78       30.030902   0.000000
   79       31.720083   0.000000
   80       31.720083   0.000000
   81       32.228615   0.000000
   82       32.228615   0.000000
   83       32.711201   0.000000
   84       32.711201   0.000000
   85       33.639970   0.000000
   86       33.639971   0.000000
   87       33.874417   0.000000
   88       33.874417   0.000000
   89       35.337126   0.000000
   90       35.337127   0.000000
   91       36.010726   0.000000
   92       36.010727   0.000000
   93       36.087559   0.000000
   94       36.087559   0.000000
   95       36.150885   0.000000
   96       36.150885   0.000000
 
  0.5000000E+00  0.2500000E+00  0.8326673E-16  0.1562500E-01
    1      -44.114014   1.000000
    2      -44.114013   1.000000
    3      -44.113896   1.000000
    4      -44.113896   1.000000
    5      -39.710068   1.000000
    6      -39.710068   1.000000
    7      -39.709408   1.000000
    8      -39.709408   1.000000
    9      -39.708973   1.000000
   10      -39.708973   1.000000
   11      -17.211096   1.000000
   12      -17.211095   1.000000
   13       -5.657722   1.000000
   14       -5.657721   1.000000
   15       -2.780509   1.000000
   16       -2.780509   1.000000
   17       -2.067028   1.000000
   18       -2.067028   1.000000
   19        4.946894   0.000000
   20        4.946895   0.000000
   21        6.082272   0.000000
   22        6.082273   0.000000
   23        7.167275   0.000000
   24        7.167276   0.000000
   25        8.612681   0.000000
   26        8.612681   0.000000
   27       10.281927   0.000000
   28       10.281927   0.000000
   29       12.066323   0.000000
   30       12.066323   0.000000
   31       12.352096   0.000000
   32       12.352096   0.000000
   33       12.798410   0.000000
   34       12.798410   0.000000
   35       13.043184   0.000000
   36       13.043185   0.000000
   37       15.681014   0.000000
   38       15.681014   0.000000
   39       15.852427   0.000000
   40       15.852427   0.000000
   41       16.353023   0.000000
   42       16.353023   0.000000
   43       16.781299   0.000000
   44       16.781299   0.000000
   45       17.268896   0.000000
   46       17.268896   0.000000
   47       17.560343   0.000000
   48       17.560343   0.000000
   49       18.948336   0.000000
   50       18.948337   0.000000
   51       20.245626   0.000000
   52       20.245626   0.000000
   53       20.385046   0.000000
   54       20.385046   0.000000
   55       21.463865   0.000000
   56       21.463865   0.000000
   57       21.732693   0.000000
   58       21.732693   0.000000
   59       23.704717   0.000000
   60       23.704718   0.000000
   61       24.339630   0.000000
   62       24.339630   0.000000
   63       24.713728   0.000000
   64       24.713728   0.000000
   65       25.452041   0.000000
   66       25.452041   0.000000
   67       26.412975   0.000000
   68       26.412975   0.000000
   69       26.777507   0.000000
   70       26.777507   0.000000
   71       27.342477   0.000000
   72       27.342478   0.000000
   73       28.221164   0.000000
   74       28.221164   0.000000
   75       29.562902   0.000000
   76       29.562902   0.000000
   77       30.141685   0.000000
   78       30.141686   0.000000
   79       30.361535   0.000000
   80       30.361535   0.000000
   81       30.848536   0.000000
   82       30.848537   0.000000
   83       31.893286   0.000000
   84       31.893286   0.000000
   85       32.797424   0.000000
   86       32.797424   0.000000
   87       33.435385   0.000000
   88       33.435386   0.000000
   89       34.448972   0.000000
   90       34.448972   0.000000
   91       35.342395   0.000000
   92       35.342395   0.000000
   93       36.955466   0.000000
   94       36.955467   0.000000
   95       37.318909   0.000000
   96       37.318909   0.000000
 
 -0.2500000E+00  0.2500000E+00 -0.4053593E-17  0.1562500E-01
    1      -44.114047   1.000000
    2      -44.114047   1.000000
    3      -44.113926   1.000000
    4      -44.113925   1.000000
    5      -39.710301   1.000000
    6      -39.710301   1.000000
    7      -39.709997   1.000000
    8      -39.709997   1.000000
    9      -39.709380   1.000000
   10      -39.709379   1.000000
   11      -17.233643   1.000000
   12      -17.233643   1.000000
   13       -5.588821   1.000000
   14       -5.588821   1.000000
   15       -2.694408   1.000000
   16       -2.694408   1.000000
   17       -1.924409   1.000000
   18       -1.924409   1.000000
   19        5.313162   0.000000
   20        5.313162   0.000000
   21        6.265733   0.000000
   22        6.265734   0.000000
   23        6.798403   0.000000
   24        6.798403   0.000000
   25        8.178545   0.000000
   26        8.178545   0.000000
   27        9.208940   0.000000
   28        9.208940   0.000000
   29       11.337061   0.000000
   30       11.337061   0.000000
   31       12.448066   0.000000
   32       12.448067   0.000000
   33       12.640062   0.000000
   34       12.640062   0.000000
   35       13.059452   0.000000
   36       13.059452   0.000000
   37       15.583321   0.000000
   38       15.583321   0.000000
   39       16.373168   0.000000
   40       16.373168   0.000000
   41       16.633746   0.000000
   42       16.633746   0.000000
   43       16.828434   0.000000
   44       16.828434   0.000000
   45       17.267429   0.000000
   46       17.267429   0.000000
   47       17.557251   0.000000
   48       17.557251   0.000000
   49       19.781908   0.000000
   50       19.781909   0.000000
   51       20.812894   0.000000
   52       20.812894   0.000000
   53       21.162875   0.000000
   54       21.162876   0.000000
   55       21.490131   0.000000
   56       21.490132   0.000000
   57       22.421886   0.000000
   58       22.421886   0.000000
   59       23.127795   0.000000
   60       23.127795   0.000000
   61       23.517233   0.000000
   62       23.517233   0.000000
   63       23.982904   0.000000
   64       23.982905   0.000000
   65       25.571916   0.000000
   66       25.571917   0.000000
   67       26.341648   0.000000
   68       26.341649   0.000000
   69       27.472369   0.000000
   70       27.472369   0.000000
   71       28.433257   0.000000
   72       28.433258   0.000000
   73       29.040681   0.000000
   74       29.040681   0.000000
   75       29.800318   0.000000
   76       29.800318   0.000000
   77       30.358725   0.000000
   78       30.358725   0.000000
   79       30.652933   0.000000
   80       30.652933   0.000000
   81       31.797204   0.000000
   82       31.797205   0.000000
   83       31.984675   0.000000
   84       31.984675   0.000000
   85       32.174276   0.000000
   86       32.174276   0.000000
   87       32.697853   0.000000
   88       32.697853   0.000000
   89       34.323713   0.000000
   90       34.323714   0.000000
   91       34.694628   0.000000
   92       34.694628   0.000000
   93       36.016288   0.000000
   94       36.016288   0.000000
   95       36.135610   0.000000
   96       36.135610   0.000000
 
  0.0000000E+00  0.5000000E+00  0.0000000E+00  0.1562500E-01
    1      -44.114081   1.000000
    2      -44.114081   1.000000
    3      -44.113881   1.000000
    4      -44.113881   1.000000
    5      -39.710390   1.000000
    6      -39.710390   1.000000
    7      -39.709432   1.000000
    8      -39.709432   1.000000
    9      -39.709395   1.000000
   10      -39.709395   1.000000
   11      -17.232704   1.000000
   12      -17.232703   1.000000
   13       -5.650335   1.000000
   14       -5.650335   1.000000
   15       -2.765248   1.000000
   16       -2.765248   1.000000
   17       -1.635854   1.000000
   18       -1.635854   1.000000
   19        4.234147   0.000000
   20        4.234147   0.000000
   21        7.245767   0.000000
   22        7.245767   0.000000
   23        7.401730   0.000000
   24        7.401730   0.000000
   25        7.797321   0.000000
   26        7.797322   0.000000
   27        9.671169   0.000000
   28        9.671169   0.000000
   29       12.021262   0.000000
   30       12.021263   0.000000
   31       12.164765   0.000000
   32       12.164765   0.000000
   33       12.223308   0.000000
   34       12.223308   0.000000
   35       12.430673   0.000000
   36       12.430673   0.000000
   37       12.886961   0.000000
   38       12.886962   0.000000
   39       16.419623   0.000000
   40       16.419623   0.000000
   41       16.870289   0.000000
   42       16.870290   0.000000
   43       16.885673   0.000000
   44       16.885673   0.000000
   45       18.508013   0.000000
   46       18.508013   0.000000
   47       19.507776   0.000000
   48       19.507776   0.000000
   49       20.614085   0.000000
   50       20.614086   0.000000
   51       20.813343   0.000000
   52       20.813343   0.000000
   53       20.869139   0.000000
   54       20.869140   0.000000
   55       21.218103   0.000000
   56       21.218103   0.000000
   57       22.062386   0.000000
   58       22.062386   0.000000
   59       23.820670   0.000000
   60       23.820671   0.000000
   61       24.473346   0.000000
   62       24.473347   0.000000
   63       25.435205   0.000000
   64       25.435206   0.000000
   65       25.660540   0.000000
   66       25.660540   0.000000
   67       25.936557   0.000000
   68       25.936557   0.000000
   69       26.289959   0.000000
   70       26.289959   0.000000
   71       26.852520   0.000000
   72       26.852520   0.000000
   73       27.445628   0.000000
   74       27.445628   0.000000
   75       29.591857   0.000000
   76       29.591857   0.000000
   77       29.644019   0.000000
   78       29.644019   0.000000
   79       29.690506   0.000000
   80       29.690506   0.000000
   81       30.759083   0.000000
   82       30.759084   0.000000
   83       31.081628   0.000000
   84       31.081628   0.000000
   85       34.015589   0.000000
   86       34.015589   0.000000
   87       34.089086   0.000000
   88       34.089086   0.000000
   89       34.550101   0.000000
   90       34.550102   0.000000
   91       34.792730   0.000000
   92       34.792730   0.000000
   93       34.946267   0.000000
   94       34.946267   0.000000
   95       37.163266   0.000000
   96       37.163266   0.000000
 
  0.2500000E+00  0.5000000E+00 -0.5551115E-16  0.1562500E-01
    1      -44.114014   1.000000
    2      -44.114013   1.000000
    3      -44.113896   1.000000
    4      -44.113896   1.000000
    5      -39.710068   1.000000
    6      -39.710068   1.000000
    7      -39.709408   1.000000
    8      -39.709408   1.000000
    9      -39.708973   1.000000
   10      -39.708973   1.000000
   11      -17.211096   1.000000
   12      -17.211095   1.000000
   13       -5.657722   1.000000
   14       -5.657721   1.000000
   15       -2.780509   1.000000
   16       -2.780509   1.000000
   17       -2.067028   1.000000
   18       -2.067028   1.000000
   19        4.946894   0.000000
   20        4.946895   0.000000