    1    1    1    1
  0.6400541E+02  0.4489975E-09  0.4489975E-09  0.4489975E-09  0.1000000E-15
  1.000000000000000E-004
  CAR 
 Og_FCC                                  
     18     35     13
 
  0.0000000E+00  0.0000000E+00  0.0000000E+00  0.1371742E-02
    1      -28.946574   1.000000
    2      -28.946574   1.000000
    3      -28.946574   1.000000
    4      -28.944368   1.000000
    5      -28.944368   1.000000
    6      -21.947297   1.000000
    7        0.758135   0.795501
    8        0.758135   0.795501
    9        0.758135   0.795500
   10        2.919369  -0.000000
   11        9.877699   0.000000
   12        9.877699   0.000000
   13        9.878081   0.000000
 
  0.1111111E+00  0.1010271E-17  0.6938894E-17  0.1097394E-01
    1      -28.946399   1.000000
    2      -28.946251   1.000000
    3      -28.946251   1.000000
    4      -28.944277   1.000000
    5      -28.944277   1.000000
    6      -21.939895   1.000000
    7        0.169112   1.000000
    8        0.716789   0.987646
    9        0.716789   0.987645
   10        3.604903   0.000000
   11        9.134821   0.000000
   12        9.998835   0.000000
   13        9.998835   0.000000
 
  0.2222222E+00  0.1589833E-16  0.2775558E-16  0.1097394E-01
    1      -28.945921   1.000000
    2      -28.945882   1.000000
    3      -28.945882   1.000000
    4      -28.943619   1.000000
    5      -28.943619   1.000000
    6      -21.920973   1.000000
    7       -0.727177   1.000000
    8        0.615591   1.014326
    9        0.615591   1.014326
   10        4.639190   0.000000
   11        8.887619   0.000000
   12       10.027505   0.000000
   13       10.027521   0.000000
 
  0.3333333E+00 -0.2472476E-16  0.1387779E-16  0.1097394E-01
    1      -28.945974   1.000000
    2      -28.945974   1.000000
    3      -28.945437   1.000000
    4      -28.942381   1.000000
    5      -28.942381   1.000000
    6      -21.899343   1.000000
    7       -1.418199   1.000000
    8        0.505969   1.000162
    9        0.505969   1.000162
   10        5.198453   0.000000
   11        9.556384   0.000000
   12        9.706910   0.000000
   13        9.706948   0.000000
 
  0.4444444E+00  0.3179666E-16  0.5551115E-16  0.1097394E-01
    1      -28.946116   1.000000
    2      -28.946116   1.000000
    3      -28.945089   1.000000
    4      -28.941453   1.000000
    5      -28.941453   1.000000
    6      -21.885052   1.000000
    7       -1.783924   1.000000
    8        0.437206   1.000002
    9        0.437207   1.000002
   10        5.322410   0.000000
   11        9.476858   0.000000
   12        9.476858   0.000000
   13        9.828603   0.000000
 
  0.1111111E+00  0.1111111E+00  0.1387779E-16  0.8230453E-02
    1      -28.946780   1.000000
    2      -28.945881   1.000000
    3      -28.945881   1.000000
    4      -28.944558   1.000000
    5      -28.944057   1.000000
    6      -21.937456   1.000000
    7        0.135821   1.000000
    8        0.627249   1.019155
    9        0.627250   1.019155
   10        3.838012   0.000000
   11        8.843635   0.000000
   12       10.168482   0.000000
   13       10.177292   0.000000
 
  0.2222222E+00  0.1111111E+00  0.2775558E-16  0.3292181E-01
    1      -28.946681   1.000000
    2      -28.945332   1.000000
    3      -28.945305   1.000000
    4      -28.944358   1.000000
    5      -28.943450   1.000000
    6      -21.922369   1.000000
    7       -0.535528   1.000000
    8        0.493465   1.000082
    9        0.530009   1.000554
   10        4.759934   0.000000
   11        8.466088   0.000000
   12        9.615496   0.000000
   13       10.428359   0.000000
 
  0.3333333E+00  0.1111111E+00  0.2775558E-16  0.3292181E-01
    1      -28.946302   1.000000
    2      -28.945300   1.000000
    3      -28.945272   1.000000
    4      -28.943296   1.000000
    5      -28.942262   1.000000
    6      -21.901628   1.000000
    7       -1.209621   1.000000
    8        0.380084   1.000000
    9        0.380954   1.000000
   10        5.514566   0.000000
   11        8.799558   0.000000
   12        8.970259   0.000000
   13       10.199331   0.000000
 
  0.4444444E+00  0.1111111E+00  0.5551115E-16  0.3292181E-01
    1      -28.946185   1.000000
    2      -28.945493   1.000000
    3      -28.944931   1.000000
    4      -28.942216   1.000000
    5      -28.941390   1.000000
    6      -21.884863   1.000000
    7       -1.636790   1.000000
    8        0.217437   1.000000
    9        0.335013   1.000000
   10        5.768814   0.000000
   11        8.597000   0.000000
   12        9.866256   0.000000
   13        9.989440   0.000000
 
 -0.4444444E+00  0.1111111E+00 -0.8326673E-16  0.3292181E-01
    1      -28.946129   1.000000
    2      -28.945597   1.000000
    3      -28.944786   1.000000
    4      -28.941618   1.000000
    5      -28.941474   1.000000
    6      -21.880115   1.000000
    7       -1.743999   1.000000
    8        0.115480   1.000000
    9        0.375584   1.000000
   10        5.808209   0.000000
   11        8.539855   0.000000
   12        9.689017   0.000000
   13       10.737348   0.000000
 
 -0.3333333E+00  0.1111111E+00 -0.4163336E-16  0.3292181E-01
    1      -28.945945   1.000000
    2      -28.945532   1.000000
    3      -28.945095   1.000000
    4      -28.942496   1.000000
    5      -28.941769   1.000000
    6      -21.889607   1.000000
    7       -1.520091   1.000000
    8        0.122038   1.000000
    9        0.485945   1.000053
   10        5.739749   0.000000
   11        8.787713   0.000000
   12        9.719566   0.000000
   13        9.748947   0.000000
 
 -0.2222222E+00  0.1111111E+00 -0.2775558E-16  0.3292181E-01
    1      -28.945815   1.000000
    2      -28.945613   1.000000
    3      -28.945409   1.000000
    4      -28.943876   1.000000
    5      -28.942626   1.000000
    6      -21.908811   1.000000
    7       -1.007292   1.000000
    8        0.249107   1.000000
    9        0.619891   1.016026
   10        5.306224   0.000000
   11        8.771370   0.000000
   12        9.310127   0.000000
   13       10.052777   0.000000
 
 -0.1111111E+00  0.1111111E+00 -0.5064502E-18  0.1646091E-01
    1      -28.946261   1.000000
    2      -28.945850   1.000000
    3      -28.945746   1.000000
    4      -28.944447   1.000000
    5      -28.943674   1.000000
    6      -21.928657   1.000000
    7       -0.338987   1.000000
    8        0.481165   1.000040
    9        0.713670   0.995452
   10        4.374263   0.000000
   11        8.740483   0.000000
   12        9.933262   0.000000
   13       10.153106   0.000000
 
  0.2222222E+00  0.2222222E+00  0.0000000E+00  0.8230453E-02
    1      -28.947305   1.000000
    2      -28.945024   1.000000
    3      -28.944079   1.000000
    4      -28.944079   1.000000
    5      -28.943286   1.000000
    6      -21.912272   1.000000
    7       -0.710143   1.000000
    8        0.321624   1.000000
    9        0.321624   1.000000
   10        5.362096   0.000000
   11        7.910972   0.000000
   12        9.143112   0.000000
   13       10.924813   0.000000
 
  0.3333333E+00  0.2222222E+00  0.2775558E-16  0.3292181E-01
    1      -28.947234   1.000000
    2      -28.945245   1.000000
    3      -28.943816   1.000000
    4      -28.943066   1.000000
    5      -28.942201   1.000000
    6      -21.895371   1.000000
    7       -1.124011   1.000000
    8        0.120663   1.000000
    9        0.182166   1.000000
   10        5.990186   0.000000
   11        7.797873   0.000000
   12        8.775929   0.000000
   13       11.081177   0.000000
 
  0.4444444E+00  0.2222222E+00  0.2775558E-16  0.3292181E-01
    1      -28.946746   1.000000
    2      -28.944973   1.000000
    3      -28.944027   1.000000
    4      -28.942474   1.000000
    5      -28.941307   1.000000
    6      -21.879559   1.000000
    7       -1.435028   1.000000
    8       -0.176373   1.000000
    9        0.131601   1.000000
   10        6.353725   0.000000
   11        8.261891   0.000000
   12        8.705429   0.000000
   13       10.766315   0.000000
 
 -0.4444444E+00  0.2222222E+00 -0.5551115E-16  0.3292181E-01
    1      -28.946408   1.000000
    2      -28.944205   1.000000
    3      -28.944132   1.000000
    4      -28.942414   1.000000
    5      -28.941406   1.000000
    6      -21.872265   1.000000
    7       -1.527488   1.000000
    8       -0.445490   1.000000
    9        0.188524   1.000000
   10        6.547024   0.000000
   11        8.188639   0.000000
   12        9.912806   0.000000
   13       10.444089   0.000000
 
 -0.3333333E+00  0.2222222E+00 -0.4857226E-16  0.3292181E-01
    1      -28.946119   1.000000
    2      -28.944255   1.000000
    3      -28.944141   1.000000
    4      -28.942498   1.000000
    5      -28.942188   1.000000
    6      -21.876996   1.000000
    7       -1.425579   1.000000
    8       -0.514554   1.000000
    9        0.332150   1.000000
   10        6.673213   0.000000
   11        8.196282   0.000000
   12        9.697820   0.000000
   13       10.278517   0.000000
 
 -0.2222222E+00  0.2222222E+00 -0.4670265E-16  0.1646091E-01
    1      -28.945820   1.000000
    2      -28.945017   1.000000
    3      -28.944172   1.000000
    4      -28.944031   1.000000
    5      -28.942032   1.000000
    6      -21.891441   1.000000
    7       -1.239653   1.000000
    8       -0.251665   1.000000
    9        0.503644   1.000143
   10        6.280012   0.000000
   11        8.540267   0.000000
   12        8.814185   0.000000
   13       10.244086   0.000000
 
  0.3333333E+00  0.3333333E+00  0.5551115E-16  0.8230453E-02
    1      -28.947899   1.000000
    2      -28.945582   1.000000
    3      -28.942405   1.000000
    4      -28.942072   1.000000
    5      -28.942072   1.000000
    6      -21.883526   1.000000
    7       -1.299288   1.000000
    8        0.009939   1.000000
    9        0.009939   1.000000
   10        5.959661   0.000000
   11        7.283786   0.000000
   12        9.471458   0.000000
   13       11.917334   0.000000
 
  0.4444444E+00  0.3333333E+00  0.5551115E-16  0.3292181E-01
    1      -28.947720   1.000000
    2      -28.945644   1.000000
    3      -28.942481   1.000000
    4      -28.941501   1.000000
    5      -28.941148   1.000000
    6      -21.871596   1.000000
    7       -1.457350   1.000000
    8       -0.240646   1.000000
    9       -0.066925   1.000000
   10        6.031561   0.000000
   11        7.361476   0.000000
   12        9.868726   0.000000
   13       11.950518   0.000000
 
 -0.4444444E+00  0.3333333E+00 -0.2775558E-16  0.3292181E-01
    1      -28.947048   1.000000
    2      -28.944961   1.000000
    3      -28.942695   1.000000
    4      -28.941769   1.000000
    5      -28.941164   1.000000
    6      -21.865160   1.000000
    7       -1.397532   1.000000
    8       -0.681891   1.000000
    9       -0.021081   1.000000
   10        6.299737   0.000000
   11        8.115171   0.000000
   12        9.855645   0.000000
   13       11.555807   0.000000
 
 -0.3333333E+00  0.3333333E+00  0.4932132E-17  0.1646091E-01
    1      -28.946505   1.000000
    2      -28.943508   1.000000
    3      -28.943069   1.000000
    4      -28.942774   1.000000
    5      -28.942003   1.000000
    6      -21.867269   1.000000
    7       -1.134933   1.000000
    8       -1.061399   1.000000
    9        0.131690   1.000000
   10        6.657585   0.000000
   11        8.711643   0.000000
   12       10.073795   0.000000
   13       10.370278   0.000000
 
  0.4444444E+00  0.4444444E+00  0.0000000E+00  0.8230453E-02
    1      -28.948279   1.000000
    2      -28.945971   1.000000
    3      -28.941824   1.000000
    4      -28.940751   1.000000
    5      -28.940751   1.000000
    6      -21.864703   1.000000
    7       -1.588590   1.000000
    8       -0.177177   1.000000
    9       -0.177177   1.000000
   10        5.676723   0.000000
   11        6.969444   0.000000
   12       11.427889   0.000000
   13       12.807983   0.000000
 
 -0.4444444E+00  0.4444444E+00 -0.9340530E-16  0.1646091E-01
    1      -28.947907   1.000000
    2      -28.945805   1.000000
    3      -28.941940   1.000000
    4      -28.940863   1.000000
    5      -28.940736   1.000000
    6      -21.862176   1.000000
    7       -1.558198   1.000000
    8       -0.383519   1.000000
    9       -0.159993   1.000000
   10        5.843302   0.000000
   11        7.213002   0.000000
   12       11.762350   0.000000
   13       11.777636   0.000000
 
  0.3333333E+00  0.2222222E+00  0.1111111E+00  0.3292181E-01
    1      -28.946562   1.000000
    2      -28.945320   1.000000
    3      -28.944401   1.000000
    4      -28.944167   1.000000
    5      -28.942582   1.000000
    6      -21.906388   1.000000
    7       -0.942443   1.000000
    8        0.144707   1.000000
    9        0.475379   1.000028
   10        5.613200   0.000000
   11        8.241395   0.000000
   12        8.917024   0.000000
   13       10.807167   0.000000
 
  0.4444444E+00  0.2222222E+00  0.1111111E+00  0.6584362E-01
    1      -28.946050   1.000000
    2      -28.945383   1.000000
    3      -28.944396   1.000000
    4      -28.943008   1.000000
    5      -28.941798   1.000000
    6      -21.888080   1.000000
    7       -1.333148   1.000000
    8       -0.136747   1.000000
    9        0.347740   1.000000
   10        6.312722   0.000000
   11        8.336561   0.000000
   12        8.685190   0.000000
   13       10.496123   0.000000
 
 -0.4444444E+00  0.2222222E+00  0.1111111E+00  0.6584362E-01
    1      -28.945973   1.000000
    2      -28.945204   1.000000
    3      -28.944076   1.000000
    4      -28.942357   1.000000
    5      -28.941475   1.000000
    6      -21.876108   1.000000
    7       -1.563665   1.000000
    8       -0.271773   1.000000
    9        0.236162   1.000000
   10        6.531593   0.000000
   11        8.014535   0.000000
   12        9.913438   0.000000
   13       10.314274   0.000000
 
  0.4444444E+00  0.3333333E+00  0.1111111E+00  0.3292181E-01
    1      -28.947061   1.000000
    2      -28.945394   1.000000
    3      -28.943469   1.000000
    4      -28.942105   1.000000
    5      -28.941670   1.000000
    6      -21.880970   1.000000
    7       -1.325579   1.000000
    8       -0.192961   1.000000
    9        0.073804   1.000000
   10        6.387933   0.000000
   11        7.748595   0.000000
   12        8.743423   0.000000
   13       11.626064   0.000000
 
 -0.4444444E+00  0.3333333E+00  0.1111111E+00  0.6584362E-01
    1      -28.946386   1.000000
    2      -28.945052   1.000000
    3      -28.943521   1.000000
    4      -28.942048   1.000000
    5      -28.941247   1.000000
    6      -21.869861   1.000000
    7       -1.387213   1.000000
    8       -0.532849   1.000000
    9       -0.028529   1.000000
   10        6.760853   0.000000
   11        8.230797   0.000000
   12        8.714482   0.000000
   13       11.363357   0.000000
 
 -0.3333333E+00  0.3333333E+00  0.1111111E+00  0.6584362E-01
    1      -28.945999   1.000000
    2      -28.944337   1.000000
    3      -28.943230   1.000000
    4      -28.943009   1.000000
    5      -28.941340   1.000000
    6      -21.867316   1.000000
    7       -1.305127   1.000000
    8       -0.798159   1.000000
    9        0.016879   1.000000
   10        7.081052   0.000000
   11        8.094606   0.000000
   12        9.747173   0.000000
   13       10.297859   0.000000
 
 -0.2222222E+00  0.3333333E+00  0.1111111E+00  0.3292181E-01
    1      -28.945719   1.000000
    2      -28.944950   1.000000
    3      -28.943851   1.000000
    4      -28.942179   1.000000
    5      -28.942166   1.000000
    6      -21.874534   1.000000
    7       -1.314911   1.000000
    8       -0.637731   1.000000
    9        0.180944   1.000000
   10        7.208110   0.000000
   11        7.860260   0.000000
   12        8.902723   0.000000
   13       10.950599   0.000000
 
 -0.4444444E+00  0.4444444E+00  0.1111111E+00  0.3292181E-01
    1      -28.947389   1.000000
    2      -28.945624   1.000000
    3      -28.942347   1.000000
    4      -28.941422   1.000000
    5      -28.940754   1.000000
    6      -21.864351   1.000000
    7       -1.478075   1.000000
    8       -0.393540   1.000000
    9       -0.220131   1.000000
   10        6.170079   0.000000
   11        7.479104   0.000000
   12       10.187730   0.000000
   13       11.871124   0.000000
 
 -0.3333333E+00  0.4444444E+00  0.1111111E+00  0.3292181E-01
    1      -28.946526   1.000000
    2      -28.944973   1.000000
    3      -28.942528   1.000000
    4      -28.942520   1.000000
    5      -28.940775   1.000000
    6      -21.862677   1.000000
    7       -1.305179   1.000000
    8       -0.773309   1.000000
    9       -0.183006   1.000000
   10        6.626216   0.000000
   11        8.218292   0.000000
   12        9.758111   0.000000
   13       10.484441   0.000000
 
 -0.3333333E+00  0.4444444E+00  0.2222222E+00  0.3292181E-01
    1      -28.945160   1.000000
    2      -28.945125   1.000000
    3      -28.943760   1.000000
    4      -28.942664   1.000000
    5      -28.940770   1.000000
    6      -21.863571   1.000000
    7       -1.177566   1.000000
    8       -0.862812   1.000000
    9       -0.251363   1.000000
   10        7.397540   0.000000
   11        8.362819   0.000000
   12        8.795791   0.000000
   13       10.092103   0.000000
