   1   1   0   0
  0.3298244E+02  0.3599697E-09  0.3599697E-09  0.3599697E-09  0.1000000E-15
  1.000000000000000E-004
  CAR 
 Og_FCC                                  
     19.48123383    -22.54094068  301     -4.82159043      1.00000000
    -22.541  0.0000E+00  0.0000E+00
    -22.401  0.0000E+00  0.0000E+00
    -22.261  0.0000E+00  0.0000E+00
    -22.121  0.0000E+00  0.0000E+00
    -21.981  0.0000E+00  0.0000E+00
    -21.841  0.0000E+00  0.0000E+00
    -21.700  0.0000E+00  0.0000E+00
    -21.560  0.0000E+00  0.0000E+00
    -21.420  0.0000E+00  0.0000E+00
    -21.280  0.0000E+00  0.0000E+00
    -21.140  0.0000E+00  0.0000E+00
    -21.000  0.0000E+00  0.0000E+00
    -20.860  0.0000E+00  0.0000E+00
    -20.720  0.0000E+00  0.0000E+00
    -20.580  0.0000E+00  0.9259E-02
    -20.440  0.0000E+00  0.2500E+00
    -20.300  0.0000E+00  0.1306E+01
    -20.160  0.0000E+00  0.2000E+01
    -20.020  0.0000E+00  0.2000E+01
    -19.880  0.0000E+00  0.2000E+01
    -19.739  0.0000E+00  0.2000E+01
    -19.599  0.0000E+00  0.2000E+01
    -19.459  0.0000E+00  0.2000E+01
    -19.319  0.0000E+00  0.2000E+01
    -19.179  0.0000E+00  0.2000E+01
    -19.039  0.0000E+00  0.2000E+01
    -18.899  0.0000E+00  0.2000E+01
    -18.759  0.0000E+00  0.2000E+01
    -18.619  0.0000E+00  0.2000E+01
    -18.479  0.0000E+00  0.2000E+01
    -18.339  0.0000E+00  0.2000E+01
    -18.199  0.0000E+00  0.2000E+01
    -18.059  0.0000E+00  0.2000E+01
    -17.919  0.0000E+00  0.2000E+01
    -17.778  0.0000E+00  0.2000E+01
    -17.638  0.0000E+00  0.2000E+01
    -17.498  0.0000E+00  0.2000E+01
    -17.358  0.0000E+00  0.2000E+01
    -17.218  0.0000E+00  0.2000E+01
    -17.078  0.0000E+00  0.2000E+01
    -16.938  0.0000E+00  0.2000E+01
    -16.798  0.0000E+00  0.2000E+01
    -16.658  0.0000E+00  0.2000E+01
    -16.518  0.0000E+00  0.2000E+01
    -16.378  0.0000E+00  0.2000E+01
    -16.238  0.0000E+00  0.2000E+01
    -16.098  0.0000E+00  0.2000E+01
    -15.957  0.0000E+00  0.2000E+01
    -15.817  0.0000E+00  0.2000E+01
    -15.677  0.0000E+00  0.2000E+01
    -15.537  0.0000E+00  0.2000E+01
    -15.397  0.0000E+00  0.2000E+01
    -15.257  0.0000E+00  0.2000E+01
    -15.117  0.0000E+00  0.2000E+01
    -14.977  0.0000E+00  0.2000E+01
    -14.837  0.0000E+00  0.2000E+01
    -14.697  0.0000E+00  0.2000E+01
    -14.557  0.0000E+00  0.2000E+01
    -14.417  0.0000E+00  0.2000E+01
    -14.277  0.0000E+00  0.2000E+01
    -14.137  0.0000E+00  0.2000E+01
    -13.996  0.0000E+00  0.2000E+01
    -13.856  0.0000E+00  0.2000E+01
    -13.716  0.0000E+00  0.2000E+01
    -13.576  0.0000E+00  0.2000E+01
    -13.436  0.0000E+00  0.2000E+01
    -13.296  0.0000E+00  0.2000E+01
    -13.156  0.0000E+00  0.2000E+01
    -13.016  0.0000E+00  0.2000E+01
    -12.876  0.0000E+00  0.2000E+01
    -12.736  0.0000E+00  0.2000E+01
    -12.596  0.0000E+00  0.2000E+01
    -12.456  0.0000E+00  0.2000E+01
    -12.316  0.0000E+00  0.2000E+01
    -12.175  0.0000E+00  0.2000E+01
    -12.035  0.0000E+00  0.2000E+01
    -11.895  0.0000E+00  0.2000E+01
    -11.755  0.0000E+00  0.2000E+01
    -11.615  0.0000E+00  0.2000E+01
    -11.475  0.0000E+00  0.2000E+01
    -11.335  0.0000E+00  0.2000E+01
    -11.195  0.0000E+00  0.2000E+01
    -11.055  0.0000E+00  0.2000E+01
    -10.915  0.0000E+00  0.2000E+01
    -10.775  0.0000E+00  0.2000E+01
    -10.635  0.0000E+00  0.2000E+01
    -10.495  0.0000E+00  0.2000E+01
    -10.355  0.0000E+00  0.2000E+01
    -10.214  0.0000E+00  0.2000E+01
    -10.074  0.0000E+00  0.2000E+01
     -9.934  0.0000E+00  0.2000E+01
     -9.794  0.0000E+00  0.2000E+01
     -9.654  0.0000E+00  0.2000E+01
     -9.514  0.0000E+00  0.2000E+01
     -9.374  0.0000E+00  0.2000E+01
     -9.234  0.0000E+00  0.2000E+01
     -9.094  0.0000E+00  0.2000E+01
     -8.954  0.0000E+00  0.2000E+01
     -8.814  0.0000E+00  0.2000E+01
     -8.674  0.0000E+00  0.2000E+01
     -8.534  0.0000E+00  0.2000E+01
     -8.393  0.0000E+00  0.2000E+01
     -8.253  0.0000E+00  0.2000E+01
     -8.113  0.0000E+00  0.2000E+01
     -7.973  0.0000E+00  0.2000E+01
     -7.833  0.0000E+00  0.2000E+01
     -7.693  0.0000E+00  0.2000E+01
     -7.553  0.0000E+00  0.2000E+01
     -7.413  0.0000E+00  0.2000E+01
     -7.273  0.0000E+00  0.2000E+01
     -7.133  0.0000E+00  0.2000E+01
     -6.993  0.0000E+00  0.2000E+01
     -6.853  0.0000E+00  0.2000E+01
     -6.713  0.0000E+00  0.2000E+01
     -6.573  0.0000E+00  0.2037E+01
     -6.432  0.1586E+01  0.2287E+01
     -6.292  0.0000E+00  0.2731E+01
     -6.152  0.0000E+00  0.3361E+01
     -6.012  0.0000E+00  0.3528E+01
     -5.872  0.0000E+00  0.3861E+01
     -5.732  0.0000E+00  0.4306E+01
     -5.592  0.1586E+01  0.4750E+01
     -5.452  0.0000E+00  0.5111E+01
     -5.312  0.0000E+00  0.5991E+01
     -5.172  0.0000E+00  0.6972E+01
     -5.032  0.5288E+00  0.7667E+01
     -4.892  0.0000E+00  0.7981E+01
     -4.752  0.0000E+00  0.8000E+01
     -4.611  0.0000E+00  0.8000E+01
     -4.471  0.0000E+00  0.8000E+01
     -4.331  0.0000E+00  0.8000E+01
     -4.191  0.0000E+00  0.8000E+01
     -4.051  0.0000E+00  0.8000E+01
     -3.911  0.0000E+00  0.8000E+01
     -3.771  0.0000E+00  0.8000E+01
     -3.631  0.0000E+00  0.8000E+01
     -3.491  0.0000E+00  0.8000E+01
     -3.351  0.0000E+00  0.8000E+01
     -3.211  0.0000E+00  0.8000E+01
     -3.071  0.0000E+00  0.8000E+01
     -2.931  0.0000E+00  0.8000E+01
     -2.791  0.0000E+00  0.8000E+01
     -2.650  0.0000E+00  0.8000E+01
     -2.510  0.0000E+00  0.8000E+01
     -2.370  0.0000E+00  0.8000E+01
     -2.230  0.0000E+00  0.8000E+01
     -2.090  0.0000E+00  0.8000E+01
     -1.950  0.0000E+00  0.8000E+01
     -1.810  0.0000E+00  0.8000E+01
     -1.670  0.0000E+00  0.8000E+01
     -1.530  0.0000E+00  0.8000E+01
     -1.390  0.0000E+00  0.8000E+01
     -1.250  0.0000E+00  0.8000E+01
     -1.110  0.0000E+00  0.8000E+01
     -0.970  0.0000E+00  0.8000E+01
     -0.829  0.0000E+00  0.8000E+01
     -0.689  0.0000E+00  0.8000E+01
     -0.549  0.0000E+00  0.8000E+01
     -0.409  0.0000E+00  0.8000E+01
     -0.269  0.0000E+00  0.8000E+01
     -0.129  0.0000E+00  0.8000E+01
      0.011  0.0000E+00  0.8000E+01
      0.151  0.0000E+00  0.8000E+01
      0.291  0.0000E+00  0.8000E+01
      0.431  0.0000E+00  0.8000E+01
      0.571  0.0000E+00  0.8000E+01
      0.711  0.0000E+00  0.8000E+01
      0.851  0.0000E+00  0.8000E+01
      0.991  0.0000E+00  0.8000E+01
      1.132  0.0000E+00  0.8000E+01
      1.272  0.0000E+00  0.8000E+01
      1.412  0.0000E+00  0.8000E+01
      1.552  0.0000E+00  0.8000E+01
      1.692  0.0000E+00  0.8000E+01
      1.832  0.0000E+00  0.8000E+01
      1.972  0.0000E+00  0.8000E+01
      2.112  0.0000E+00  0.8000E+01
      2.252  0.0000E+00  0.8000E+01
      2.392  0.0000E+00  0.8000E+01
      2.532  0.0000E+00  0.8000E+01
      2.672  0.0000E+00  0.8000E+01
      2.812  0.0000E+00  0.8000E+01
      2.953  0.0000E+00  0.8000E+01
      3.093  0.0000E+00  0.8000E+01
      3.233  0.0000E+00  0.8000E+01
      3.373  0.0000E+00  0.8000E+01
      3.513  0.0000E+00  0.8000E+01
      3.653  0.0000E+00  0.8000E+01
      3.793  0.0000E+00  0.8000E+01
      3.933  0.0000E+00  0.8000E+01
      4.073  0.0000E+00  0.8000E+01
      4.213  0.0000E+00  0.8000E+01
      4.353  0.0000E+00  0.8000E+01
      4.493  0.0000E+00  0.8000E+01
      4.633  0.0000E+00  0.8000E+01
      4.773  0.0000E+00  0.8009E+01
      4.914  0.0000E+00  0.8009E+01
      5.054  0.0000E+00  0.8009E+01
      5.194  0.0000E+00  0.8009E+01
      5.334  0.0000E+00  0.8009E+01
      5.474  0.0000E+00  0.8009E+01
      5.614  0.0000E+00  0.8083E+01
      5.754  0.3966E+00  0.8139E+01
      5.894  0.0000E+00  0.8139E+01
      6.034  0.0000E+00  0.8139E+01
      6.174  0.0000E+00  0.8139E+01
      6.314  0.0000E+00  0.8139E+01
      6.454  0.0000E+00  0.8139E+01
      6.594  0.1269E-06  0.8139E+01
      6.735  0.0000E+00  0.8250E+01
      6.875  0.0000E+00  0.8250E+01
      7.015  0.1569E+01  0.8572E+01
      7.155  0.0000E+00  0.8630E+01
      7.295  0.0000E+00  0.8630E+01
      7.435  0.0000E+00  0.8630E+01
      7.575  0.0000E+00  0.8889E+01
      7.715  0.0000E+00  0.8889E+01
      7.855  0.0000E+00  0.9000E+01
      7.995  0.1586E+01  0.9444E+01
      8.135  0.0000E+00  0.9667E+01
      8.275  0.0000E+00  0.9667E+01
      8.415  0.0000E+00  0.9667E+01
      8.555  0.0000E+00  0.1003E+02
      8.696  0.0000E+00  0.1003E+02
      8.836  0.0000E+00  0.1003E+02
      8.976  0.0000E+00  0.1003E+02
      9.116  0.0000E+00  0.1031E+02
      9.256  0.0000E+00  0.1042E+02
      9.396  0.0000E+00  0.1097E+02
      9.536  0.0000E+00  0.1097E+02
      9.676  0.0000E+00  0.1119E+02
      9.816  0.0000E+00  0.1142E+02
      9.956  0.0000E+00  0.1164E+02
     10.096  0.0000E+00  0.1164E+02
     10.236  0.0000E+00  0.1197E+02
     10.376  0.0000E+00  0.1208E+02
     10.517  0.0000E+00  0.1231E+02
     10.657  0.0000E+00  0.1247E+02
     10.797  0.0000E+00  0.1269E+02
     10.937  0.0000E+00  0.1269E+02
     11.077  0.0000E+00  0.1310E+02
     11.217  0.0000E+00  0.1360E+02
     11.357  0.0000E+00  0.1360E+02
     11.497  0.1147E+00  0.1373E+02
     11.637  0.0000E+00  0.1379E+02
     11.777  0.0000E+00  0.1379E+02
     11.917  0.0000E+00  0.1394E+02
     12.057  0.0000E+00  0.1396E+02
     12.197  0.8001E-01  0.1422E+02
     12.337  0.0000E+00  0.1458E+02
     12.478  0.0000E+00  0.1458E+02
     12.618  0.0000E+00  0.1475E+02
     12.758  0.0000E+00  0.1497E+02
     12.898  0.0000E+00  0.1531E+02
     13.038  0.0000E+00  0.1542E+02
     13.178  0.0000E+00  0.1553E+02
     13.318  0.0000E+00  0.1586E+02
     13.458  0.0000E+00  0.1586E+02
     13.598  0.0000E+00  0.1586E+02
     13.738  0.0000E+00  0.1586E+02
     13.878  0.0000E+00  0.1586E+02
     14.018  0.0000E+00  0.1608E+02
     14.158  0.0000E+00  0.1645E+02
     14.298  0.0000E+00  0.1656E+02
     14.439  0.9125E-03  0.1656E+02
     14.579  0.0000E+00  0.1681E+02
     14.719  0.0000E+00  0.1703E+02
     14.859  0.0000E+00  0.1708E+02
     14.999  0.0000E+00  0.1723E+02
     15.139  0.0000E+00  0.1723E+02
     15.279  0.0000E+00  0.1723E+02
     15.419  0.0000E+00  0.1745E+02
     15.559  0.0000E+00  0.1790E+02
     15.699  0.0000E+00  0.1790E+02
     15.839  0.0000E+00  0.1818E+02
     15.979  0.0000E+00  0.1851E+02
     16.119  0.0000E+00  0.1851E+02
     16.260  0.5131E+00  0.1858E+02
     16.400  0.0000E+00  0.1883E+02
     16.540  0.0000E+00  0.1883E+02
     16.680  0.0000E+00  0.1906E+02
     16.820  0.2051E-05  0.1906E+02
     16.960  0.0000E+00  0.1944E+02
     17.100  0.0000E+00  0.1967E+02
     17.240  0.0000E+00  0.1989E+02
     17.380  0.0000E+00  0.1989E+02
     17.520  0.2975E+00  0.1994E+02
     17.660  0.0000E+00  0.2000E+02
     17.800  0.0000E+00  0.2000E+02
     17.940  0.0000E+00  0.2000E+02
     18.080  0.0000E+00  0.2000E+02
     18.221  0.0000E+00  0.2000E+02
     18.361  0.0000E+00  0.2000E+02
     18.501  0.0000E+00  0.2000E+02
     18.641  0.0000E+00  0.2000E+02
     18.781  0.0000E+00  0.2000E+02
     18.921  0.0000E+00  0.2000E+02
     19.061  0.0000E+00  0.2000E+02
     19.201  0.0000E+00  0.2000E+02
     19.341  0.0000E+00  0.2000E+02
     19.481  0.0000E+00  0.2000E+02
