   1   1   0   0
  0.4928368E+02  0.4115343E-09  0.4115343E-09  0.4115343E-09  0.1000000E-15
  1.000000000000000E-004
  CAR 
 Og_FCC                                  
    112.00295597    -29.01296804  301     -7.74306617      1.00000000
    -29.013  0.0000E+00  0.0000E+00
    -28.543  0.0000E+00  0.0000E+00
    -28.073  0.0000E+00  0.0000E+00
    -27.603  0.0000E+00  0.0000E+00
    -27.133  0.0000E+00  0.0000E+00
    -26.663  0.0000E+00  0.0000E+00
    -26.193  0.0000E+00  0.0000E+00
    -25.723  0.0000E+00  0.0000E+00
    -25.253  0.0000E+00  0.0000E+00
    -24.782  0.0000E+00  0.0000E+00
    -24.312  0.0000E+00  0.0000E+00
    -23.842  0.0000E+00  0.0000E+00
    -23.372  0.0000E+00  0.0000E+00
    -22.902  0.0000E+00  0.0000E+00
    -22.432  0.8687E+00  0.1269E+01
    -21.962  0.0000E+00  0.2000E+01
    -21.492  0.0000E+00  0.2000E+01
    -21.022  0.0000E+00  0.2000E+01
    -20.552  0.0000E+00  0.2000E+01
    -20.082  0.0000E+00  0.2000E+01
    -19.612  0.0000E+00  0.2000E+01
    -19.142  0.0000E+00  0.2000E+01
    -18.672  0.0000E+00  0.2000E+01
    -18.202  0.0000E+00  0.2000E+01
    -17.732  0.0000E+00  0.2000E+01
    -17.262  0.0000E+00  0.2000E+01
    -16.792  0.0000E+00  0.2000E+01
    -16.322  0.0000E+00  0.2000E+01
    -15.851  0.0000E+00  0.2000E+01
    -15.381  0.0000E+00  0.2000E+01
    -14.911  0.0000E+00  0.2000E+01
    -14.441  0.0000E+00  0.2000E+01
    -13.971  0.0000E+00  0.2000E+01
    -13.501  0.0000E+00  0.2000E+01
    -13.031  0.0000E+00  0.2000E+01
    -12.561  0.0000E+00  0.2000E+01
    -12.091  0.0000E+00  0.2000E+01
    -11.621  0.0000E+00  0.2000E+01
    -11.151  0.0000E+00  0.2000E+01
    -10.681  0.0000E+00  0.2000E+01
    -10.211  0.0000E+00  0.2000E+01
     -9.741  0.0000E+00  0.2000E+01
     -9.271  0.0000E+00  0.2065E+01
     -8.801  0.0000E+00  0.3861E+01
     -8.331  0.4728E+00  0.5361E+01
     -7.861  0.0000E+00  0.8000E+01
     -7.391  0.0000E+00  0.8000E+01
     -6.920  0.0000E+00  0.8000E+01
     -6.450  0.0000E+00  0.8000E+01
     -5.980  0.0000E+00  0.8000E+01
     -5.510  0.0000E+00  0.8000E+01
     -5.040  0.0000E+00  0.8000E+01
     -4.570  0.0000E+00  0.8000E+01
     -4.100  0.0000E+00  0.8000E+01
     -3.630  0.0000E+00  0.8000E+01
     -3.160  0.0000E+00  0.8000E+01
     -2.690  0.0000E+00  0.8000E+01
     -2.220  0.0000E+00  0.8000E+01
     -1.750  0.0000E+00  0.8000E+01
     -1.280  0.0000E+00  0.8000E+01
     -0.810  0.0000E+00  0.8000E+01
     -0.340  0.0000E+00  0.8000E+01
      0.130  0.0000E+00  0.8000E+01
      0.600  0.0000E+00  0.8000E+01
      1.070  0.0000E+00  0.8000E+01
      1.540  0.0000E+00  0.8000E+01
      2.011  0.0000E+00  0.8000E+01
      2.481  0.0000E+00  0.8000E+01
      2.951  0.0000E+00  0.8000E+01
      3.421  0.0000E+00  0.8000E+01
      3.891  0.0000E+00  0.8000E+01
      4.361  0.0000E+00  0.8009E+01
      4.831  0.0000E+00  0.8009E+01
      5.301  0.0000E+00  0.8139E+01
      5.771  0.0000E+00  0.8139E+01
      6.241  0.0000E+00  0.8250E+01
      6.711  0.0000E+00  0.8630E+01
      7.181  0.0000E+00  0.8889E+01
      7.651  0.0000E+00  0.9667E+01
      8.121  0.0000E+00  0.1000E+02
      8.591  0.0000E+00  0.1036E+02
      9.061  0.1968E-16  0.1097E+02
      9.531  0.0000E+00  0.1197E+02
     10.001  0.0000E+00  0.1247E+02
     10.471  0.0000E+00  0.1377E+02
     10.942  0.0000E+00  0.1395E+02
     11.412  0.1970E-01  0.1458E+02
     11.882  0.4593E-16  0.1597E+02
     12.352  0.8748E-17  0.1740E+02
     12.822  0.0000E+00  0.1829E+02
     13.292  0.0000E+00  0.1866E+02
     13.762  0.0000E+00  0.1939E+02
     14.232  0.2339E-02  0.2039E+02
     14.702  0.0000E+00  0.2236E+02
     15.172  0.0000E+00  0.2256E+02
     15.642  0.0000E+00  0.2297E+02
     16.112  0.3103E+00  0.2323E+02
     16.582  0.0000E+00  0.2416E+02
     17.052  0.6010E-11  0.2510E+02
     17.522  0.1155E-14  0.2611E+02
     17.992  0.0000E+00  0.2706E+02
     18.462  0.0000E+00  0.2765E+02
     18.932  0.0000E+00  0.2856E+02
     19.402  0.4656E+00  0.2914E+02
     19.873  0.0000E+00  0.2935E+02
     20.343  0.4727E+00  0.3017E+02
     20.813  0.2364E+00  0.3067E+02
     21.283  0.0000E+00  0.3144E+02
     21.753  0.0000E+00  0.3246E+02
     22.223  0.0000E+00  0.3319E+02
     22.693  0.0000E+00  0.3420E+02
     23.163  0.0000E+00  0.3502E+02
     23.633  0.0000E+00  0.3593E+02
     24.103  0.0000E+00  0.3663E+02
     24.573  0.0000E+00  0.3794E+02
     25.043  0.0000E+00  0.3869E+02
     25.513  0.0000E+00  0.3907E+02
     25.983  0.0000E+00  0.3985E+02
     26.453  0.0000E+00  0.4051E+02
     26.923  0.0000E+00  0.4173E+02
     27.393  0.0000E+00  0.4323E+02
     27.863  0.4658E-06  0.4364E+02
     28.334  0.0000E+00  0.4531E+02
     28.804  0.0000E+00  0.4619E+02
     29.274  0.0000E+00  0.4648E+02
     29.744  0.0000E+00  0.4706E+02
     30.214  0.0000E+00  0.4808E+02
     30.684  0.0000E+00  0.4897E+02
     31.154  0.0000E+00  0.5012E+02
     31.624  0.0000E+00  0.5129E+02
     32.094  0.0000E+00  0.5195E+02
     32.564  0.0000E+00  0.5340E+02
     33.034  0.0000E+00  0.5445E+02
     33.504  0.0000E+00  0.5529E+02
     33.974  0.0000E+00  0.5595E+02
     34.444  0.0000E+00  0.5642E+02
     34.914  0.0000E+00  0.5747E+02
     35.384  0.0000E+00  0.5858E+02
     35.854  0.0000E+00  0.6025E+02
     36.324  0.0000E+00  0.6097E+02
     36.794  0.0000E+00  0.6292E+02
     37.265  0.5477E-09  0.6380E+02
     37.735  0.0000E+00  0.6454E+02
     38.205  0.0000E+00  0.6520E+02
     38.675  0.0000E+00  0.6631E+02
     39.145  0.0000E+00  0.6724E+02
     39.615  0.0000E+00  0.6749E+02
     40.085  0.0000E+00  0.6927E+02
     40.555  0.0000E+00  0.6982E+02
     41.025  0.0000E+00  0.7087E+02
     41.495  0.0000E+00  0.7319E+02
     41.965  0.0000E+00  0.7399E+02
     42.435  0.0000E+00  0.7502E+02
     42.905  0.0000E+00  0.7672E+02
     43.375  0.0000E+00  0.7711E+02
     43.845  0.0000E+00  0.7866E+02
     44.315  0.0000E+00  0.7949E+02
     44.785  0.0000E+00  0.8023E+02
     45.255  0.0000E+00  0.8151E+02
     45.725  0.3330E-06  0.8225E+02
     46.196  0.0000E+00  0.8272E+02
     46.666  0.0000E+00  0.8394E+02
     47.136  0.0000E+00  0.8565E+02
     47.606  0.0000E+00  0.8770E+02
     48.076  0.0000E+00  0.8897E+02
     48.546  0.0000E+00  0.8931E+02
     49.016  0.0000E+00  0.9094E+02
     49.486  0.0000E+00  0.9223E+02
     49.956  0.0000E+00  0.9298E+02
     50.426  0.0000E+00  0.9452E+02
     50.896  0.0000E+00  0.9544E+02
     51.366  0.0000E+00  0.9669E+02
     51.836  0.0000E+00  0.9757E+02
     52.306  0.0000E+00  0.9908E+02
     52.776  0.2624E-16  0.9986E+02
     53.246  0.0000E+00  0.1009E+03
     53.716  0.0000E+00  0.1019E+03
     54.186  0.0000E+00  0.1032E+03
     54.656  0.4728E+00  0.1048E+03
     55.127  0.0000E+00  0.1064E+03
     55.597  0.0000E+00  0.1074E+03
     56.067  0.0000E+00  0.1089E+03
     56.537  0.0000E+00  0.1104E+03
     57.007  0.0000E+00  0.1114E+03
     57.477  0.0000E+00  0.1124E+03
     57.947  0.1849E-06  0.1133E+03
     58.417  0.0000E+00  0.1145E+03
     58.887  0.0000E+00  0.1164E+03
     59.357  0.0000E+00  0.1177E+03
     59.827  0.0000E+00  0.1186E+03
     60.297  0.0000E+00  0.1203E+03
     60.767  0.0000E+00  0.1209E+03
     61.237  0.0000E+00  0.1220E+03
     61.707  0.6586E-03  0.1234E+03
     62.177  0.0000E+00  0.1248E+03
     62.647  0.0000E+00  0.1264E+03
     63.117  0.0000E+00  0.1278E+03
     63.587  0.0000E+00  0.1283E+03
     64.058  0.0000E+00  0.1296E+03
     64.528  0.1576E+00  0.1309E+03
     64.998  0.5684E-05  0.1335E+03
     65.468  0.9444E+00  0.1350E+03
     65.938  0.0000E+00  0.1365E+03
     66.408  0.0000E+00  0.1373E+03
     66.878  0.2651E-01  0.1383E+03
     67.348  0.8178E-03  0.1398E+03
     67.818  0.0000E+00  0.1415E+03
     68.288  0.0000E+00  0.1430E+03
     68.758  0.0000E+00  0.1435E+03
     69.228  0.0000E+00  0.1446E+03
     69.698  0.2362E+00  0.1460E+03
     70.168  0.0000E+00  0.1474E+03
     70.638  0.7903E-02  0.1487E+03
     71.108  0.0000E+00  0.1503E+03
     71.578  0.0000E+00  0.1510E+03
     72.048  0.8410E-12  0.1529E+03
     72.518  0.5909E-01  0.1542E+03
     72.989  0.0000E+00  0.1565E+03
     73.459  0.0000E+00  0.1576E+03
     73.929  0.0000E+00  0.1595E+03
     74.399  0.0000E+00  0.1606E+03
     74.869  0.0000E+00  0.1620E+03
     75.339  0.2040E-01  0.1642E+03
     75.809  0.0000E+00  0.1651E+03
     76.279  0.0000E+00  0.1665E+03
     76.749  0.0000E+00  0.1680E+03
     77.219  0.0000E+00  0.1696E+03
     77.689  0.0000E+00  0.1700E+03
     78.159  0.0000E+00  0.1707E+03
     78.629  0.4587E+00  0.1721E+03
     79.099  0.0000E+00  0.1730E+03
     79.569  0.0000E+00  0.1753E+03
     80.039  0.0000E+00  0.1763E+03
     80.509  0.0000E+00  0.1785E+03
     80.979  0.2256E+00  0.1801E+03
     81.450  0.0000E+00  0.1819E+03
     81.920  0.0000E+00  0.1835E+03
     82.390  0.0000E+00  0.1851E+03
     82.860  0.0000E+00  0.1873E+03
     83.330  0.0000E+00  0.1888E+03
     83.800  0.0000E+00  0.1900E+03
     84.270  0.0000E+00  0.1914E+03
     84.740  0.0000E+00  0.1929E+03
     85.210  0.0000E+00  0.1941E+03
     85.680  0.1576E+00  0.1958E+03
     86.150  0.2337E+00  0.1971E+03
     86.620  0.0000E+00  0.1978E+03
     87.090  0.0000E+00  0.1987E+03
     87.560  0.0000E+00  0.2006E+03
     88.030  0.1576E+00  0.2021E+03
     88.500  0.0000E+00  0.2036E+03
     88.970  0.0000E+00  0.2056E+03
     89.440  0.7394E-02  0.2064E+03
     89.910  0.0000E+00  0.2079E+03
     90.381  0.0000E+00  0.2096E+03
     90.851  0.2090E-08  0.2113E+03
     91.321  0.1071E-04  0.2136E+03
     91.791  0.0000E+00  0.2162E+03
     92.261  0.0000E+00  0.2182E+03
     92.731  0.0000E+00  0.2196E+03
     93.201  0.0000E+00  0.2210E+03
     93.671  0.0000E+00  0.2227E+03
     94.141  0.0000E+00  0.2237E+03
     94.611  0.4728E+00  0.2253E+03
     95.081  0.0000E+00  0.2265E+03
     95.551  0.3952E+00  0.2280E+03
     96.021  0.0000E+00  0.2286E+03
     96.491  0.2364E+00  0.2303E+03
     96.961  0.0000E+00  0.2317E+03
     97.431  0.0000E+00  0.2327E+03
     97.901  0.0000E+00  0.2339E+03
     98.371  0.4251E-07  0.2359E+03
     98.841  0.9826E-01  0.2378E+03
     99.312  0.4728E+00  0.2400E+03
     99.782  0.0000E+00  0.2422E+03
    100.252  0.0000E+00  0.2437E+03
    100.722  0.1714E-08  0.2455E+03
    101.192  0.0000E+00  0.2468E+03
    101.662  0.4728E+00  0.2493E+03
    102.132  0.0000E+00  0.2508E+03
    102.602  0.0000E+00  0.2527E+03
    103.072  0.0000E+00  0.2537E+03
    103.542  0.0000E+00  0.2542E+03
    104.012  0.0000E+00  0.2546E+03
    104.482  0.0000E+00  0.2552E+03
    104.952  0.0000E+00  0.2553E+03
    105.422  0.0000E+00  0.2559E+03
    105.892  0.0000E+00  0.2560E+03
    106.362  0.0000E+00  0.2560E+03
    106.832  0.0000E+00  0.2560E+03
    107.302  0.0000E+00  0.2560E+03
    107.772  0.0000E+00  0.2560E+03
    108.243  0.0000E+00  0.2560E+03
    108.713  0.0000E+00  0.2560E+03
    109.183  0.0000E+00  0.2560E+03
    109.653  0.0000E+00  0.2560E+03
    110.123  0.0000E+00  0.2560E+03
    110.593  0.0000E+00  0.2560E+03
    111.063  0.0000E+00  0.2560E+03
    111.533  0.0000E+00  0.2560E+03
    112.003  0.0000E+00  0.2560E+03
