 vasp.5.4.4.18Apr17-6-g9f103f2a35 (build Jul 09 2018 16:43:14) complex          
  
 executed on             LinuxIFC date 2018.11.22  04:33:13
 running on   32 total cores
 distrk:  each k-point on    2 cores,   16 groups
 distr:  one band on NCORES_PER_BAND=   1 cores,    2 groups


--------------------------------------------------------------------------------------------------------


 INCAR:
 POTCAR:    PAW_PBE Kr_GW 21Aug2013               

 ----------------------------------------------------------------------------- 
|                                                                             |
|           W    W    AA    RRRRR   N    N  II  N    N   GGGG   !!!           |
|           W    W   A  A   R    R  NN   N  II  NN   N  G    G  !!!           |
|           W    W  A    A  R    R  N N  N  II  N N  N  G       !!!           |
|           W WW W  AAAAAA  RRRRR   N  N N  II  N  N N  G  GGG   !            |
|           WW  WW  A    A  R   R   N   NN  II  N   NN  G    G                |
|           W    W  A    A  R    R  N    N  II  N    N   GGGG   !!!           |
|                                                                             |
|      For optimal performance we recommend to set                            |
|        NCORE= 4 - approx SQRT( number of cores)                             |
|      NCORE specifies how many cores store one orbital (NPAR=cpu/NCORE).     |
|      This setting can  greatly improve the performance of VASP for DFT.     |
|      The default,   NCORE=1            might be grossly inefficient         |
|      on modern multi-core architectures or massively parallel machines.     |
|      Do your own testing !!!!                                               |
|      Unfortunately you need to use the default for GW and RPA calculations. |
|      (for HF NCORE is supported but not extensively tested yet)             |
|                                                                             |
 ----------------------------------------------------------------------------- 


 ----------------------------------------------------------------------------- 
|                                                                             |
|           W    W    AA    RRRRR   N    N  II  N    N   GGGG   !!!           |
|           W    W   A  A   R    R  NN   N  II  NN   N  G    G  !!!           |
|           W    W  A    A  R    R  N N  N  II  N N  N  G       !!!           |
|           W WW W  AAAAAA  RRRRR   N  N N  II  N  N N  G  GGG   !            |
|           WW  WW  A    A  R   R   N   NN  II  N   NN  G    G                |
|           W    W  A    A  R    R  N    N  II  N    N   GGGG   !!!           |
|                                                                             |
|      You have enabled k-point parallelism (KPAR>1).                         |
|      This developmental code was originally  written by Paul Kent at ORNL,  |
|      and carefully double checked in Vienna.                                |
|      GW as well as linear response parallelism added by Martijn Marsman     |
|      and Georg Kresse.                                                      |
|      Carefully verify results versus KPAR=1.                                |
|      Report problems to Paul Kent and Vienna.                               |
|                                                                             |
 ----------------------------------------------------------------------------- 

 POTCAR:    PAW_PBE Kr_GW 21Aug2013               
  local pseudopotential read in
  partial core-charges read in
  partial kinetic energy density read in
  kinetic energy density of atom read in
  atomic valenz-charges read in
  non local Contribution for L=           0  read in
    real space projection operators read in
  non local Contribution for L=           0  read in
    real space projection operators read in
  non local Contribution for L=           1  read in
    real space projection operators read in
  non local Contribution for L=           1  read in
    real space projection operators read in
  non local Contribution for L=           2  read in
    real space projection operators read in
  non local Contribution for L=           2  read in
    real space projection operators read in
    PAW grid and wavefunctions read in
 
   number of l-projection  operators is LMAX  =           6
   number of lm-projection operators is LMMAX =          18
 
  PAW_PBE Kr_GW 21Aug2013               :
 energy of atom  1       EATOM= -506.7358
 kinetic energy error for atom=    0.0279 (will be added to EATOM!!)
 
 
 POSCAR: Kr_FCC                                  
  positions in direct lattice
  velocities in cartesian coordinates
 exchange correlation table for  LEXCH =        8
   RHO(1)=    0.500       N(1)  =     2000
   RHO(2)=  100.500       N(2)  =     4000
 


--------------------------------------------------------------------------------------------------------


 ion  position               nearest neighbor table
   1  0.000  0.000  0.000-
 

IMPORTANT INFORMATION: All symmetrisations will be switched off!
NOSYMM: (Re-)initialisation of all symmetry stuff for point group C_1.

 
 
 KPOINTS: k-points                                

Automatic generation of k-mesh.
Space group operators:
 irot       det(A)        alpha          n_x          n_y          n_z        tau_x        tau_y        tau_z
    1     1.000000     0.000001     1.000000     0.000000     0.000000     0.000000     0.000000     0.000000
 
 Subroutine IBZKPT returns following result:
 ===========================================
 
 Found    112 irreducible k-points:
 
 Following reciprocal coordinates:
            Coordinates               Weight
  0.000000  0.000000  0.000000      1.000000
  0.166667 -0.000000 -0.000000      2.000000
  0.333333  0.000000  0.000000      2.000000
  0.500000  0.000000  0.000000      1.000000
  0.000000  0.166667  0.000000      2.000000
  0.166667  0.166667  0.000000      2.000000
  0.333333  0.166667  0.000000      2.000000
  0.500000  0.166667  0.000000      2.000000
 -0.333333  0.166667  0.000000      2.000000
 -0.166667  0.166667  0.000000      2.000000
  0.000000  0.333333 -0.000000      2.000000
  0.166667  0.333333  0.000000      2.000000
  0.333333  0.333333 -0.000000      2.000000
  0.500000  0.333333 -0.000000      2.000000
 -0.333333  0.333333 -0.000000      2.000000
 -0.166667  0.333333  0.000000      2.000000
  0.000000  0.500000  0.000000      1.000000
  0.166667  0.500000  0.000000      2.000000
  0.333333  0.500000  0.000000      2.000000
  0.500000  0.500000  0.000000      1.000000
  0.000000  0.000000  0.166667      2.000000
  0.166667  0.000000  0.166667      2.000000
  0.333333 -0.000000  0.166667      2.000000
  0.500000  0.000000  0.166667      2.000000
 -0.333333 -0.000000  0.166667      2.000000
 -0.166667  0.000000  0.166667      2.000000
  0.000000  0.166667  0.166667      2.000000
  0.166667  0.166667  0.166667      2.000000
  0.333333  0.166667  0.166667      2.000000
  0.500000  0.166667  0.166667      2.000000
 -0.333333  0.166667  0.166667      2.000000
 -0.166667  0.166667  0.166667      2.000000
  0.000000  0.333333  0.166667      2.000000
  0.166667  0.333333  0.166667      2.000000
  0.333333  0.333333  0.166667      2.000000
  0.500000  0.333333  0.166667      2.000000
 -0.333333  0.333333  0.166667      2.000000
 -0.166667  0.333333  0.166667      2.000000
  0.000000  0.500000  0.166667      2.000000
  0.166667  0.500000  0.166667      2.000000
  0.333333  0.500000  0.166667      2.000000
  0.500000  0.500000  0.166667      2.000000
 -0.333333  0.500000  0.166667      2.000000
 -0.166667  0.500000  0.166667      2.000000
  0.000000 -0.333333  0.166667      2.000000
  0.166667 -0.333333  0.166667      2.000000
  0.333333 -0.333333  0.166667      2.000000
  0.500000 -0.333333  0.166667      2.000000
 -0.333333 -0.333333  0.166667      2.000000
 -0.166667 -0.333333  0.166667      2.000000
  0.000000 -0.166667  0.166667      2.000000
  0.166667 -0.166667  0.166667      2.000000
  0.333333 -0.166667  0.166667      2.000000
  0.500000 -0.166667  0.166667      2.000000
 -0.333333 -0.166667  0.166667      2.000000
 -0.166667 -0.166667  0.166667      2.000000
  0.000000  0.000000  0.333333      2.000000
  0.166667 -0.000000  0.333333      2.000000
  0.333333  0.000000  0.333333      2.000000
  0.500000  0.000000  0.333333      2.000000
 -0.333333  0.000000  0.333333      2.000000
 -0.166667  0.000000  0.333333      2.000000
 -0.000000  0.166667  0.333333      2.000000
  0.166667  0.166667  0.333333      2.000000
  0.333333  0.166667  0.333333      2.000000
  0.500000  0.166667  0.333333      2.000000
 -0.333333  0.166667  0.333333      2.000000
 -0.166667  0.166667  0.333333      2.000000
  0.000000  0.333333  0.333333      2.000000
  0.166667  0.333333  0.333333      2.000000
  0.333333  0.333333  0.333333      2.000000
  0.500000  0.333333  0.333333      2.000000
 -0.333333  0.333333  0.333333      2.000000
 -0.166667  0.333333  0.333333      2.000000
  0.000000  0.500000  0.333333      2.000000
  0.166667  0.500000  0.333333      2.000000
  0.333333  0.500000  0.333333      2.000000
  0.500000  0.500000  0.333333      2.000000
 -0.333333  0.500000  0.333333      2.000000
 -0.166667  0.500000  0.333333      2.000000
 -0.000000 -0.333333  0.333333      2.000000
  0.166667 -0.333333  0.333333      2.000000
  0.333333 -0.333333  0.333333      2.000000
  0.500000 -0.333333  0.333333      2.000000
 -0.333333 -0.333333  0.333333      2.000000
 -0.166667 -0.333333  0.333333      2.000000
  0.000000 -0.166667  0.333333      2.000000
  0.166667 -0.166667  0.333333      2.000000
  0.333333 -0.166667  0.333333      2.000000
  0.500000 -0.166667  0.333333      2.000000
 -0.333333 -0.166667  0.333333      2.000000
 -0.166667 -0.166667  0.333333      2.000000
  0.000000  0.000000  0.500000      1.000000
  0.166667  0.000000  0.500000      2.000000
  0.333333  0.000000  0.500000      2.000000
  0.500000  0.000000  0.500000      1.000000
  0.000000  0.166667  0.500000      2.000000
  0.166667  0.166667  0.500000      2.000000
  0.333333  0.166667  0.500000      2.000000
  0.500000  0.166667  0.500000      2.000000
 -0.333333  0.166667  0.500000      2.000000
 -0.166667  0.166667  0.500000      2.000000
  0.000000  0.333333  0.500000      2.000000
  0.166667  0.333333  0.500000      2.000000
  0.333333  0.333333  0.500000      2.000000
  0.500000  0.333333  0.500000      2.000000
 -0.333333  0.333333  0.500000      2.000000
 -0.166667  0.333333  0.500000      2.000000
  0.000000  0.500000  0.500000      1.000000
  0.166667  0.500000  0.500000      2.000000
  0.333333  0.500000  0.500000      2.000000
  0.500000  0.500000  0.500000      1.000000
 
 Following cartesian coordinates:
            Coordinates               Weight
  0.000000  0.000000  0.000000      1.000000
  0.040499 -0.023382 -0.016534      2.000000
  0.080998 -0.046764 -0.033067      2.000000
  0.121497 -0.070146 -0.049601      1.000000
  0.000000  0.046764 -0.016534      2.000000
  0.040499  0.023382 -0.033067      2.000000
  0.080998  0.000000 -0.049601      2.000000
  0.121497 -0.023382 -0.066134      2.000000
 -0.080998  0.093528  0.016534      2.000000
 -0.040499  0.070146  0.000000      2.000000
  0.000000  0.093528 -0.033067      2.000000
  0.040499  0.070146 -0.049601      2.000000
  0.080998  0.046764 -0.066134      2.000000
  0.121497  0.023382 -0.082668      2.000000
 -0.080998  0.140292  0.000000      2.000000
 -0.040499  0.116910 -0.016534      2.000000
  0.000000  0.140292 -0.049601      1.000000
  0.040499  0.116910 -0.066134      2.000000
  0.080998  0.093528 -0.082668      2.000000
  0.121497  0.070146 -0.099202      1.000000
 -0.000000  0.000000  0.049601      2.000000
  0.040499 -0.023382  0.033067      2.000000
  0.080998 -0.046764  0.016534      2.000000
  0.121497 -0.070146 -0.000000      2.000000
 -0.080998  0.046764  0.082668      2.000000
 -0.040499  0.023382  0.066134      2.000000
 -0.000000  0.046764  0.033067      2.000000
  0.040499  0.023382  0.016534      2.000000
  0.080998  0.000000  0.000000      2.000000
  0.121497 -0.023382 -0.016534      2.000000
 -0.080998  0.093528  0.066134      2.000000
 -0.040499  0.070146  0.049601      2.000000
 -0.000000  0.093528  0.016534      2.000000
  0.040499  0.070146  0.000000      2.000000
  0.080998  0.046764 -0.016534      2.000000
  0.121497  0.023382 -0.033067      2.000000
 -0.080998  0.140292  0.049601      2.000000
 -0.040499  0.116910  0.033067      2.000000
 -0.000000  0.140292  0.000000      2.000000
  0.040499  0.116910 -0.016534      2.000000
  0.080998  0.093528 -0.033067      2.000000
  0.121497  0.070146 -0.049601      2.000000
 -0.080998  0.187056  0.033067      2.000000
 -0.040499  0.163674  0.016534      2.000000
 -0.000000 -0.093528  0.082668      2.000000
  0.040499 -0.116910  0.066134      2.000000
  0.080998 -0.140292  0.049601      2.000000
  0.121497 -0.163674  0.033067      2.000000
 -0.080998 -0.046764  0.115735      2.000000
 -0.040499 -0.070146  0.099202      2.000000
 -0.000000 -0.046764  0.066134      2.000000
  0.040499 -0.070146  0.049601      2.000000
  0.080998 -0.093528  0.033067      2.000000
  0.121497 -0.116910  0.016534      2.000000
 -0.080998 -0.000000  0.099202      2.000000
 -0.040499 -0.023382  0.082668      2.000000
 -0.000000  0.000000  0.099202      2.000000
  0.040499 -0.023382  0.082668      2.000000
  0.080998 -0.046764  0.066134      2.000000
  0.121497 -0.070146  0.049601      2.000000
 -0.080998  0.046764  0.132269      2.000000
 -0.040499  0.023382  0.115735      2.000000
 -0.000000  0.046764  0.082668      2.000000
  0.040499  0.023382  0.066134      2.000000
  0.080998  0.000000  0.049601      2.000000
  0.121497 -0.023382  0.033067      2.000000
 -0.080998  0.093528  0.115735      2.000000
 -0.040499  0.070146  0.099202      2.000000
 -0.000000  0.093528  0.066134      2.000000
  0.040499  0.070146  0.049601      2.000000
  0.080998  0.046764  0.033067      2.000000
  0.121497  0.023382  0.016534      2.000000
 -0.080998  0.140292  0.099202      2.000000
 -0.040499  0.116910  0.082668      2.000000
 -0.000000  0.140292  0.049601      2.000000
  0.040499  0.116910  0.033067      2.000000
  0.080998  0.093528  0.016534      2.000000
  0.121497  0.070146  0.000000      2.000000
 -0.080998  0.187056  0.082668      2.000000
 -0.040499  0.163674  0.066134      2.000000
 -0.000000 -0.093528  0.132269      2.000000
  0.040499 -0.116910  0.115735      2.000000
  0.080998 -0.140292  0.099202      2.000000
  0.121497 -0.163674  0.082668      2.000000
 -0.080998 -0.046764  0.165336      2.000000
 -0.040499 -0.070146  0.148802      2.000000
 -0.000000 -0.046764  0.115735      2.000000
  0.040499 -0.070146  0.099202      2.000000
  0.080998 -0.093528  0.082668      2.000000
  0.121497 -0.116910  0.066134      2.000000
 -0.080998 -0.000000  0.148802      2.000000
 -0.040499 -0.023382  0.132269      2.000000
 -0.000000  0.000000  0.148802      1.000000
  0.040499 -0.023382  0.132269      2.000000
  0.080998 -0.046764  0.115735      2.000000
  0.121497 -0.070146  0.099202      1.000000
 -0.000000  0.046764  0.132269      2.000000
  0.040499  0.023382  0.115735      2.000000
  0.080998  0.000000  0.099202      2.000000
  0.121497 -0.023382  0.082668      2.000000
 -0.080998  0.093528  0.165336      2.000000
 -0.040499  0.070146  0.148802      2.000000
 -0.000000  0.093528  0.115735      2.000000
  0.040499  0.070146  0.099202      2.000000
  0.080998  0.046764  0.082668      2.000000
  0.121497  0.023382  0.066134      2.000000
 -0.080998  0.140292  0.148802      2.000000
 -0.040499  0.116910  0.132269      2.000000
 -0.000000  0.140292  0.099202      1.000000
  0.040499  0.116910  0.082668      2.000000
  0.080998  0.093528  0.066134      2.000000
  0.121497  0.070146  0.049601      1.000000
 
 
 Subroutine IBZKPT_HF returns following result:
 ==============================================
 
 Found    216 k-points in 1st BZ
 the following    216 k-points will be used (e.g. in the exchange kernel)
 Following reciprocal coordinates:   # in IRBZ
  0.000000  0.000000  0.000000    0.00462963   1 t-inv F
  0.166667 -0.000000 -0.000000    0.00462963   2 t-inv F
  0.333333  0.000000  0.000000    0.00462963   3 t-inv F
  0.500000  0.000000  0.000000    0.00462963   4 t-inv F
  0.000000  0.166667  0.000000    0.00462963   5 t-inv F
  0.166667  0.166667  0.000000    0.00462963   6 t-inv F
  0.333333  0.166667  0.000000    0.00462963   7 t-inv F
  0.500000  0.166667  0.000000    0.00462963   8 t-inv F
 -0.333333  0.166667  0.000000    0.00462963   9 t-inv F
 -0.166667  0.166667  0.000000    0.00462963  10 t-inv F
  0.000000  0.333333 -0.000000    0.00462963  11 t-inv F
  0.166667  0.333333  0.000000    0.00462963  12 t-inv F
  0.333333  0.333333 -0.000000    0.00462963  13 t-inv F
  0.500000  0.333333 -0.000000    0.00462963  14 t-inv F
 -0.333333  0.333333 -0.000000    0.00462963  15 t-inv F
 -0.166667  0.333333  0.000000    0.00462963  16 t-inv F
  0.000000  0.500000  0.000000    0.00462963  17 t-inv F
  0.166667  0.500000  0.000000    0.00462963  18 t-inv F
  0.333333  0.500000  0.000000    0.00462963  19 t-inv F
  0.500000  0.500000  0.000000    0.00462963  20 t-inv F
  0.000000  0.000000  0.166667    0.00462963  21 t-inv F
  0.166667  0.000000  0.166667    0.00462963  22 t-inv F
  0.333333 -0.000000  0.166667    0.00462963  23 t-inv F
  0.500000  0.000000  0.166667    0.00462963  24 t-inv F
 -0.333333 -0.000000  0.166667    0.00462963  25 t-inv F
 -0.166667  0.000000  0.166667    0.00462963  26 t-inv F
  0.000000  0.166667  0.166667    0.00462963  27 t-inv F
  0.166667  0.166667  0.166667    0.00462963  28 t-inv F
  0.333333  0.166667  0.166667    0.00462963  29 t-inv F
  0.500000  0.166667  0.166667    0.00462963  30 t-inv F
 -0.333333  0.166667  0.166667    0.00462963  31 t-inv F
 -0.166667  0.166667  0.166667    0.00462963  32 t-inv F
  0.000000  0.333333  0.166667    0.00462963  33 t-inv F
  0.166667  0.333333  0.166667    0.00462963  34 t-inv F
  0.333333  0.333333  0.166667    0.00462963  35 t-inv F
  0.500000  0.333333  0.166667    0.00462963  36 t-inv F
 -0.333333  0.333333  0.166667    0.00462963  37 t-inv F
 -0.166667  0.333333  0.166667    0.00462963  38 t-inv F
  0.000000  0.500000  0.166667    0.00462963  39 t-inv F
  0.166667  0.500000  0.166667    0.00462963  40 t-inv F
  0.333333  0.500000  0.166667    0.00462963  41 t-inv F
  0.500000  0.500000  0.166667    0.00462963  42 t-inv F
 -0.333333  0.500000  0.166667    0.00462963  43 t-inv F
 -0.166667  0.500000  0.166667    0.00462963  44 t-inv F
  0.000000 -0.333333  0.166667    0.00462963  45 t-inv F
  0.166667 -0.333333  0.166667    0.00462963  46 t-inv F
  0.333333 -0.333333  0.166667    0.00462963  47 t-inv F
  0.500000 -0.333333  0.166667    0.00462963  48 t-inv F
 -0.333333 -0.333333  0.166667    0.00462963  49 t-inv F
 -0.166667 -0.333333  0.166667    0.00462963  50 t-inv F
  0.000000 -0.166667  0.166667    0.00462963  51 t-inv F
  0.166667 -0.166667  0.166667    0.00462963  52 t-inv F
  0.333333 -0.166667  0.166667    0.00462963  53 t-inv F
  0.500000 -0.166667  0.166667    0.00462963  54 t-inv F
 -0.333333 -0.166667  0.166667    0.00462963  55 t-inv F
 -0.166667 -0.166667  0.166667    0.00462963  56 t-inv F
  0.000000  0.000000  0.333333    0.00462963  57 t-inv F
  0.166667 -0.000000  0.333333    0.00462963  58 t-inv F
  0.333333  0.000000  0.333333    0.00462963  59 t-inv F
  0.500000  0.000000  0.333333    0.00462963  60 t-inv F
 -0.333333  0.000000  0.333333    0.00462963  61 t-inv F
 -0.166667  0.000000  0.333333    0.00462963  62 t-inv F
 -0.000000  0.166667  0.333333    0.00462963  63 t-inv F
  0.166667  0.166667  0.333333    0.00462963  64 t-inv F
  0.333333  0.166667  0.333333    0.00462963  65 t-inv F
  0.500000  0.166667  0.333333    0.00462963  66 t-inv F
 -0.333333  0.166667  0.333333    0.00462963  67 t-inv F
 -0.166667  0.166667  0.333333    0.00462963  68 t-inv F
  0.000000  0.333333  0.333333    0.00462963  69 t-inv F
  0.166667  0.333333  0.333333    0.00462963  70 t-inv F
  0.333333  0.333333  0.333333    0.00462963  71 t-inv F
  0.500000  0.333333  0.333333    0.00462963  72 t-inv F
 -0.333333  0.333333  0.333333    0.00462963  73 t-inv F
 -0.166667  0.333333  0.333333    0.00462963  74 t-inv F
  0.000000  0.500000  0.333333    0.00462963  75 t-inv F
  0.166667  0.500000  0.333333    0.00462963  76 t-inv F
  0.333333  0.500000  0.333333    0.00462963  77 t-inv F
  0.500000  0.500000  0.333333    0.00462963  78 t-inv F
 -0.333333  0.500000  0.333333    0.00462963  79 t-inv F
 -0.166667  0.500000  0.333333    0.00462963  80 t-inv F
 -0.000000 -0.333333  0.333333    0.00462963  81 t-inv F
  0.166667 -0.333333  0.333333    0.00462963  82 t-inv F
  0.333333 -0.333333  0.333333    0.00462963  83 t-inv F
  0.500000 -0.333333  0.333333    0.00462963  84 t-inv F
 -0.333333 -0.333333  0.333333    0.00462963  85 t-inv F
 -0.166667 -0.333333  0.333333    0.00462963  86 t-inv F
  0.000000 -0.166667  0.333333    0.00462963  87 t-inv F
  0.166667 -0.166667  0.333333    0.00462963  88 t-inv F
  0.333333 -0.166667  0.333333    0.00462963  89 t-inv F
  0.500000 -0.166667  0.333333    0.00462963  90 t-inv F
 -0.333333 -0.166667  0.333333    0.00462963  91 t-inv F
 -0.166667 -0.166667  0.333333    0.00462963  92 t-inv F
  0.000000  0.000000  0.500000    0.00462963  93 t-inv F
  0.166667  0.000000  0.500000    0.00462963  94 t-inv F
  0.333333  0.000000  0.500000    0.00462963  95 t-inv F
  0.500000  0.000000  0.500000    0.00462963  96 t-inv F
  0.000000  0.166667  0.500000    0.00462963  97 t-inv F
  0.166667  0.166667  0.500000    0.00462963  98 t-inv F
  0.333333  0.166667  0.500000    0.00462963  99 t-inv F
  0.500000  0.166667  0.500000    0.00462963 100 t-inv F
 -0.333333  0.166667  0.500000    0.00462963 101 t-inv F
 -0.166667  0.166667  0.500000    0.00462963 102 t-inv F
  0.000000  0.333333  0.500000    0.00462963 103 t-inv F
  0.166667  0.333333  0.500000    0.00462963 104 t-inv F
  0.333333  0.333333  0.500000    0.00462963 105 t-inv F
  0.500000  0.333333  0.500000    0.00462963 106 t-inv F
 -0.333333  0.333333  0.500000    0.00462963 107 t-inv F
 -0.166667  0.333333  0.500000    0.00462963 108 t-inv F
  0.000000  0.500000  0.500000    0.00462963 109 t-inv F
  0.166667  0.500000  0.500000    0.00462963 110 t-inv F
  0.333333  0.500000  0.500000    0.00462963 111 t-inv F
  0.500000  0.500000  0.500000    0.00462963 112 t-inv F
 -0.166667  0.000000  0.000000    0.00462963   2 t-inv T
 -0.333333 -0.000000  0.000000    0.00462963   3 t-inv T
 -0.000000 -0.166667 -0.000000    0.00462963   5 t-inv T
 -0.166667 -0.166667 -0.000000    0.00462963   6 t-inv T
 -0.333333 -0.166667 -0.000000    0.00462963   7 t-inv T
 -0.500000 -0.166667  0.000000    0.00462963   8 t-inv T
  0.333333 -0.166667 -0.000000    0.00462963   9 t-inv T
  0.166667 -0.166667 -0.000000    0.00462963  10 t-inv T
 -0.000000 -0.333333  0.000000    0.00462963  11 t-inv T
 -0.166667 -0.333333  0.000000    0.00462963  12 t-inv T
 -0.333333 -0.333333  0.000000    0.00462963  13 t-inv T
 -0.500000 -0.333333  0.000000    0.00462963  14 t-inv T
  0.333333 -0.333333  0.000000    0.00462963  15 t-inv T
  0.166667 -0.333333  0.000000    0.00462963  16 t-inv T
 -0.166667 -0.500000  0.000000    0.00462963  18 t-inv T
 -0.333333 -0.500000  0.000000    0.00462963  19 t-inv T
  0.000000 -0.000000 -0.166667    0.00462963  21 t-inv T
 -0.166667 -0.000000 -0.166667    0.00462963  22 t-inv T
 -0.333333  0.000000 -0.166667    0.00462963  23 t-inv T
 -0.500000 -0.000000 -0.166667    0.00462963  24 t-inv T
  0.333333  0.000000 -0.166667    0.00462963  25 t-inv T
  0.166667 -0.000000 -0.166667    0.00462963  26 t-inv T
 -0.000000 -0.166667 -0.166667    0.00462963  27 t-inv T
 -0.166667 -0.166667 -0.166667    0.00462963  28 t-inv T
 -0.333333 -0.166667 -0.166667    0.00462963  29 t-inv T
 -0.500000 -0.166667 -0.166667    0.00462963  30 t-inv T
  0.333333 -0.166667 -0.166667    0.00462963  31 t-inv T
  0.166667 -0.166667 -0.166667    0.00462963  32 t-inv T
 -0.000000 -0.333333 -0.166667    0.00462963  33 t-inv T
 -0.166667 -0.333333 -0.166667    0.00462963  34 t-inv T
 -0.333333 -0.333333 -0.166667    0.00462963  35 t-inv T
 -0.500000 -0.333333 -0.166667    0.00462963  36 t-inv T
  0.333333 -0.333333 -0.166667    0.00462963  37 t-inv T
  0.166667 -0.333333 -0.166667    0.00462963  38 t-inv T
 -0.000000 -0.500000 -0.166667    0.00462963  39 t-inv T
 -0.166667 -0.500000 -0.166667    0.00462963  40 t-inv T
 -0.333333 -0.500000 -0.166667    0.00462963  41 t-inv T
 -0.500000 -0.500000 -0.166667    0.00462963  42 t-inv T
  0.333333 -0.500000 -0.166667    0.00462963  43 t-inv T
  0.166667 -0.500000 -0.166667    0.00462963  44 t-inv T
  0.000000  0.333333 -0.166667    0.00462963  45 t-inv T
 -0.166667  0.333333 -0.166667    0.00462963  46 t-inv T
 -0.333333  0.333333 -0.166667    0.00462963  47 t-inv T
 -0.500000  0.333333 -0.166667    0.00462963  48 t-inv T
  0.333333  0.333333 -0.166667    0.00462963  49 t-inv T
  0.166667  0.333333 -0.166667    0.00462963  50 t-inv T
 -0.000000  0.166667 -0.166667    0.00462963  51 t-inv T
 -0.166667  0.166667 -0.166667    0.00462963  52 t-inv T
 -0.333333  0.166667 -0.166667    0.00462963  53 t-inv T
 -0.500000  0.166667 -0.166667    0.00462963  54 t-inv T
  0.333333  0.166667 -0.166667    0.00462963  55 t-inv T
  0.166667  0.166667 -0.166667    0.00462963  56 t-inv T
  0.000000 -0.000000 -0.333333    0.00462963  57 t-inv T
 -0.166667  0.000000 -0.333333    0.00462963  58 t-inv T
 -0.333333 -0.000000 -0.333333    0.00462963  59 t-inv T
 -0.500000 -0.000000 -0.333333    0.00462963  60 t-inv T
  0.333333 -0.000000 -0.333333    0.00462963  61 t-inv T
  0.166667 -0.000000 -0.333333    0.00462963  62 t-inv T
  0.000000 -0.166667 -0.333333    0.00462963  63 t-inv T
 -0.166667 -0.166667 -0.333333    0.00462963  64 t-inv T
 -0.333333 -0.166667 -0.333333    0.00462963  65 t-inv T
 -0.500000 -0.166667 -0.333333    0.00462963  66 t-inv T
  0.333333 -0.166667 -0.333333    0.00462963  67 t-inv T
  0.166667 -0.166667 -0.333333    0.00462963  68 t-inv T
  0.000000 -0.333333 -0.333333    0.00462963  69 t-inv T
 -0.166667 -0.333333 -0.333333    0.00462963  70 t-inv T
 -0.333333 -0.333333 -0.333333    0.00462963  71 t-inv T
 -0.500000 -0.333333 -0.333333    0.00462963  72 t-inv T
  0.333333 -0.333333 -0.333333    0.00462963  73 t-inv T
  0.166667 -0.333333 -0.333333    0.00462963  74 t-inv T
 -0.000000 -0.500000 -0.333333    0.00462963  75 t-inv T
 -0.166667 -0.500000 -0.333333    0.00462963  76 t-inv T
 -0.333333 -0.500000 -0.333333    0.00462963  77 t-inv T
 -0.500000 -0.500000 -0.333333    0.00462963  78 t-inv T
  0.333333 -0.500000 -0.333333    0.00462963  79 t-inv T
  0.166667 -0.500000 -0.333333    0.00462963  80 t-inv T
  0.000000  0.333333 -0.333333    0.00462963  81 t-inv T
 -0.166667  0.333333 -0.333333    0.00462963  82 t-inv T
 -0.333333  0.333333 -0.333333    0.00462963  83 t-inv T
 -0.500000  0.333333 -0.333333    0.00462963  84 t-inv T
  0.333333  0.333333 -0.333333    0.00462963  85 t-inv T
  0.166667  0.333333 -0.333333    0.00462963  86 t-inv T
 -0.000000  0.166667 -0.333333    0.00462963  87 t-inv T
 -0.166667  0.166667 -0.333333    0.00462963  88 t-inv T
 -0.333333  0.166667 -0.333333    0.00462963  89 t-inv T
 -0.500000  0.166667 -0.333333    0.00462963  90 t-inv T
  0.333333  0.166667 -0.333333    0.00462963  91 t-inv T
  0.166667  0.166667 -0.333333    0.00462963  92 t-inv T
 -0.166667 -0.000000 -0.500000    0.00462963  94 t-inv T
 -0.333333 -0.000000 -0.500000    0.00462963  95 t-inv T
 -0.000000 -0.166667 -0.500000    0.00462963  97 t-inv T
 -0.166667 -0.166667 -0.500000    0.00462963  98 t-inv T
 -0.333333 -0.166667 -0.500000    0.00462963  99 t-inv T
 -0.500000 -0.166667 -0.500000    0.00462963 100 t-inv T
  0.333333 -0.166667 -0.500000    0.00462963 101 t-inv T
  0.166667 -0.166667 -0.500000    0.00462963 102 t-inv T
 -0.000000 -0.333333 -0.500000    0.00462963 103 t-inv T
 -0.166667 -0.333333 -0.500000    0.00462963 104 t-inv T
 -0.333333 -0.333333 -0.500000    0.00462963 105 t-inv T
 -0.500000 -0.333333 -0.500000    0.00462963 106 t-inv T
  0.333333 -0.333333 -0.500000    0.00462963 107 t-inv T
  0.166667 -0.333333 -0.500000    0.00462963 108 t-inv T
 -0.166667 -0.500000 -0.500000    0.00462963 110 t-inv T
 -0.333333 -0.500000 -0.500000    0.00462963 111 t-inv T


--------------------------------------------------------------------------------------------------------




 Dimension of arrays:
   k-points           NKPTS =    112   k-points in BZ     NKDIM =    216   number of bands    NBANDS=    128
   number of dos      NEDOS =    301   number of ions     NIONS =      1
   non local maximal  LDIM  =      6   non local SUM 2l+1 LMDIM =     18
   total plane-waves  NPLWV =  13824
   max r-space proj   IRMAX =      1   max aug-charges    IRDMAX=  70933
   dimension x,y,z NGX =    24 NGY =   24 NGZ =   24
   dimension x,y,z NGXF=    48 NGYF=   48 NGZF=   48
   support grid    NGXF=    96 NGYF=   96 NGZF=   96
   ions per type =               1
   NGX,Y,Z   is equivalent  to a cutoff of   9.70,  9.70,  9.70 a.u.
   NGXF,Y,Z  is equivalent  to a cutoff of  19.39, 19.39, 19.39 a.u.

 SYSTEM =  Og_FCC                                  
 POSCAR =  Kr_FCC                                  

 Startparameter for this run:
   NWRITE =      1    write-flag & timer
   PREC   = accura    normal or accurate (medium, high low for compatibility)
   ISTART =      1    job   : 0-new  1-cont  2-samecut
   ICHARG =      0    charge: 1-file 2-atom 10-const
   ISPIN  =      1    spin polarized calculation?
   LNONCOLLINEAR =      F non collinear calculations
   LSORBIT =      F    spin-orbit coupling
   INIWAV =      1    electr: 0-lowe 1-rand  2-diag
   LASPH  =      F    aspherical Exc in radial PAW
   METAGGA=      F    non-selfconsistent MetaGGA calc.

 Electronic Relaxation 1
   ENCUT  =  300.0 eV  22.05 Ry    4.70 a.u.   5.81  5.81  5.81*2*pi/ulx,y,z
   ENINI  =  300.0     initial cutoff
   ENAUG  =  554.8 eV  augmentation charge cutoff
   NELM   =      1;   NELMIN=  2; NELMDL=  0     # of ELM steps 
   EDIFF  = 0.1E-07   stopping-criterion for ELM
   LREAL  =      F    real-space projection
   NLSPLINE    = F    spline interpolate recip. space projectors
   LCOMPAT=      F    compatible to vasp.4.4
   GGA_COMPAT  = F    GGA compatible to vasp.4.4-vasp.4.6
   LMAXPAW     = -100 max onsite density
   LMAXMIX     =    2 max onsite mixed and CHGCAR
   VOSKOWN=      0    Vosko Wilk Nusair interpolation
   ROPT   =    0.00000
 Ionic relaxation
   EDIFFG = 0.1E-04   stopping-criterion for IOM
   NSW    =      1    number of steps for IOM
   NBLOCK =      1;   KBLOCK =      1    inner block; outer block 
   IBRION =     -1    ionic relax: 0-MD 1-quasi-New 2-CG
   NFREE  =      5    steps in history (QN), initial steepest desc. (CG)
   ISIF   =      3    stress and relaxation
   IWAVPR =     10    prediction:  0-non 1-charg 2-wave 3-comb
   ISYM   =      0    0-nonsym 1-usesym 2-fastsym
   LCORR  =      T    Harris-Foulkes like correction to forces

   POTIM  = 0.1000    time-step for ionic-motion
   TEIN   =    0.0    initial temperature
   TEBEG  =    0.0;   TEEND  =   0.0 temperature during run
   SMASS  =  -3.00    Nose mass-parameter (am)
   estimated Nose-frequenzy (Omega)   =  0.10E-29 period in steps =****** mass=  -0.387E-27a.u.
   SCALEE = 1.0000    scale energy and forces
   NPACO  =    256;   APACO  = 16.0  distance and # of slots for P.C.
   PSTRESS=    0.0 pullay stress

  Mass of Ions in am
   POMASS =  83.80
  Ionic Valenz
   ZVAL   =   8.00
  Atomic Wigner-Seitz radii
   RWIGS  =  -1.00
  virtual crystal weights 
   VCA    =   1.00
   NELECT =       8.0000    total number of electrons
   NUPDOWN=      -1.0000    fix difference up-down

 DOS related values:
   EMIN   =  10.00;   EMAX   =-10.00  energy-range for DOS
   EFERMI =   0.00
   ISMEAR =     0;   SIGMA  =   0.00  broadening in eV -4-tet -1-fermi 0-gaus

 Electronic relaxation 2 (details)
   IALGO  =     38    algorithm
   LDIAG  =      T    sub-space diagonalisation (order eigenvalues)
   LSUBROT=      F    optimize rotation matrix (better conditioning)
   TURBO    =      0    0=normal 1=particle mesh
   IRESTART =      0    0=no restart 2=restart with 2 vectors
   NREBOOT  =      0    no. of reboots
   NMIN     =      0    reboot dimension
   EREF     =   0.00    reference energy to select bands
   IMIX   =      1    mixing-type and parameters
     AMIX     =   0.40;   BMIX     =  1.00
     AMIX_MAG =   1.60;   BMIX_MAG =  1.00
     AMIN     =   0.10
     WC   =   100.;   INIMIX=   1;  MIXPRE=   1;  MAXMIX=  50

 Intra band minimization:
   WEIMIN = 0.0000     energy-eigenvalue tresh-hold
   EBREAK =  0.20E-10  absolut break condition
   DEPER  =   0.30     relativ break condition  

   TIME   =   0.40     timestep for ELM

  volume/ion in A,a.u.               =      49.28       332.58
  Fermi-wavevector in a.u.,A,eV,Ry     =   0.893039  1.687599 10.850901  0.797519
  Thomas-Fermi vector in A             =   2.015065
 
 Write flags
   LWAVE        =      T    write WAVECAR
   LDOWNSAMPLE  =      F    k-point downsampling of WAVECAR
   LCHARG       =      F    write CHGCAR
   LVTOT        =      F    write LOCPOT, total local potential
   LVHAR        =      F    write LOCPOT, Hartree potential only
   LELF         =      F    write electronic localiz. function (ELF)
   LORBIT       =      0    0 simple, 1 ext, 2 COOP (PROOUT), +10 PAW based schemes


 Dipole corrections
   LMONO  =      F    monopole corrections only (constant potential shift)
   LDIPOL =      F    correct potential (dipole corrections)
   IDIPOL =      0    1-x, 2-y, 3-z, 4-all directions 
   EPSILON=  1.0000000 bulk dielectric constant

 Exchange correlation treatment:
   GGA     =    PE    GGA type
   LEXCH   =     8    internal setting for exchange type
   VOSKOWN=      0    Vosko Wilk Nusair interpolation
   EXXOEP  =     0    0=HF, 1=EXX-LHF (local Hartree Fock) 2=EXX OEP
   LHFCALC =     T    Hartree Fock is set to
   LSYMGRAD=     F    symmetrize gradient (conserves proper symmetry)
   PRECFOCK=normal    Normal, Fast or Accurate (Low or Medium for compatibility)
   LRHFCALC=     F    long range Hartree Fock
   LRSCOR  =     F    long range correlation only (use DFT for short range part)
   LTHOMAS =     F    Thomas Fermi screening in HF
   LMODELHF=     F    short range full HF, long range fraction AEXX
   ENCUT4O =  -1.0   cutoff for four orbital integrals eV
   LMAXFOCK=     4    L truncation for augmentation on plane wave grid
   LMAXFOCKAE=   4    L truncation for all-electron charge restoration on plane wave grid
   NMAXFOCKAE=   1    number of basis functions for all-electron charge restoration
   LFOCKAEDFT=     F  apply the AE augmentation even for DFT
   NKREDX  =     1    reduce k-point grid by
   NKREDY  =     1    reduce k-point grid by
   NKREDZ  =     1    reduce k-point grid by
   SHIFTRED=     F    shift reduced grid of Gamma
   HFKIDENT=     F    idential grid for each k-point
   ODDONLY =     F    use only odd q-grid points
   EVENONLY=     F    use only even q-grid points
   HFALPHA =   -1.0000 decay constant for conv. correction
   MCALPHA =    0.0000 extent of test-charge in conv. correction in multipole expansion
   AEXX    =    1.0000 exact exchange contribution
   HFSCREEN=    0.0000 screening length (either q_TF or 0.3 A-1)
   HFSCREENC=   0.0000 screening length for correlation (either q_TF or 0.3 A-1)
   HFRCUT  =    0.0000 spherical cutoff for potential kernel
   ALDAX   =    0.0000 LDA exchange part
   AGGAX   =    0.0000 GGA exchange part
   ALDAC   =    0.0000 LDA correlation
   AGGAC   =    0.0000 GGA correlation
   ENCUTFOCK=  -1.0 apply spherical cutoff to Coloumb kernel
   NBANDSGWLOW=     1    first orbital included in HF term
   NBLOCK_FOCK=    64    blocking factor in FOCK_ACC
 Linear response parameters
   LEPSILON=     F    determine dielectric tensor
   LRPA    =     F    only Hartree local field effects (RPA)
   LNABLA  =     F    use nabla operator in PAW spheres
   LVEL    =     F    velocity operator in full k-point grid
   LINTERFAST=   F  fast interpolation
   KINTER  =     0    interpolate to denser k-point grid
   CSHIFT  =0.1000    complex shift for real part using Kramers Kronig
   OMEGAMAX=  -1.0    maximum frequency
   DEG_THRESHOLD= 0.2000000E-02 threshold for treating states as degnerate
   RTIME   =   -0.100 relaxation time in fs
  (WPLASMAI=    0.000 imaginary part of plasma frequency in eV, 0.658/RTIME)
   DFIELD  = 0.0000000 0.0000000 0.0000000 field for delta impulse in time
 
 Orbital magnetization related:
   ORBITALMAG=     F  switch on orbital magnetization
   LCHIMAG   =     F  perturbation theory with respect to B field
   DQ        =  0.001000  dq finite difference perturbation B field
   LLRAUG    =     F  two centre corrections for induced B field

 Response functions by sum over occupied states:
   ALGO    =QPGW       execute GW part
   LFXC    =     F    include DFT xc kernel in TD-HF and W
   LADDER  =     F    particle hole ladder diagrams for BSE/TD-HF and W (Nano-quanta)
   LRPAFORCE=     F   calculate RPA forces
   LHARTREE=     T    include Hartree terms (bubbles-RPA) in BSE/TD-HF
   IBSE    =     0    BSE modus: 0 exact, 1 time-evolution (store matrix), 10 time-evolution (implicit)
   KPOINT  =    -1   0   0   0    k-point index at which BSE equation is solved (and G at which response is eval.)
   LTRIPLET=     F    triplet instead of singlet excitation (BSE only)
   LRSRPA  =     F    range separated RPA (total - short) in ACFDT
   LTCTE   =     F    use test-charge test-electron dielectric function
   LTETE   =     F    use test-electron test-electron dielectric function
   LFXCEPS =     F    determine f_xc=epsilon-1/Xi Sharma and Gross kernel
   LFXHEG  =     F    model exchange using f_x(G,k_F) from free electron gas
   NATURALO=     2    0 natural orbitals, 1 only virtual, 2 only occupied-virtual rotation
   L2ORDER =     F    2nd order terms only
   LMP2LT   =     F    use LT MP2
   LUSEW   =     F    use screened W from WXXXX.tmp files instead of (screened) HF kernel
   ENCUTGW = 200.0    cutoff for response function in eV
   ENCUTGWSOFT = 200.0 soft cutoff for Coulomb kernel in GW response function in eV
   ENCUTLF =  -1.0    cutoff for local field effects
   LMAXMP2 =    -1    maximum L for one center terms
   SCISSOR =   0.0    scissor correction
   NOMEGA  =    50    number of frequencies
   NOMEGAR =    50    number of frequencies along real axis
   NBANDSGW=    -1    number of bands for which selfenergy shift is calculated
   NBANDSGWLOW=     1 lowest band included in GW (to exclude core correlation)
   NBANDSO =    -1    number of bands for electron-hole treatment (occupied)
   NBANDSV =    -1    number of bands for electron-hole treatment (virtual)
   NELM    =     1    number of iterations in solving QP/BSE equation
   NELMHF  =     1    number of iterations in the inner HF iteration
   DIM     =     3    dimensionality of system (0=0D molecules, 3=3D)
   ANTIRES =     0    antiresonant part (0) no TDA (1) w=0 exact (2) accurate
   OMEGAMAX= -30.0    maximum frequency
   OMEGAMIN= -30.000    minimum frequency
   OMEGATL =-200.0    maximum frequency of tail
   OMEGAGRID=     0    grid type (0 default)
   CSHIFT  =-0.100    complex shift used in evaluation of response functions
   SELFENERGY=   F    calculate selfenergy instead of QP shifts
   LSPECTRAL =   T    use spectral functions                   
   LSPECTRALGW=   F   use spectral functions to calculate int dz G(w-z) W(z) (more accurate)
   LSINGLES  =   F   calculate the singles contribution to the correlation energy
   LFERMIGW  =   F   update Fermi-energy in the Greens function

   ODDONLYGW =   F    avoid all even points for polarizability 
   EVENONLYGW=   F    avoid all odd  points for polarizability 
   NKREDLFX  =   1   NKREDLFY  =   1   NKREDLFZ  =   1

   TELESCOPE =   0   use telescope k-point sampling
   TAUPAR    =   1   number of TAU groups used in imaginary time calculation
   OMEGAPAR  =  -1   number of OMEGA groups used in imaginary frequency calculation



--------------------------------------------------------------------------------------------------------


 Static calculation
 charge density and potential will be updated during run
 non-spin polarized calculation
 Variant of blocked Davidson
 Davidson routine will perform the subspace rotation
 perform sub-space diagonalisation
    after iterative eigenvector-optimisation
 Kerker-like  mixing scheme
 using additional bands          124
 reciprocal scheme for non local part
 use partial core corrections
 calculate Harris-corrections to forces 
   (improved forces if not selfconsistent)
 use gradient corrections 
 use of overlap-Matrix (Vanderbilt PP)
 Gauss-broadening in eV      SIGMA  =   0.00


--------------------------------------------------------------------------------------------------------


  energy-cutoff  :      300.00
  volume of cell :       49.28
      direct lattice vectors                 reciprocal lattice vectors
     4.115343013  0.000000000  0.000000000     0.242993111 -0.140292138 -0.099201522
     2.057671506  3.563991594 -0.000000000     0.000000000  0.280584276 -0.099201522
     2.057671506  1.187997198  3.360163499    -0.000000000  0.000000000  0.297604566

  length of vectors
     4.115343013  4.115343013  4.115343013     0.297604566  0.297604566  0.297604566


 
 old parameters found on file WAVECAR:
  energy-cutoff  :      300.00
  volume of cell :       49.28
      direct lattice vectors                 reciprocal lattice vectors
     4.115343013  0.000000000  0.000000000     0.242993111 -0.140292138 -0.099201522
     2.057671506  3.563991594 -0.000000000     0.000000000  0.280584276 -0.099201522
     2.057671506  1.187997198  3.360163499    -0.000000000  0.000000000  0.297604566

  length of vectors

 
 k-points in units of 2pi/SCALE and weight: k-points                                
   0.00000000  0.00000000  0.00000000       0.005
   0.04049885 -0.02338202 -0.01653359       0.009
   0.08099770 -0.04676405 -0.03306717       0.009
   0.12149656 -0.07014607 -0.04960076       0.005
   0.00000000  0.04676405 -0.01653359       0.009
   0.04049885  0.02338202 -0.03306717       0.009
   0.08099770  0.00000000 -0.04960076       0.009
   0.12149656 -0.02338202 -0.06613435       0.009
  -0.08099770  0.09352809  0.01653359       0.009
  -0.04049885  0.07014607  0.00000000       0.009
   0.00000000  0.09352809 -0.03306717       0.009
   0.04049885  0.07014607 -0.04960076       0.009
   0.08099770  0.04676405 -0.06613435       0.009
   0.12149656  0.02338202 -0.08266794       0.009
  -0.08099770  0.14029214  0.00000000       0.009
  -0.04049885  0.11691011 -0.01653359       0.009
   0.00000000  0.14029214 -0.04960076       0.005
   0.04049885  0.11691011 -0.06613435       0.009
   0.08099770  0.09352809 -0.08266794       0.009
   0.12149656  0.07014607 -0.09920152       0.005
  -0.00000000  0.00000000  0.04960076       0.009
   0.04049885 -0.02338202  0.03306717       0.009
   0.08099770 -0.04676405  0.01653359       0.009
   0.12149656 -0.07014607 -0.00000000       0.009
  -0.08099770  0.04676405  0.08266794       0.009
  -0.04049885  0.02338202  0.06613435       0.009
  -0.00000000  0.04676405  0.03306717       0.009
   0.04049885  0.02338202  0.01653359       0.009
   0.08099770  0.00000000  0.00000000       0.009
   0.12149656 -0.02338202 -0.01653359       0.009
  -0.08099770  0.09352809  0.06613435       0.009
  -0.04049885  0.07014607  0.04960076       0.009
  -0.00000000  0.09352809  0.01653359       0.009
   0.04049885  0.07014607  0.00000000       0.009
   0.08099770  0.04676405 -0.01653359       0.009
   0.12149656  0.02338202 -0.03306717       0.009
  -0.08099770  0.14029214  0.04960076       0.009
  -0.04049885  0.11691011  0.03306717       0.009
  -0.00000000  0.14029214  0.00000000       0.009
   0.04049885  0.11691011 -0.01653359       0.009
   0.08099770  0.09352809 -0.03306717       0.009
   0.12149656  0.07014607 -0.04960076       0.009
  -0.08099770  0.18705618  0.03306717       0.009
  -0.04049885  0.16367416  0.01653359       0.009
  -0.00000000 -0.09352809  0.08266794       0.009
   0.04049885 -0.11691011  0.06613435       0.009
   0.08099770 -0.14029214  0.04960076       0.009
   0.12149656 -0.16367416  0.03306717       0.009
  -0.08099770 -0.04676405  0.11573511       0.009
  -0.04049885 -0.07014607  0.09920152       0.009
  -0.00000000 -0.04676405  0.06613435       0.009
   0.04049885 -0.07014607  0.04960076       0.009
   0.08099770 -0.09352809  0.03306717       0.009
   0.12149656 -0.11691011  0.01653359       0.009
  -0.08099770 -0.00000000  0.09920152       0.009
  -0.04049885 -0.02338202  0.08266794       0.009
  -0.00000000  0.00000000  0.09920152       0.009
   0.04049885 -0.02338202  0.08266794       0.009
   0.08099770 -0.04676405  0.06613435       0.009
   0.12149656 -0.07014607  0.04960076       0.009
  -0.08099770  0.04676405  0.13226870       0.009
  -0.04049885  0.02338202  0.11573511       0.009
  -0.00000000  0.04676405  0.08266794       0.009
   0.04049885  0.02338202  0.06613435       0.009
   0.08099770  0.00000000  0.04960076       0.009
   0.12149656 -0.02338202  0.03306717       0.009
  -0.08099770  0.09352809  0.11573511       0.009
  -0.04049885  0.07014607  0.09920152       0.009
  -0.00000000  0.09352809  0.06613435       0.009
   0.04049885  0.07014607  0.04960076       0.009
   0.08099770  0.04676405  0.03306717       0.009
   0.12149656  0.02338202  0.01653359       0.009
  -0.08099770  0.14029214  0.09920152       0.009
  -0.04049885  0.11691011  0.08266794       0.009
  -0.00000000  0.14029214  0.04960076       0.009
   0.04049885  0.11691011  0.03306717       0.009
   0.08099770  0.09352809  0.01653359       0.009
   0.12149656  0.07014607  0.00000000       0.009
  -0.08099770  0.18705618  0.08266794       0.009
  -0.04049885  0.16367416  0.06613435       0.009
  -0.00000000 -0.09352809  0.13226870       0.009
   0.04049885 -0.11691011  0.11573511       0.009
   0.08099770 -0.14029214  0.09920152       0.009
   0.12149656 -0.16367416  0.08266794       0.009
  -0.08099770 -0.04676405  0.16533587       0.009
  -0.04049885 -0.07014607  0.14880228       0.009
  -0.00000000 -0.04676405  0.11573511       0.009
   0.04049885 -0.07014607  0.09920152       0.009
   0.08099770 -0.09352809  0.08266794       0.009
   0.12149656 -0.11691011  0.06613435       0.009
  -0.08099770 -0.00000000  0.14880228       0.009
  -0.04049885 -0.02338202  0.13226870       0.009
  -0.00000000  0.00000000  0.14880228       0.005
   0.04049885 -0.02338202  0.13226870       0.009
   0.08099770 -0.04676405  0.11573511       0.009
   0.12149656 -0.07014607  0.09920152       0.005
  -0.00000000  0.04676405  0.13226870       0.009
   0.04049885  0.02338202  0.11573511       0.009
   0.08099770  0.00000000  0.09920152       0.009
   0.12149656 -0.02338202  0.08266794       0.009
  -0.08099770  0.09352809  0.16533587       0.009
  -0.04049885  0.07014607  0.14880228       0.009
  -0.00000000  0.09352809  0.11573511       0.009
   0.04049885  0.07014607  0.09920152       0.009
   0.08099770  0.04676405  0.08266794       0.009
   0.12149656  0.02338202  0.06613435       0.009
  -0.08099770  0.14029214  0.14880228       0.009
  -0.04049885  0.11691011  0.13226870       0.009
  -0.00000000  0.14029214  0.09920152       0.005
   0.04049885  0.11691011  0.08266794       0.009
   0.08099770  0.09352809  0.06613435       0.009
   0.12149656  0.07014607  0.04960076       0.005
 
 k-points in reciprocal lattice and weights: k-points                                
   0.00000000  0.00000000  0.00000000       0.005
   0.16666667 -0.00000000 -0.00000000       0.009
   0.33333333  0.00000000  0.00000000       0.009
   0.50000000  0.00000000  0.00000000       0.005
   0.00000000  0.16666667  0.00000000       0.009
   0.16666667  0.16666667  0.00000000       0.009
   0.33333333  0.16666667  0.00000000       0.009
   0.50000000  0.16666667  0.00000000       0.009
  -0.33333333  0.16666667  0.00000000       0.009
  -0.16666667  0.16666667  0.00000000       0.009
   0.00000000  0.33333333 -0.00000000       0.009
   0.16666667  0.33333333  0.00000000       0.009
   0.33333333  0.33333333 -0.00000000       0.009
   0.50000000  0.33333333 -0.00000000       0.009
  -0.33333333  0.33333333 -0.00000000       0.009
  -0.16666667  0.33333333  0.00000000       0.009
   0.00000000  0.50000000  0.00000000       0.005
   0.16666667  0.50000000  0.00000000       0.009
   0.33333333  0.50000000  0.00000000       0.009
   0.50000000  0.50000000  0.00000000       0.005
   0.00000000  0.00000000  0.16666667       0.009
   0.16666667  0.00000000  0.16666667       0.009
   0.33333333 -0.00000000  0.16666667       0.009
   0.50000000  0.00000000  0.16666667       0.009
  -0.33333333 -0.00000000  0.16666667       0.009
  -0.16666667  0.00000000  0.16666667       0.009
   0.00000000  0.16666667  0.16666667       0.009
   0.16666667  0.16666667  0.16666667       0.009
   0.33333333  0.16666667  0.16666667       0.009
   0.50000000  0.16666667  0.16666667       0.009
  -0.33333333  0.16666667  0.16666667       0.009
  -0.16666667  0.16666667  0.16666667       0.009
   0.00000000  0.33333333  0.16666667       0.009
   0.16666667  0.33333333  0.16666667       0.009
   0.33333333  0.33333333  0.16666667       0.009
   0.50000000  0.33333333  0.16666667       0.009
  -0.33333333  0.33333333  0.16666667       0.009
  -0.16666667  0.33333333  0.16666667       0.009
   0.00000000  0.50000000  0.16666667       0.009
   0.16666667  0.50000000  0.16666667       0.009
   0.33333333  0.50000000  0.16666667       0.009
   0.50000000  0.50000000  0.16666667       0.009
  -0.33333333  0.50000000  0.16666667       0.009
  -0.16666667  0.50000000  0.16666667       0.009
   0.00000000 -0.33333333  0.16666667       0.009
   0.16666667 -0.33333333  0.16666667       0.009
   0.33333333 -0.33333333  0.16666667       0.009
   0.50000000 -0.33333333  0.16666667       0.009
  -0.33333333 -0.33333333  0.16666667       0.009
  -0.16666667 -0.33333333  0.16666667       0.009
   0.00000000 -0.16666667  0.16666667       0.009
   0.16666667 -0.16666667  0.16666667       0.009
   0.33333333 -0.16666667  0.16666667       0.009
   0.50000000 -0.16666667  0.16666667       0.009
  -0.33333333 -0.16666667  0.16666667       0.009
  -0.16666667 -0.16666667  0.16666667       0.009
   0.00000000  0.00000000  0.33333333       0.009
   0.16666667 -0.00000000  0.33333333       0.009
   0.33333333  0.00000000  0.33333333       0.009
   0.50000000  0.00000000  0.33333333       0.009
  -0.33333333  0.00000000  0.33333333       0.009
  -0.16666667  0.00000000  0.33333333       0.009
  -0.00000000  0.16666667  0.33333333       0.009
   0.16666667  0.16666667  0.33333333       0.009
   0.33333333  0.16666667  0.33333333       0.009
   0.50000000  0.16666667  0.33333333       0.009
  -0.33333333  0.16666667  0.33333333       0.009
  -0.16666667  0.16666667  0.33333333       0.009
   0.00000000  0.33333333  0.33333333       0.009
   0.16666667  0.33333333  0.33333333       0.009
   0.33333333  0.33333333  0.33333333       0.009
   0.50000000  0.33333333  0.33333333       0.009
  -0.33333333  0.33333333  0.33333333       0.009
  -0.16666667  0.33333333  0.33333333       0.009
   0.00000000  0.50000000  0.33333333       0.009
   0.16666667  0.50000000  0.33333333       0.009
   0.33333333  0.50000000  0.33333333       0.009
   0.50000000  0.50000000  0.33333333       0.009
  -0.33333333  0.50000000  0.33333333       0.009
  -0.16666667  0.50000000  0.33333333       0.009
  -0.00000000 -0.33333333  0.33333333       0.009
   0.16666667 -0.33333333  0.33333333       0.009
   0.33333333 -0.33333333  0.33333333       0.009
   0.50000000 -0.33333333  0.33333333       0.009
  -0.33333333 -0.33333333  0.33333333       0.009
  -0.16666667 -0.33333333  0.33333333       0.009
   0.00000000 -0.16666667  0.33333333       0.009
   0.16666667 -0.16666667  0.33333333       0.009
   0.33333333 -0.16666667  0.33333333       0.009
   0.50000000 -0.16666667  0.33333333       0.009
  -0.33333333 -0.16666667  0.33333333       0.009
  -0.16666667 -0.16666667  0.33333333       0.009
   0.00000000  0.00000000  0.50000000       0.005
   0.16666667  0.00000000  0.50000000       0.009
   0.33333333  0.00000000  0.50000000       0.009
   0.50000000  0.00000000  0.50000000       0.005
   0.00000000  0.16666667  0.50000000       0.009
   0.16666667  0.16666667  0.50000000       0.009
   0.33333333  0.16666667  0.50000000       0.009
   0.50000000  0.16666667  0.50000000       0.009
  -0.33333333  0.16666667  0.50000000       0.009
  -0.16666667  0.16666667  0.50000000       0.009
   0.00000000  0.33333333  0.50000000       0.009
   0.16666667  0.33333333  0.50000000       0.009
   0.33333333  0.33333333  0.50000000       0.009
   0.50000000  0.33333333  0.50000000       0.009
  -0.33333333  0.33333333  0.50000000       0.009
  -0.16666667  0.33333333  0.50000000       0.009
   0.00000000  0.50000000  0.50000000       0.005
   0.16666667  0.50000000  0.50000000       0.009
   0.33333333  0.50000000  0.50000000       0.009
   0.50000000  0.50000000  0.50000000       0.005
 
 position of ions in fractional coordinates (direct lattice) 
   0.00000000  0.00000000  0.00000000
 
 position of ions in cartesian coordinates  (Angst):
   0.00000000  0.00000000  0.00000000
 


--------------------------------------------------------------------------------------------------------


 k-point  1 :   0.0000 0.0000 0.0000  plane waves:     561
 k-point  2 :   0.1667-0.0000-0.0000  plane waves:     576
 k-point  3 :   0.3333 0.0000 0.0000  plane waves:     589
 k-point  4 :   0.5000 0.0000 0.0000  plane waves:     580
 k-point  5 :   0.0000 0.1667 0.0000  plane waves:     576
 k-point  6 :   0.1667 0.1667 0.0000  plane waves:     572
 k-point  7 :   0.3333 0.1667 0.0000  plane waves:     579
 k-point  8 :   0.5000 0.1667 0.0000  plane waves:     580
 k-point  9 :  -0.3333 0.1667 0.0000  plane waves:     583
 k-point 10 :  -0.1667 0.1667 0.0000  plane waves:     580
 k-point 11 :   0.0000 0.3333-0.0000  plane waves:     589
 k-point 12 :   0.1667 0.3333 0.0000  plane waves:     579
 k-point 13 :   0.3333 0.3333-0.0000  plane waves:     576
 k-point 14 :   0.5000 0.3333-0.0000  plane waves:     588
 k-point 15 :  -0.3333 0.3333-0.0000  plane waves:     578
 k-point 16 :  -0.1667 0.3333 0.0000  plane waves:     583
 k-point 17 :   0.0000 0.5000 0.0000  plane waves:     580
 k-point 18 :   0.1667 0.5000 0.0000  plane waves:     580
 k-point 19 :   0.3333 0.5000 0.0000  plane waves:     588
 k-point 20 :   0.5000 0.5000 0.0000  plane waves:     588
 k-point 21 :   0.0000 0.0000 0.1667  plane waves:     576
 k-point 22 :   0.1667 0.0000 0.1667  plane waves:     572
 k-point 23 :   0.3333-0.0000 0.1667  plane waves:     579
 k-point 24 :   0.5000 0.0000 0.1667  plane waves:     580
 k-point 25 :  -0.3333-0.0000 0.1667  plane waves:     583
 k-point 26 :  -0.1667 0.0000 0.1667  plane waves:     580
 k-point 27 :   0.0000 0.1667 0.1667  plane waves:     572
 k-point 28 :   0.1667 0.1667 0.1667  plane waves:     576
 k-point 29 :   0.3333 0.1667 0.1667  plane waves:     580
 k-point 30 :   0.5000 0.1667 0.1667  plane waves:     583
 k-point 31 :  -0.3333 0.1667 0.1667  plane waves:     580
 k-point 32 :  -0.1667 0.1667 0.1667  plane waves:     579
 k-point 33 :   0.0000 0.3333 0.1667  plane waves:     579
 k-point 34 :   0.1667 0.3333 0.1667  plane waves:     580
 k-point 35 :   0.3333 0.3333 0.1667  plane waves:     579
 k-point 36 :   0.5000 0.3333 0.1667  plane waves:     583
 k-point 37 :  -0.3333 0.3333 0.1667  plane waves:     574
 k-point 38 :  -0.1667 0.3333 0.1667  plane waves:     583
 k-point 39 :   0.0000 0.5000 0.1667  plane waves:     580
 k-point 40 :   0.1667 0.5000 0.1667  plane waves:     583
 k-point 41 :   0.3333 0.5000 0.1667  plane waves:     583
 k-point 42 :   0.5000 0.5000 0.1667  plane waves:     588
 k-point 43 :  -0.3333 0.5000 0.1667  plane waves:     584
 k-point 44 :  -0.1667 0.5000 0.1667  plane waves:     574
 k-point 45 :   0.0000-0.3333 0.1667  plane waves:     583
 k-point 46 :   0.1667-0.3333 0.1667  plane waves:     580
 k-point 47 :   0.3333-0.3333 0.1667  plane waves:     574
 k-point 48 :   0.5000-0.3333 0.1667  plane waves:     584
 k-point 49 :  -0.3333-0.3333 0.1667  plane waves:     588
 k-point 50 :  -0.1667-0.3333 0.1667  plane waves:     583
 k-point 51 :   0.0000-0.1667 0.1667  plane waves:     580
 k-point 52 :   0.1667-0.1667 0.1667  plane waves:     579
 k-point 53 :   0.3333-0.1667 0.1667  plane waves:     583
 k-point 54 :   0.5000-0.1667 0.1667  plane waves:     574
 k-point 55 :  -0.3333-0.1667 0.1667  plane waves:     583
 k-point 56 :  -0.1667-0.1667 0.1667  plane waves:     579
 k-point 57 :   0.0000 0.0000 0.3333  plane waves:     589
 k-point 58 :   0.1667-0.0000 0.3333  plane waves:     579
 k-point 59 :   0.3333 0.0000 0.3333  plane waves:     576
 k-point 60 :   0.5000 0.0000 0.3333  plane waves:     588
 k-point 61 :  -0.3333 0.0000 0.3333  plane waves:     578
 k-point 62 :  -0.1667 0.0000 0.3333  plane waves:     583
 k-point 63 :  -0.0000 0.1667 0.3333  plane waves:     579
 k-point 64 :   0.1667 0.1667 0.3333  plane waves:     580
 k-point 65 :   0.3333 0.1667 0.3333  plane waves:     579
 k-point 66 :   0.5000 0.1667 0.3333  plane waves:     583
 k-point 67 :  -0.3333 0.1667 0.3333  plane waves:     574
 k-point 68 :  -0.1667 0.1667 0.3333  plane waves:     583
 k-point 69 :   0.0000 0.3333 0.3333  plane waves:     576
 k-point 70 :   0.1667 0.3333 0.3333  plane waves:     579
 k-point 71 :   0.3333 0.3333 0.3333  plane waves:     589
 k-point 72 :   0.5000 0.3333 0.3333  plane waves:     583
 k-point 73 :  -0.3333 0.3333 0.3333  plane waves:     578
 k-point 74 :  -0.1667 0.3333 0.3333  plane waves:     588
 k-point 75 :   0.0000 0.5000 0.3333  plane waves:     588
 k-point 76 :   0.1667 0.5000 0.3333  plane waves:     583
 k-point 77 :   0.3333 0.5000 0.3333  plane waves:     583
 k-point 78 :   0.5000 0.5000 0.3333  plane waves:     580
 k-point 79 :  -0.3333 0.5000 0.3333  plane waves:     574
 k-point 80 :  -0.1667 0.5000 0.3333  plane waves:     584
 k-point 81 :  -0.0000-0.3333 0.3333  plane waves:     578
 k-point 82 :   0.1667-0.3333 0.3333  plane waves:     574
 k-point 83 :   0.3333-0.3333 0.3333  plane waves:     578
 k-point 84 :   0.5000-0.3333 0.3333  plane waves:     574
 k-point 85 :  -0.3333-0.3333 0.3333  plane waves:     578
 k-point 86 :  -0.1667-0.3333 0.3333  plane waves:     574
 k-point 87 :   0.0000-0.1667 0.3333  plane waves:     583
 k-point 88 :   0.1667-0.1667 0.3333  plane waves:     583
 k-point 89 :   0.3333-0.1667 0.3333  plane waves:     588
 k-point 90 :   0.5000-0.1667 0.3333  plane waves:     584
 k-point 91 :  -0.3333-0.1667 0.3333  plane waves:     574
 k-point 92 :  -0.1667-0.1667 0.3333  plane waves:     580
 k-point 93 :   0.0000 0.0000 0.5000  plane waves:     580
 k-point 94 :   0.1667 0.0000 0.5000  plane waves:     580
 k-point 95 :   0.3333 0.0000 0.5000  plane waves:     588
 k-point 96 :   0.5000 0.0000 0.5000  plane waves:     588
 k-point 97 :   0.0000 0.1667 0.5000  plane waves:     580
 k-point 98 :   0.1667 0.1667 0.5000  plane waves:     583
 k-point 99 :   0.3333 0.1667 0.5000  plane waves:     583
 k-point ** :   0.5000 0.1667 0.5000  plane waves:     588
 k-point ** :  -0.3333 0.1667 0.5000  plane waves:     584
 k-point ** :  -0.1667 0.1667 0.5000  plane waves:     574
 k-point ** :   0.0000 0.3333 0.5000  plane waves:     588
 k-point ** :   0.1667 0.3333 0.5000  plane waves:     583
 k-point ** :   0.3333 0.3333 0.5000  plane waves:     583
 k-point ** :   0.5000 0.3333 0.5000  plane waves:     580
 k-point ** :  -0.3333 0.3333 0.5000  plane waves:     574
 k-point ** :  -0.1667 0.3333 0.5000  plane waves:     584
 k-point ** :   0.0000 0.5000 0.5000  plane waves:     588
 k-point ** :   0.1667 0.5000 0.5000  plane waves:     588
 k-point ** :   0.3333 0.5000 0.5000  plane waves:     580
 k-point ** :   0.5000 0.5000 0.5000  plane waves:     580

 maximum and minimum number of plane-waves per node :       589      561

 maximum number of plane-waves:       589
 maximum index in each direction: 
   IXMAX=    6   IYMAX=    6   IZMAX=    5
   IXMIN=   -6   IYMIN=   -6   IZMIN=   -6


 serial   3D FFT for wavefunctions
 parallel 3D FFT for charge:
    minimum data exchange during FFTs selected (reduces bandwidth)


 FFT grid for exact exchange (Hartree Fock) 
  NGX = 18; NGY = 18; NGZ = 18

 
 Radii for the augmentation spheres in the non-local exchange
 for species   1 augmentation radius   0.970 (default was   0.970)
 error exchange integrals (PW-AE in eV) (mean, max) 0.276 1.563 density error[0,qmax] 0.0135
 Maximum index for augmentation-charges in exchange          459
  SETUP_FOCK is finished

 total amount of memory used by VASP MPI-rank0   130672. kBytes
=======================================================================

   base      :      30000. kBytes
   nonl-proj :       9524. kBytes
   fftplans  :      16199. kBytes
   grid      :       4866. kBytes
   one-center:         15. kBytes
   HF        :        129. kBytes
   nonlr-proj:        209. kBytes
   wavefun   :      69730. kBytes
 
     INWAV:  cpu time    1.1568: real time    1.1567
 charge density for first step will be calculated from the start-wavefunctions


--------------------------------------------------------------------------------------------------------


 Maximum index for augmentation-charges        34335 (set IRDMAX)


--------------------------------------------------------------------------------------------------------


 initial charge from wavefunction
    FEWALD:  cpu time    0.0029: real time    0.0029

 The Fermi energy was updated, please check that it is located mid-gap
 values below the HOMO (VB) or above the LUMO (CB) will cause erroneous energies
 E-fermi :  -1.7875

 Response functions by sum over occupied states:
 ===============================================
   NOMEGA  =    50    number of frequencies
   NOMEGAR =    50    number of frequencies along real axis
   OMEGAMAX=  15.73   maximum frequency
   OMEGAMIN=   5.97   minimum frequency
   OMEGATL = 204.45   maximum frequency of tail
   CSHIFT  =  0.409   complex shift used in evaluation of response functions


 Energies iw= 
 ============
   0.000   0.000   0.688   0.000   1.373   0.000   2.053   0.000   2.726   0.000
   3.390   0.000   4.044   0.000   4.687   0.000   5.318   0.000   5.938   0.000
   6.548   0.000   7.147   0.000   7.737   0.000   8.321   0.000   8.898   0.000
   9.471   0.000  10.042   0.000  10.612   0.000  11.184   0.000  11.761   0.000
  12.344   0.000  12.937   0.000  13.542   0.000  14.163   0.000  14.804   0.000
  15.468   0.000  16.159   0.000  16.886   0.000  17.651   0.000  18.464   0.000
  19.333   0.000  20.267   0.000  21.281   0.000  22.390   0.000  23.611   0.000
  24.970   0.000  26.498   0.000  28.233   0.000  30.230   0.000  32.556   0.000
  35.310   0.000  38.628   0.000  42.709   0.000  47.855   0.000  54.547   0.000
  63.601   0.000  76.514   0.000  96.381   0.000 130.772   0.000 204.450   0.000
 

IMPORTANT INFORMATION: All symmetrisations will be switched off!
NOSYMM: (Re-)initialisation of all symmetry stuff for point group C_1.

 
 KPOINTS: k-points                                

Automatic generation of k-mesh.
Space group operators:
 irot       det(A)        alpha          n_x          n_y          n_z        tau_x        tau_y        tau_z
    1     1.000000     0.000001     1.000000     0.000000     0.000000     0.000000     0.000000     0.000000
 
 Subroutine IBZKPT returns following result:
 ===========================================
 
 Found    216 irreducible k-points:
 
 Following reciprocal coordinates:
            Coordinates               Weight
  0.000000  0.000000  0.000000      1.000000
  0.166667 -0.000000 -0.000000      1.000000
  0.333333  0.000000  0.000000      1.000000
  0.500000  0.000000  0.000000      1.000000
 -0.333333 -0.000000  0.000000      1.000000
 -0.166667  0.000000  0.000000      1.000000
  0.000000  0.166667  0.000000      1.000000
  0.166667  0.166667  0.000000      1.000000
  0.333333  0.166667  0.000000      1.000000
  0.500000  0.166667  0.000000      1.000000
 -0.333333  0.166667  0.000000      1.000000
 -0.166667  0.166667  0.000000      1.000000
  0.000000  0.333333 -0.000000      1.000000
  0.166667  0.333333  0.000000      1.000000
  0.333333  0.333333 -0.000000      1.000000
  0.500000  0.333333 -0.000000      1.000000
 -0.333333  0.333333 -0.000000      1.000000
 -0.166667  0.333333  0.000000      1.000000
  0.000000  0.500000  0.000000      1.000000
  0.166667  0.500000  0.000000      1.000000
  0.333333  0.500000  0.000000      1.000000
  0.500000  0.500000  0.000000      1.000000
 -0.333333  0.500000 -0.000000      1.000000
 -0.166667  0.500000  0.000000      1.000000
 -0.000000 -0.333333  0.000000      1.000000
  0.166667 -0.333333  0.000000      1.000000
  0.333333 -0.333333  0.000000      1.000000
  0.500000 -0.333333  0.000000      1.000000
 -0.333333 -0.333333  0.000000      1.000000
 -0.166667 -0.333333  0.000000      1.000000
 -0.000000 -0.166667 -0.000000      1.000000
  0.166667 -0.166667 -0.000000      1.000000
  0.333333 -0.166667 -0.000000      1.000000
  0.500000 -0.166667  0.000000      1.000000
 -0.333333 -0.166667 -0.000000      1.000000
 -0.166667 -0.166667 -0.000000      1.000000
  0.000000  0.000000  0.166667      1.000000
  0.166667  0.000000  0.166667      1.000000
  0.333333 -0.000000  0.166667      1.000000
  0.500000  0.000000  0.166667      1.000000
 -0.333333 -0.000000  0.166667      1.000000
 -0.166667  0.000000  0.166667      1.000000
  0.000000  0.166667  0.166667      1.000000
  0.166667  0.166667  0.166667      1.000000
  0.333333  0.166667  0.166667      1.000000
  0.500000  0.166667  0.166667      1.000000
 -0.333333  0.166667  0.166667      1.000000
 -0.166667  0.166667  0.166667      1.000000
  0.000000  0.333333  0.166667      1.000000
  0.166667  0.333333  0.166667      1.000000
  0.333333  0.333333  0.166667      1.000000
  0.500000  0.333333  0.166667      1.000000
 -0.333333  0.333333  0.166667      1.000000
 -0.166667  0.333333  0.166667      1.000000
  0.000000  0.500000  0.166667      1.000000
  0.166667  0.500000  0.166667      1.000000
  0.333333  0.500000  0.166667      1.000000
  0.500000  0.500000  0.166667      1.000000
 -0.333333  0.500000  0.166667      1.000000
 -0.166667  0.500000  0.166667      1.000000
  0.000000 -0.333333  0.166667      1.000000
  0.166667 -0.333333  0.166667      1.000000
  0.333333 -0.333333  0.166667      1.000000
  0.500000 -0.333333  0.166667      1.000000
 -0.333333 -0.333333  0.166667      1.000000
 -0.166667 -0.333333  0.166667      1.000000
  0.000000 -0.166667  0.166667      1.000000
  0.166667 -0.166667  0.166667      1.000000
  0.333333 -0.166667  0.166667      1.000000
  0.500000 -0.166667  0.166667      1.000000
 -0.333333 -0.166667  0.166667      1.000000
 -0.166667 -0.166667  0.166667      1.000000
  0.000000  0.000000  0.333333      1.000000
  0.166667 -0.000000  0.333333      1.000000
  0.333333  0.000000  0.333333      1.000000
  0.500000  0.000000  0.333333      1.000000
 -0.333333  0.000000  0.333333      1.000000
 -0.166667  0.000000  0.333333      1.000000
 -0.000000  0.166667  0.333333      1.000000
  0.166667  0.166667  0.333333      1.000000
  0.333333  0.166667  0.333333      1.000000
  0.500000  0.166667  0.333333      1.000000
 -0.333333  0.166667  0.333333      1.000000
 -0.166667  0.166667  0.333333      1.000000
  0.000000  0.333333  0.333333      1.000000
  0.166667  0.333333  0.333333      1.000000
  0.333333  0.333333  0.333333      1.000000
  0.500000  0.333333  0.333333      1.000000
 -0.333333  0.333333  0.333333      1.000000
 -0.166667  0.333333  0.333333      1.000000
  0.000000  0.500000  0.333333      1.000000
  0.166667  0.500000  0.333333      1.000000
  0.333333  0.500000  0.333333      1.000000
  0.500000  0.500000  0.333333      1.000000
 -0.333333  0.500000  0.333333      1.000000
 -0.166667  0.500000  0.333333      1.000000
 -0.000000 -0.333333  0.333333      1.000000
  0.166667 -0.333333  0.333333      1.000000
  0.333333 -0.333333  0.333333      1.000000
  0.500000 -0.333333  0.333333      1.000000
 -0.333333 -0.333333  0.333333      1.000000
 -0.166667 -0.333333  0.333333      1.000000
  0.000000 -0.166667  0.333333      1.000000
  0.166667 -0.166667  0.333333      1.000000
  0.333333 -0.166667  0.333333      1.000000
  0.500000 -0.166667  0.333333      1.000000
 -0.333333 -0.166667  0.333333      1.000000
 -0.166667 -0.166667  0.333333      1.000000
  0.000000  0.000000  0.500000      1.000000
  0.166667  0.000000  0.500000      1.000000
  0.333333  0.000000  0.500000      1.000000
  0.500000  0.000000  0.500000      1.000000
 -0.333333  0.000000  0.500000      1.000000
 -0.166667  0.000000  0.500000      1.000000
  0.000000  0.166667  0.500000      1.000000
  0.166667  0.166667  0.500000      1.000000
  0.333333  0.166667  0.500000      1.000000
  0.500000  0.166667  0.500000      1.000000
 -0.333333  0.166667  0.500000      1.000000
 -0.166667  0.166667  0.500000      1.000000
  0.000000  0.333333  0.500000      1.000000
  0.166667  0.333333  0.500000      1.000000
  0.333333  0.333333  0.500000      1.000000
  0.500000  0.333333  0.500000      1.000000
 -0.333333  0.333333  0.500000      1.000000
 -0.166667  0.333333  0.500000      1.000000
  0.000000  0.500000  0.500000      1.000000
  0.166667  0.500000  0.500000      1.000000
  0.333333  0.500000  0.500000      1.000000
  0.500000  0.500000  0.500000      1.000000
 -0.333333  0.500000  0.500000      1.000000
 -0.166667  0.500000  0.500000      1.000000
  0.000000 -0.333333  0.500000      1.000000
  0.166667 -0.333333  0.500000      1.000000
  0.333333 -0.333333  0.500000      1.000000
  0.500000 -0.333333  0.500000      1.000000
 -0.333333 -0.333333  0.500000      1.000000
 -0.166667 -0.333333  0.500000      1.000000
 -0.000000 -0.166667  0.500000      1.000000
  0.166667 -0.166667  0.500000      1.000000
  0.333333 -0.166667  0.500000      1.000000
  0.500000 -0.166667  0.500000      1.000000
 -0.333333 -0.166667  0.500000      1.000000
 -0.166667 -0.166667  0.500000      1.000000
  0.000000 -0.000000 -0.333333      1.000000
  0.166667 -0.000000 -0.333333      1.000000
  0.333333 -0.000000 -0.333333      1.000000
  0.500000  0.000000 -0.333333      1.000000
 -0.333333 -0.000000 -0.333333      1.000000
 -0.166667  0.000000 -0.333333      1.000000
 -0.000000  0.166667 -0.333333      1.000000
  0.166667  0.166667 -0.333333      1.000000
  0.333333  0.166667 -0.333333      1.000000
  0.500000  0.166667 -0.333333      1.000000
 -0.333333  0.166667 -0.333333      1.000000
 -0.166667  0.166667 -0.333333      1.000000
  0.000000  0.333333 -0.333333      1.000000
  0.166667  0.333333 -0.333333      1.000000
  0.333333  0.333333 -0.333333      1.000000
  0.500000  0.333333 -0.333333      1.000000
 -0.333333  0.333333 -0.333333      1.000000
 -0.166667  0.333333 -0.333333      1.000000
  0.000000  0.500000 -0.333333      1.000000
  0.166667  0.500000 -0.333333      1.000000
  0.333333  0.500000 -0.333333      1.000000
  0.500000  0.500000 -0.333333      1.000000
 -0.333333  0.500000 -0.333333      1.000000
 -0.166667  0.500000 -0.333333      1.000000
  0.000000 -0.333333 -0.333333      1.000000
  0.166667 -0.333333 -0.333333      1.000000
  0.333333 -0.333333 -0.333333      1.000000
  0.500000 -0.333333 -0.333333      1.000000
 -0.333333 -0.333333 -0.333333      1.000000
 -0.166667 -0.333333 -0.333333      1.000000
  0.000000 -0.166667 -0.333333      1.000000
  0.166667 -0.166667 -0.333333      1.000000
  0.333333 -0.166667 -0.333333      1.000000
  0.500000 -0.166667 -0.333333      1.000000
 -0.333333 -0.166667 -0.333333      1.000000
 -0.166667 -0.166667 -0.333333      1.000000
  0.000000 -0.000000 -0.166667      1.000000
  0.166667 -0.000000 -0.166667      1.000000
  0.333333  0.000000 -0.166667      1.000000
  0.500000  0.000000 -0.166667      1.000000
 -0.333333  0.000000 -0.166667      1.000000
 -0.166667 -0.000000 -0.166667      1.000000
 -0.000000  0.166667 -0.166667      1.000000
  0.166667  0.166667 -0.166667      1.000000
  0.333333  0.166667 -0.166667      1.000000
  0.500000  0.166667 -0.166667      1.000000
 -0.333333  0.166667 -0.166667      1.000000
 -0.166667  0.166667 -0.166667      1.000000
  0.000000  0.333333 -0.166667      1.000000
  0.166667  0.333333 -0.166667      1.000000
  0.333333  0.333333 -0.166667      1.000000
  0.500000  0.333333 -0.166667      1.000000
 -0.333333  0.333333 -0.166667      1.000000
 -0.166667  0.333333 -0.166667      1.000000
  0.000000  0.500000 -0.166667      1.000000
  0.166667  0.500000 -0.166667      1.000000
  0.333333  0.500000 -0.166667      1.000000
  0.500000  0.500000 -0.166667      1.000000
 -0.333333  0.500000 -0.166667      1.000000
 -0.166667  0.500000 -0.166667      1.000000
 -0.000000 -0.333333 -0.166667      1.000000
  0.166667 -0.333333 -0.166667      1.000000
  0.333333 -0.333333 -0.166667      1.000000
  0.500000 -0.333333 -0.166667      1.000000
 -0.333333 -0.333333 -0.166667      1.000000
 -0.166667 -0.333333 -0.166667      1.000000
 -0.000000 -0.166667 -0.166667      1.000000
  0.166667 -0.166667 -0.166667      1.000000
  0.333333 -0.166667 -0.166667      1.000000
  0.500000 -0.166667 -0.166667      1.000000
 -0.333333 -0.166667 -0.166667      1.000000
 -0.166667 -0.166667 -0.166667      1.000000
 
 Following cartesian coordinates:
            Coordinates               Weight
  0.000000  0.000000  0.000000      1.000000
  0.040499 -0.023382 -0.016534      1.000000
  0.080998 -0.046764 -0.033067      1.000000
  0.121497 -0.070146 -0.049601      1.000000
 -0.080998  0.046764  0.033067      1.000000
 -0.040499  0.023382  0.016534      1.000000
  0.000000  0.046764 -0.016534      1.000000
  0.040499  0.023382 -0.033067      1.000000
  0.080998  0.000000 -0.049601      1.000000
  0.121497 -0.023382 -0.066134      1.000000
 -0.080998  0.093528  0.016534      1.000000
 -0.040499  0.070146  0.000000      1.000000
  0.000000  0.093528 -0.033067      1.000000
  0.040499  0.070146 -0.049601      1.000000
  0.080998  0.046764 -0.066134      1.000000
  0.121497  0.023382 -0.082668      1.000000
 -0.080998  0.140292  0.000000      1.000000
 -0.040499  0.116910 -0.016534      1.000000
  0.000000  0.140292 -0.049601      1.000000
  0.040499  0.116910 -0.066134      1.000000
  0.080998  0.093528 -0.082668      1.000000
  0.121497  0.070146 -0.099202      1.000000
 -0.080998  0.187056 -0.016534      1.000000
 -0.040499  0.163674 -0.033067      1.000000
 -0.000000 -0.093528  0.033067      1.000000
  0.040499 -0.116910  0.016534      1.000000
  0.080998 -0.140292 -0.000000      1.000000
  0.121497 -0.163674 -0.016534      1.000000
 -0.080998 -0.046764  0.066134      1.000000
 -0.040499 -0.070146  0.049601      1.000000
 -0.000000 -0.046764  0.016534      1.000000
  0.040499 -0.070146 -0.000000      1.000000
  0.080998 -0.093528 -0.016534      1.000000
  0.121497 -0.116910 -0.033067      1.000000
 -0.080998 -0.000000  0.049601      1.000000
 -0.040499 -0.023382  0.033067      1.000000
 -0.000000  0.000000  0.049601      1.000000
  0.040499 -0.023382  0.033067      1.000000
  0.080998 -0.046764  0.016534      1.000000
  0.121497 -0.070146 -0.000000      1.000000
 -0.080998  0.046764  0.082668      1.000000
 -0.040499  0.023382  0.066134      1.000000
 -0.000000  0.046764  0.033067      1.000000
  0.040499  0.023382  0.016534      1.000000
  0.080998  0.000000  0.000000      1.000000
  0.121497 -0.023382 -0.016534      1.000000
 -0.080998  0.093528  0.066134      1.000000
 -0.040499  0.070146  0.049601      1.000000
 -0.000000  0.093528  0.016534      1.000000
  0.040499  0.070146  0.000000      1.000000
  0.080998  0.046764 -0.016534      1.000000
  0.121497  0.023382 -0.033067      1.000000
 -0.080998  0.140292  0.049601      1.000000
 -0.040499  0.116910  0.033067      1.000000
 -0.000000  0.140292  0.000000      1.000000
  0.040499  0.116910 -0.016534      1.000000
  0.080998  0.093528 -0.033067      1.000000
  0.121497  0.070146 -0.049601      1.000000
 -0.080998  0.187056  0.033067      1.000000
 -0.040499  0.163674  0.016534      1.000000
 -0.000000 -0.093528  0.082668      1.000000
  0.040499 -0.116910  0.066134      1.000000
  0.080998 -0.140292  0.049601      1.000000
  0.121497 -0.163674  0.033067      1.000000
 -0.080998 -0.046764  0.115735      1.000000
 -0.040499 -0.070146  0.099202      1.000000
 -0.000000 -0.046764  0.066134      1.000000
  0.040499 -0.070146  0.049601      1.000000
  0.080998 -0.093528  0.033067      1.000000
  0.121497 -0.116910  0.016534      1.000000
 -0.080998 -0.000000  0.099202      1.000000
 -0.040499 -0.023382  0.082668      1.000000
 -0.000000  0.000000  0.099202      1.000000
  0.040499 -0.023382  0.082668      1.000000
  0.080998 -0.046764  0.066134      1.000000
  0.121497 -0.070146  0.049601      1.000000
 -0.080998  0.046764  0.132269      1.000000
 -0.040499  0.023382  0.115735      1.000000
 -0.000000  0.046764  0.082668      1.000000
  0.040499  0.023382  0.066134      1.000000
  0.080998  0.000000  0.049601      1.000000
  0.121497 -0.023382  0.033067      1.000000
 -0.080998  0.093528  0.115735      1.000000
 -0.040499  0.070146  0.099202      1.000000
 -0.000000  0.093528  0.066134      1.000000
  0.040499  0.070146  0.049601      1.000000
  0.080998  0.046764  0.033067      1.000000
  0.121497  0.023382  0.016534      1.000000
 -0.080998  0.140292  0.099202      1.000000
 -0.040499  0.116910  0.082668      1.000000
 -0.000000  0.140292  0.049601      1.000000
  0.040499  0.116910  0.033067      1.000000
  0.080998  0.093528  0.016534      1.000000
  0.121497  0.070146  0.000000      1.000000
 -0.080998  0.187056  0.082668      1.000000
 -0.040499  0.163674  0.066134      1.000000
 -0.000000 -0.093528  0.132269      1.000000
  0.040499 -0.116910  0.115735      1.000000
  0.080998 -0.140292  0.099202      1.000000
  0.121497 -0.163674  0.082668      1.000000
 -0.080998 -0.046764  0.165336      1.000000
 -0.040499 -0.070146  0.148802      1.000000
 -0.000000 -0.046764  0.115735      1.000000
  0.040499 -0.070146  0.099202      1.000000
  0.080998 -0.093528  0.082668      1.000000
  0.121497 -0.116910  0.066134      1.000000
 -0.080998 -0.000000  0.148802      1.000000
 -0.040499 -0.023382  0.132269      1.000000
 -0.000000  0.000000  0.148802      1.000000
  0.040499 -0.023382  0.132269      1.000000
  0.080998 -0.046764  0.115735      1.000000
  0.121497 -0.070146  0.099202      1.000000
 -0.080998  0.046764  0.181869      1.000000
 -0.040499  0.023382  0.165336      1.000000
 -0.000000  0.046764  0.132269      1.000000
  0.040499  0.023382  0.115735      1.000000
  0.080998  0.000000  0.099202      1.000000
  0.121497 -0.023382  0.082668      1.000000
 -0.080998  0.093528  0.165336      1.000000
 -0.040499  0.070146  0.148802      1.000000
 -0.000000  0.093528  0.115735      1.000000
  0.040499  0.070146  0.099202      1.000000
  0.080998  0.046764  0.082668      1.000000
  0.121497  0.023382  0.066134      1.000000
 -0.080998  0.140292  0.148802      1.000000
 -0.040499  0.116910  0.132269      1.000000
 -0.000000  0.140292  0.099202      1.000000
  0.040499  0.116910  0.082668      1.000000
  0.080998  0.093528  0.066134      1.000000
  0.121497  0.070146  0.049601      1.000000
 -0.080998  0.187056  0.132269      1.000000
 -0.040499  0.163674  0.115735      1.000000
 -0.000000 -0.093528  0.181869      1.000000
  0.040499 -0.116910  0.165336      1.000000
[...]
 

 k-point  91 :      -0.3333   -0.1667    0.3333
  band No. DFT-energies  QP-energies  QP-e(diag)   sigma(DFT)    Z            occupation

      1     -21.9491     -22.3168     -22.3165     -22.4486       0.7355       2.0000
      2      -8.9401      -9.0496      -9.0493      -9.0635       0.8849       2.0000
      3      -8.5587      -8.6668      -8.6666      -8.6807       0.8847       2.0000
      4      -8.1756      -8.2829      -8.2828      -8.2966       0.8860       2.0000
      5       7.9940       8.0679       8.0676       8.0740       0.9196       0.0000
      6       8.5113       8.5915       8.5910       8.5985       0.9141       0.0000
      7       9.6669       9.7482       9.7473       9.7551       0.9112       0.0000
      8      11.6932      11.7798      11.7794      11.7878       0.9112       0.0000
 

 k-point  92 :      -0.1667   -0.1667    0.3333
  band No. DFT-energies  QP-energies  QP-e(diag)   sigma(DFT)    Z            occupation

      1     -21.9716     -22.3421     -22.3420     -22.4759       0.7344       2.0000
      2      -9.1297      -9.2394      -9.2388      -9.2531       0.8837       2.0000
      3      -8.1906      -8.2975      -8.2975      -8.3112       0.8859       2.0000
      4      -8.0383      -8.1443      -8.1443      -8.1579       0.8863       2.0000
      5       7.3429       7.4227       7.4222       7.4291       0.9197       0.0000
      6       8.7110       8.7884       8.7874       8.7945       0.9150       0.0000
      7      10.1612      10.2432      10.2425      10.2504       0.9110       0.0000
      8      11.4315      11.5152      11.5151      11.5232       0.9118       0.0000
 

 k-point  93 :       0.0000    0.0000    0.5000
  band No. DFT-energies  QP-energies  QP-e(diag)   sigma(DFT)    Z            occupation

      1     -21.9866     -22.3569     -22.3562     -22.4902       0.7339       2.0000
      2      -9.2799      -9.3901      -9.3898      -9.4042       0.8842       2.0000
      3      -7.9542      -8.0590      -8.0594      -8.0729       0.8867       2.0000
      4      -7.9539      -8.0587      -8.0589      -8.0723       0.8869       2.0000
      5       6.8051       6.8839       6.8836       6.8902       0.9220       0.0000
      6       9.2838       9.3653       9.3633       9.3711       0.9100       0.0000
      7      10.8214      10.9020      10.9020      10.9096       0.9137       0.0000
      8      10.8224      10.9029      10.9029      10.9105       0.9137       0.0000
 

 k-point  94 :       0.1667    0.0000    0.5000
  band No. DFT-energies  QP-energies  QP-e(diag)   sigma(DFT)    Z            occupation

      1     -21.9717     -22.3421     -22.3420     -22.4760       0.7343       2.0000
      2      -9.1294      -9.2390      -9.2385      -9.2528       0.8838       2.0000
      3      -8.1923      -8.2994      -8.2993      -8.3131       0.8859       2.0000
      4      -8.0393      -8.1452      -8.1452      -8.1588       0.8863       2.0000
      5       7.3438       7.4236       7.4231       7.4300       0.9196       0.0000
      6       8.7109       8.7884       8.7874       8.7945       0.9151       0.0000
      7      10.1614      10.2434      10.2427      10.2506       0.9110       0.0000
      8      11.4329      11.5166      11.5166      11.5247       0.9118       0.0000
 

 k-point  95 :       0.3333    0.0000    0.5000
  band No. DFT-energies  QP-energies  QP-e(diag)   sigma(DFT)    Z            occupation

      1     -21.9495     -22.3169     -22.3168     -22.4490       0.7353       2.0000
      2      -9.0227      -9.1327      -9.1322      -9.1466       0.8842       2.0000
      3      -8.4044      -8.5127      -8.5126      -8.5266       0.8853       2.0000
      4      -8.2086      -8.3164      -8.3163      -8.3301       0.8861       2.0000
      5       7.0265       7.0999       7.0997       7.1058       0.9225       0.0000
      6       8.4697       8.5466       8.5463       8.5532       0.9171       0.0000
      7      10.1395      10.2242      10.2227      10.2312       0.9077       0.0000
      8      13.0576      13.1500      13.1496      13.1592       0.9050       0.0000
 

 k-point  96 :       0.5000    0.0000    0.5000
  band No. DFT-energies  QP-energies  QP-e(diag)   sigma(DFT)    Z            occupation

      1     -21.9419     -22.3069     -22.3062     -22.4365       0.7366       2.0000
      2      -9.1571      -9.2669      -9.2661      -9.2804       0.8834       2.0000
      3      -8.2952      -8.4031      -8.4032      -8.4171       0.8859       2.0000
      4      -8.2907      -8.3990      -8.3990      -8.4130       0.8856       2.0000
      5       6.5661       6.6377       6.6376       6.6435       0.9238       0.0000
      6       8.0764       8.1514       8.1514       8.1581       0.9187       0.0000
      7      10.8599      10.9530      10.9503      10.9601       0.9019       0.0000
      8      14.4844      14.5815      14.5806      14.5913       0.8999       0.0000
 

 k-point  97 :       0.0000    0.1667    0.5000
  band No. DFT-energies  QP-energies  QP-e(diag)   sigma(DFT)    Z            occupation

      1     -21.9710     -22.3422     -22.3420     -22.4762       0.7344       2.0000
      2      -9.1294      -9.2390      -9.2384      -9.2527       0.8838       2.0000
      3      -8.1925      -8.2994      -8.2993      -8.3131       0.8858       2.0000
      4      -8.0395      -8.1454      -8.1455      -8.1591       0.8863       2.0000
      5       7.3439       7.4237       7.4232       7.4301       0.9196       0.0000
      6       8.7107       8.7882       8.7872       8.7943       0.9151       0.0000
      7      10.1614      10.2434      10.2427      10.2507       0.9110       0.0000
      8      11.4332      11.5170      11.5169      11.5250       0.9118       0.0000
 

 k-point  98 :       0.1667    0.1667    0.5000
  band No. DFT-energies  QP-energies  QP-e(diag)   sigma(DFT)    Z            occupation

      1     -21.9837     -22.3556     -22.3554     -22.4901       0.7339       2.0000
      2      -9.0241      -9.1328      -9.1325      -9.1467       0.8844       2.0000
      3      -8.2463      -8.3536      -8.3535      -8.3673       0.8861       2.0000
      4      -7.9543      -8.0594      -8.0594      -8.0728       0.8867       2.0000
      5       7.2155       7.2961       7.2953       7.3023       0.9199       0.0000
      6       8.9666       9.0442       9.0433       9.0504       0.9150       0.0000
      7       9.9662      10.0465      10.0461      10.0537       0.9127       0.0000
      8      11.3940      11.4767      11.4766      11.4846       0.9121       0.0000
 

 k-point  99 :       0.3333    0.1667    0.5000
  band No. DFT-energies  QP-energies  QP-e(diag)   sigma(DFT)    Z            occupation

      1     -21.9731     -22.3432     -22.3430     -22.4770       0.7341       2.0000
      2      -8.9072      -9.0150      -9.0149      -9.0288       0.8852       2.0000
      3      -8.3772      -8.4855      -8.4853      -8.4993       0.8853       2.0000
      4      -8.0913      -8.1978      -8.1977      -8.2113       0.8861       2.0000
      5       7.3391       7.4174       7.4167       7.4235       0.9193       0.0000
      6       9.0175       9.0958       9.0954       9.1027       0.9143       0.0000
      7       9.2685       9.3464       9.3461       9.3533       0.9149       0.0000
      8      12.1761      12.2646      12.2642      12.2731       0.9083       0.0000
 

 k-point 100 :       0.5000    0.1667    0.5000
  band No. DFT-energies  QP-energies  QP-e(diag)   sigma(DFT)    Z            occupation

      1     -21.9485     -22.3171     -22.3170     -22.4493       0.7357       2.0000
      2      -9.0228      -9.1327      -9.1323      -9.1466       0.8841       2.0000
      3      -8.4047      -8.5130      -8.5129      -8.5269       0.8853       2.0000
      4      -8.2084      -8.3163      -8.3161      -8.3299       0.8861       2.0000
      5       7.0269       7.1003       7.1000       7.1062       0.9225       0.0000
      6       8.4698       8.5467       8.5464       8.5534       0.9171       0.0000
      7      10.1396      10.2243      10.2228      10.2313       0.9077       0.0000
      8      13.0570      13.1492      13.1489      13.1585       0.9050       0.0000
 

 k-point 101 :      -0.3333    0.1667    0.5000
  band No. DFT-energies  QP-energies  QP-e(diag)   sigma(DFT)    Z            occupation

      1     -21.9378     -22.3049     -22.3045     -22.4357       0.7364       2.0000
      2      -8.9546      -9.0647      -9.0641      -9.0784       0.8846       2.0000
      3      -8.5230      -8.6320      -8.6319      -8.6461       0.8849       2.0000
      4      -8.3229      -8.4306      -8.4305      -8.4445       0.8852       2.0000
      5       7.3078       7.3806       7.3803       7.3864       0.9215       0.0000
      6       8.7350       8.8130       8.8126       8.8198       0.9150       0.0000
      7      10.1191      10.2042      10.2026      10.2111       0.9078       0.0000
      8      11.7815      11.8694      11.8686      11.8771       0.9112       0.0000
 

 k-point 102 :      -0.1667    0.1667    0.5000
  band No. DFT-energies  QP-energies  QP-e(diag)   sigma(DFT)    Z            occupation

      1     -21.9490     -22.3168     -22.3166     -22.4487       0.7356       2.0000
      2      -8.9395      -9.0491      -9.0488      -9.0630       0.8850       2.0000
      3      -8.5594      -8.6675      -8.6673      -8.6814       0.8846       2.0000
      4      -8.1763      -8.2836      -8.2836      -8.2974       0.8860       2.0000
      5       7.9935       8.0674       8.0671       8.0735       0.9197       0.0000
      6       8.5118       8.5920       8.5915       8.5990       0.9140       0.0000
      7       9.6670       9.7483       9.7474       9.7552       0.9112       0.0000
      8      11.6934      11.7800      11.7796      11.7880       0.9112       0.0000
 

 k-point 103 :       0.0000    0.3333    0.5000
  band No. DFT-energies  QP-energies  QP-e(diag)   sigma(DFT)    Z            occupation

      1     -21.9491     -22.3169     -22.3168     -22.4491       0.7354       2.0000
      2      -9.0225      -9.1325      -9.1320      -9.1464       0.8842       2.0000
      3      -8.4045      -8.5128      -8.5126      -8.5267       0.8853       2.0000
      4      -8.2088      -8.3167      -8.3165      -8.3303       0.8861       2.0000
      5       7.0263       7.0997       7.0994       7.1056       0.9225       0.0000
      6       8.4694       8.5462       8.5460       8.5529       0.9171       0.0000
      7      10.1398      10.2245      10.2230      10.2315       0.9077       0.0000
      8      13.0585      13.1511      13.1508      13.1604       0.9051       0.0000
 

 k-point 104 :       0.1667    0.3333    0.5000
  band No. DFT-energies  QP-energies  QP-e(diag)   sigma(DFT)    Z            occupation

      1     -21.9723     -22.3433     -22.3431     -22.4773       0.7343       2.0000
      2      -8.9070      -9.0148      -9.0147      -9.0287       0.8852       2.0000
      3      -8.3773      -8.4856      -8.4854      -8.4994       0.8853       2.0000
      4      -8.0916      -8.1981      -8.1980      -8.2117       0.8860       2.0000
      5       7.3391       7.4174       7.4166       7.4234       0.9193       0.0000
      6       9.0176       9.0959       9.0954       9.1027       0.9143       0.0000
      7       9.2684       9.3463       9.3460       9.3532       0.9150       0.0000
      8      12.1761      12.2644      12.2640      12.2729       0.9083       0.0000
 

 k-point 105 :       0.3333    0.3333    0.5000
  band No. DFT-energies  QP-energies  QP-e(diag)   sigma(DFT)    Z            occupation

      1     -21.9833     -22.3556     -22.3554     -22.4902       0.7340       2.0000
      2      -9.0244      -9.1331      -9.1329      -9.1471       0.8844       2.0000
      3      -8.2458      -8.3531      -8.3530      -8.3668       0.8861       2.0000
      4      -7.9544      -8.0594      -8.0594      -8.0728       0.8867       2.0000
      5       7.2153       7.2960       7.2952       7.3021       0.9200       0.0000
      6       8.9668       9.0444       9.0435       9.0507       0.9150       0.0000
      7       9.9662      10.0465      10.0460      10.0536       0.9127       0.0000
      8      11.3939      11.4765      11.4765      11.4844       0.9121       0.0000
 

 k-point 106 :       0.5000    0.3333    0.5000
  band No. DFT-energies  QP-energies  QP-e(diag)   sigma(DFT)    Z            occupation

      1     -21.9709     -22.3421     -22.3420     -22.4762       0.7344       2.0000
      2      -9.1294      -9.2391      -9.2387      -9.2531       0.8838       2.0000
      3      -8.1924      -8.2994      -8.2993      -8.3131       0.8859       2.0000
      4      -8.0390      -8.1449      -8.1449      -8.1585       0.8863       2.0000
      5       7.3439       7.4237       7.4232       7.4301       0.9196       0.0000
      6       8.7110       8.7885       8.7875       8.7946       0.9150       0.0000
      7      10.1616      10.2435      10.2428      10.2508       0.9110       0.0000
      8      11.4325      11.5162      11.5161      11.5242       0.9118       0.0000
 

 k-point 107 :      -0.3333    0.3333    0.5000
  band No. DFT-energies  QP-energies  QP-e(diag)   sigma(DFT)    Z            occupation

      1     -21.9480     -22.3169     -22.3167     -22.4490       0.7359       2.0000
      2      -8.9395      -9.0492      -9.0489      -9.0632       0.8850       2.0000
      3      -8.5593      -8.6674      -8.6672      -8.6813       0.8846       2.0000
      4      -8.1763      -8.2835      -8.2835      -8.2973       0.8860       2.0000
      5       7.9937       8.0676       8.0672       8.0736       0.9197       0.0000
      6       8.5121       8.5923       8.5918       8.5993       0.9140       0.0000
      7       9.6670       9.7483       9.7473       9.7552       0.9112       0.0000
      8      11.6931      11.7796      11.7792      11.7876       0.9112       0.0000
 

 k-point 108 :      -0.1667    0.3333    0.5000
  band No. DFT-energies  QP-energies  QP-e(diag)   sigma(DFT)    Z            occupation

      1     -21.9376     -22.3049     -22.3045     -22.4358       0.7364       2.0000
      2      -8.9548      -9.0649      -9.0643      -9.0785       0.8846       2.0000
      3      -8.5225      -8.6316      -8.6315      -8.6457       0.8849       2.0000
      4      -8.3226      -8.4305      -8.4303      -8.4443       0.8852       2.0000
      5       7.3073       7.3800       7.3797       7.3859       0.9215       0.0000
      6       8.7341       8.8121       8.8117       8.8189       0.9150       0.0000
      7      10.1198      10.2049      10.2033      10.2118       0.9078       0.0000
      8      11.7824      11.8704      11.8696      11.8781       0.9113       0.0000
 

 k-point 109 :       0.0000    0.5000    0.5000
  band No. DFT-energies  QP-energies  QP-e(diag)   sigma(DFT)    Z            occupation

      1     -21.9423     -22.3072     -22.3066     -22.4368       0.7366       2.0000
      2      -9.1571      -9.2668      -9.2662      -9.2806       0.8834       2.0000
      3      -8.2961      -8.4040      -8.4039      -8.4177       0.8860       2.0000
      4      -8.2892      -8.3977      -8.3977      -8.4118       0.8856       2.0000
      5       6.5660       6.6376       6.6374       6.6433       0.9238       0.0000
      6       8.0757       8.1508       8.1508       8.1575       0.9187       0.0000
      7      10.8602      10.9533      10.9506      10.9604       0.9019       0.0000
      8      14.4844      14.5815      14.5806      14.5914       0.8999       0.0000
 

 k-point 110 :       0.1667    0.5000    0.5000
  band No. DFT-energies  QP-energies  QP-e(diag)   sigma(DFT)    Z            occupation

      1     -21.9483     -22.3171     -22.3170     -22.4494       0.7357       2.0000
      2      -9.0226      -9.1326      -9.1321      -9.1465       0.8840       2.0000
      3      -8.4048      -8.5131      -8.5130      -8.5270       0.8853       2.0000
      4      -8.2087      -8.3165      -8.3163      -8.3302       0.8861       2.0000
      5       7.0267       7.1001       7.0998       7.1060       0.9224       0.0000
      6       8.4698       8.5466       8.5464       8.5533       0.9171       0.0000
      7      10.1400      10.2247      10.2232      10.2316       0.9076       0.0000
      8      13.0563      13.1484      13.1481      13.1577       0.9050       0.0000
 

 k-point 111 :       0.3333    0.5000    0.5000
  band No. DFT-energies  QP-energies  QP-e(diag)   sigma(DFT)    Z            occupation

      1     -21.9708     -22.3422     -22.3420     -22.4762       0.7345       2.0000
      2      -9.1294      -9.2391      -9.2386      -9.2530       0.8838       2.0000
      3      -8.1924      -8.2994      -8.2993      -8.3131       0.8858       2.0000
      4      -8.0394      -8.1453      -8.1453      -8.1589       0.8863       2.0000
      5       7.3440       7.4238       7.4233       7.4302       0.9196       0.0000
      6       8.7110       8.7885       8.7875       8.7946       0.9151       0.0000
      7      10.1617      10.2437      10.2429      10.2509       0.9110       0.0000
      8      11.4326      11.5162      11.5161      11.5242       0.9118       0.0000
 

 k-point 112 :       0.5000    0.5000    0.5000
  band No. DFT-energies  QP-energies  QP-e(diag)   sigma(DFT)    Z            occupation

      1     -21.9877     -22.3579     -22.3571     -22.4909       0.7340       2.0000
      2      -9.2798      -9.3900      -9.3905      -9.4050       0.8842       2.0000
      3      -7.9525      -8.0575      -8.0575      -8.0709       0.8868       2.0000
      4      -7.9520      -8.0570      -8.0570      -8.0705       0.8868       2.0000
      5       6.8043       6.8833       6.8829       6.8896       0.9220       0.0000
      6       9.2841       9.3656       9.3635       9.3714       0.9100       0.0000
      7      10.8201      10.9007      10.9007      10.9083       0.9136       0.0000
      8      10.8208      10.9014      10.9014      10.9090       0.9136       0.0000
 


--------------------------------------------------------------------------------------------------------



IMPORTANT INFORMATION: All symmetrisations will be switched off!
NOSYMM: (Re-)initialisation of all symmetry stuff for point group C_1.

   GW_DIAG:  cpu time    0.7147: real time    0.7148
    GWLOOP:  cpu time  597.2438: real time  597.2975
 writing wavefunctions
    --------------------------------------------
   GWTOTAL:  cpu time  597.8923: real time  597.9751
    4ORBIT:  cpu time    0.0000: real time    0.0000

 total amount of memory used by VASP MPI-rank0   130672. kBytes
=======================================================================

   base      :      30000. kBytes
   nonl-proj :       9524. kBytes
   fftplans  :      16199. kBytes
   grid      :       4866. kBytes
   one-center:         15. kBytes
   HF        :        129. kBytes
   nonlr-proj:        209. kBytes
   wavefun   :      69730. kBytes
   2eintegral:          0. kBytes
   fockhandle:          0. kBytes
   response  :          0. kBytes
   cacher    :          0. kBytes
 
  
  
 General timing and accounting informations for this job:
 ========================================================
  
                  Total CPU time used (sec):      600.591
                            User time (sec):      597.943
                          System time (sec):        2.648
                         Elapsed time (sec):      601.103
  
                   Maximum memory used (kb):      837824.
                   Average memory used (kb):           0.
  
                          Minor page faults:      1253603
                          Major page faults:            0
                 Voluntary context switches:         2274
