   1   1   0   0
  0.6325587E+02  0.4472379E-09  0.4472379E-09  0.4472379E-09  0.5000000E-15
  1.000000000000000E-004
  CAR 
 Og_FCC                                  
     15.24108662    -30.82248110  301      1.00102218      1.00000000
    -30.822  0.0000E+00  0.0000E+00
    -30.669  0.0000E+00  0.0000E+00
    -30.515  0.0000E+00  0.0000E+00
    -30.362  0.0000E+00  0.0000E+00
    -30.208  0.0000E+00  0.0000E+00
    -30.055  0.0000E+00  0.0000E+00
    -29.901  0.0000E+00  0.0000E+00
    -29.748  0.0000E+00  0.0000E+00
    -29.594  0.0000E+00  0.0000E+00
    -29.441  0.0000E+00  0.0000E+00
    -29.287  0.0000E+00  0.0000E+00
    -29.133 -0.1418E-26 -0.2177E-27
    -28.980 -0.4182E-09 -0.6421E-10
    -28.826 -0.4517E+00 -0.6936E-01
    -28.673  0.6735E+02  0.1027E+02
    -28.519 -0.1769E+01  0.1000E+02
    -28.366 -0.3817E-05  0.1000E+02
    -28.212  0.0000E+00  0.1000E+02
    -28.059  0.0000E+00  0.1000E+02
    -27.905  0.0000E+00  0.1000E+02
    -27.752  0.0000E+00  0.1000E+02
    -27.598  0.0000E+00  0.1000E+02
    -27.444  0.0000E+00  0.1000E+02
    -27.291  0.0000E+00  0.1000E+02
    -27.137  0.0000E+00  0.1000E+02
    -26.984  0.0000E+00  0.1000E+02
    -26.830  0.0000E+00  0.1000E+02
    -26.677  0.0000E+00  0.1000E+02
    -26.523  0.0000E+00  0.1000E+02
    -26.370  0.0000E+00  0.1000E+02
    -26.216  0.0000E+00  0.1000E+02
    -26.063  0.0000E+00  0.1000E+02
    -25.909  0.0000E+00  0.1000E+02
    -25.755  0.0000E+00  0.1000E+02
    -25.602  0.0000E+00  0.1000E+02
    -25.448  0.0000E+00  0.1000E+02
    -25.295  0.0000E+00  0.1000E+02
    -25.141  0.0000E+00  0.1000E+02
    -24.988  0.0000E+00  0.1000E+02
    -24.834  0.0000E+00  0.1000E+02
    -24.681  0.0000E+00  0.1000E+02
    -24.527  0.0000E+00  0.1000E+02
    -24.374  0.0000E+00  0.1000E+02
    -24.220  0.0000E+00  0.1000E+02
    -24.066  0.0000E+00  0.1000E+02
    -23.913  0.0000E+00  0.1000E+02
    -23.759  0.0000E+00  0.1000E+02
    -23.606  0.0000E+00  0.1000E+02
    -23.452  0.0000E+00  0.1000E+02
    -23.299  0.0000E+00  0.1000E+02
    -23.145  0.0000E+00  0.1000E+02
    -22.992  0.0000E+00  0.1000E+02
    -22.838  0.0000E+00  0.1000E+02
    -22.685  0.0000E+00  0.1000E+02
    -22.531  0.0000E+00  0.1000E+02
    -22.377  0.0000E+00  0.1000E+02
    -22.224 -0.3549E-45  0.1000E+02
    -22.070 -0.2770E-22  0.1000E+02
    -21.917 -0.1623E-07  0.1000E+02
    -21.763 -0.8346E-01  0.9987E+01
    -21.610  0.1250E+02  0.1191E+02
    -21.456  0.6132E+00  0.1200E+02
    -21.303 -0.1622E-04  0.1200E+02
    -21.149  0.0000E+00  0.1200E+02
    -20.996  0.0000E+00  0.1200E+02
    -20.842  0.0000E+00  0.1200E+02
    -20.688  0.0000E+00  0.1200E+02
    -20.535  0.0000E+00  0.1200E+02
    -20.381  0.0000E+00  0.1200E+02
    -20.228  0.0000E+00  0.1200E+02
    -20.074  0.0000E+00  0.1200E+02
    -19.921  0.0000E+00  0.1200E+02
    -19.767  0.0000E+00  0.1200E+02
    -19.614  0.0000E+00  0.1200E+02
    -19.460  0.0000E+00  0.1200E+02
    -19.307  0.0000E+00  0.1200E+02
    -19.153  0.0000E+00  0.1200E+02
    -18.999  0.0000E+00  0.1200E+02
    -18.846  0.0000E+00  0.1200E+02
    -18.692  0.0000E+00  0.1200E+02
    -18.539  0.0000E+00  0.1200E+02
    -18.385  0.0000E+00  0.1200E+02
    -18.232  0.0000E+00  0.1200E+02
    -18.078  0.0000E+00  0.1200E+02
    -17.925  0.0000E+00  0.1200E+02
    -17.771  0.0000E+00  0.1200E+02
    -17.618  0.0000E+00  0.1200E+02
    -17.464  0.0000E+00  0.1200E+02
    -17.311  0.0000E+00  0.1200E+02
    -17.157  0.0000E+00  0.1200E+02
    -17.003  0.0000E+00  0.1200E+02
    -16.850  0.0000E+00  0.1200E+02
    -16.696  0.0000E+00  0.1200E+02
    -16.543  0.0000E+00  0.1200E+02
    -16.389  0.0000E+00  0.1200E+02
    -16.236  0.0000E+00  0.1200E+02
    -16.082  0.0000E+00  0.1200E+02
    -15.929  0.0000E+00  0.1200E+02
    -15.775  0.0000E+00  0.1200E+02
    -15.622  0.0000E+00  0.1200E+02
    -15.468  0.0000E+00  0.1200E+02
    -15.314  0.0000E+00  0.1200E+02
    -15.161  0.0000E+00  0.1200E+02
    -15.007  0.0000E+00  0.1200E+02
    -14.854  0.0000E+00  0.1200E+02
    -14.700  0.0000E+00  0.1200E+02
    -14.547  0.0000E+00  0.1200E+02
    -14.393  0.0000E+00  0.1200E+02
    -14.240  0.0000E+00  0.1200E+02
    -14.086  0.0000E+00  0.1200E+02
    -13.933  0.0000E+00  0.1200E+02
    -13.779  0.0000E+00  0.1200E+02
    -13.625  0.0000E+00  0.1200E+02
    -13.472  0.0000E+00  0.1200E+02
    -13.318  0.0000E+00  0.1200E+02
    -13.165  0.0000E+00  0.1200E+02
    -13.011  0.0000E+00  0.1200E+02
    -12.858  0.0000E+00  0.1200E+02
    -12.704  0.0000E+00  0.1200E+02
    -12.551  0.0000E+00  0.1200E+02
    -12.397  0.0000E+00  0.1200E+02
    -12.244  0.0000E+00  0.1200E+02
    -12.090  0.0000E+00  0.1200E+02
    -11.936  0.0000E+00  0.1200E+02
    -11.783  0.0000E+00  0.1200E+02
    -11.629  0.0000E+00  0.1200E+02
    -11.476  0.0000E+00  0.1200E+02
    -11.322  0.0000E+00  0.1200E+02
    -11.169  0.0000E+00  0.1200E+02
    -11.015  0.0000E+00  0.1200E+02
    -10.862  0.0000E+00  0.1200E+02
    -10.708  0.0000E+00  0.1200E+02
    -10.555  0.0000E+00  0.1200E+02
    -10.401  0.0000E+00  0.1200E+02
    -10.247  0.0000E+00  0.1200E+02
    -10.094  0.0000E+00  0.1200E+02
     -9.940  0.0000E+00  0.1200E+02
     -9.787  0.0000E+00  0.1200E+02
     -9.633  0.0000E+00  0.1200E+02
     -9.480  0.0000E+00  0.1200E+02
     -9.326  0.0000E+00  0.1200E+02
     -9.173  0.0000E+00  0.1200E+02
     -9.019  0.0000E+00  0.1200E+02
     -8.866  0.0000E+00  0.1200E+02
     -8.712  0.0000E+00  0.1200E+02
     -8.558  0.0000E+00  0.1200E+02
     -8.405  0.0000E+00  0.1200E+02
     -8.251  0.0000E+00  0.1200E+02
     -8.098  0.0000E+00  0.1200E+02
     -7.944  0.0000E+00  0.1200E+02
     -7.791  0.0000E+00  0.1200E+02
     -7.637  0.0000E+00  0.1200E+02
     -7.484  0.0000E+00  0.1200E+02
     -7.330  0.0000E+00  0.1200E+02
     -7.177  0.0000E+00  0.1200E+02
     -7.023  0.0000E+00  0.1200E+02
     -6.869  0.0000E+00  0.1200E+02
     -6.716  0.0000E+00  0.1200E+02
     -6.562  0.0000E+00  0.1200E+02
     -6.409  0.0000E+00  0.1200E+02
     -6.255  0.0000E+00  0.1200E+02
     -6.102  0.0000E+00  0.1200E+02
     -5.948  0.0000E+00  0.1200E+02
     -5.795  0.0000E+00  0.1200E+02
     -5.641  0.0000E+00  0.1200E+02
     -5.488  0.0000E+00  0.1200E+02
     -5.334  0.0000E+00  0.1200E+02
     -5.180  0.0000E+00  0.1200E+02
     -5.027  0.0000E+00  0.1200E+02
     -4.873  0.0000E+00  0.1200E+02
     -4.720  0.0000E+00  0.1200E+02
     -4.566  0.0000E+00  0.1200E+02
     -4.413  0.0000E+00  0.1200E+02
     -4.259  0.0000E+00  0.1200E+02
     -4.106  0.0000E+00  0.1200E+02
     -3.952  0.0000E+00  0.1200E+02
     -3.799  0.0000E+00  0.1200E+02
     -3.645  0.0000E+00  0.1200E+02
     -3.491  0.0000E+00  0.1200E+02
     -3.338  0.0000E+00  0.1200E+02
     -3.184  0.0000E+00  0.1200E+02
     -3.031  0.0000E+00  0.1200E+02
     -2.877  0.0000E+00  0.1200E+02
     -2.724  0.0000E+00  0.1200E+02
     -2.570  0.0000E+00  0.1200E+02
     -2.417  0.0000E+00  0.1200E+02
     -2.263  0.0000E+00  0.1200E+02
     -2.110 -0.3536E-49  0.1200E+02
     -1.956 -0.4589E-25  0.1200E+02
     -1.802 -0.3050E-09  0.1200E+02
     -1.649 -0.6048E-02  0.1200E+02
     -1.495  0.5667E+00  0.1209E+02
     -1.342  0.1405E+01  0.1230E+02
     -1.188  0.3312E+01  0.1281E+02
     -1.035  0.4166E+01  0.1345E+02
     -0.881  0.1535E+01  0.1369E+02
     -0.728  0.8597E+00  0.1382E+02
     -0.574  0.1364E+01  0.1403E+02
     -0.421  0.1509E+01  0.1426E+02
     -0.267  0.1898E+01  0.1455E+02
     -0.113  0.1152E+01  0.1473E+02
      0.040  0.3445E+01  0.1526E+02
      0.194  0.2690E+01  0.1567E+02
      0.347  0.3220E+01  0.1616E+02
      0.501  0.4461E+01  0.1685E+02
      0.654  0.3399E+01  0.1737E+02
      0.808  0.2662E+01  0.1778E+02
      0.961  0.1267E+01  0.1797E+02
      1.115  0.1702E+00  0.1800E+02
      1.268 -0.6292E-04  0.1800E+02
      1.422  0.0000E+00  0.1800E+02
      1.576  0.0000E+00  0.1800E+02
      1.729  0.0000E+00  0.1800E+02
      1.883  0.0000E+00  0.1800E+02
      2.036  0.0000E+00  0.1800E+02
      2.190  0.0000E+00  0.1800E+02
      2.343  0.0000E+00  0.1800E+02
      2.497  0.0000E+00  0.1800E+02
      2.650  0.0000E+00  0.1800E+02
      2.804 -0.5651E-34  0.1800E+02
      2.957 -0.4637E-15  0.1800E+02
      3.111 -0.1572E-04  0.1800E+02
      3.265  0.1566E-01  0.1800E+02
      3.418  0.2221E-02  0.1800E+02
      3.572 -0.4495E-07  0.1800E+02
      3.725 -0.1906E-07  0.1800E+02
      3.879 -0.1979E-02  0.1800E+02
      4.032  0.1455E+00  0.1802E+02
      4.186  0.9475E-01  0.1804E+02
      4.339  0.1190E-01  0.1804E+02
      4.493 -0.2376E-06  0.1804E+02
      4.646 -0.6121E-02  0.1804E+02
      4.800  0.2221E+00  0.1807E+02
      4.954  0.4879E-01  0.1808E+02
      5.107  0.4407E+00  0.1815E+02
      5.261  0.8070E-01  0.1816E+02
      5.414 -0.1003E-02  0.1816E+02
      5.568  0.1282E+00  0.1818E+02
      5.721  0.6904E+00  0.1829E+02
      5.875  0.4032E+00  0.1835E+02
      6.028  0.5838E+00  0.1844E+02
      6.182  0.1471E+01  0.1866E+02
      6.335  0.5465E+00  0.1875E+02
      6.489  0.6489E+00  0.1885E+02
      6.643  0.1263E+01  0.1904E+02
      6.796  0.1272E+01  0.1924E+02
      6.950  0.1624E+01  0.1949E+02
      7.103  0.1470E+01  0.1971E+02
      7.257  0.1762E+00  0.1974E+02
      7.410  0.6805E+00  0.1984E+02
      7.564  0.8919E+00  0.1998E+02
      7.717  0.6601E+00  0.2008E+02
      7.871  0.7583E+00  0.2020E+02
      8.024 -0.7281E-02  0.2020E+02
      8.178  0.9686E+00  0.2035E+02
      8.332  0.7392E+00  0.2046E+02
      8.485  0.1789E+01  0.2073E+02
      8.639  0.3249E+01  0.2123E+02
      8.792  0.1365E+01  0.2144E+02
      8.946  0.1142E+01  0.2162E+02
      9.099  0.3652E+01  0.2218E+02
      9.253  0.2748E+01  0.2260E+02
      9.406  0.5670E+00  0.2269E+02
      9.560  0.2396E+00  0.2273E+02
      9.713  0.4393E+00  0.2279E+02
      9.867  0.3787E+00  0.2285E+02
     10.021  0.1229E+01  0.2304E+02
     10.174  0.3026E+01  0.2350E+02
     10.328  0.3206E+01  0.2400E+02
     10.481  0.1876E+01  0.2428E+02
     10.635  0.2639E+01  0.2469E+02
     10.788  0.1864E+01  0.2498E+02
     10.942  0.1100E+01  0.2514E+02
     11.095  0.4358E+00  0.2521E+02
     11.249  0.9436E+00  0.2536E+02
     11.402  0.6924E+00  0.2546E+02
     11.556  0.1749E+00  0.2549E+02
     11.710  0.5267E+00  0.2557E+02
     11.863  0.6889E+00  0.2568E+02
     12.017  0.6175E+00  0.2577E+02
     12.170  0.2593E+00  0.2581E+02
     12.324  0.1134E+01  0.2599E+02
     12.477 -0.9717E-02  0.2598E+02
     12.631 -0.1287E-06  0.2598E+02
     12.784 -0.2886E-23  0.2598E+02
     12.938 -0.2897E-08  0.2598E+02
     13.091 -0.3579E-02  0.2598E+02
     13.245  0.1118E+00  0.2600E+02
     13.399 -0.9909E-03  0.2600E+02
     13.552  0.0000E+00  0.2600E+02
     13.706  0.0000E+00  0.2600E+02
     13.859  0.0000E+00  0.2600E+02
     14.013  0.0000E+00  0.2600E+02
     14.166  0.0000E+00  0.2600E+02
     14.320  0.0000E+00  0.2600E+02
     14.473  0.0000E+00  0.2600E+02
     14.627  0.0000E+00  0.2600E+02
     14.780  0.0000E+00  0.2600E+02
     14.934  0.0000E+00  0.2600E+02
     15.088  0.0000E+00  0.2600E+02
     15.241  0.0000E+00  0.2600E+02
