    1    1    1    1
  0.6325587E+02  0.4472379E-09  0.4472379E-09  0.4472379E-09  0.5000000E-15
  1.000000000000000E-004
  CAR 
 Og_FCC                                  
     18     35     13
 
  0.0000000E+00  0.0000000E+00  0.0000000E+00  0.1371742E-02
    1      -28.726885   1.000000
    2      -28.726885   1.000000
    3      -28.726885   1.000000
    4      -28.724463   1.000000
    5      -28.724463   1.000000
    6      -21.718869   1.000000
    7        0.989195   0.694097
    8        0.989195   0.694097
    9        0.989196   0.694096
   10        3.239044   0.000000
   11       10.174064   0.000000
   12       10.174064   0.000000
   13       10.174354   0.000000
 
  0.1111111E+00  0.7953140E-17  0.6938894E-17  0.1097394E-01
    1      -28.726682   1.000000
    2      -28.726543   1.000000
    3      -28.726543   1.000000
    4      -28.724378   1.000000
    5      -28.724378   1.000000
    6      -21.711137   1.000000
    7        0.399929   1.000000
    8        0.947176   1.031379
    9        0.947176   1.031379
   10        3.924469   0.000000
   11        9.446951   0.000000
   12       10.296308   0.000000
   13       10.296308   0.000000
 
  0.2222222E+00  0.1590628E-16 -0.1387779E-16  0.1097394E-01
    1      -28.726207   1.000000
    2      -28.726131   1.000000
    3      -28.726131   1.000000
    4      -28.723704   1.000000
    5      -28.723704   1.000000
    6      -21.691327   1.000000
    7       -0.505730   1.000000
    8        0.844346   1.000043
    9        0.844346   1.000043
   10        4.962355   0.000000
   11        9.218550   0.000000
   12       10.325934   0.000000
   13       10.325941   0.000000
 
  0.3333333E+00  0.3079831E-16  0.1387779E-16  0.1097394E-01
    1      -28.726202   1.000000
    2      -28.726202   1.000000
    3      -28.725684   1.000000
    4      -28.722403   1.000000
    5      -28.722403   1.000000
    6      -21.668615   1.000000
    7       -1.206578   1.000000
    8        0.732956   1.000000
    9        0.732956   1.000000
   10        5.516217   0.000000
   11        9.930554   0.000000
   12       10.004078   0.000000
   13       10.004078   0.000000
 
  0.4444444E+00  0.3181256E-16 -0.2775558E-16  0.1097394E-01
    1      -28.726358   1.000000
    2      -28.726358   1.000000
    3      -28.725326   1.000000
    4      -28.721449   1.000000
    5      -28.721448   1.000000
    6      -21.653690   1.000000
    7       -1.577972   1.000000
    8        0.663076   1.000000
    9        0.663076   1.000000
   10        5.635272   0.000000
   11        9.773442   0.000000
   12        9.773442   0.000000
   13       10.193825   0.000000
 
  0.1111111E+00  0.1111111E+00  0.1387779E-16  0.8230453E-02
    1      -28.727096   1.000000
    2      -28.726134   1.000000
    3      -28.726134   1.000000
    4      -28.724662   1.000000
    5      -28.724138   1.000000
    6      -21.708552   1.000000
    7        0.367879   1.000000
    8        0.856303   1.000167
    9        0.856303   1.000167
   10        4.159049   0.000000
   11        9.151059   0.000000
   12       10.470140   0.000000
   13       10.472932   0.000000
 
  0.2222222E+00  0.1111111E+00 -0.1387779E-16  0.3292181E-01
    1      -28.726993   1.000000
    2      -28.725550   1.000000
    3      -28.725522   1.000000
    4      -28.724486   1.000000
    5      -28.723513   1.000000
    6      -21.692765   1.000000
    7       -0.311035   1.000000
    8        0.720482   1.000000
    9        0.758006   1.000000
   10        5.086993   0.000000
   11        8.779380   0.000000
   12        9.925463   0.000000
   13       10.696912   0.000000
 
  0.3333333E+00  0.1111111E+00  0.2775558E-16  0.3292181E-01
    1      -28.726577   1.000000
    2      -28.725499   1.000000
    3      -28.725467   1.000000
    4      -28.723378   1.000000
    5      -28.722271   1.000000
    6      -21.671015   1.000000
    7       -0.995035   1.000000
    8        0.605334   1.000000
    9        0.607206   1.000000
   10        5.839515   0.000000
   11        9.136541   0.000000
   12        9.280597   0.000000
   13       10.502725   0.000000
 
  0.4444444E+00  0.1111111E+00  0.0000000E+00  0.3292181E-01
    1      -28.726438   1.000000
    2      -28.725696   1.000000
    3      -28.725140   1.000000
    4      -28.722244   1.000000
    5      -28.721378   1.000000
    6      -21.653468   1.000000
    7       -1.429081   1.000000
    8        0.441726   1.000000
    9        0.559489   1.000000
   10        6.086512   0.000000
   11        8.916406   0.000000
   12       10.166677   0.000000
   13       10.351915   0.000000
 
 -0.4444444E+00  0.1111111E+00 -0.1387779E-16  0.3292181E-01
    1      -28.726372   1.000000
    2      -28.725806   1.000000
    3      -28.724990   1.000000
    4      -28.721615   1.000000
    5      -28.721469   1.000000
    6      -21.648495   1.000000
    7       -1.538085   1.000000
    8        0.338502   1.000000
    9        0.600586   1.000000
   10        6.123837   0.000000
   11        8.861441   0.000000
   12        9.987441   0.000000
   13       11.123988   0.000000
 
 -0.3333333E+00  0.1111111E+00 -0.1387779E-16  0.3292181E-01
    1      -28.726184   1.000000
    2      -28.725739   1.000000
    3      -28.725324   1.000000
    4      -28.722539   1.000000
    5      -28.721782   1.000000
    6      -21.658460   1.000000
    7       -1.310475   1.000000
    8        0.345005   1.000000
    9        0.712598   1.000000
   10        6.059074   0.000000
   11        9.110369   0.000000
   12       10.045859   0.000000
   13       10.083712   0.000000
 
 -0.2222222E+00  0.1111111E+00 -0.6938894E-17  0.3292181E-01
    1      -28.726069   1.000000
    2      -28.725854   1.000000
    3      -28.725630   1.000000
    4      -28.723987   1.000000
    5      -28.722668   1.000000
    6      -21.678587   1.000000
    7       -0.789565   1.000000
    8        0.473393   1.000000
    9        0.848642   1.000071
   10        5.632570   0.000000
   11        9.101878   0.000000
   12        9.632005   0.000000
   13       10.348451   0.000000
 
 -0.1111111E+00  0.1111111E+00  0.1027003E-16  0.1646091E-01
    1      -28.726547   1.000000
    2      -28.726114   1.000000
    3      -28.725989   1.000000
    4      -28.724550   1.000000
    5      -28.723758   1.000000
    6      -21.699353   1.000000
    7       -0.112268   1.000000
    8        0.708253   1.000000
    9        0.943938   1.034270
   10        4.698314   0.000000
   11        9.055731   0.000000
   12       10.247533   0.000000
   13       10.449235   0.000000
 
  0.2222222E+00  0.2222222E+00  0.0000000E+00  0.8230453E-02
    1      -28.727642   1.000000
    2      -28.725160   1.000000
    3      -28.724248   1.000000
    4      -28.724248   1.000000
    5      -28.723310   1.000000
    6      -21.682164   1.000000
    7       -0.487317   1.000000
    8        0.546167   1.000000
    9        0.546167   1.000000
   10        5.695120   0.000000
   11        8.218481   0.000000
   12        9.456515   0.000000
   13       11.239250   0.000000
 
  0.3333333E+00  0.2222222E+00 -0.2775558E-16  0.3292181E-01
    1      -28.727575   1.000000
    2      -28.725413   1.000000
    3      -28.723939   1.000000
    4      -28.723179   1.000000
    5      -28.722220   1.000000
    6      -21.664494   1.000000
    7       -0.908138   1.000000
    8        0.343058   1.000000
    9        0.404681   1.000000
   10        6.321826   0.000000
   11        8.109727   0.000000
   12        9.098305   0.000000
   13       11.397093   0.000000
 
  0.4444444E+00  0.2222222E+00  0.0000000E+00  0.3292181E-01
    1      -28.727054   1.000000
    2      -28.725134   1.000000
    3      -28.724142   1.000000
    4      -28.722538   1.000000
    5      -28.721292   1.000000
    6      -21.647910   1.000000
    7       -1.225193   1.000000
    8        0.043468   1.000000
    9        0.353312   1.000000
   10        6.675786   0.000000
   11        8.594846   0.000000
   12        9.026914   0.000000
   13       11.075501   0.000000
 
 -0.4444444E+00  0.2222222E+00  0.4163336E-16  0.3292181E-01
    1      -28.726680   1.000000
    2      -28.724334   1.000000
    3      -28.724277   1.000000
    4      -28.722466   1.000000
    5      -28.721393   1.000000
    6      -21.640268   1.000000
    7       -1.320022   1.000000
    8       -0.227979   1.000000
    9        0.410958   1.000000
   10        6.863023   0.000000
   11        8.526211   0.000000
   12       10.257835   0.000000
   13       10.749750   0.000000
 
 -0.3333333E+00  0.2222222E+00  0.2775558E-16  0.3292181E-01
    1      -28.726362   1.000000
    2      -28.724372   1.000000
    3      -28.724300   1.000000
    4      -28.722543   1.000000
    5      -28.722200   1.000000
    6      -21.645190   1.000000
    7       -1.216115   1.000000
    8       -0.298103   1.000000
    9        0.556599   1.000000
   10        6.990550   0.000000
   11        8.536287   0.000000
   12       10.058032   0.000000
   13       10.581747   0.000000
 
 -0.2222222E+00  0.2222222E+00  0.9589299E-17  0.1646091E-01
    1      -28.726050   1.000000
    2      -28.725238   1.000000
    3      -28.724267   1.000000
    4      -28.724200   1.000000
    5      -28.722058   1.000000
    6      -21.660380   1.000000
    7       -1.025881   1.000000
    8       -0.033073   1.000000
    9        0.730606   1.000000
   10        6.608052   0.000000
   11        8.873834   0.000000
   12        9.147337   0.000000
   13       10.544051   0.000000
 
  0.3333333E+00  0.3333333E+00  0.2775558E-16  0.8230453E-02
    1      -28.728283   1.000000
    2      -28.725761   1.000000
    3      -28.722396   1.000000
    4      -28.722133   1.000000
    5      -28.722133   1.000000
    6      -21.652084   1.000000
    7       -1.086663   1.000000
    8        0.230077   1.000000
    9        0.230077   1.000000
   10        6.282953   0.000000
   11        7.590753   0.000000
   12        9.820541   0.000000
   13       12.245843   0.000000
 
  0.4444444E+00  0.3333333E+00 -0.5551115E-16  0.3292181E-01
    1      -28.728086   1.000000
    2      -28.725817   1.000000
    3      -28.722494   1.000000
    4      -28.721514   1.000000
    5      -28.721139   1.000000
    6      -21.639556   1.000000
    7       -1.248419   1.000000
    8       -0.022865   1.000000
    9        0.152125   1.000000
   10        6.349807   0.000000
   11        7.672016   0.000000
   12       10.223396   0.000000
   13       12.283333   0.000000
 
 -0.4444444E+00  0.3333333E+00  0.2775558E-16  0.3292181E-01
    1      -28.727371   1.000000
    2      -28.725120   1.000000
    3      -28.722729   1.000000
    4      -28.721805   1.000000
    5      -28.721162   1.000000
    6      -21.632840   1.000000
    7       -1.189449   1.000000
    8       -0.467472   1.000000
    9        0.198534   1.000000
   10        6.614379   0.000000
   11        8.443226   0.000000
   12       10.198357   0.000000
   13       11.857617   0.000000
 
 -0.3333333E+00  0.3333333E+00 -0.2449897E-16  0.1646091E-01
    1      -28.726792   1.000000
    2      -28.723612   1.000000
    3      -28.723121   1.000000
    4      -28.722886   1.000000
    5      -28.722073   1.000000
    6      -21.635096   1.000000
    7       -0.923641   1.000000
    8       -0.850648   1.000000
    9        0.353357   1.000000
   10        6.969344   0.000000
   11        9.075146   0.000000
   12       10.435516   0.000000
   13       10.680961   0.000000
 
  0.4444444E+00  0.4444444E+00  0.0000000E+00  0.8230453E-02
    1      -28.728683   1.000000
    2      -28.726170   1.000000
    3      -28.721786   1.000000
    4      -28.720732   1.000000
    5      -28.720732   1.000000
    6      -21.632340   1.000000
    7       -1.382127   1.000000
    8        0.040397   1.000000
    9        0.040397   1.000000
   10        5.991409   0.000000
   11        7.276054   0.000000
   12       11.820190   0.000000
   13       13.147288   0.000000
 
 -0.4444444E+00  0.4444444E+00  0.1917860E-16  0.1646091E-01
    1      -28.728292   1.000000
    2      -28.725992   1.000000
    3      -28.721900   1.000000
    4      -28.720850   1.000000
    5      -28.720710   1.000000
    6      -21.629675   1.000000
    7       -1.351961   1.000000
    8       -0.167372   1.000000
    9        0.057791   1.000000
   10        6.158218   0.000000
   11        7.523049   0.000000
   12       12.105540   0.000000
   13       12.182486   0.000000
 
  0.3333333E+00  0.2222222E+00  0.1111111E+00  0.3292181E-01
    1      -28.726860   1.000000
    2      -28.725506   1.000000
    3      -28.724522   1.000000
    4      -28.724336   1.000000
    5      -28.722614   1.000000
    6      -21.676007   1.000000
    7       -0.723554   1.000000
    8        0.367411   1.000000
    9        0.702268   1.000000
   10        5.945520   0.000000
   11        8.556844   0.000000
   12        9.232986   0.000000
   13       11.120770   0.000000
 
  0.4444444E+00  0.2222222E+00  0.1111111E+00  0.6584362E-01
    1      -28.726311   1.000000
    2      -28.725589   1.000000
    3      -28.724530   1.000000
    4      -28.723106   1.000000
    5      -28.721802   1.000000
    6      -21.656848   1.000000
    7       -1.121073   1.000000
    8        0.083193   1.000000
    9        0.572762   1.000000
   10        6.641046   0.000000
   11        8.658314   0.000000
   12        9.014397   0.000000
   13       10.804503   0.000000
 
 -0.4444444E+00  0.2222222E+00  0.1111111E+00  0.6584362E-01
    1      -28.726203   1.000000
    2      -28.725407   1.000000
    3      -28.724207   1.000000
    4      -28.722394   1.000000
    5      -28.721469   1.000000
    6      -21.644280   1.000000
    7       -1.356071   1.000000
    8       -0.052633   1.000000
    9        0.459533   1.000000
   10        6.852336   0.000000
   11        8.338869   0.000000
   12       10.266064   0.000000
   13       10.626788   0.000000
 
  0.4444444E+00  0.3333333E+00  0.1111111E+00  0.3292181E-01
    1      -28.727387   1.000000
    2      -28.725559   1.000000
    3      -28.723553   1.000000
    4      -28.722164   1.000000
    5      -28.721663   1.000000
    6      -21.649371   1.000000
    7       -1.113829   1.000000
    8        0.025491   1.000000
    9        0.295275   1.000000
   10        6.714900   0.000000
   11        8.061786   0.000000
   12        9.075626   0.000000
   13       11.962224   0.000000
 
 -0.4444444E+00  0.3333333E+00  0.1111111E+00  0.6584362E-01
    1      -28.726672   1.000000
    2      -28.725222   1.000000
    3      -28.723613   1.000000
    4      -28.722082   1.000000
    5      -28.721248   1.000000
    6      -21.637770   1.000000
    7       -1.178137   1.000000
    8       -0.317193   1.000000
    9        0.191798   1.000000
   10        7.082643   0.000000
   11        8.562917   0.000000
   12        9.038402   0.000000
   13       11.702707   0.000000
 
 -0.3333333E+00  0.3333333E+00  0.1111111E+00  0.6584362E-01
    1      -28.726239   1.000000
    2      -28.724496   1.000000
    3      -28.723318   1.000000
    4      -28.723062   1.000000
    5      -28.721350   1.000000
    6      -21.635092   1.000000
    7       -1.095974   1.000000
    8       -0.584516   1.000000
    9        0.237755   1.000000
   10        7.398420   0.000000
   11        8.433873   0.000000
   12       10.096466   0.000000
   13       10.624676   0.000000
 
 -0.2222222E+00  0.3333333E+00  0.1111111E+00  0.3292181E-01
    1      -28.725934   1.000000
    2      -28.725165   1.000000
    3      -28.723937   1.000000
    4      -28.722243   1.000000
    5      -28.722182   1.000000
    6      -21.642644   1.000000
    7       -1.104168   1.000000
    8       -0.423139   1.000000
    9        0.403855   1.000000
   10        7.530703   0.000000
   11        8.195139   0.000000
   12        9.235649   0.000000
   13       11.281241   0.000000
 
 -0.4444444E+00  0.4444444E+00  0.1111111E+00  0.3292181E-01
    1      -28.727745   1.000000
    2      -28.725808   1.000000
    3      -28.722354   1.000000
    4      -28.721435   1.000000
    5      -28.720742   1.000000
    6      -21.632000   1.000000
    7       -1.270667   1.000000
    8       -0.177556   1.000000
    9       -0.002077   1.000000
   10        6.488296   0.000000
   11        7.791168   0.000000
   12       10.534924   0.000000
   13       12.245000   0.000000
 
 -0.3333333E+00  0.4444444E+00  0.1111111E+00  0.3292181E-01
    1      -28.726822   1.000000
    2      -28.725128   1.000000
    3      -28.722603   1.000000
    4      -28.722538   1.000000
    5      -28.720762   1.000000
    6      -21.630241   1.000000
    7       -1.096695   1.000000
    8       -0.559954   1.000000
    9        0.035614   1.000000
   10        6.945366   0.000000
   11        8.545335   0.000000
   12       10.083179   0.000000
   13       10.845893   0.000000
 
 -0.3333333E+00  0.4444444E+00  0.2222222E+00  0.3292181E-01
    1      -28.725349   1.000000
    2      -28.725322   1.000000
    3      -28.723882   1.000000
    4      -28.722670   1.000000
    5      -28.720747   1.000000
    6      -21.631149   1.000000
    7       -0.967590   1.000000
    8       -0.650554   1.000000
    9       -0.032678   1.000000
   10        7.731498   0.000000
   11        8.681840   0.000000
   12        9.124597   0.000000
   13       10.431309   0.000000
