Og_FCC                                  
   1.01243666513128     
     4.342346    0.000000    0.000000
     2.171173    3.760582   -0.000000
     2.171173    1.253527    3.545511
   Og
     1
Direct
  0.000000  0.000000  0.000000
 
   56   56   56
  215.20      212.07      206.38      206.11      216.47      234.76      251.10      254.21      238.06      204.70    
  162.23      120.09      85.016      59.471      42.538      31.711      24.408      19.081      15.013      11.808    
  9.2715      7.2872      5.7699      4.6329      3.7993      3.2058      2.8100      2.5833      2.5097      2.5833    
  2.8100      3.2058      3.7993      4.6329      5.7699      7.2872      9.2715      11.808      15.013      19.081    
  24.408      31.711      42.538      59.471      85.016      120.09      162.23      204.70      238.06      254.21    
  251.10      234.76      216.47      206.11      206.38      212.07      212.07      207.71      205.12      211.08    
  226.68      245.05      255.03      247.77      221.62      182.29      139.09      100.28      70.294      49.605    
  36.264      27.572      21.433      16.835      13.253      10.416      8.1782      6.4479      5.1379      4.1668    
  3.4631      2.9752      2.6679      2.5198      2.5197      2.6678      2.9751      3.4628      4.1665      5.1374    
  6.4472      8.1772      10.414      13.251      16.832      21.429      27.567      36.258      49.598      70.287    
  100.27      139.09      182.29      221.62      247.77      255.03      245.06      226.69      211.09      205.13    
  207.72      212.07      206.38      205.12      209.55      222.52      240.26      253.44      252.46      233.00    
  198.05      155.72      114.83      81.316      57.131      41.143      30.862      23.842      18.680      14.715    
  11.582      9.0999      7.1583      5.6733      4.5604      3.7433      3.1613      2.7725      2.5498      2.4772    
  2.5497      2.7723      3.1610      3.7428      4.5596      5.6722      7.1566      9.0975      11.579      14.711    
  18.674      23.833      30.852      41.131      57.116      81.301      114.81      155.71      198.05      232.99    
  252.46      253.45      240.27      222.53      209.56      205.13      206.39      207.72      206.11      211.08    
  222.52      238.50      251.99      254.21      239.65      209.06      168.84      127.43      91.619      64.579    
  46.125      34.184      26.235      20.503      16.158      12.741      10.027      7.8841      6.2278      4.9728    
  4.0415      3.3649      2.8951      2.5983      2.4551      2.4550      2.5981      2.8946      3.3642      4.0405    
  4.9714      6.2258      7.8813      10.023      12.736      16.150      20.493      26.222      34.167      46.106    
  64.558      91.598      127.41      168.83      209.06      239.64      254.22      252.00      238.52      222.54    
  211.10      206.12      205.13      205.13      216.47      226.68      240.26      251.99      254.60      242.62    
  215.46      177.78      137.09      100.28      71.305      50.856      37.385      28.520      22.247      17.536    
  13.859      10.932      8.6049      6.7868      5.3944      4.3508      3.5810      3.0323      2.6633      2.4523    
  2.3824      2.4521      2.6629      3.0316      3.5800      4.3493      5.3924      6.7838      8.6006      10.926    
  13.851      17.525      22.232      28.502      37.362      50.830      71.278      100.25      137.07      177.77    
  215.45      242.63      254.61      252.00      240.28      226.70      216.48      211.10      209.56      211.09    
  234.76      245.05      253.44      254.21      242.62      217.54      182.29      143.14      106.51      76.664    
  54.914      40.251      30.584      23.837      18.804      14.899      11.786      9.2979      7.3330      5.8142    
  4.6624      3.8045      3.1790      2.7426      2.4659      2.3315      2.3315      2.4654      2.7420      3.1780    
  3.8032      4.6604      5.8115      7.3288      9.2922      11.777      14.888      18.789      23.818      30.560    
  40.223      54.883      76.633      106.48      143.11      182.27      217.54      242.63      254.22      253.46    
  245.07      234.78      226.70      222.54      222.53      226.69      251.10      255.03      252.46      239.65    
  215.46      182.29      145.19      109.76      80.115      57.891      42.536      32.298      25.191      19.909    
  15.821      12.559      9.9381      7.8490      6.2179      4.9678      4.0276      3.3310      2.8315      2.4941    
  2.2996      2.2353      2.2994      2.4936      2.8308      3.3299      4.0259      4.9654      6.2144      7.8438    
  9.9308      12.548      15.807      19.891      25.169      32.270      42.504      57.856      80.081      109.73    
  145.16      182.27      215.45      239.65      252.47      255.04      251.11      245.07      240.28      238.52    
  240.27      245.06      254.21      247.77      233.00      209.06      177.78      143.14      109.76      81.307    
  59.467      44.014      33.533      26.231      20.799      16.588      13.222      10.502      8.3160      6.5915    
  5.2570      4.2427      3.4825      2.9254      2.5339      2.2839      2.1619      2.1617      2.2837      2.5332    
  2.9247      3.4812      4.2409      5.2540      6.5874      8.3097      10.493      13.210      16.572      20.777    
  26.205      33.502      43.979      59.430      81.271      109.73      143.11      177.77      209.06      233.00    
  247.78      254.22      255.04      253.46      252.00      252.00      253.45      255.03      238.06      221.62    
  198.05      168.84      137.09      106.51      80.115      59.467      44.526      34.181      26.887      21.423    
  17.166      13.747      10.968      8.7155      6.9213      5.5186      4.4427      3.6270      3.0201      2.5803    
  2.2823      2.1077      2.0509      2.1075      2.2820      2.5797      3.0193      3.6256      4.4407      5.5154    
  6.9165      8.7084      10.958      13.734      17.148      21.400      26.859      34.148      44.489      59.429    
  80.079      106.48      137.07      168.82      198.04      221.62      238.07      247.78      252.47      254.22    
  254.61      254.22      252.46      247.77      204.70      182.29      155.72      127.43      100.28      76.664    
  57.891      44.014      34.181      27.111      21.746      17.525      14.113      11.317      9.0318      7.1934    
  5.7431      4.6191      3.7592      3.1099      2.6301      2.2900      2.0710      1.9630      1.9631      2.0707    
  2.2898      2.6295      3.1093      3.7578      4.6172      5.7397      7.1885      9.0241      11.306      14.098    
  17.506      21.721      27.083      34.147      43.977      57.853      76.627      100.25      127.41      155.71    
  182.28      204.70      221.62      233.00      239.65      242.63      242.63      239.64      232.99      221.62    
  162.23      139.09      114.83      91.619      71.305      54.914      42.536      33.533      26.887      21.746    
  17.647      14.299      11.533      9.2506      7.3971      5.9203      4.7652      3.8726      3.1912      2.6783    
  2.3044      2.0474      1.8967      1.8463      1.8967      2.0474      2.3044      2.6781      3.1908      3.8716    
  4.7635      5.9170      7.3922      9.2429      11.522      14.285      17.628      21.721      26.859      33.500    
  42.500      54.877      71.270      91.589      114.80      139.08      162.22      182.28      198.04      209.06    
  215.45      217.54      215.45      209.06      198.05      182.29      120.09      100.28      81.316      64.579    
  50.856      40.251      32.298      26.231      21.423      17.525      14.299      11.606      9.3628      7.5229    
  6.0429      4.8742      3.9628      3.2592      2.7223      2.3215      2.0345      1.8479      1.7554      1.7554    
  1.8481      2.0348      2.3218      2.7224      3.2592      3.9622      4.8729      6.0402      7.5184      9.3556    
  11.596      14.285      17.507      21.400      26.205      32.268      40.217      50.823      64.546      81.289    
  100.26      120.08      139.08      155.71      168.82      177.77      182.27      182.27      177.77      168.83    
  155.71      139.09      85.016      70.294      57.131      46.125      37.385      30.584      25.191      20.799    
  17.166      14.113      11.533      9.3628      7.5654      6.1056      4.9415      4.0253      3.3106      2.7585    
  2.3386      2.0287      1.8140      1.6867      1.6444      1.6869      1.8144      2.0293      2.3394      2.7592    
  3.3113      4.0254      4.9409      6.1036      7.5619      9.3567      11.524      14.100      17.149      20.779    
  25.167      30.558      37.354      46.097      57.103      70.270      84.997      100.26      114.80      127.41    
  137.07      143.11      145.16      143.11      137.07      127.41      114.81      100.27      59.471      49.605    
  41.143      34.184      28.520      23.837      19.909      16.588      13.747      11.317      9.2506      7.5229    
  6.1056      4.9643      4.0572      3.3428      2.7843      2.3531      2.0271      1.7915      1.6369      1.5602    
  1.5603      1.6375      1.7922      2.0284      2.3544      2.7859      3.3441      4.0584      4.9646      6.1050    
  7.5205      9.2464      11.309      13.738      16.574      19.893      23.815      28.499      34.159      41.119    
  49.584      59.451      70.270      81.289      91.589      100.25      106.48      109.73      109.73      106.48    
  100.25      91.598      81.301      70.287      42.538      36.264      30.862      26.235      22.247      18.804    
  15.821      13.222      10.968      9.0318      7.3971      6.0429      4.9415      4.0572      3.3537      2.7978    
  2.3628      2.0276      1.7774      1.6027      1.4990      1.4647      1.4995      1.6037      1.7788      2.0295    
  2.3650      2.8003      3.3562      4.0596      4.9432      6.0438      7.3963      9.0295      10.963      13.215    
  15.809      18.792      22.230      26.217      30.845      36.243      42.521      49.584      57.103      64.546    
  71.270      76.627      80.079      81.271      80.081      76.633      71.278      64.558      57.116      49.598    
  31.711      27.572      23.842      20.503      17.536      14.899      12.559      10.502      8.7155      7.1934    
  5.9203      4.8742      4.0253      3.3428      2.7978      2.3662      2.0283      1.7697      1.5812      1.4577    
  1.3965      1.3969      1.4586      1.5828      1.7719      2.0310      2.3695      2.8015      3.3466      4.0291    
  4.8776      5.9231      7.1949      8.7158      10.500      12.555      14.891      17.527      20.493      23.827    
  27.560      31.698      36.243      41.119      46.097      50.823      54.877      57.853      59.429      59.430    
  57.856      54.883      50.830      46.106      41.131      36.258      24.408      21.433      18.680      16.158    
  13.859      11.786      9.9381      8.3160      6.9213      5.7431      4.7652      3.9628      3.3106      2.7843    
  2.3628      2.0283      1.7673      1.5709      1.4338      1.3529      1.3264      1.3537      1.4353      1.5732    
  1.7704      2.0321      2.3672      2.7893      3.3160      3.9683      4.7704      5.7479      6.9249      8.3189    
  9.9387      11.785      13.857      16.152      18.674      21.426      24.398      27.560      30.845      34.159    
  37.354      40.217      42.500      43.977      44.489      43.979      42.504      40.223      37.362      34.167    
  30.852      27.567      19.081      16.835      14.715      12.741      10.932      9.2979      7.8490      6.5915    
  5.5186      4.6191      3.8726      3.2592      2.7585      2.3531      2.0276      1.7697      1.5709      1.4259    
  1.3316      1.2855      1.2859      1.3330      1.4282      1.5741      1.7739      2.0326      2.3589      2.7650    
  3.2661      3.8801      4.6264      5.5260      6.5977      7.8548      9.3017      10.935      12.743      14.714    
  16.833      19.079      21.426      23.827      26.217      28.499      30.558      32.268      33.500      34.147    
  34.148      33.502      32.270      30.560      28.502      26.222      23.833      21.429      15.013      13.253    
  11.582      10.027      8.6049      7.3330      6.2179      5.2570      4.4427      3.7592      3.1912      2.7223    
  2.3386      2.0271      1.7774      1.5812      1.4338      1.3316      1.2720      1.2528      1.2731      1.3337    
  1.4370      1.5856      1.7827      2.0335      2.3459      2.7304      3.1999      3.7684      4.4519      5.2665    
  6.2266      7.3414      8.6125      10.033      11.587      13.256      15.015      16.833      18.674      20.493    
  22.230      23.815      25.167      26.205      26.859      27.083      26.859      26.205      25.169      23.818    
  22.232      20.493      18.674      16.832      11.808      10.416      9.0999      7.8841      6.7868      5.8142    
  4.9678      4.2427      3.6270      3.1099      2.6783      2.3215      2.0287      1.7915      1.6027      1.4577    
  1.3529      1.2855      1.2528      1.2535      1.2873      1.3560      1.4620      1.6082      1.7981      2.0365    
  2.3303      2.6883      3.1206      3.6385      4.2542      4.9798      5.8256      6.7974      7.8947      9.1089    
  10.423      11.815      13.256      14.714      16.152      17.527      18.792      19.893      20.779      21.400    
  21.721      21.721      21.400      20.777      19.891      18.789      17.525      16.150      14.711      13.251    
  9.2715      8.1782      7.1583      6.2278      5.3944      4.6624      4.0276      3.4825      3.0201      2.6301    
  2.3044      2.0345      1.8140      1.6369      1.4990      1.3965      1.3264      1.2859      1.2731      1.2873    
  1.3292      1.4007      1.5045      1.6438      1.8221      2.0439      2.3148      2.6416      3.0324      3.4958    
  4.0410      4.6764      5.4086      6.2410      7.1713      8.1903      9.2820      10.423      11.587      12.743    
  13.857      14.891      15.809      16.574      17.149      17.507      17.628      17.506      17.148      16.572    
  15.807      14.888      13.851      12.736      11.579      10.414      7.2872      6.4479      5.6733      4.9728    
  4.3508      3.8045      3.3310      2.9254      2.5803      2.2900      2.0474      1.8479      1.6867      1.5602    
  1.4647      1.3969      1.3537      1.3330      1.3337      1.3560      1.4007      1.4700      1.5669      1.6950    
  1.8576      2.0586      2.3022      2.5939      2.9397      3.3463      3.8200      4.3663      4.9889      5.6888    
  6.4627      7.3015      8.1903      9.1089      10.033      10.935      11.785      12.555      13.215      13.738    
  14.100      14.285      14.285      14.098      13.734      13.210      12.548      11.777      10.926      10.023    
  9.0975      8.1772      5.7699      5.1379      4.5604      4.0415      3.5810      3.1790      2.8315      2.5339    
  2.2823      2.0710      1.8967      1.7554      1.6444      1.5603      1.4995      1.4586      1.4353      1.4282    
  1.4370      1.4620      1.5045      1.5669      1.6527      1.7651      1.9078      2.0836      2.2959      2.5489    
  2.8473      3.1959      3.5987      4.0589      4.5781      5.1553      5.7864      6.4627      7.1713      7.8947    
  8.6125      9.3017      9.9387      10.500      10.963      11.309      11.524      11.596      11.522      11.306    
  10.958      10.493      9.9308      9.2922      8.6006      7.8813      7.1566      6.4472      4.6329      4.1668    
  3.7433      3.3649      3.0323      2.7426      2.4941      2.2839      2.1077      1.9630      1.8463      1.7554    
  1.6869      1.6375      1.6037      1.5828      1.5732      1.5741      1.5856      1.6082      1.6438      1.6950    
  1.7651      1.8578      1.9759      2.1222      2.2995      2.5110      2.7601      3.0503      3.3838      3.7624    
  4.1856      4.6516      5.1553      5.6888      6.2410      6.7974      7.3414      7.8548      8.3189      8.7158    
  9.0295      9.2464      9.3567      9.3556      9.2429      9.0241      8.7084      8.3097      7.8438      7.3288    
  6.7838      6.2258      5.6722      5.1374      3.7993      3.4631      3.1613      2.8951      2.6633      2.4659    
  2.2996      2.1619      2.0509      1.9631      1.8967      1.8481      1.8144      1.7922      1.7788      1.7719    
  1.7704      1.7739      1.7827      1.7981      1.8221      1.8576      1.9078      1.9759      2.0650      2.1776    
  2.3165      2.4839      2.6826      2.9145      3.1813      3.4832      3.8190      4.1856      4.5781      4.9889    
  5.4086      5.8256      6.2266      6.5977      6.9249      7.1949      7.3963      7.5205      7.5619      7.5184    
  7.3922      7.1885      6.9165      6.5874      6.2144      5.8115      5.3924      4.9714      4.5596      4.1665    
  3.2058      2.9752      2.7725      2.5983      2.4523      2.3315      2.2353      2.1617      2.1075      2.0707    
  2.0474      2.0348      2.0293      2.0284      2.0295      2.0310      2.0321      2.0326      2.0335      2.0365    
  2.0439      2.0586      2.0836      2.1222      2.1776      2.2528      2.3499      2.4712      2.6184      2.7931    
  2.9959      3.2266      3.4832      3.7624      4.0589      4.3663      4.6764      4.9798      5.2665      5.5260    
  5.7479      5.9231      6.0438      6.1050      6.1036      6.0402      5.9170      5.7397      5.5154      5.2540    
  4.9654      4.6604      4.3493      4.0405      3.7428      3.4628      2.8100      2.6679      2.5498      2.4551    
  2.3824      2.3315      2.2994      2.2837      2.2820      2.2898      2.3044      2.3218      2.3394      2.3544    
  2.3650      2.3695      2.3672      2.3589      2.3459      2.3303      2.3148      2.3022      2.2959      2.2995    
  2.3165      2.3499      2.4023      2.4754      2.5706      2.6891      2.8311      2.9959      3.1813      3.3838    
  3.5987      3.8200      4.0410      4.2542      4.4519      4.6264      4.7704      4.8776      4.9432      4.9646    
  4.9409      4.8729      4.7635      4.6172      4.4407      4.2409      4.0259      3.8032      3.5800      3.3642    
  3.1610      2.9751      2.5833      2.5198      2.4772      2.4550      2.4521      2.4654      2.4936      2.5332    
  2.5797      2.6295      2.6781      2.7224      2.7592      2.7859      2.8003      2.8015      2.7893      2.7650    
  2.7304      2.6883      2.6416      2.5939      2.5489      2.5110      2.4839      2.4712      2.4754      2.4982    
  2.5411      2.6048      2.6891      2.7931      2.9145      3.0503      3.1959      3.3463      3.4958      3.6385    
  3.7684      3.8801      3.9683      4.0291      4.0596      4.0584      4.0254      3.9622      3.8716      3.7578    
  3.6256      3.4812      3.3299      3.1780      3.0316      2.8946      2.7723      2.6678      2.5097      2.5197    
  2.5497      2.5981      2.6629      2.7420      2.8308      2.9247      3.0193      3.1093      3.1908      3.2592    
  3.3113      3.3441      3.3562      3.3466      3.3160      3.2661      3.1999      3.1206      3.0324      2.9397    
  2.8473      2.7601      2.6826      2.6184      2.5706      2.5411      2.5311      2.5411      2.5706      2.6184    
  2.6826      2.7601      2.8473      2.9397      3.0324      3.1206      3.1999      3.2661      3.3160      3.3466    
  3.3562      3.3441      3.3113      3.2592      3.1908      3.1093      3.0193      2.9247      2.8308      2.7420    
  2.6629      2.5981      2.5497      2.5197      2.5833      2.6678      2.7723      2.8946      3.0316      3.1780    
  3.3299      3.4812      3.6256      3.7578      3.8716      3.9622      4.0254      4.0584      4.0596      4.0291    
  3.9683      3.8801      3.7684      3.6385      3.4958      3.3463      3.1959      3.0503      2.9145      2.7931    
  2.6891      2.6048      2.5411      2.4982      2.4754      2.4712      2.4839      2.5110      2.5489      2.5939    
  2.6416      2.6883      2.7304      2.7650      2.7893      2.8015      2.8003      2.7859      2.7592      2.7224    
  2.6781      2.6295      2.5797      2.5332      2.4936      2.4654      2.4521      2.4550      2.4772      2.5198    
  2.8100      2.9751      3.1610      3.3642      3.5800      3.8032      4.0259      4.2409      4.4407      4.6172    
  4.7635      4.8729      4.9409      4.9646      4.9432      4.8776      4.7704      4.6264      4.4519      4.2542    
  4.0410      3.8200      3.5987      3.3838      3.1813      2.9959      2.8311      2.6891      2.5706      2.4754    
  2.4023      2.3499      2.3165      2.2995      2.2959      2.3022      2.3148      2.3303      2.3459      2.3589    
  2.3672      2.3695      2.3650      2.3544      2.3394      2.3218      2.3044      2.2898      2.2820      2.2837    
  2.2994      2.3315      2.3824      2.4551      2.5498      2.6679      3.2058      3.4628      3.7428      4.0405    
  4.3493      4.6604      4.9654      5.2540      5.5154      5.7397      5.9170      6.0402      6.1036      6.1050    
  6.0438      5.9231      5.7479      5.5260      5.2665      4.9798      4.6764      4.3663      4.0589      3.7624    
  3.4832      3.2266      2.9959      2.7931      2.6184      2.4712      2.3499      2.2528      2.1776      2.1222    
  2.0836      2.0586      2.0439      2.0365      2.0335      2.0326      2.0321      2.0310      2.0295      2.0284    
  2.0293      2.0348      2.0474      2.0707      2.1075      2.1617      2.2353      2.3315      2.4523      2.5983    
  2.7725      2.9752      3.7993      4.1665      4.5596      4.9714      5.3924      5.8115      6.2144      6.5874    
  6.9165      7.1885      7.3922      7.5184      7.5619      7.5205      7.3963      7.1949      6.9249      6.5977    
  6.2266      5.8256      5.4086      4.9889      4.5781      4.1856      3.8190      3.4832      3.1813      2.9145    
  2.6826      2.4839      2.3165      2.1776      2.0650      1.9759      1.9078      1.8576      1.8221      1.7981    
  1.7827      1.7739      1.7704      1.7719      1.7788      1.7922      1.8144      1.8481      1.8967      1.9631    
  2.0509      2.1619      2.2996      2.4659      2.6633      2.8951      3.1613      3.4631      4.6329      5.1374    
  5.6722      6.2258      6.7838      7.3288      7.8438      8.3097      8.7084      9.0241      9.2429      9.3556    
  9.3567      9.2464      9.0295      8.7158      8.3189      7.8548      7.3414      6.7974      6.2410      5.6888    
  5.1553      4.6516      4.1856      3.7624      3.3838      3.0503      2.7601      2.5110      2.2995      2.1222    
  1.9759      1.8578      1.7651      1.6950      1.6438      1.6082      1.5856      1.5741      1.5732      1.5828    
  1.6037      1.6375      1.6869      1.7554      1.8463      1.9630      2.1077      2.2839      2.4941      2.7426    
  3.0323      3.3649      3.7433      4.1668      5.7699      6.4472      7.1566      7.8813      8.6006      9.2922    
  9.9308      10.493      10.958      11.306      11.522      11.596      11.524      11.309      10.963      10.500    
  9.9387      9.3017      8.6125      7.8947      7.1713      6.4627      5.7864      5.1553      4.5781      4.0589    
  3.5987      3.1959      2.8473      2.5489      2.2959      2.0836      1.9078      1.7651      1.6527      1.5669    
  1.5045      1.4620      1.4370      1.4282      1.4353      1.4586      1.4995      1.5603      1.6444      1.7554    
  1.8967      2.0710      2.2823      2.5339      2.8315      3.1790      3.5810      4.0415      4.5604      5.1379    
  7.2872      8.1772      9.0975      10.023      10.926      11.777      12.548      13.210      13.734      14.098    
  14.285      14.285      14.100      13.738      13.215      12.555      11.785      10.935      10.033      9.1089    
  8.1903      7.3015      6.4627      5.6888      4.9889      4.3663      3.8200      3.3463      2.9397      2.5939    
  2.3022      2.0586      1.8576      1.6950      1.5669      1.4700      1.4007      1.3560      1.3337      1.3330    
  1.3537      1.3969      1.4647      1.5602      1.6867      1.8479      2.0474      2.2900      2.5803      2.9254    
  3.3310      3.8045      4.3508      4.9728      5.6733      6.4479      9.2715      10.414      11.579      12.736    
  13.851      14.888      15.807      16.572      17.148      17.506      17.628      17.507      17.149      16.574    
  15.809      14.891      13.857      12.743      11.587      10.423      9.2820      8.1903      7.1713      6.2410    
  5.4086      4.6764      4.0410      3.4958      3.0324      2.6416      2.3148      2.0439      1.8221      1.6438    
  1.5045      1.4007      1.3292      1.2873      1.2731      1.2859      1.3264      1.3965      1.4990      1.6369    
  1.8140      2.0345      2.3044      2.6301      3.0201      3.4825      4.0276      4.6624      5.3944      6.2278    
  7.1583      8.1782      11.808      13.251      14.711      16.150      17.525      18.789      19.891      20.777    
  21.400      21.721      21.721      21.400      20.779      19.893      18.792      17.527      16.152      14.714    
  13.256      11.815      10.423      9.1089      7.8947      6.7974      5.8256      4.9798      4.2542      3.6385    
  3.1206      2.6883      2.3303      2.0365      1.7981      1.6082      1.4620      1.3560      1.2873      1.2535    
  1.2528      1.2855      1.3529      1.4577      1.6027      1.7915      2.0287      2.3215      2.6783      3.1099    
  3.6270      4.2427      4.9678      5.8142      6.7868      7.8841      9.0999      10.416      15.013      16.832    
  18.674      20.493      22.232      23.818      25.169      26.205      26.859      27.083      26.859      26.205    
  25.167      23.815      22.230      20.493      18.674      16.833      15.015      13.256      11.587      10.033    
  8.6125      7.3414      6.2266      5.2665      4.4519      3.7684      3.1999      2.7304      2.3459      2.0335    
  1.7827      1.5856      1.4370      1.3337      1.2731      1.2528      1.2720      1.3316      1.4338      1.5812    
  1.7774      2.0271      2.3386      2.7223      3.1912      3.7592      4.4427      5.2570      6.2179      7.3330    
  8.6049      10.027      11.582      13.253      19.081      21.429      23.833      26.222      28.502      30.560    
  32.270      33.502      34.148      34.147      33.500      32.268      30.558      28.499      26.217      23.827    
  21.426      19.079      16.833      14.714      12.743      10.935      9.3017      7.8548      6.5977      5.5260    
  4.6264      3.8801      3.2661      2.7650      2.3589      2.0326      1.7739      1.5741      1.4282      1.3330    
  1.2859      1.2855      1.3316      1.4259      1.5709      1.7697      2.0276      2.3531      2.7585      3.2592    
  3.8726      4.6191      5.5186      6.5915      7.8490      9.2979      10.932      12.741      14.715      16.835    
  24.408      27.567      30.852      34.167      37.362      40.223      42.504      43.979      44.489      43.977    
  42.500      40.217      37.354      34.159      30.845      27.560      24.398      21.426      18.674      16.152    
  13.857      11.785      9.9387      8.3189      6.9249      5.7479      4.7704      3.9683      3.3160      2.7893    
  2.3672      2.0321      1.7704      1.5732      1.4353      1.3537      1.3264      1.3529      1.4338      1.5709    
  1.7673      2.0283      2.3628      2.7843      3.3106      3.9628      4.7652      5.7431      6.9213      8.3160    
  9.9381      11.786      13.859      16.158      18.680      21.433      31.711      36.258      41.131      46.106    
  50.830      54.883      57.856      59.430      59.429      57.853      54.877      50.823      46.097      41.119    
  36.243      31.698      27.560      23.827      20.493      17.527      14.891      12.555      10.500      8.7158    
  7.1949      5.9231      4.8776      4.0291      3.3466      2.8015      2.3695      2.0310      1.7719      1.5828    
  1.4586      1.3969      1.3965      1.4577      1.5812      1.7697      2.0283      2.3662      2.7978      3.3428    
  4.0253      4.8742      5.9203      7.1934      8.7155      10.502      12.559      14.899      17.536      20.503    
  23.842      27.572      42.538      49.598      57.116      64.558      71.278      76.633      80.081      81.271    
  80.079      76.627      71.270      64.546      57.103      49.584      42.521      36.243      30.845      26.217    
  22.230      18.792      15.809      13.215      10.963      9.0295      7.3963      6.0438      4.9432      4.0596    
  3.3562      2.8003      2.3650      2.0295      1.7788      1.6037      1.4995      1.4647      1.4990      1.6027    
  1.7774      2.0276      2.3628      2.7978      3.3537      4.0572      4.9415      6.0429      7.3971      9.0318    
  10.968      13.222      15.821      18.804      22.247      26.235      30.862      36.264      59.471      70.287    
  81.301      91.598      100.25      106.48      109.73      109.73      106.48      100.25      91.589      81.289    
  70.270      59.451      49.584      41.119      34.159      28.499      23.815      19.893      16.574      13.738    
  11.309      9.2464      7.5205      6.1050      4.9646      4.0584      3.3441      2.7859      2.3544      2.0284    
  1.7922      1.6375      1.5603      1.5602      1.6369      1.7915      2.0271      2.3531      2.7843      3.3428    