Og_FCC                                  
   1.01243666513128     
     4.342346    0.000000    0.000000
     2.171173    3.760582   -0.000000
     2.171173    1.253527    3.545511
   Og
     1
Direct
  0.000000  0.000000  0.000000
 
   56   56   56
 0.21520353504E+03 0.21206863208E+03 0.20638163158E+03 0.20611088144E+03 0.21646751702E+03
 0.23476393416E+03 0.25109612070E+03 0.25421303057E+03 0.23806449847E+03 0.20470155921E+03
 0.16222500817E+03 0.12009304666E+03 0.85015843491E+02 0.59471340160E+02 0.42537877221E+02
 0.31710583566E+02 0.24408079333E+02 0.19081231071E+02 0.15013358850E+02 0.11808144061E+02
 0.92715294459E+01 0.72872155592E+01 0.57698850819E+01 0.46329266043E+01 0.37992763919E+01
 0.32058095951E+01 0.28100211707E+01 0.25832562143E+01 0.25096726843E+01 0.25832562113E+01
 0.28100211667E+01 0.32058095928E+01 0.37992763940E+01 0.46329266120E+01 0.57698850947E+01
 0.72872155749E+01 0.92715294617E+01 0.11808144075E+02 0.15013358861E+02 0.19081231080E+02
 0.24408079342E+02 0.31710583577E+02 0.42537877232E+02 0.59471340166E+02 0.85015843482E+02
 0.12009304662E+03 0.16222500808E+03 0.20470155907E+03 0.23806449826E+03 0.25421303032E+03
 0.25109612043E+03 0.23476393391E+03 0.21646751682E+03 0.20611088131E+03 0.20638163151E+03
 0.21206863205E+03 0.21206863206E+03 0.20771428576E+03 0.20512006983E+03 0.21108405609E+03
 0.22668347656E+03 0.24505340155E+03 0.25503032806E+03 0.24777134531E+03 0.22162384858E+03
 0.18229345206E+03 0.13909396291E+03 0.10028140980E+03 0.70294261337E+02 0.49605396386E+02
 0.36263888359E+02 0.27572036172E+02 0.21433167097E+02 0.16834945123E+02 0.13252769194E+02
 0.10415664933E+02 0.81782479218E+01 0.64478828314E+01 0.51378654994E+01 0.41668214876E+01
 0.34630744967E+01 0.29752079351E+01 0.26679200658E+01 0.25197550575E+01 0.25197494778E+01
 0.26678058940E+01 0.29750737434E+01 0.34628115475E+01 0.41665015444E+01 0.51373507694E+01
 0.64472061445E+01 0.81772193859E+01 0.10414263321E+02 0.13250739741E+02 0.16832219966E+02
 0.21429453680E+02 0.27567307692E+02 0.36257926627E+02 0.49598380866E+02 0.70286522103E+02
 0.10027384314E+03 0.13908709848E+03 0.18228863067E+03 0.22162104648E+03 0.24777196996E+03
 0.25503261394E+03 0.24505873220E+03 0.22668927215E+03 0.21109007030E+03 0.20512565527E+03
 0.20771728660E+03 0.21206925771E+03 0.20638163155E+03 0.20512006982E+03 0.20954824511E+03
 0.22252262172E+03 0.24026369906E+03 0.25344071732E+03 0.25246076033E+03 0.23299687671E+03
 0.19805265758E+03 0.15572468791E+03 0.11482933461E+03 0.81316311388E+02 0.57130666491E+02
 0.41143149084E+02 0.30862038754E+02 0.23841661117E+02 0.18679828400E+02 0.14715335016E+02
 0.11582395576E+02 0.90998805605E+01 0.71582988784E+01 0.56733117297E+01 0.45604021459E+01
 0.37433330631E+01 0.31613460272E+01 0.27725376859E+01 0.25497741043E+01 0.24772095644E+01
 0.25496577680E+01 0.27723019843E+01 0.31609601653E+01 0.37427792795E+01 0.45595934760E+01
 0.56721754810E+01 0.71566453594E+01 0.90975465021E+01 0.11579062480E+02 0.14710748096E+02
 0.18673569835E+02 0.23833489443E+02 0.30851570907E+02 0.41130537581E+02 0.57116389809E+02
 0.81301308107E+02 0.11481495270E+03 0.15571286177E+03 0.19804515181E+03 0.23299435978E+03
 0.25246398749E+03 0.25344773171E+03 0.24027424480E+03 0.22253389973E+03 0.20955826788E+03
 0.20512846564E+03 0.20638682406E+03 0.20771728662E+03 0.20611088146E+03 0.21108405615E+03
 0.22252262178E+03 0.23849978714E+03 0.25198708436E+03 0.25421234742E+03 0.23964544291E+03
 0.20906357078E+03 0.16883976700E+03 0.12743216854E+03 0.91619071052E+02 0.64579287803E+02
 0.46125025629E+02 0.34183749622E+02 0.26235129185E+02 0.20503478059E+02 0.16157544640E+02
 0.12741443531E+02 0.10027122650E+02 0.78841109326E+01 0.62278188033E+01 0.49727505700E+01
 0.40414985347E+01 0.33648577508E+01 0.28950774109E+01 0.25983207187E+01 0.24551065739E+01
 0.24549822571E+01 0.25981163680E+01 0.28945980451E+01 0.33642389059E+01 0.40404979537E+01
 0.49714198590E+01 0.62258037827E+01 0.78813172684E+01 0.10023045867E+02 0.12735827766E+02
 0.16149754454E+02 0.20493192413E+02 0.26221809231E+02 0.34167253987E+02 0.46105534014E+02
 0.64557822740E+02 0.91597599625E+02 0.12741322985E+03 0.16882554260E+03 0.20905603789E+03
 0.23964490141E+03 0.25421893274E+03 0.25199845603E+03 0.23851501395E+03 0.22253774427E+03
 0.21109761733E+03 0.20611931814E+03 0.20512846571E+03 0.20512565537E+03 0.21646751720E+03
 0.22668347678E+03 0.24026369928E+03 0.25198708450E+03 0.25460390718E+03 0.24262319976E+03
 0.21545723513E+03 0.17778405649E+03 0.13709334479E+03 0.10027728663E+03 0.71305244020E+02
 0.50855579133E+02 0.37384532726E+02 0.28520186382E+02 0.22246880782E+02 0.17536416093E+02
 0.13859089178E+02 0.10932209526E+02 0.86048752051E+01 0.67867899440E+01 0.53944203865E+01
 0.43507636222E+01 0.35809909336E+01 0.30322771033E+01 0.26632648239E+01 0.24522710399E+01
 0.23824293646E+01 0.24520722944E+01 0.26628518392E+01 0.30316099129E+01 0.35800089425E+01
 0.43493419518E+01 0.53923758456E+01 0.67838265007E+01 0.86006265726E+01 0.10926182790E+02
 0.13850751375E+02 0.17525150663E+02 0.22232120459E+02 0.28501577070E+02 0.37362151882E+02
 0.50829943208E+02 0.71278171666E+02 0.10025110196E+03 0.13707137076E+03 0.17776874449E+03
 0.21545069774E+03 0.24262529133E+03 0.25461321764E+03 0.25200196473E+03 0.24028023917E+03
 0.22669989440E+03 0.21648100052E+03 0.21109761749E+03 0.20955826813E+03 0.21109007062E+03
 0.23476393463E+03 0.24505340204E+03 0.25344071778E+03 0.25421234779E+03 0.24262319998E+03
 0.21754055973E+03 0.18228924706E+03 0.14313550327E+03 0.10650774302E+03 0.76663873542E+02
 0.54913585850E+02 0.40250713030E+02 0.30583755740E+02 0.23836881497E+02 0.18804049886E+02
 0.14898643514E+02 0.11785724712E+02 0.92978941327E+01 0.73329724302E+01 0.58142319595E+01
 0.46623579891E+01 0.38044831221E+01 0.31790242293E+01 0.27425577191E+01 0.24658579175E+01
 0.23315411884E+01 0.23315094359E+01 0.24654485281E+01 0.27420436688E+01 0.31780433369E+01
 0.38032379468E+01 0.46603627048E+01 0.58115170050E+01 0.73288350518E+01 0.92921519546E+01
 0.11777460065E+02 0.14887528622E+02 0.18789119140E+02 0.23817866954E+02 0.30559992390E+02
 0.40222958961E+02 0.54882647126E+02 0.76632623176E+02 0.10647855971E+03 0.14311260348E+03
 0.18227395703E+03 0.21753504330E+03 0.24262657201E+03 0.25422312749E+03 0.25345674673E+03
 0.24507140497E+03 0.23477922254E+03 0.22669989470E+03 0.22253774475E+03 0.22253390033E+03
 0.22668927283E+03 0.25109612157E+03 0.25503032891E+03 0.25246076112E+03 0.23964544359E+03
 0.21545723566E+03 0.18228924736E+03 0.14518754294E+03 0.10976240659E+03 0.80115488457E+02
 0.57891056515E+02 0.42535769314E+02 0.32297981959E+02 0.25191478454E+02 0.19909310506E+02
 0.15820773648E+02 0.12558808195E+02 0.99381374485E+01 0.78490181694E+01 0.62179439317E+01
 0.49678451152E+01 0.40275590799E+01 0.33309964950E+01 0.28315228680E+01 0.24941089029E+01
 0.22996356320E+01 0.22353494048E+01 0.22994197048E+01 0.24936442787E+01 0.28307820777E+01
 0.33298654416E+01 0.40259291320E+01 0.49654140891E+01 0.62144092011E+01 0.78438058862E+01
 0.99307520312E+01 0.12548442716E+02 0.15806847057E+02 0.19891042448E+02 0.25168640429E+02
 0.32270138527E+02 0.42503839045E+02 0.57856198525E+02 0.80081397302E+02 0.10973139838E+03
 0.14516370689E+03 0.18227398988E+03 0.21545165754E+03 0.23964914755E+03 0.25247083566E+03
 0.25504443522E+03 0.25111167467E+03 0.24507140541E+03 0.24028023992E+03 0.23851501490E+03
 0.24027424586E+03 0.24505873332E+03 0.25421303190E+03 0.24777134659E+03 0.23299687790E+03
 0.20906357185E+03 0.17778405738E+03 0.14313550391E+03 0.10976240692E+03 0.81306860707E+02
 0.59467178782E+02 0.44013671409E+02 0.33532963352E+02 0.26231297596E+02 0.20798638665E+02
 0.16587935610E+02 0.13221853165E+02 0.10502147201E+02 0.83160442178E+01 0.65915048062E+01
 0.52569953187E+01 0.42427014917E+01 0.34825381477E+01 0.29254311729E+01 0.25338721765E+01
 0.22839446081E+01 0.21619089864E+01 0.21617136931E+01 0.22837400944E+01 0.25332272876E+01
 0.29246772876E+01 0.34811578306E+01 0.42408978750E+01 0.52540338624E+01 0.65873576577E+01
 0.83096987078E+01 0.10493395110E+02 0.13209510902E+02 0.16571737240E+02 0.20777413300E+02
 0.26205415041E+02 0.33501817272E+02 0.43979006888E+02 0.59429929759E+02 0.81270989863E+02
 0.10973005049E+03 0.14311069542E+03 0.17776829395E+03 0.20905664047E+03 0.23299919591E+03
 0.24778007628E+03 0.25422383681E+03 0.25504443580E+03 0.25345674775E+03 0.25200196606E+03
 0.25199845755E+03 0.25344773332E+03 0.25503261557E+03 0.23806450032E+03 0.22162385035E+03
 0.19805265924E+03 0.16883976850E+03 0.13709334607E+03 0.10650774400E+03 0.80115489098E+02
 0.59467179074E+02 0.44525549720E+02 0.34180988424E+02 0.26887067485E+02 0.21422925908E+02
 0.17165569493E+02 0.13747319613E+02 0.10968287851E+02 0.87155362882E+01 0.69212947383E+01
 0.55186471426E+01 0.44427458476E+01 0.36269749857E+01 0.30201449190E+01 0.25802730893E+01
 0.22822779239E+01 0.21077051226E+01 0.20508682506E+01 0.21075479342E+01 0.22819589889E+01
 0.25797016821E+01 0.30192952186E+01 0.36256078935E+01 0.44407141878E+01 0.55154280734E+01
 0.69165468342E+01 0.87084201380E+01 0.10958339417E+02 0.13733567380E+02 0.17147720405E+02
 0.21399892284E+02 0.26859262171E+02 0.34147871129E+02 0.44489228865E+02 0.59428622005E+02
 0.80078988574E+02 0.10647529387E+03 0.13706739274E+03 0.16882323507E+03 0.19804381015E+03
 0.22162323995E+03 0.23807041732E+03 0.24778007698E+03 0.25247083693E+03 0.25422312919E+03
 0.25461321964E+03 0.25421893489E+03 0.25246398968E+03 0.24777197212E+03 0.20470156163E+03
 0.18229345436E+03 0.15572469005E+03 0.12743217047E+03 0.10027728826E+03 0.76663874809E+02
 0.57891057382E+02 0.44013671900E+02 0.34180988617E+02 0.27111084006E+02 0.21745520756E+02
 0.17524859701E+02 0.14112524824E+02 0.11316668089E+02 0.90317738487E+01 0.71934149164E+01
 0.57431239663E+01 0.46191192407E+01 0.37591916709E+01 0.31099341291E+01 0.26300672828E+01
 0.22899823769E+01 0.20709836211E+01 0.19630414555E+01 0.19631249309E+01 0.20707259600E+01
 0.22898464019E+01 0.26294830666E+01 0.31093020819E+01 0.37577921587E+01 0.46171934951E+01
 0.57396697020E+01 0.71884875762E+01 0.90240981880E+01 0.11306177268E+02 0.14097758180E+02
 0.17506146713E+02 0.21721428127E+02 0.27082719310E+02 0.34147292750E+02 0.43977323220E+02
 0.57852698873E+02 0.76627053597E+02 0.10024540611E+03 0.12740609140E+03 0.15570816106E+03
 0.18228459541E+03 0.20469885152E+03 0.22162324073E+03 0.23299919738E+03 0.23964914958E+03
 0.24262657445E+03 0.24262529402E+03 0.23964490420E+03 0.23299436255E+03 0.22162104917E+03
 0.16222501113E+03 0.13909396569E+03 0.11482933717E+03 0.91619073303E+02 0.71305245882E+02
 0.54913587267E+02 0.42535770282E+02 0.33532963928E+02 0.26887067767E+02 0.21745520852E+02
 0.17646968255E+02 0.14299432737E+02 0.11532502279E+02 0.92506002534E+01 0.73970961978E+01
 0.59202553660E+01 0.47652429119E+01 0.38726455794E+01 0.31911965301E+01 0.26783343782E+01
 0.23044231830E+01 0.20474298796E+01 0.18966717730E+01 0.18463451153E+01 0.18966889665E+01
 0.20473983224E+01 0.23043843115E+01 0.26780714492E+01 0.31907539491E+01 0.38715590645E+01
 0.47634764758E+01 0.59169808204E+01 0.73921842224E+01 0.92429319488E+01 0.11522036849E+02
 0.14284660975E+02 0.17628301000E+02 0.21721459329E+02 0.26859034963E+02 0.33500052139E+02
 0.42500369817E+02 0.54877387856E+02 0.71269870401E+02 0.91589388653E+02 0.11480409061E+03
 0.13907636617E+03 0.16221530209E+03 0.18228459624E+03 0.19804381175E+03 0.20905664274E+03
 0.21545166035E+03 0.21753504648E+03 0.21545070111E+03 0.20905604129E+03 0.19804515516E+03
 0.18228863388E+03 0.12009305008E+03 0.10028141296E+03 0.81316314211E+02 0.64579290210E+02
 0.50855581056E+02 0.40250714447E+02 0.32297982906E+02 0.26231298158E+02 0.21422926197E+02
 0.17524859823E+02 0.14299432774E+02 0.11605665504E+02 0.93627606596E+01 0.75229450323E+01
 0.60428878750E+01 0.48742089965E+01 0.39628189834E+01 0.32591934060E+01 0.27222707292E+01
 0.23214897175E+01 0.20345285316E+01 0.18479127536E+01 0.17553793341E+01 0.17554362503E+01
 0.18480798052E+01 0.20347652130E+01 0.23217574775E+01 0.27224390076E+01 0.32591523404E+01
 0.39622386328E+01 0.48728570793E+01 0.60401541214E+01 0.75184308656E+01 0.93555783598E+01
 0.11595617508E+02 0.14285456396E+02 0.17507073862E+02 0.21400414185E+02 0.26204675530E+02
 0.32267839469E+02 0.40216951617E+02 0.50823251507E+02 0.64546139311E+02 0.81289441880E+02
 0.10025968916E+03 0.12007699735E+03 0.13907636701E+03 0.15570816272E+03 0.16882323749E+03
 0.17776829701E+03 0.18227399343E+03 0.18227396088E+03 0.17776874847E+03 0.16882554657E+03
 0.15571286561E+03 0.13908710215E+03 0.85015847168E+02 0.70294264653E+02 0.57130669367E+02
 0.46125027995E+02 0.37384534548E+02 0.30583757035E+02 0.25191479295E+02 0.20798639156E+02
 0.17165569748E+02 0.14112524942E+02 0.11532502330E+02 0.93627606799E+01 0.75653910257E+01
 0.61055765874E+01 0.49414849933E+01 0.40253174115E+01 0.33106444275E+01 0.27584884033E+01
 0.23385867854E+01 0.20287002323E+01 0.18139592096E+01 0.16866723021E+01 0.16444280184E+01
 0.16868994125E+01 0.18144252984E+01 0.20293110852E+01 0.23393642990E+01 0.27592013483E+01
 0.33112761307E+01 0.40254041831E+01 0.49409050486E+01 0.61036485089E+01 0.75618969606E+01
 0.93566665135E+01 0.11523640342E+02 0.14099955487E+02 0.17149262457E+02 0.20778562281E+02
 0.25166976151E+02 0.30557877529E+02 0.37354296052E+02 0.46097158511E+02 0.57102851009E+02
 0.70269654311E+02 0.84996936569E+02 0.10025968998E+03 0.11480409225E+03 0.12740609384E+03
 0.13706739591E+03 0.14311069918E+03 0.14516371107E+03 0.14311260788E+03 0.13707137522E+03
 0.12741323424E+03 0.11481495692E+03 0.10027384712E+03 0.59471343857E+02 0.49605399631E+02
 0.41143151810E+02 0.34183751788E+02 0.28520187993E+02 0.23836882608E+02 0.19909311210E+02
 0.16587936017E+02 0.13747319830E+02 0.11316668203E+02 0.92506003203E+01 0.75229450773E+01
 0.61055766136E+01 0.49643321729E+01 0.40571618421E+01 0.33428208876E+01 0.27842910789E+01
 0.23531469771E+01 0.20271129004E+01 0.17914696021E+01 0.16368628881E+01 0.15602030984E+01
 0.15602585360E+01 0.16375312985E+01 0.17922200466E+01 0.20284159086E+01 0.23544186012E+01
 0.27859282678E+01 0.33441320188E+01 0.40584154735E+01 0.49645866906E+01 0.61049859562E+01
 0.75204643791E+01 0.92463761247E+01 0.11309333872E+02 0.13737542157E+02 0.16573652134E+02
 0.19893273331E+02 0.23815059072E+02 0.28499033398E+02 0.34158550921E+02 0.41119098268E+02
 0.49584091119E+02 0.59450670489E+02 0.70269655060E+02 0.81289443422E+02 0.91589390992E+02
 0.10024540920E+03 0.10647529762E+03 0.10973005475E+03 0.10973140297E+03 0.10647856445E+03
 0.10025110669E+03 0.91597604221E+02 0.81301312477E+02 0.70286526170E+02 0.42537880705E+02
 0.36263891340E+02 0.30862041189E+02 0.26235131066E+02 0.22246882145E+02 0.18804050806E+02
 0.15820774226E+02 0.13221853507E+02 0.10968288052E+02 0.90317739783E+01 0.73970962963E+01
 0.60428879565E+01 0.49414850547E+01 0.40571618751E+01 0.33537208362E+01 0.27978306956E+01
 0.23628146146E+01 0.20275841149E+01 0.17773859901E+01 0.16026804537E+01 0.14990173994E+01
 0.14646796563E+01 0.14995111612E+01 0.16036819988E+01 0.17788203286E+01 0.20294866174E+01
 0.23650133881E+01 0.28003314027E+01 0.33561797009E+01 0.40595811750E+01 0.49432409418E+01
 0.60438491186E+01 0.73963372191E+01 0.90294597408E+01 0.10963005655E+02 0.13214838150E+02
 0.15809426346E+02 0.18791898489E+02 0.22230374945E+02 0.26217288841E+02 0.30844868082E+02
 0.36242923619E+02 0.42521292006E+02 0.49584091787E+02 0.57102852401E+02 0.64546141449E+02
 0.71269873269E+02 0.76627057134E+02 0.80078992668E+02 0.81270994363E+02 0.80081402036E+02
 0.76632627979E+02 0.71278176396E+02 0.64557827284E+02 0.57116394075E+02 0.49598384774E+02
 0.31710586685E+02 0.27572038787E+02 0.23841663209E+02 0.20503479644E+02 0.17536417225E+02
 0.14898644277E+02 0.12558808685E+02 0.10502147513E+02 0.87155365017E+01 0.71934150830E+01
 0.59202555104E+01 0.48742091221E+01 0.40253175109E+01 0.33428209530E+01 0.27978307252E+01
 0.23662120314E+01 0.20282722273E+01 0.17697373794E+01 0.15812392575E+01 0.14576864425E+01
 0.13965406359E+01 0.13968708725E+01 0.14586397516E+01 0.15828342382E+01 0.17719176231E+01
 0.20310278758E+01 0.23694520664E+01 0.28014718047E+01 0.33465959437E+01 0.40290771027E+01
 0.48775958854E+01 0.59230550147E+01 0.71949035849E+01 0.87157637231E+01 0.10499778614E+02
 0.12554968370E+02 0.14891316252E+02 0.17527178800E+02 0.20493375427E+02 0.23827308071E+02
 0.27560179072E+02 0.31698160902E+02 0.36242924202E+02 0.41119099486E+02 0.46097160391E+02
 0.50823254047E+02 0.54877391019E+02 0.57852702582E+02 0.59428626146E+02 0.59429934192E+02
 0.57856203101E+02 0.54882651705E+02 0.50829947670E+02 0.46105538260E+02 0.41130541522E+02
 0.36257930186E+02 0.24408082029E+02 0.21433169328E+02 0.18679830162E+02 0.16157545963E+02
 0.13859090123E+02 0.11785725363E+02 0.99381378924E+01 0.83160445351E+01 0.69212949884E+01
 0.57431241830E+01 0.47652431060E+01 0.39628191503E+01 0.33106445581E+01 0.27842911678E+01
 0.23628146638E+01 0.20282722458E+01 0.17673189298E+01 0.15708667047E+01 0.14337655713E+01
 0.13528714932E+01 0.13264286508E+01 0.13536635780E+01 0.14353356981E+01 0.15732128322E+01
 0.17704046337E+01 0.20320715024E+01 0.23672350201E+01 0.27893113944E+01 0.33159886293E+01
 0.39683158884E+01 0.47704125510E+01 0.57479277633E+01 0.69248615035E+01 0.83188630627E+01
 0.99386592242E+01 0.11785214053E+02 0.13856504871E+02 0.16152035090E+02 0.18674422574E+02
 0.21425563143E+02 0.24397922849E+02 0.27560179575E+02 0.30844869131E+02 0.34158552535E+02
 0.37354298227E+02 0.40216954327E+02 0.42500373012E+02 0.43977326819E+02 0.44489232767E+02
 0.43979010979E+02 0.42503843210E+02 0.40222963091E+02 0.37362155881E+02 0.34167257768E+02
 0.30851574391E+02 0.27567310806E+02 0.19081233358E+02 0.16834947000E+02 0.14715336491E+02
 0.12741444640E+02 0.10932210334E+02 0.92978947153E+01 0.78490186024E+01 0.65915051511E+01
 0.55186474393E+01 0.46191195065E+01 0.38726458141E+01 0.32591936012E+01 0.27584885512E+01
 0.23531470762E+01 0.20275841714E+01 0.17697374051E+01 0.15708667127E+01 0.14259216986E+01
 0.13315702555E+01 0.12854655882E+01 0.12859087006E+01 0.13330053156E+01 0.14282326058E+01
 0.15741477462E+01 0.17738700174E+01 0.20326324324E+01 0.23588740792E+01 0.27649701848E+01
 0.32661373586E+01 0.38800850492E+01 0.46264160876E+01 0.55259865929E+01 0.65976967851E+01
 0.78547997321E+01 0.93017296969E+01 0.10934539429E+02 0.12743093822E+02 0.14714292501E+02
 0.16832742214E+02 0.19079290592E+02 0.21425563576E+02 0.23827308971E+02 0.26217290214E+02
 0.28499035231E+02 0.30557879792E+02 0.32267842121E+02 0.33500055124E+02 0.34147296004E+02
 0.34147874577E+02 0.33501820837E+02 0.32270142129E+02 0.30559995953E+02 0.28501580518E+02
 0.26221812489E+02 0.23833492437E+02 0.21429456342E+02 0.15013360769E+02 0.13252770764E+02
 0.11582396812E+02 0.10027123594E+02 0.86048759175E+01 0.73329729779E+01 0.62179443737E+01
 0.52569956974E+01 0.44427461849E+01 0.37591919712E+01 0.31911967871E+01 0.27222709343E+01
 0.23385869345E+01 0.20271129969E+01 0.17773860443E+01 0.15812392836E+01 0.14337655828E+01
 0.13315702608E+01 0.12720493642E+01 0.12528442251E+01 0.12731360411E+01 0.13337459095E+01
 0.14370190462E+01 0.15855588299E+01 0.17827425503E+01 0.20335323259E+01 0.23458966680E+01
 0.27304071158E+01 0.31998543654E+01 0.37684333351E+01 0.44519310563E+01 0.52665018295E+01
 0.62266145669E+01 0.73414283187E+01 0.86125088224E+01 0.10032698306E+02 0.11587468775E+02
 0.13256363749E+02 0.15014661254E+02 0.16832742582E+02 0.18674423342E+02 0.20493376593E+02
 0.22230376485E+02 0.23815060946E+02 0.25166978314E+02 0.26204677937E+02 0.26859037571E+02
 0.27082722079E+02 0.26859265062E+02 0.26205418014E+02 0.25168643437E+02 0.23817869944E+02
 0.22232123368E+02 0.20493195169E+02 0.18673572365E+02 0.16832222207E+02 0.11808145657E+02
 0.10415666240E+02 0.90998816003E+01 0.78841117487E+01 0.67867905907E+01 0.58142324895E+01
 0.49678455696E+01 0.42427018948E+01 0.36269753453E+01 0.31099344418E+01 0.26783346362E+01
 0.23214899151E+01 0.20287003706E+01 0.17914696894E+01 0.16026805038E+01 0.14576864707E+01
 0.13528715124E+01 0.12854656046E+01 0.12528442375E+01 0.12534883422E+01 0.12872917569E+01
 0.13559815684E+01 0.14619833420E+01 0.16082390073E+01 0.17981048140E+01 0.20365465595E+01
 0.23303422609E+01 0.26883137455E+01 0.31205623297E+01 0.36384954327E+01 0.42541882977E+01
 0.49798230490E+01 0.58255633126E+01 0.67974383066E+01 0.78947171228E+01 0.91088916271E+01
 0.10423417670E+02 0.11815313255E+02 0.13256364053E+02 0.14714293143E+02 0.16152036072E+02
 0.17527180091E+02 0.18791900041E+02 0.19893275090E+02 0.20778564200E+02 0.21400416230E+02
 0.21721461480E+02 0.21721430373E+02 0.21399894620E+02 0.20777415713E+02 0.19891044915E+02
 0.18789121617E+02 0.17525153090E+02 0.16149756760E+02 0.14710750211E+02 0.13250741607E+02
 0.92715307606E+01 0.81782490056E+01 0.71582997581E+01 0.62278195198E+01 0.53944209837E+01
 0.46623585039E+01 0.40275595364E+01 0.34825385559E+01 0.30201452779E+01 0.26300675862E+01
 0.23044234252E+01 0.20345287118E+01 0.18139593341E+01 0.16368629695E+01 0.14990174534E+01
 0.13965406775E+01 0.13264286903E+01 0.12859087410E+01 0.12731360782E+01 0.12872917809E+01
 0.13291939681E+01 0.14006769926E+01 0.15045208028E+01 0.16437656787E+01 0.18221191418E+01
 0.20439280699E+01 0.23148434261E+01 0.26416335169E+01 0.30323812875E+01 0.34958052280E+01
 0.40410062262E+01 0.46763601715E+01 0.54086328223E+01 0.62409736740E+01 0.71712707219E+01
 0.81903447732E+01 0.92819529604E+01 0.10423417908E+02 0.11587469292E+02 0.12743094626E+02
 0.13856505937E+02 0.14891317531E+02 0.15809427780E+02 0.16573653667E+02 0.17149264051E+02
 0.17507075503E+02 0.17628302693E+02 0.17506148475E+02 0.17147722254E+02 0.16571739180E+02
 0.15806849069E+02 0.14887530665E+02 0.13850753387E+02 0.12735829678E+02 0.11579064226E+02
 0.10414264855E+02 0.72872166300E+01 0.64478837270E+01 0.56733124779E+01 0.49727512048E+01
 0.43507641745E+01 0.38044836137E+01 0.33309969364E+01 0.29254315651E+01 0.25802734275E+01
 0.22899826563E+01 0.20474300988E+01 0.18479129173E+01 0.16866724211E+01 0.15602031878E+01
 0.14646797315E+01 0.13968709458E+01 0.13536636552E+01 0.13330053953E+01 0.13337459839E+01
 0.13559816265E+01 0.14006770242E+01 0.14700364458E+01 0.15669492211E+01 0.16949562708E+01
 0.18575600462E+01 0.20585787388E+01 0.23022393113E+01 0.25938974838E+01 0.29396921872E+01
 0.33463162448E+01 0.38200260088E+01 0.43663185432E+01 0.49889083672E+01 0.56888494020E+01
 0.64626999810E+01 0.73015465011E+01 0.81903449444E+01 0.91088920164E+01 0.10032698932E+02
 0.10934540280E+02 0.11785215087E+02 0.12554969530E+02 0.13214839377E+02 0.13737543405E+02
 0.14099956738E+02 0.14285457656E+02 0.14284662271E+02 0.14097759546E+02 0.13733568842E+02
 0.13209512466E+02 0.12548444362E+02 0.11777461747E+02 0.10926184445E+02 0.10023047431E+02
 0.90975479219E+01 0.81772206278E+01 0.57698859461E+01 0.51378662387E+01 0.45604027848E+01
 0.40414990975E+01 0.35809914387E+01 0.31790246861E+01 0.28315232782E+01 0.25338725369E+01
 0.22822782306E+01 0.20709838729E+01 0.18966719739E+01 0.17553794936E+01 0.16444281501E+01
 0.15602586546E+01 0.14995112791E+01 0.14586398760E+01 0.14353358289E+01 0.14282327364E+01
 0.14370191655E+01 0.14619834380E+01 0.15045208666E+01 0.15669492502E+01 0.16526579406E+01
 0.17651382023E+01 0.19077731111E+01 0.20835565910E+01 0.22959320348E+01 0.25489308075E+01
 0.28473498740E+01 0.31958726082E+01 0.35987239476E+01 0.40589240763E+01 0.45780792797E+01
 0.51552857448E+01 0.57863634576E+01 0.64627000893E+01 0.71712709867E+01 0.78947175738E+01
 0.86125094619E+01 0.93017304986E+01 0.99386601404E+01 0.10499779589E+02 0.10963006638E+02
 0.11309334837E+02 0.11523641286E+02 0.11595618457E+02 0.11522037840E+02 0.11306178340E+02
 0.10958340593E+02 0.10493396388E+02 0.99307533829E+01 0.92921533316E+01 0.86006279170E+01
 0.78813185268E+01 0.71566464933E+01 0.64472071359E+01 0.46329272988E+01 0.41668220993E+01
 0.37433336101E+01 0.33648582476E+01 0.30322775575E+01 0.27425581321E+01 0.24941092722E+01
 0.22839449309E+01 0.21077053983E+01 0.19630416881E+01 0.18463453136E+01 0.17554364264E+01
 0.16868995797E+01 0.16375314683E+01 0.16036821780E+01 0.15828344270E+01 0.15732130243E+01
 0.15741479304E+01 0.15855589926E+01 0.16082391364E+01 0.16437657671E+01 0.16949563190E+01
 0.17651382187E+01 0.18578135859E+01 0.19759118733E+01 0.21222098614E+01 0.22994637028E+01
 0.25109705013E+01 0.27601266505E+01 0.30502536364E+01 0.33838294980E+01 0.37623537486E+01
 0.41856453739E+01 0.46515916691E+01 0.51552857986E+01 0.56888495540E+01 0.62409739599E+01
 0.67974387430E+01 0.73414288972E+01 0.78548004211E+01 0.83188638162E+01 0.87157644940E+01
 0.90294604950E+01 0.92463768507E+01 0.93566672246E+01 0.93555790885E+01 0.92429327339E+01
 0.90240990604E+01 0.87084211097E+01 0.83096997663E+01 0.78438069971E+01 0.73288361683E+01
 0.67838275748E+01 0.62258047762E+01 0.56721763721E+01 0.51373515535E+01 0.37992769527E+01
 0.34630750072E+01 0.31613464981E+01 0.28950778477E+01 0.26632652271E+01 0.24658582847E+01
 0.22996359607E+01 0.21619092769E+01 0.20508685073E+01 0.19631251624E+01 0.18966891842E+01
 0.18480800209E+01 0.18144255219E+01 0.17922202833E+01 0.17788205780E+01 0.17719178788E+01
 0.17704048840E+01 0.17738702478E+01 0.17827427461E+01 0.17981049640E+01 0.18221192412E+01
 0.18575600983E+01 0.19077731276E+01 0.19759118720E+01 0.20649990561E+01 0.21776391546E+01
 0.23164590289E+01 0.24839292279E+01 0.26825913372E+01 0.29145429950E+01 0.31813221731E+01
 0.34831895503E+01 0.38190029740E+01 0.41856453862E+01 0.45780793396E+01 0.49889085108E+01
 0.54086330758E+01 0.58255636844E+01 0.62266150443E+01 0.65976973380E+01 0.69248620937E+01
 0.71949041779E+01 0.73963377955E+01 0.75204649396E+01 0.75618975252E+01 0.75184314649E+01
 0.73921848860E+01 0.71884883215E+01 0.69165476595E+01 0.65873585416E+01 0.62144101088E+01
 0.58115178971E+01 0.53923766884E+01 0.49714206308E+01 0.45595941696E+01 0.41665021646E+01
 0.32058100573E+01 0.29752083698E+01 0.27725380967E+01 0.25983211046E+01 0.24522713981E+01
 0.23315415165E+01 0.22353497036E+01 0.21617139675E+01 0.21075481931E+01 0.20707262143E+01
 0.20473985828E+01 0.20347654875E+01 0.20293113771E+01 0.20284162163E+01 0.20294869337E+01
 0.20310281890E+01 0.20320717975E+01 0.20326326937E+01 0.20335325390E+01 0.20365467149E+01
 0.20439281652E+01 0.20585787803E+01 0.20835565930E+01 0.21222098437E+01 0.21776391378E+01
 0.22527600357E+01 0.23499156417E+01 0.24712303320E+01 0.26184443320E+01 0.27930982159E+01
 0.29959089509E+01 0.32265777076E+01 0.34831895366E+01 0.37623537439E+01 0.40589241112E+01
 0.43663186473E+01 0.46763603651E+01 0.49798233371E+01 0.52665022002E+01 0.55259870218E+01
 0.57479282225E+01 0.59230554818E+01 0.60438495846E+01 0.61049864273E+01 0.61036490029E+01
 0.60401546596E+01 0.59169814184E+01 0.57396703625E+01 0.55154287840E+01 0.52540345987E+01
 0.49654148213E+01 0.46603634058E+01 0.43493426034E+01 0.40404985490E+01 0.37427798217E+01
 0.34628120457E+01 0.28100215674E+01 0.26679204491E+01 0.25497744721E+01 0.24551069223E+01
 0.23824296911E+01 0.23315097414E+01 0.22994199946E+01 0.22837403777E+01 0.22819592765E+01
 0.22898467034E+01 0.23043846331E+01 0.23217578205E+01 0.23393646598E+01 0.23544189716E+01
 0.23650137565E+01 0.23694524188E+01 0.23672353411E+01 0.23588743537E+01 0.23458968833E+01
 0.23303424093E+01 0.23148435073E+01 0.23022393338E+01 0.22959320147E+01 0.22994636617E+01
 0.23164589882E+01 0.23499156177E+01 0.24022928257E+01 0.24753548439E+01 0.25706297818E+01
 0.26891002556E+01 0.28311477061E+01 0.29959089271E+01 0.31813221343E+01 0.33838294646E+01
 0.35987239462E+01 0.38200260653E+01 0.40410063582E+01 0.42541885099E+01 0.44519313407E+01
 0.46264164272E+01 0.47704129269E+01 0.48775962839E+01 0.49432413583E+01 0.49645871298E+01
 0.49409055205E+01 0.48728575924E+01 0.47634770319E+01 0.46171940860E+01 0.44407147964E+01
 0.42408984799E+01 0.40259297133E+01 0.38032384912E+01 0.35800094456E+01 0.33642393714E+01
 0.31609606014E+01 0.29750741589E+01 0.25832565752E+01 0.25197554121E+01 0.24772099081E+01
 0.24549825869E+01 0.24520726111E+01 0.24654488373E+01 0.24936445895E+01 0.25332276105E+01
 0.25797020256E+01 0.26294834350E+01 0.26780718412E+01 0.27224394171E+01 0.27592017658E+01
 0.27859286821E+01 0.28003318016E+01 0.28014721756E+01 0.27893117240E+01 0.27649704602E+01
 0.27304073260E+01 0.26883138839E+01 0.26416335842E+01 0.25938974891E+01 0.25489307683E+01
 0.25109704399E+01 0.24839291665E+01 0.24712302875E+01 0.24753548236E+01 0.24982277201E+01
 0.25410997006E+01 0.26047678279E+01 0.26891002351E+01 0.27930981713E+01 0.29145429343E+01
 0.30502535783E+01 0.31958725769E+01 0.33463162641E+01 0.34958053148E+01 0.36384955935E+01
 0.37684335662E+01 0.38800853398E+01 0.39683162258E+01 0.40290774767E+01 0.40595815804E+01
 0.40584159092E+01 0.40254046491E+01 0.39622391262E+01 0.38715595775E+01 0.37577926782E+01
 0.36256084043E+01 0.34811583190E+01 0.33298658993E+01 0.31780437629E+01 0.30316103123E+01
 0.28945984267E+01 0.27723023565E+01 0.26678062619E+01 0.25096730349E+01 0.25197498260E+01
 0.25496581105E+01 0.25981167057E+01 0.26628521776E+01 0.27420440169E+01 0.28307824452E+01
 0.29246776816E+01 0.30192956406E+01 0.31093025276E+01 0.31907544090E+01 0.32591528028E+01
 0.33112765843E+01 0.33441324539E+01 0.33561801094E+01 0.33465963177E+01 0.33159889596E+01
 0.32661376344E+01 0.31998545761E+01 0.31205624681E+01 0.30323813531E+01 0.29396921887E+01
 0.28473498287E+01 0.27601265814E+01 0.26825912676E+01 0.26184442792E+01 0.25706297533E+01
 0.25410996925E+01 0.25311402090E+01 0.25410996925E+01 0.25706297533E+01 0.26184442794E+01
 0.26825912682E+01 0.27601265823E+01 0.28473498297E+01 0.29396921895E+01 0.30323813535E+01
 0.31205624677E+01 0.31998545749E+01 0.32661376325E+01 0.33159889573E+01 0.33465963152E+01
 0.33561801069E+01 0.33441324515E+01 0.33112765818E+01 0.32591528001E+01 0.31907544060E+01
 0.31093025246E+01 0.30192956378E+01 0.29246776796E+01 0.28307824444E+01 0.27420440173E+01
 0.26628521790E+01 0.25981167076E+01 0.25496581124E+01 0.25197498271E+01 0.25832565744E+01
 0.26678062605E+01 0.27723023551E+01 0.28945984259E+01 0.30316103127E+01 0.31780437645E+01