   1   1   0   0
  0.6008441E+02  0.4396350E-09  0.4396350E-09  0.4396350E-09  0.1000000E-15
  1.000000000000000E-004
  CAR 
 Og_FCC                                  
     58.99438481    -32.87408718  301      1.50003276      1.00000000
    -32.874  0.0000E+00  0.0000E+00
    -32.568  0.0000E+00  0.0000E+00
    -32.262  0.0000E+00  0.0000E+00
    -31.955  0.0000E+00  0.0000E+00
    -31.649  0.0000E+00  0.0000E+00
    -31.343  0.0000E+00  0.0000E+00
    -31.037  0.0000E+00  0.0000E+00
    -30.730  0.0000E+00  0.0000E+00
    -30.424  0.0000E+00  0.0000E+00
    -30.118  0.0000E+00  0.0000E+00
    -29.812  0.0000E+00  0.0000E+00
    -29.506  0.0000E+00  0.0000E+00
    -29.199  0.0000E+00  0.0000E+00
    -28.893  0.5686E-07  0.1741E-07
    -28.587  0.3249E+02  0.9948E+01
    -28.281  0.1217E+00  0.1000E+02
    -27.974  0.0000E+00  0.1000E+02
    -27.668  0.0000E+00  0.1000E+02
    -27.362  0.0000E+00  0.1000E+02
    -27.056  0.0000E+00  0.1000E+02
    -26.750  0.0000E+00  0.1000E+02
    -26.443  0.0000E+00  0.1000E+02
    -26.137  0.0000E+00  0.1000E+02
    -25.831  0.0000E+00  0.1000E+02
    -25.525  0.0000E+00  0.1000E+02
    -25.218  0.0000E+00  0.1000E+02
    -24.912  0.0000E+00  0.1000E+02
    -24.606  0.0000E+00  0.1000E+02
    -24.300  0.0000E+00  0.1000E+02
    -23.993  0.0000E+00  0.1000E+02
    -23.687  0.0000E+00  0.1000E+02
    -23.381  0.0000E+00  0.1000E+02
    -23.075  0.0000E+00  0.1000E+02
    -22.769  0.0000E+00  0.1000E+02
    -22.462  0.0000E+00  0.1000E+02
    -22.156  0.0000E+00  0.1000E+02
    -21.850  0.0000E+00  0.1000E+02
    -21.544  0.2395E-01  0.1001E+02
    -21.237  0.6507E+01  0.1200E+02
    -20.931  0.0000E+00  0.1200E+02
    -20.625  0.0000E+00  0.1200E+02
    -20.319  0.0000E+00  0.1200E+02
    -20.013  0.0000E+00  0.1200E+02
    -19.706  0.0000E+00  0.1200E+02
    -19.400  0.0000E+00  0.1200E+02
    -19.094  0.0000E+00  0.1200E+02
    -18.788  0.0000E+00  0.1200E+02
    -18.481  0.0000E+00  0.1200E+02
    -18.175  0.0000E+00  0.1200E+02
    -17.869  0.0000E+00  0.1200E+02
    -17.563  0.0000E+00  0.1200E+02
    -17.256  0.0000E+00  0.1200E+02
    -16.950  0.0000E+00  0.1200E+02
    -16.644  0.0000E+00  0.1200E+02
    -16.338  0.0000E+00  0.1200E+02
    -16.032  0.0000E+00  0.1200E+02
    -15.725  0.0000E+00  0.1200E+02
    -15.419  0.0000E+00  0.1200E+02
    -15.113  0.0000E+00  0.1200E+02
    -14.807  0.0000E+00  0.1200E+02
    -14.500  0.0000E+00  0.1200E+02
    -14.194  0.0000E+00  0.1200E+02
    -13.888  0.0000E+00  0.1200E+02
    -13.582  0.0000E+00  0.1200E+02
    -13.275  0.0000E+00  0.1200E+02
    -12.969  0.0000E+00  0.1200E+02
    -12.663  0.0000E+00  0.1200E+02
    -12.357  0.0000E+00  0.1200E+02
    -12.051  0.0000E+00  0.1200E+02
    -11.744  0.0000E+00  0.1200E+02
    -11.438  0.0000E+00  0.1200E+02
    -11.132  0.0000E+00  0.1200E+02
    -10.826  0.0000E+00  0.1200E+02
    -10.519  0.0000E+00  0.1200E+02
    -10.213  0.0000E+00  0.1200E+02
     -9.907  0.0000E+00  0.1200E+02
     -9.601  0.0000E+00  0.1200E+02
     -9.295  0.0000E+00  0.1200E+02
     -8.988  0.0000E+00  0.1200E+02
     -8.682  0.0000E+00  0.1200E+02
     -8.376  0.0000E+00  0.1200E+02
     -8.070  0.0000E+00  0.1200E+02
     -7.763  0.0000E+00  0.1200E+02
     -7.457  0.0000E+00  0.1200E+02
     -7.151  0.0000E+00  0.1200E+02
     -6.845  0.0000E+00  0.1200E+02
     -6.538  0.0000E+00  0.1200E+02
     -6.232  0.0000E+00  0.1200E+02
     -5.926  0.0000E+00  0.1200E+02
     -5.620  0.0000E+00  0.1200E+02
     -5.314  0.0000E+00  0.1200E+02
     -5.007  0.0000E+00  0.1200E+02
     -4.701  0.0000E+00  0.1200E+02
     -4.395  0.0000E+00  0.1200E+02
     -4.089  0.0000E+00  0.1200E+02
     -3.782  0.0000E+00  0.1200E+02
     -3.476  0.0000E+00  0.1200E+02
     -3.170  0.0000E+00  0.1200E+02
     -2.864  0.0000E+00  0.1200E+02
     -2.557  0.0000E+00  0.1200E+02
     -2.251  0.0000E+00  0.1200E+02
     -1.945  0.6184E-07  0.1200E+02
     -1.639  0.9340E-01  0.1203E+02
     -1.333  0.2067E+01  0.1266E+02
     -1.026  0.2550E+01  0.1344E+02
     -0.720  0.1499E+01  0.1390E+02
     -0.414  0.1208E+01  0.1427E+02
     -0.108  0.1533E+01  0.1474E+02
      0.199  0.2175E+01  0.1541E+02
      0.505  0.3352E+01  0.1643E+02
      0.811  0.2965E+01  0.1734E+02
      1.117  0.1929E+01  0.1793E+02
      1.423  0.2188E+00  0.1800E+02
      1.730  0.0000E+00  0.1800E+02
      2.036  0.0000E+00  0.1800E+02
      2.342  0.0000E+00  0.1800E+02
      2.648  0.0000E+00  0.1800E+02
      2.955  0.0000E+00  0.1800E+02
      3.261  0.0000E+00  0.1800E+02
      3.567  0.1048E-01  0.1800E+02
      3.873  0.1989E-01  0.1801E+02
      4.180  0.0000E+00  0.1801E+02
      4.486  0.0000E+00  0.1801E+02
      4.792  0.1001E-04  0.1801E+02
      5.098  0.2430E+00  0.1808E+02
      5.404  0.1568E-01  0.1809E+02
      5.711  0.1666E+00  0.1814E+02
      6.017  0.2202E+00  0.1821E+02
      6.323  0.5625E+00  0.1838E+02
      6.629  0.1007E+00  0.1841E+02
      6.936  0.1549E+01  0.1888E+02
      7.242  0.1456E+01  0.1933E+02
      7.548  0.7291E+00  0.1955E+02
      7.854  0.8198E+00  0.1980E+02
      8.160  0.1823E+00  0.1986E+02
      8.467  0.1799E+01  0.2041E+02
      8.773  0.3877E+00  0.2053E+02
      9.079  0.1960E+01  0.2113E+02
      9.385  0.2232E+01  0.2181E+02
      9.692  0.1149E+01  0.2217E+02
      9.998  0.5585E+00  0.2234E+02
     10.304  0.4808E+00  0.2248E+02
     10.610  0.7952E+00  0.2273E+02
     10.917  0.3069E+01  0.2367E+02
     11.223  0.2825E+01  0.2453E+02
     11.529  0.2625E+01  0.2534E+02
     11.835  0.1161E+01  0.2569E+02
     12.141  0.3661E+00  0.2581E+02
     12.448  0.1293E+01  0.2620E+02
     12.754  0.8785E+00  0.2647E+02
     13.060  0.3010E+01  0.2739E+02
     13.366  0.1858E+01  0.2796E+02
     13.673  0.2200E+01  0.2863E+02
     13.979  0.1858E+01  0.2920E+02
     14.285  0.2609E+01  0.3000E+02
     14.591  0.1272E+01  0.3039E+02
     14.898  0.1664E+01  0.3090E+02
     15.204  0.1458E+01  0.3135E+02
     15.510  0.1008E+01  0.3166E+02
     15.816  0.2332E+01  0.3237E+02
     16.122  0.1477E+01  0.3282E+02
     16.429  0.3034E+01  0.3375E+02
     16.735  0.2738E+01  0.3459E+02
     17.041  0.8844E+00  0.3486E+02
     17.347  0.2315E+01  0.3557E+02
     17.654  0.1236E+01  0.3595E+02
     17.960  0.3620E+01  0.3706E+02
     18.266  0.5260E+01  0.3867E+02
     18.572  0.4990E+01  0.4020E+02
     18.878  0.3403E+01  0.4124E+02
     19.185  0.4138E+01  0.4251E+02
     19.491  0.2771E+01  0.4336E+02
     19.797  0.1004E+01  0.4367E+02
     20.103  0.1539E+01  0.4414E+02
     20.410  0.3306E+01  0.4515E+02
     20.716  0.1948E+01  0.4575E+02
     21.022  0.1180E+01  0.4611E+02
     21.328  0.2547E+00  0.4619E+02
     21.635  0.8856E-01  0.4621E+02
     21.941  0.7326E+00  0.4644E+02
     22.247  0.1125E+01  0.4678E+02
     22.553  0.1719E+01  0.4731E+02
     22.859  0.3389E+01  0.4835E+02
     23.166  0.1422E+01  0.4878E+02
     23.472  0.6854E+00  0.4899E+02
     23.778  0.7525E+00  0.4922E+02
     24.084  0.3820E+01  0.5039E+02
     24.391  0.2859E+01  0.5127E+02
     24.697  0.3072E+01  0.5221E+02
     25.003  0.3192E+01  0.5319E+02
     25.309  0.5409E+01  0.5484E+02
     25.616  0.3663E+01  0.5596E+02
     25.922  0.1384E+01  0.5639E+02
     26.228  0.1843E+01  0.5695E+02
     26.534  0.1489E+01  0.5741E+02
     26.840  0.8987E+00  0.5768E+02
     27.147  0.1726E+01  0.5821E+02
     27.453  0.3409E+01  0.5926E+02
     27.759  0.1717E+01  0.5978E+02
     28.065  0.1527E+01  0.6025E+02
     28.372  0.1066E+01  0.6058E+02
     28.678  0.2771E+01  0.6142E+02
     28.984  0.1691E+01  0.6194E+02
     29.290  0.5820E+00  0.6212E+02
     29.596  0.1592E+01  0.6261E+02
     29.903  0.3475E+01  0.6367E+02
     30.209  0.2602E+01  0.6447E+02
     30.515  0.1149E+01  0.6482E+02
     30.821  0.1640E+01  0.6532E+02
     31.128  0.3435E+01  0.6638E+02
     31.434  0.1616E+01  0.6687E+02
     31.740  0.9021E+00  0.6715E+02
     32.046  0.5513E+01  0.6883E+02
     32.353  0.4220E+01  0.7013E+02
     32.659  0.3017E+01  0.7105E+02
     32.965  0.2175E+01  0.7172E+02
     33.271  0.2273E+01  0.7241E+02
     33.577  0.2489E+01  0.7318E+02
     33.884  0.1182E+01  0.7354E+02
     34.190  0.2972E+01  0.7445E+02
     34.496  0.2132E+00  0.7451E+02
     34.802  0.2885E+01  0.7540E+02
     35.109  0.2141E+01  0.7605E+02
     35.415  0.4594E+01  0.7746E+02
     35.721  0.2421E+01  0.7820E+02
     36.027  0.2981E+01  0.7911E+02
     36.333  0.2593E+01  0.7991E+02
     36.640  0.2782E+01  0.8076E+02
     36.946  0.4319E+01  0.8208E+02
     37.252  0.1874E+01  0.8266E+02
     37.558  0.2565E+01  0.8344E+02
     37.865  0.1646E+01  0.8395E+02
     38.171  0.7706E+00  0.8418E+02
     38.477  0.1694E+01  0.8470E+02
     38.783  0.1173E+01  0.8506E+02
     39.090  0.2301E+01  0.8577E+02
     39.396  0.3080E+01  0.8671E+02
     39.702  0.5085E+01  0.8827E+02
     40.008  0.2820E+01  0.8913E+02
     40.314  0.1303E+01  0.8953E+02
     40.621  0.1413E+01  0.8996E+02
     40.927  0.3551E+01  0.9105E+02
     41.233  0.1843E+01  0.9161E+02
     41.539  0.5106E+01  0.9318E+02
     41.846  0.3457E+01  0.9424E+02
     42.152  0.1622E+01  0.9473E+02
     42.458  0.3391E+01  0.9577E+02
     42.764  0.2446E+01  0.9652E+02
     43.071  0.4061E+01  0.9777E+02
     43.377  0.7396E+00  0.9799E+02
     43.683  0.1301E+01  0.9839E+02
     43.989  0.3196E+01  0.9937E+02
     44.295  0.1871E+01  0.9994E+02
     44.602  0.1664E+01  0.1005E+03
     44.908  0.3734E+01  0.1016E+03
     45.214  0.2605E+01  0.1024E+03
     45.520  0.2825E+01  0.1033E+03
     45.827  0.4055E+01  0.1045E+03
     46.133  0.2645E+01  0.1053E+03
     46.439  0.2593E+01  0.1061E+03
     46.745  0.3003E+01  0.1070E+03
     47.051  0.4000E+01  0.1082E+03
     47.358  0.3153E+01  0.1092E+03
     47.664  0.2081E+01  0.1099E+03
     47.970  0.3097E+01  0.1108E+03
     48.276  0.2854E+01  0.1117E+03
     48.583  0.3047E+01  0.1126E+03
     48.889  0.3207E+01  0.1136E+03
     49.195  0.1405E+01  0.1140E+03
     49.501  0.1814E+01  0.1146E+03
     49.808  0.4458E+01  0.1159E+03
     50.114  0.3186E+01  0.1169E+03
     50.420  0.3033E+01  0.1178E+03
     50.726  0.2218E+01  0.1185E+03
     51.032  0.3489E+01  0.1196E+03
     51.339  0.2239E+01  0.1203E+03
     51.645  0.3559E+01  0.1214E+03
     51.951  0.3045E+01  0.1223E+03
     52.257  0.1262E+01  0.1227E+03
     52.564  0.5692E+01  0.1244E+03
     52.870  0.2583E+01  0.1252E+03
     53.176  0.2907E+01  0.1261E+03
     53.482  0.1318E+01  0.1265E+03
     53.789  0.3841E+00  0.1266E+03
     54.095  0.2199E+01  0.1273E+03
     54.401  0.1158E+01  0.1277E+03
     54.707  0.7446E+00  0.1279E+03
     55.013  0.3640E+00  0.1280E+03
     55.320  0.0000E+00  0.1280E+03
     55.626  0.0000E+00  0.1280E+03
     55.932  0.0000E+00  0.1280E+03
     56.238  0.0000E+00  0.1280E+03
     56.545  0.0000E+00  0.1280E+03
     56.851  0.0000E+00  0.1280E+03
     57.157  0.0000E+00  0.1280E+03
     57.463  0.0000E+00  0.1280E+03
     57.769  0.0000E+00  0.1280E+03
     58.076  0.0000E+00  0.1280E+03
     58.382  0.0000E+00  0.1280E+03
     58.688  0.0000E+00  0.1280E+03
     58.994  0.0000E+00  0.1280E+03
