    1    1    1    1
  0.6008441E+02  0.4396350E-09  0.4396350E-09  0.4396350E-09  0.1000000E-15
  1.000000000000000E-004
  CAR 
 Og_FCC                                  
     18    152     64
 
  0.5000000E+00  0.5000000E+00  0.5000000E+00  0.0000000E+00
    1      -28.686591   1.000000
    2      -28.686590   1.000000
    3      -28.685869   1.000000
    4      -28.682291   1.000000
    5      -28.682291   1.000000
    6      -21.409360   1.000000
    7       -1.775072   1.000000
    8        0.810297   1.000000
    9        0.810301   1.000000
   10        6.068634   0.000000
   11       10.286468   0.000000
   12       10.286471   0.000000
   13       10.656671   0.000000
   14       13.086081   0.000000
   15       14.623888   0.000000
   16       14.623890   0.000000
   17       15.721519   0.000000
   18       16.533554   0.000000
   19       16.533555   0.000000
   20       18.885754   0.000000
   21       18.943064   0.000000
   22       18.943067   0.000000
   23       20.603700   0.000000
   24       23.735840   0.000000
   25       23.911454   0.000000
   26       25.380673   0.000000
   27       25.380677   0.000000
   28       26.581066   0.000000
   29       26.581071   0.000000
   30       27.141631   0.000000
   31       28.536491   0.000000
   32       30.274155   0.000000
   33       30.274156   0.000000
   34       30.984665   0.000000
   35       31.997510   0.000000
   36       31.997512   0.000000
   37       32.233028   0.000000
   38       33.418228   0.000000
   39       34.028779   0.000000
   40       34.028785   0.000000
   41       36.639099   0.000000
   42       36.639107   0.000000
   43       39.792427   0.000000
   44       39.792434   0.000000
   45       40.029948   0.000000
   46       40.029958   0.000000
   47       40.481007   0.000000
   48       42.174316   0.000000
   49       44.145868   0.000000
   50       44.145872   0.000000
   51       46.455071   0.000000
   52       46.455079   0.000000
   53       46.464047   0.000000
   54       46.803548   0.000000
   55       47.872204   0.000000
   56       50.372160   0.000000
   57       50.372163   0.000000
   58       50.725979   0.000000
   59       51.162446   0.000000
   60       51.162456   0.000000
   61       51.214279   0.000000
   62       52.099940   0.000000
   63       53.315039   0.000000
   64       53.315835   0.000000
 
  0.4750000E+00  0.4750000E+00  0.4750000E+00  0.0000000E+00
    1      -28.686454   1.000000
    2      -28.686454   1.000000
    3      -28.685639   1.000000
    4      -28.682167   1.000000
    5      -28.682166   1.000000
    6      -21.409995   1.000000
    7       -1.764174   1.000000
    8        0.812494   1.000000
    9        0.812498   1.000000
   10        6.068112   0.000000
   11       10.293250   0.000000
   12       10.293253   0.000000
   13       10.663703   0.000000
   14       12.979627   0.000000
   15       14.563467   0.000000
   16       14.563469   0.000000
   17       15.849642   0.000000
   18       16.599882   0.000000
   19       16.599883   0.000000
   20       18.823009   0.000000
   21       18.916795   0.000000
   22       18.916798   0.000000
   23       20.601939   0.000000
   24       23.510535   0.000000
   25       24.111020   0.000000
   26       25.365241   0.000000
   27       25.365245   0.000000
   28       26.602046   0.000000
   29       26.602051   0.000000
   30       27.131644   0.000000
   31       28.592953   0.000000
   32       30.298526   0.000000
   33       30.298528   0.000000
   34       31.058935   0.000000
   35       31.989598   0.000000
   36       31.989600   0.000000
   37       32.232203   0.000000
   38       33.432631   0.000000
   39       34.058913   0.000000
   40       34.058919   0.000000
   41       36.634343   0.000000
   42       36.634350   0.000000
   43       39.755083   0.000000
   44       39.755090   0.000000
   45       40.086038   0.000000
   46       40.086048   0.000000
   47       40.479122   0.000000
   48       42.192247   0.000000
   49       44.107621   0.000000
   50       44.107625   0.000000
   51       46.431204   0.000000
   52       46.459793   0.000000
   53       46.459802   0.000000
   54       46.683576   0.000000
   55       47.972398   0.000000
   56       49.874319   0.000000
   57       50.023548   0.000000
   58       50.023551   0.000000
   59       51.464534   0.000000
   60       51.464543   0.000000
   61       52.016522   0.000000
   62       52.180072   0.000000
   63       53.226650   0.000000
   64       53.226757   0.000000
 
  0.4500000E+00  0.4500000E+00  0.4500000E+00  0.0000000E+00
    1      -28.683911   1.000000
    2      -28.682305   1.000000
    3      -28.682304   1.000000
    4      -28.680009   1.000000
    5      -28.680009   1.000000
    6      -21.411809   1.000000
    7       -1.731532   1.000000
    8        0.819056   1.000000
    9        0.819060   1.000000
   10        6.066181   0.000000
   11       10.313530   0.000000
   12       10.313533   0.000000
   13       10.684398   0.000000
   14       12.710093   0.000000
   15       14.404199   0.000000
   16       14.404201   0.000000
   17       16.185359   0.000000
   18       16.777420   0.000000
   19       16.777421   0.000000
   20       18.643100   0.000000
   21       18.839516   0.000000
   22       18.839519   0.000000
   23       20.596708   0.000000
   24       23.188159   0.000000
   25       24.358695   0.000000
   26       25.323304   0.000000
   27       25.323307   0.000000
   28       26.662099   0.000000
   29       26.662103   0.000000
   30       27.112389   0.000000
   31       28.761174   0.000000
   32       30.372175   0.000000
   33       30.372177   0.000000
   34       31.264432   0.000000
   35       31.966427   0.000000
   36       31.966429   0.000000
   37       32.241229   0.000000
   38       33.475773   0.000000
   39       34.148971   0.000000
   40       34.148977   0.000000
   41       36.621101   0.000000
   42       36.621108   0.000000
   43       39.693993   0.000000
   44       39.694001   0.000000
   45       40.204527   0.000000
   46       40.204536   0.000000
   47       40.476827   0.000000
   48       42.244509   0.000000
   49       43.997907   0.000000
   50       43.997909   0.000000
   51       46.333041   0.000000
   52       46.410355   0.000000
   53       46.473353   0.000000
   54       46.473361   0.000000
   55       48.129546   0.000000
   56       48.914890   0.000000
   57       49.446904   0.000000
   58       49.446907   0.000000
   59       51.843163   0.000000
   60       51.843171   0.000000
   61       52.173843   0.000000
   62       53.146052   0.000000
   63       53.255460   0.000000
   64       53.353802   0.000000
 
  0.4250000E+00  0.4250000E+00  0.4250000E+00  0.0000000E+00
    1      -28.687706   1.000000
    2      -28.687706   1.000000
    3      -28.680488   1.000000
    4      -28.674919   1.000000
    5      -28.674919   1.000000
    6      -21.414883   1.000000
    7       -1.677331   1.000000
    8        0.829837   1.000000
    9        0.829841   1.000000
   10        6.061431   0.000000
   11       10.347041   0.000000
   12       10.347044   0.000000
   13       10.715562   0.000000
   14       12.361525   0.000000
   15       14.185413   0.000000
   16       14.185415   0.000000
   17       16.645777   0.000000
   18       17.025693   0.000000
   19       17.025694   0.000000
   20       18.364904   0.000000
   21       18.706314   0.000000
   22       18.706317   0.000000
   23       20.599797   0.000000
   24       22.823682   0.000000
   25       24.584399   0.000000
   26       25.263707   0.000000
   27       25.263709   0.000000
   28       26.749868   0.000000
   29       26.749872   0.000000
   30       27.098289   0.000000
   31       29.030594   0.000000
   32       30.483950   0.000000
   33       30.483951   0.000000
   34       31.525362   0.000000
   35       31.930510   0.000000
   36       31.930513   0.000000
   37       32.313635   0.000000
   38       33.548229   0.000000
   39       34.297887   0.000000
   40       34.297893   0.000000
   41       36.598982   0.000000
   42       36.598989   0.000000
   43       39.631700   0.000000
   44       39.631708   0.000000
   45       40.343544   0.000000
   46       40.343552   0.000000
   47       40.469904   0.000000
   48       42.326593   0.000000
   49       43.826362   0.000000
   50       43.826364   0.000000
   51       46.061872   0.000000
   52       46.189488   0.000000
   53       46.488200   0.000000
   54       46.488208   0.000000
   55       47.602483   0.000000
   56       48.696005   0.000000
   57       48.848483   0.000000
   58       48.848487   0.000000
   59       51.997757   0.000000
   60       51.997766   0.000000
   61       52.259462   0.000000
   62       53.149560   0.000000
   63       53.572988   0.000000
   64       53.573621   0.000000
 
  0.4000000E+00  0.4000000E+00  0.4000000E+00  0.0000000E+00
    1      -28.687372   1.000000
    2      -28.687371   1.000000
    3      -28.679236   1.000000
    4      -28.674946   1.000000
    5      -28.674945   1.000000
    6      -21.419048   1.000000
    7       -1.601845   1.000000
    8        0.844605   1.000000
    9        0.844609   1.000000
   10        6.051688   0.000000
   11       10.393345   0.000000
   12       10.393348   0.000000
   13       10.750350   0.000000
   14       11.996035   0.000000
   15       13.937734   0.000000
   16       13.937735   0.000000
   17       17.170460   0.000000
   18       17.311624   0.000000
   19       17.311624   0.000000
   20       18.020035   0.000000
   21       18.536685   0.000000
   22       18.536687   0.000000
   23       20.587838   0.000000
   24       22.421536   0.000000
   25       24.783615   0.000000
   26       25.198580   0.000000
   27       25.198582   0.000000
   28       26.857562   0.000000
   29       26.857566   0.000000
   30       27.091384   0.000000
   31       29.397160   0.000000
   32       30.630013   0.000000
   33       30.630015   0.000000
   34       31.691607   0.000000
   35       31.884885   0.000000
   36       31.884888   0.000000
   37       32.570684   0.000000
   38       33.648363   0.000000
   39       34.503093   0.000000
   40       34.503099   0.000000
   41       36.570060   0.000000
   42       36.570068   0.000000
   43       39.596860   0.000000
   44       39.596868   0.000000
   45       40.460921   0.000000
   46       40.488079   0.000000
   47       40.488087   0.000000
   48       42.431193   0.000000
   49       43.616732   0.000000
   50       43.616734   0.000000
   51       45.649140   0.000000
   52       45.962510   0.000000
   53       46.495056   0.000000
   54       46.495063   0.000000
   55       46.672675   0.000000
   56       48.273491   0.000000
   57       48.273494   0.000000
   58       48.948253   0.000000
   59       51.984996   0.000000
   60       51.985006   0.000000
   61       52.368282   0.000000
   62       52.916100   0.000000
   63       54.063774   0.000000
   64       54.063814   0.000000
 
  0.3750000E+00  0.3750000E+00  0.3750000E+00  0.0000000E+00
    1      -28.686724   1.000000
    2      -28.686724   1.000000
    3      -28.677490   1.000000
    4      -28.674819   1.000000
    5      -28.674818   1.000000
    6      -21.424228   1.000000
    7       -1.505482   1.000000
    8        0.863085   1.000000
    9        0.863089   1.000000
   10        6.033635   0.000000
   11       10.451723   0.000000
   12       10.451726   0.000000
   13       10.769452   0.000000
   14       11.663707   0.000000
   15       13.680923   0.000000
   16       13.680925   0.000000
   17       17.496883   0.000000
   18       17.612847   0.000000
   19       17.612848   0.000000
   20       17.864973   0.000000
   21       18.331886   0.000000
   22       18.331888   0.000000
   23       20.573146   0.000000
   24       21.989390   0.000000
   25       24.959158   0.000000
   26       25.136716   0.000000
   27       25.136718   0.000000
   28       26.978705   0.000000
   29       26.978708   0.000000
   30       27.094938   0.000000
   31       29.854416   0.000000
   32       30.792704   0.000000
   33       30.792705   0.000000
   34       31.707119   0.000000
   35       31.839062   0.000000
   36       31.839065   0.000000
   37       33.052430   0.000000
   38       33.776282   0.000000
   39       34.761914   0.000000
   40       34.761920   0.000000
   41       36.537470   0.000000
   42       36.537477   0.000000
   43       39.581418   0.000000
   44       39.581426   0.000000
   45       40.448960   0.000000
   46       40.626648   0.000000
   47       40.626656   0.000000
   48       42.548568   0.000000
   49       43.387150   0.000000
   50       43.387152   0.000000
   51       45.069000   0.000000
   52       45.677739   0.000000
   53       45.898703   0.000000
   54       46.488206   0.000000
   55       46.488213   0.000000
   56       47.732593   0.000000
   57       47.732595   0.000000
   58       49.236278   0.000000
   59       51.918285   0.000000
   60       51.918296   0.000000
   61       52.436718   0.000000
   62       52.684841   0.000000
   63       54.030462   0.000000
   64       54.031393   0.000000
 
  0.3500000E+00  0.3500000E+00  0.3500000E+00  0.0000000E+00
    1      -28.680557   1.000000
    2      -28.680556   1.000000
    3      -28.672461   1.000000
    4      -28.669697   1.000000
    5      -28.669697   1.000000
    6      -21.430164   1.000000
    7       -1.388775   1.000000
    8        0.884937   1.000000
    9        0.884941   1.000000
   10        6.003018   0.000000
   11       10.521080   0.000000
   12       10.521083   0.000000
   13       10.722527   0.000000
   14       11.433474   0.000000
   15       13.427079   0.000000
   16       13.427080   0.000000
   17       17.112048   0.000000
   18       17.885192   0.000000
   19       17.885193   0.000000
   20       18.130975   0.000000
   21       18.130976   0.000000
   22       18.417540   0.000000
   23       20.560486   0.000000
   24       21.539803   0.000000
   25       25.084798   0.000000
   26       25.084799   0.000000
   27       25.123505   0.000000
   28       27.108505   0.000000
   29       27.117397   0.000000
   30       27.117400   0.000000
   31       30.386322   0.000000
   32       30.945990   0.000000
   33       30.945991   0.000000
   34       31.653995   0.000000
   35       31.813314   0.000000
   36       31.813317   0.000000
   37       33.665962   0.000000
   38       33.933934   0.000000
   39       35.071071   0.000000
   40       35.071078   0.000000
   41       36.503606   0.000000
   42       36.503613   0.000000
   43       39.581283   0.000000
   44       39.581290   0.000000
   45       40.430115   0.000000
   46       40.750042   0.000000
   47       40.750048   0.000000
   48       42.662030   0.000000
   49       43.162125   0.000000
   50       43.162129   0.000000
   51       44.273791   0.000000
   52       45.345134   0.000000
   53       45.405223   0.000000
   54       46.460740   0.000000
   55       46.460746   0.000000
   56       47.235496   0.000000
   57       47.235498   0.000000
   58       49.524924   0.000000
   59       51.839092   0.000000
   60       51.839103   0.000000
   61       52.387488   0.000000
   62       52.484301   0.000000
   63       53.281254   0.000000
   64       53.281257   0.000000
 
  0.3250000E+00  0.3250000E+00  0.3250000E+00  0.0000000E+00
    1      -28.671644   1.000000
    2      -28.667491   1.000000
    3      -28.667491   1.000000
    4      -28.659693   1.000000
    5      -28.659693   1.000000
    6      -21.436666   1.000000
    7       -1.252406   1.000000
    8        0.909710   1.000000
    9        0.909714   1.000000
   10        5.954284   0.000000
   11       10.559259   0.000000
   12       10.599773   0.000000
   13       10.599776   0.000000
   14       11.368574   0.000000
   15       13.184035   0.000000
   16       13.184036   0.000000
   17       16.651242   0.000000
   18       17.779802   0.000000
   19       17.779803   0.000000
   20       18.282355   0.000000
   21       18.282355   0.000000
   22       19.042036   0.000000
   23       20.544898   0.000000
   24       21.081964   0.000000
   25       25.051038   0.000000
   26       25.051039   0.000000
   27       25.274837   0.000000
   28       27.138197   0.000000
   29       27.268049   0.000000
   30       27.268051   0.000000
   31       30.937734   0.000000
   32       31.045559   0.000000
   33       31.045560   0.000000
   34       31.618917   0.000000
   35       31.838551   0.000000
   36       31.838553   0.000000
   37       34.117834   0.000000
   38       34.361478   0.000000
   39       35.424232   0.000000
   40       35.424238   0.000000
   41       36.477356   0.000000
   42       36.477362   0.000000
   43       39.599904   0.000000
   44       39.599912   0.000000
   45       40.375769   0.000000
   46       40.841722   0.000000
   47       40.841728   0.000000
   48       42.680573   0.000000
   49       42.970827   0.000000
   50       42.970831   0.000000
   51       43.499339   0.000000
   52       44.964532   0.000000
   53       45.059008   0.000000
   54       46.386157   0.000000
   55       46.386164   0.000000
   56       46.814491   0.000000
   57       46.814492   0.000000
   58       49.828921   0.000000
   59       51.747703   0.000000
   60       51.747715   0.000000
   61       52.095610   0.000000
   62       52.304345   0.000000
   63       52.529784   0.000000
   64       52.529787   0.000000
 
  0.3000000E+00  0.3000000E+00  0.3000000E+00  0.0000000E+00
    1      -28.686507   1.000000
    2      -28.681373   1.000000
    3      -28.681373   1.000000
    4      -28.670066   1.000000
    5      -28.670065   1.000000
    6      -21.444197   1.000000
    7       -1.097270   1.000000
    8        0.936645   1.000000
    9        0.936649   1.000000
   10        5.880792   0.000000
   11       10.334610   0.000000
   12       10.685004   0.000000
   13       10.685007   0.000000
   14       11.422763   0.000000
   15       12.957139   0.000000
   16       12.957140   0.000000
   17       16.167311   0.000000
   18       17.494722   0.000000
   19       17.494723   0.000000
   20       18.570513   0.000000
   21       18.570513   0.000000
   22       19.650723   0.000000
   23       20.503697   0.000000
   24       20.648935   0.000000
   25       25.028832   0.000000
   26       25.028833   0.000000
   27       25.396013   0.000000
   28       27.155821   0.000000
   29       27.407775   0.000000
   30       27.407777   0.000000
   31       31.057567   0.000000
   32       31.057568   0.000000
   33       31.213234   0.000000
   34       31.887172   0.000000
   35       31.925152   0.000000
   36       31.925155   0.000000
   37       34.325578   0.000000
   38       35.106818   0.000000
   39       35.811002   0.000000
   40       35.811009   0.000000
   41       36.464578   0.000000
   42       36.464583   0.000000
   43       39.613467   0.000000
   44       39.613474   0.000000
   45       40.214859   0.000000
   46       40.884745   0.000000
   47       40.884750   0.000000
   48       42.279263   0.000000
   49       42.818386   0.000000
   50       42.818392   0.000000
   51       43.194392   0.000000
   52       44.497650   0.000000
   53       44.775135   0.000000
   54       46.190608   0.000000
   55       46.190614   0.000000
   56       46.533990   0.000000
   57       46.533992   0.000000
   58       50.079022   0.000000
   59       51.545416   0.000000
   60       51.545429   0.000000
   61       51.609802   0.000000
   62       51.848513   0.000000
   63       51.848514   0.000000
   64       52.127547   0.000000
 
  0.2750000E+00  0.2750000E+00  0.2750000E+00  0.0000000E+00
    1      -28.686163   1.000000
    2      -28.676902   1.000000
    3      -28.676902   1.000000
    4      -28.670041   1.000000
    5      -28.670041   1.000000
    6      -21.451741   1.000000
    7       -0.924264   1.000000
    8        0.965442   1.000000
    9        0.965446   1.000000
   10        5.776956   0.000000
   11       10.120989   0.000000
   12       10.772855   0.000000
   13       10.772858   0.000000
   14       11.533809   0.000000
   15       12.755320   0.000000
   16       12.755321   0.000000
   17       15.684711   0.000000
   18       17.189837   0.000000
   19       17.189838   0.000000
   20       18.855211   0.000000
   21       18.855211   0.000000
   22       19.899431   0.000000
   23       20.481545   0.000000
   24       20.598338   0.000000
   25       25.038300   0.000000
   26       25.038302   0.000000
   27       25.520180   0.000000
   28       27.184795   0.000000
   29       27.565591   0.000000
   30       27.565594   0.000000
   31       30.997522   0.000000
   32       30.997523   0.000000
   33       31.144113   0.000000
   34       32.057815   0.000000
   35       32.057818   0.000000
   36       32.542963   0.000000
   37       34.558416   0.000000
   38       35.898233   0.000000
   39       36.189333   0.000000
   40       36.189342   0.000000
   41       36.521632   0.000000
   42       36.521635   0.000000
   43       39.641455   0.000000
   44       39.641462   0.000000
   45       39.863080   0.000000
   46       40.883845   0.000000
   47       40.883849   0.000000
   48       41.750768   0.000000
   49       42.731941   0.000000
   50       42.731948   0.000000
   51       43.235359   0.000000
   52       44.047509   0.000000
   53       44.554156   0.000000
   54       45.901489   0.000000
   55       45.901493   0.000000
   56       46.384699   0.000000
   57       46.384702   0.000000
   58       50.298398   0.000000
   59       50.917132   0.000000
   60       50.917139   0.000000
   61       51.101480   0.000000
   62       51.534521   0.000000
   63       51.534528   0.000000
   64       51.984986   0.000000
 
  0.2500000E+00  0.2500000E+00  0.2500000E+00  0.0000000E+00
    1      -28.675688   1.000000
    2      -28.675332   1.000000
    3      -28.675331   1.000000
    4      -28.665294   1.000000
    5      -28.665293   1.000000
    6      -21.459415   1.000000
    7       -0.734675   1.000000
    8        0.995335   1.000000
    9        0.995339   1.000000
   10        5.638218   0.000000
   11        9.950578   0.000000
   12       10.856944   0.000000
   13       10.856948   0.000000
   14       11.674692   0.000000
   15       12.586391   0.000000
   16       12.586392   0.000000
   17       15.206729   0.000000
   18       16.871160   0.000000
   19       16.871161   0.000000
   20       19.125160   0.000000
   21       19.125160   0.000000
   22       19.531404   0.000000
   23       20.459357   0.000000
   24       21.181229   0.000000
   25       25.077869   0.000000
   26       25.077871   0.000000
   27       25.645869   0.000000
   28       27.216119   0.000000
   29       27.734225   0.000000
   30       27.734227   0.000000
   31       30.893920   0.000000
   32       30.893922   0.000000
   33       31.007320   0.000000
   34       32.187671   0.000000
   35       32.187675   0.000000
   36       33.297092   0.000000
   37       34.815682   0.000000
   38       36.379893   0.000000
   39       36.379901   0.000000
   40       36.722798   0.000000
   41       36.829311   0.000000
   42       36.829314   0.000000
   43       39.227700   0.000000
   44       39.669841   0.000000
   45       39.669849   0.000000
   46       40.847478   0.000000
   47       40.847481   0.000000
   48       41.476270   0.000000
   49       42.702843   0.000000
   50       42.702851   0.000000
   51       43.298056   0.000000
   52       43.574922   0.000000
   53       44.405911   0.000000
   54       45.628751   0.000000
   55       45.628756   0.000000
   56       46.257740   0.000000
   57       46.257744   0.000000
   58       50.164130   0.000000
   59       50.164136   0.000000
   60       50.244885   0.000000
   61       50.787043   0.000000
   62       51.240525   0.000000
   63       51.240533   0.000000
   64       51.866035   0.000000
 
  0.2250000E+00  0.2250000E+00  0.2250000E+00  0.0000000E+00
    1      -28.684206   1.000000
    2      -28.684206   1.000000
    3      -28.680981   1.000000
    4      -28.667656   1.000000
    5      -28.667656   1.000000
    6      -21.467264   1.000000
    7       -0.530072   1.000000
    8        1.025518   1.000000
    9        1.025522   1.000000
   10        5.462668   0.000000
   11        9.835253   0.000000
   12       10.928157   0.000000
   13       10.928160   0.000000
   14       11.833946   0.000000
   15       12.461025   0.000000
   16       12.461026   0.000000
   17       14.738912   0.000000
   18       16.540408   0.000000
   19       16.540409   0.000000
   20       19.083868   0.000000
   21       19.368069   0.000000
   22       19.368069   0.000000
   23       20.424331   0.000000
   24       21.859502   0.000000
   25       25.129246   0.000000
   26       25.129248   0.000000
   27       25.758082   0.000000
   28       27.250075   0.000000
   29       27.911983   0.000000
   30       27.911986   0.000000
   31       30.766341   0.000000
   32       30.766343   0.000000
   33       30.852401   0.000000
   34       32.273649   0.000000
   35       32.273653   0.000000
   36       34.093454   0.000000
   37       35.095404   0.000000
   38       36.466924   0.000000
   39       36.466931   0.000000
   40       37.300268   0.000000
   41       37.300272   0.000000
   42       37.565916   0.000000
   43       38.416370   0.000000
   44       39.692921   0.000000
   45       39.692928   0.000000
   46       40.791260   0.000000
   47       40.791262   0.000000
   48       41.390764   0.000000
   49       42.715337   0.000000
   50       42.715346   0.000000
   51       43.070789   0.000000
   52       43.304279   0.000000
   53       44.350786   0.000000
   54       45.407489   0.000000
   55       45.407493   0.000000
   56       46.098482   0.000000
   57       46.098486   0.000000
   58       49.404507   0.000000
   59       49.404512   0.000000
   60       49.777541   0.000000
   61       50.745618   0.000000
   62       50.849569   0.000000
   63       50.849578   0.000000
   64       51.746944   0.000000
 
  0.2000000E+00  0.2000000E+00  0.2000000E+00  0.0000000E+00
    1      -28.685913   1.000000
    2      -28.685913   1.000000
    3      -28.671935   1.000000
    4      -28.671934   1.000000
    5      -28.670534   1.000000
    6      -21.474805   1.000000
    7       -0.312410   1.000000
    8        1.055384   1.000000
    9        1.055388   1.000000
   10        5.252931   0.000000
   11        9.779489   0.000000
   12       10.975786   0.000000
   13       10.975789   0.000000
   14       12.004156   0.000000
   15       12.391564   0.000000
   16       12.391565   0.000000
   17       14.289731   0.000000
   18       16.205665   0.000000
   19       16.205665   0.000000
   20       18.636888   0.000000
   21       19.584268   0.000000
   22       19.584269   0.000000
   23       20.402882   0.000000
   24       22.552028   0.000000
   25       25.204161   0.000000
   26       25.204164   0.000000
   27       25.894130   0.000000
   28       27.302222   0.000000
   29       28.101678   0.000000
   30       28.101680   0.000000
   31       30.626940   0.000000
   32       30.626942   0.000000
   33       30.692357   0.000000
   34       32.293243   0.000000
   35       32.293248   0.000000
   36       34.905285   0.000000
   37       35.397459   0.000000
   38       36.582074   0.000000
   39       36.582079   0.000000
   40       37.508584   0.000000
   41       37.815635   0.000000
   42       37.815639   0.000000
   43       38.466032   0.000000
   44       39.711756   0.000000
   45       39.711763   0.000000
   46       40.736145   0.000000
   47       40.736147   0.000000
   48       41.408723   0.000000
   49       42.573325   0.000000
   50       42.756279   0.000000
   51       42.756289   0.000000
   52       43.257793   0.000000
   53       44.397190   0.000000
   54       45.243570   0.000000
   55       45.243575   0.000000
   56       45.912376   0.000000
   57       45.912379   0.000000
   58       48.655836   0.000000
   59       48.655842   0.000000
   60       49.215062   0.000000
   61       50.400563   0.000000
   62       50.400571   0.000000
   63       50.521962   0.000000
   64       51.663203   0.000000
 
  0.1750000E+00  0.1750000E+00  0.1750000E+00  0.0000000E+00
    1      -28.689769   1.000000
    2      -28.689769   1.000000
    3      -28.675330   1.000000
    4      -28.675330   1.000000
    5      -28.673461   1.000000
    6      -21.481958   1.000000
    7       -0.084194   1.000000
    8        1.084105   1.000000
    9        1.084109   1.000000
   10        5.014468   0.000000
   11        9.780880   0.000000
   12       10.991548   0.000000
   13       10.991551   0.000000
   14       12.174137   0.000000
   15       12.387162   0.000000
   16       12.387163   0.000000
   17       13.866024   0.000000
   18       15.870236   0.000000
   19       15.870237   0.000000
   20       18.201056   0.000000
   21       19.771964   0.000000
   22       19.771965   0.000000
   23       20.382724   0.000000
   24       23.241354   0.000000
   25       25.300793   0.000000
   26       25.300796   0.000000
   27       26.001298   0.000000
   28       27.367766   0.000000
   29       28.307923   0.000000
   30       28.307926   0.000000
   31       30.483802   0.000000
   32       30.483804   0.000000
   33       30.534202   0.000000
   34       32.235356   0.000000
   35       32.235362   0.000000
   36       35.637420   0.000000
   37       35.720290   0.000000
   38       36.716606   0.000000
   39       36.742401   0.000000
   40       36.742406   0.000000
   41       38.345962   0.000000
   42       38.345967   0.000000
   43       39.340505   0.000000
   44       39.731626   0.000000