 vasp.5.4.4.18Apr17-6-g9f103f2a35 (build Nov 03 2018 10:20:43) complex          
  
 executed on             LinuxIFC date 2018.12.21  15:40:54
 running on   16 total cores
 distrk:  each k-point on    2 cores,    8 groups
 distr:  one band on NCORES_PER_BAND=   2 cores,    1 groups


--------------------------------------------------------------------------------------------------------


 INCAR:
 POTCAR:    PAW Og, JanMewes Oct 18               

 ----------------------------------------------------------------------------- 
|                                                                             |
|           W    W    AA    RRRRR   N    N  II  N    N   GGGG   !!!           |
|           W    W   A  A   R    R  NN   N  II  NN   N  G    G  !!!           |
|           W    W  A    A  R    R  N N  N  II  N N  N  G       !!!           |
|           W WW W  AAAAAA  RRRRR   N  N N  II  N  N N  G  GGG   !            |
|           WW  WW  A    A  R   R   N   NN  II  N   NN  G    G                |
|           W    W  A    A  R    R  N    N  II  N    N   GGGG   !!!           |
|                                                                             |
|      You have enabled k-point parallelism (KPAR>1).                         |
|      This developmental code was originally  written by Paul Kent at ORNL,  |
|      and carefully double checked in Vienna.                                |
|      GW as well as linear response parallelism added by Martijn Marsman     |
|      and Georg Kresse.                                                      |
|      Carefully verify results versus KPAR=1.                                |
|      Report problems to Paul Kent and Vienna.                               |
|                                                                             |
 ----------------------------------------------------------------------------- 

 POTCAR:    PAW Og, JanMewes Oct 18               
   VRHFIN =Og : 10d 2s 6p, PE                                                   
   LEXCH  = PE                                                                  
   EATOM  =  2640.5573 eV,  194.0755 Ry                                         
                                                                                
   TITEL  = PAW Og, JanMewes Oct 18                                             
   LULTRA =        F    use ultrasoft PP ?                                      
   IUNSCR =        1    unscreen: 0-lin 1-nonlin 2-no                           
   RPACOR =    1.700    partial core radius                                     
   POMASS =    0.010; ZVAL   =   18.000    mass and valenz                      
   RCORE  =    2.600    outmost cutoff radius                                   
   RWIGS  =    3.500; RWIGS  =    1.852    wigner-seitz radius (au A)           
   ENMAX  =  339.336; ENMIN  =  254.502 eV                                      
   ICORE  =        3    local potential                                         
   LCOR   =        T    correct aug charges                                     
   LPAW   =        T    paw PP                                                  
   EAUG   =  361.025                                                            
   DEXC   =   -0.000                                                            
   RAUG   =    1.300    factor for augmentation sphere                          
   RDEP   =    2.775    radius for radial grids                                 
   RDEPT  =    2.135    core radius for aug-charge                              
   QCUT   =   -4.994; QGAM   =    9.988    optimization parameters              
                                                                                
   Atomic configuration                                                         
   22 entries                                                                   
     n  l   j            E        occ.                                          
     1  0  0.50   -225781.4217   2.0000                                         
     2  0  0.50    -47342.3774   2.0000                                         
     2  1  1.50    -33463.4058   6.0000                                         
     3  0  0.50    -12845.8060   2.0000                                         
     3  1  1.50     -9184.5562   6.0000                                         
     3  2  2.50     -7322.6146  10.0000                                         
     4  0  0.50     -3781.9433   2.0000                                         
     4  1  1.50     -2605.9204   6.0000                                         
     4  2  2.50     -1899.4626  10.0000                                         
     4  3  3.50     -1273.6890  14.0000                                         
     5  0  0.50     -1046.0643   2.0000                                         
     5  1  1.50      -650.9265   6.0000                                         
     5  2  2.50      -388.1490  10.0000                                         
     5  3  3.50      -152.1121  14.0000                                         
     6  0  0.50      -224.6639   2.0000                                         
     6  1  0.50      -184.3267   2.0000                                         
     6  1  1.50       -97.8537   4.0000                                         
     6  2  2.50       -35.6667  10.0000                                         
     7  0  0.50       -28.5889   2.0000                                         
     8  0  0.50        -1.3606   0.0000                                         
     7  1  1.50        -7.0827   6.0000                                         
     6  3  3.50        -0.0136   0.0000                                         
   Description                                                                  
     l       E           TYP  RCUT    TYP  RCUT                                 
     2    -35.6666962     23  2.100                                             
     2     34.0145650     23  2.300                                             
     0    -28.5889381     23  1.600                                             
     0     40.8174780     23  2.200                                             
     1     -7.0826811     23  2.200                                             
     1    148.3035034     23  1.900                                             
     3      6.8029130      7  2.600                                             
  local pseudopotential read in
  partial core-charges read in
  partial kinetic energy density read in
  kinetic energy density of atom read in
  atomic valenz-charges read in
  non local Contribution for L=           2  read in
    real space projection operators read in
  non local Contribution for L=           2  read in
    real space projection operators read in
  non local Contribution for L=           0  read in
    real space projection operators read in
  non local Contribution for L=           0  read in
    real space projection operators read in
  non local Contribution for L=           1  read in
    real space projection operators read in
  non local Contribution for L=           1  read in
    real space projection operators read in
    PAW grid and wavefunctions read in
 
   number of l-projection  operators is LMAX  =           6
   number of lm-projection operators is LMMAX =          18
 
  PAW Og, JanMewes Oct 18               :
 energy of atom  1       EATOM=-2640.5573
 kinetic energy error for atom=    0.6524 (will be added to EATOM!!)
 
 
 POSCAR: Og_FCC                                  
  positions in direct lattice
  velocities in cartesian coordinates

 METAGGA = SCAN     LMAXTAU =  0    LMIXTAU =  F

 exchange correlation table for  LEXCH =        8
   RHO(1)=    0.500       N(1)  =     2000
   RHO(2)=  100.500       N(2)  =     4000
 


--------------------------------------------------------------------------------------------------------


 ion  position               nearest neighbor table
   1  0.000  0.000  0.000-
 

IMPORTANT INFORMATION: All symmetrisations will be switched off!
NOSYMM: (Re-)initialisation of all symmetry stuff for point group C_1.

 
 
 KPOINTS: Automatically generated mesh + R-points 
  k-points in reciprocal lattice
Space group operators:
 irot       det(A)        alpha          n_x          n_y          n_z        tau_x        tau_y        tau_z
    1     1.000000     0.000000     1.000000     0.000000     0.000000     0.000000     0.000000     0.000000


--------------------------------------------------------------------------------------------------------




 Dimension of arrays:
   k-points           NKPTS =    152   k-points in BZ     NKDIM =    152   number of bands    NBANDS=     64
   number of dos      NEDOS =    301   number of ions     NIONS =      1
   non local maximal  LDIM  =      6   non local SUM 2l+1 LMDIM =     18
   total plane-waves  NPLWV =  21952
   max r-space proj   IRMAX =      1   max aug-charges    IRDMAX= 175694
   dimension x,y,z NGX =    28 NGY =   28 NGZ =   28
   dimension x,y,z NGXF=    56 NGYF=   56 NGZF=   56
   support grid    NGXF=   112 NGYF=  112 NGZF=  112
   ions per type =               1
   NGX,Y,Z   is equivalent  to a cutoff of  10.59, 10.59, 10.59 a.u.
   NGXF,Y,Z  is equivalent  to a cutoff of  21.18, 21.18, 21.18 a.u.

 SYSTEM =  Og_FCC                                  
 POSCAR =  Og_FCC                                  

 Startparameter for this run:
   NWRITE =      2    write-flag & timer
   PREC   = accura    normal or accurate (medium, high low for compatibility)
   ISTART =      1    job   : 0-new  1-cont  2-samecut
   ICHARG =      0    charge: 1-file 2-atom 10-const
   ISPIN  =      1    spin polarized calculation?
   LNONCOLLINEAR =      F non collinear calculations
   LSORBIT =      F    spin-orbit coupling
   INIWAV =      1    electr: 0-lowe 1-rand  2-diag
   LASPH  =      F    aspherical Exc in radial PAW
   METAGGA=      F    non-selfconsistent MetaGGA calc.

 Electronic Relaxation 1
   ENCUT  =  300.0 eV  22.05 Ry    4.70 a.u.   6.21  6.21  6.21*2*pi/ulx,y,z
   ENINI  =  300.0     initial cutoff
   ENAUG  =  361.0 eV  augmentation charge cutoff
   NELM   =     50;   NELMIN=  2; NELMDL= -5     # of ELM steps 
   EDIFF  = 0.1E-07   stopping-criterion for ELM
   LREAL  =      F    real-space projection
   NLSPLINE    = F    spline interpolate recip. space projectors
   LCOMPAT=      F    compatible to vasp.4.4
   GGA_COMPAT  = F    GGA compatible to vasp.4.4-vasp.4.6
   LMAXPAW     = -100 max onsite density
   LMAXMIX     =    2 max onsite mixed and CHGCAR
   VOSKOWN=      0    Vosko Wilk Nusair interpolation
   ROPT   =    0.00000
 Ionic relaxation
   EDIFFG = 0.1E-04   stopping-criterion for IOM
   NSW    =      1    number of steps for IOM
   NBLOCK =      1;   KBLOCK =      1    inner block; outer block 
   IBRION =     -1    ionic relax: 0-MD 1-quasi-New 2-CG
   NFREE  =      5    steps in history (QN), initial steepest desc. (CG)
   ISIF   =      3    stress and relaxation
   IWAVPR =     10    prediction:  0-non 1-charg 2-wave 3-comb
   ISYM   =      0    0-nonsym 1-usesym 2-fastsym
   LCORR  =      T    Harris-Foulkes like correction to forces

   POTIM  = 0.1000    time-step for ionic-motion
   TEIN   =    0.0    initial temperature
   TEBEG  =    0.0;   TEEND  =   0.0 temperature during run
   SMASS  =  -3.00    Nose mass-parameter (am)
   estimated Nose-frequenzy (Omega)   =  0.10E-29 period in steps =****** mass=  -0.442E-27a.u.
   SCALEE = 1.0000    scale energy and forces
   NPACO  =    256;   APACO  = 16.0  distance and # of slots for P.C.
   PSTRESS=    0.0 pullay stress

  Mass of Ions in am
   POMASS =   0.01
  Ionic Valenz
   ZVAL   =  18.00
  Atomic Wigner-Seitz radii
   RWIGS  =  -1.00
  virtual crystal weights 
   VCA    =   1.00
   NELECT =      18.0000    total number of electrons
   NUPDOWN=      -1.0000    fix difference up-down

 DOS related values:
   EMIN   =  10.00;   EMAX   =-10.00  energy-range for DOS
   EFERMI =   0.00
   ISMEAR =     0;   SIGMA  =   0.05  broadening in eV -4-tet -1-fermi 0-gaus

 Electronic relaxation 2 (details)
   IALGO  =     38    algorithm
   LDIAG  =      T    sub-space diagonalisation (order eigenvalues)
   LSUBROT=      F    optimize rotation matrix (better conditioning)
   TURBO    =      0    0=normal 1=particle mesh
   IRESTART =      0    0=no restart 2=restart with 2 vectors
   NREBOOT  =      0    no. of reboots
   NMIN     =      0    reboot dimension
   EREF     =   0.00    reference energy to select bands
   IMIX   =      4    mixing-type and parameters
     AMIX     =   0.40;   BMIX     =  1.00
     AMIX_MAG =   1.60;   BMIX_MAG =  1.00
     AMIN     =   0.10
     WC   =   100.;   INIMIX=   1;  MIXPRE=   1;  MAXMIX=  50

 Intra band minimization:
   WEIMIN = 0.0000     energy-eigenvalue tresh-hold
   EBREAK =  0.39E-10  absolut break condition
   DEPER  =   0.30     relativ break condition  

   TIME   =   0.40     timestep for ELM

  volume/ion in A,a.u.               =      60.08       405.47
  Fermi-wavevector in a.u.,A,eV,Ry     =   1.095414  2.070033 16.326071  1.199932
  Thomas-Fermi vector in A             =   2.231737
 
 Write flags
   LWAVE        =      T    write WAVECAR
   LDOWNSAMPLE  =      F    k-point downsampling of WAVECAR
   LCHARG       =      T    write CHGCAR
   LVTOT        =      F    write LOCPOT, total local potential
   LVHAR        =      F    write LOCPOT, Hartree potential only
   LELF         =      F    write electronic localiz. function (ELF)
   LORBIT       =      0    0 simple, 1 ext, 2 COOP (PROOUT), +10 PAW based schemes


 Dipole corrections
   LMONO  =      F    monopole corrections only (constant potential shift)
   LDIPOL =      F    correct potential (dipole corrections)
   IDIPOL =      0    1-x, 2-y, 3-z, 4-all directions 
   EPSILON=  1.0000000 bulk dielectric constant

 Exchange correlation treatment:
   GGA     =    --    GGA type
   LEXCH   =     8    internal setting for exchange type
   VOSKOWN=      0    Vosko Wilk Nusair interpolation
   LHFCALC =     F    Hartree Fock is set to
   LHFONE  =     F    Hartree Fock one center treatment
   AEXX    =    0.0000 exact exchange contribution

 Linear response parameters
   LEPSILON=     F    determine dielectric tensor
   LRPA    =     F    only Hartree local field effects (RPA)
   LNABLA  =     F    use nabla operator in PAW spheres
   LVEL    =     F    velocity operator in full k-point grid
   LINTERFAST=   F  fast interpolation
   KINTER  =     0    interpolate to denser k-point grid
   CSHIFT  =0.1000    complex shift for real part using Kramers Kronig
   OMEGAMAX=  -1.0    maximum frequency
   DEG_THRESHOLD= 0.2000000E-02 threshold for treating states as degnerate
   RTIME   =   -0.100 relaxation time in fs
  (WPLASMAI=    0.000 imaginary part of plasma frequency in eV, 0.658/RTIME)
   DFIELD  = 0.0000000 0.0000000 0.0000000 field for delta impulse in time
 
 Orbital magnetization related:
   ORBITALMAG=     F  switch on orbital magnetization
   LCHIMAG   =     F  perturbation theory with respect to B field
   DQ        =  0.001000  dq finite difference perturbation B field
   LLRAUG    =     F  two centre corrections for induced B field



--------------------------------------------------------------------------------------------------------


 Static calculation
 charge density and potential will be updated during run
 non-spin polarized calculation
 Variant of blocked Davidson
 Davidson routine will perform the subspace rotation
 perform sub-space diagonalisation
    after iterative eigenvector-optimisation
 modified Broyden-mixing scheme, WC =      100.0
 initial mixing is a Kerker type mixing with AMIX =  0.4000 and BMIX =      1.0000
 Hartree-type preconditioning will be used
 using additional bands           55
 reciprocal scheme for non local part
 use partial core corrections
 calculate Harris-corrections to forces 
   (improved forces if not selfconsistent)
 use gradient corrections 
 use of overlap-Matrix (Vanderbilt PP)
 Gauss-broadening in eV      SIGMA  =   0.05


--------------------------------------------------------------------------------------------------------


  energy-cutoff  :      300.00
  volume of cell :       60.08
      direct lattice vectors                 reciprocal lattice vectors
     4.396350177  0.000000000  0.000000000     0.227461408 -0.131324905 -0.092860731
     2.198175089  3.807350937 -0.000000000     0.000000000  0.262649810 -0.092860731
     2.198175089  1.269116979  3.589604888    -0.000000000  0.000000000  0.278582192

  length of vectors
     4.396350177  4.396350177  4.396350177     0.278582193  0.278582193  0.278582192


 
 old parameters found on file WAVECAR:
  energy-cutoff  :      300.00
  volume of cell :       57.90
      direct lattice vectors                 reciprocal lattice vectors
     4.342345876  0.000000000  0.000000000     0.230290269 -0.132958149 -0.094015609
     2.171172938  3.760581840 -0.000000000     0.000000000  0.265916298 -0.094015609
     2.171172938  1.253527280  3.545510561    -0.000000000  0.000000000  0.282046826

  length of vectors

 
 k-points in units of 2pi/SCALE and weight: Automatically generated mesh + R-points 
   0.11514513  0.06647907  0.04700780       0.000
   0.10938788  0.06315512  0.04465741       0.000
   0.10363062  0.05983117  0.04230702       0.000
   0.09787336  0.05650721  0.03995663       0.000
   0.09211611  0.05318326  0.03760624       0.000
   0.08635885  0.04985931  0.03525585       0.000
   0.08060159  0.04653535  0.03290546       0.000
   0.07484434  0.04321140  0.03055507       0.000
   0.06908708  0.03988744  0.02820468       0.000
   0.06332982  0.03656349  0.02585429       0.000
   0.05757257  0.03323954  0.02350390       0.000
   0.05181531  0.02991558  0.02115351       0.000
   0.04605805  0.02659163  0.01880312       0.000
   0.04030080  0.02326768  0.01645273       0.000
   0.03454354  0.01994372  0.01410234       0.000
   0.02878628  0.01661977  0.01175195       0.000
   0.02302903  0.01329581  0.00940156       0.000
   0.01727177  0.00997186  0.00705117       0.000
   0.01151451  0.00664791  0.00470078       0.000
   0.00575726  0.00332395  0.00235039       0.000
   0.00000000  0.00000000  0.00000000       0.000
  -0.00000000  0.00664791  0.00470078       0.000
  -0.00000000  0.01329581  0.00940156       0.000
  -0.00000000  0.01994372  0.01410234       0.000
  -0.00000000  0.02659163  0.01880312       0.000
  -0.00000000  0.03323954  0.02350390       0.000
  -0.00000000  0.03988744  0.02820468       0.000
  -0.00000000  0.04653535  0.03290546       0.000
  -0.00000000  0.05318326  0.03760624       0.000
  -0.00000000  0.05983117  0.04230702       0.000
  -0.00000000  0.06647907  0.04700780       0.000
  -0.00000000  0.07312698  0.05170858       0.000
  -0.00000000  0.07977489  0.05640937       0.000
  -0.00000000  0.08642280  0.06111015       0.000
  -0.00000000  0.09307070  0.06581093       0.000
  -0.00000000  0.09971861  0.07051171       0.000
  -0.00000000  0.10636652  0.07521249       0.000
  -0.00000000  0.11301443  0.07991327       0.000
  -0.00000000  0.11966233  0.08461405       0.000
  -0.00000000  0.12631024  0.08931483       0.000
  -0.00000000  0.13295815  0.09401561       0.000
   0.00000000  0.00000000  0.00000000       0.005
   0.03838171 -0.02215969 -0.01566927       0.009
   0.07676342 -0.04431938 -0.03133854       0.009
   0.11514513 -0.06647907 -0.04700780       0.005
   0.00000000  0.04431938 -0.01566927       0.009
   0.03838171  0.02215969 -0.03133854       0.009
   0.07676342  0.00000000 -0.04700780       0.009
   0.11514513 -0.02215969 -0.06267707       0.009
  -0.07676342  0.08863877  0.01566927       0.009
  -0.03838171  0.06647907  0.00000000       0.009
   0.00000000  0.08863877 -0.03133854       0.009
   0.03838171  0.06647907 -0.04700780       0.009
   0.07676342  0.04431938 -0.06267707       0.009
   0.11514513  0.02215969 -0.07834634       0.009
  -0.07676342  0.13295815  0.00000000       0.009
  -0.03838171  0.11079846 -0.01566927       0.009
   0.00000000  0.13295815 -0.04700780       0.005
   0.03838171  0.11079846 -0.06267707       0.009
   0.07676342  0.08863877 -0.07834634       0.009
   0.11514513  0.06647907 -0.09401561       0.005
  -0.00000000  0.00000000  0.04700780       0.009
   0.03838171 -0.02215969  0.03133854       0.009
   0.07676342 -0.04431938  0.01566927       0.009
   0.11514513 -0.06647907  0.00000000       0.009
  -0.07676342  0.04431938  0.07834634       0.009
  -0.03838171  0.02215969  0.06267707       0.009
  -0.00000000  0.04431938  0.03133854       0.009
   0.03838171  0.02215969  0.01566927       0.009
   0.07676342  0.00000000  0.00000000       0.009
   0.11514513 -0.02215969 -0.01566927       0.009
  -0.07676342  0.08863877  0.06267707       0.009
  -0.03838171  0.06647907  0.04700780       0.009
  -0.00000000  0.08863877  0.01566927       0.009
   0.03838171  0.06647907  0.00000000       0.009
   0.07676342  0.04431938 -0.01566927       0.009
   0.11514513  0.02215969 -0.03133854       0.009
  -0.07676342  0.13295815  0.04700780       0.009
  -0.03838171  0.11079846  0.03133854       0.009
  -0.00000000  0.13295815  0.00000000       0.009
   0.03838171  0.11079846 -0.01566927       0.009
   0.07676342  0.08863877 -0.03133854       0.009
   0.11514513  0.06647907 -0.04700780       0.009
  -0.07676342  0.17727753  0.03133854       0.009
  -0.03838171  0.15511784  0.01566927       0.009
  -0.00000000 -0.08863877  0.07834634       0.009
   0.03838171 -0.11079846  0.06267707       0.009
   0.07676342 -0.13295815  0.04700780       0.009
   0.11514513 -0.15511784  0.03133854       0.009
  -0.07676342 -0.04431938  0.10968488       0.009
  -0.03838171 -0.06647907  0.09401561       0.009
  -0.00000000 -0.04431938  0.06267707       0.009
   0.03838171 -0.06647907  0.04700780       0.009
   0.07676342 -0.08863877  0.03133854       0.009
   0.11514513 -0.11079846  0.01566927       0.009
  -0.07676342 -0.00000000  0.09401561       0.009
  -0.03838171 -0.02215969  0.07834634       0.009
  -0.00000000  0.00000000  0.09401561       0.009
   0.03838171 -0.02215969  0.07834634       0.009
   0.07676342 -0.04431938  0.06267707       0.009
   0.11514513 -0.06647907  0.04700780       0.009
  -0.07676342  0.04431938  0.12535414       0.009
  -0.03838171  0.02215969  0.10968488       0.009
  -0.00000000  0.04431938  0.07834634       0.009
   0.03838171  0.02215969  0.06267707       0.009
   0.07676342  0.00000000  0.04700780       0.009
   0.11514513 -0.02215969  0.03133854       0.009
  -0.07676342  0.08863877  0.10968488       0.009
  -0.03838171  0.06647907  0.09401561       0.009
  -0.00000000  0.08863877  0.06267707       0.009
   0.03838171  0.06647907  0.04700780       0.009
   0.07676342  0.04431938  0.03133854       0.009
   0.11514513  0.02215969  0.01566927       0.009
  -0.07676342  0.13295815  0.09401561       0.009
  -0.03838171  0.11079846  0.07834634       0.009
  -0.00000000  0.13295815  0.04700780       0.009
   0.03838171  0.11079846  0.03133854       0.009
   0.07676342  0.08863877  0.01566927       0.009
   0.11514513  0.06647907 -0.00000000       0.009
  -0.07676342  0.17727753  0.07834634       0.009
  -0.03838171  0.15511784  0.06267707       0.009
  -0.00000000 -0.08863877  0.12535414       0.009
   0.03838171 -0.11079846  0.10968488       0.009
   0.07676342 -0.13295815  0.09401561       0.009
   0.11514513 -0.15511784  0.07834634       0.009
  -0.07676342 -0.04431938  0.15669268       0.009
  -0.03838171 -0.06647907  0.14102341       0.009
  -0.00000000 -0.04431938  0.10968488       0.009
   0.03838171 -0.06647907  0.09401561       0.009
   0.07676342 -0.08863877  0.07834634       0.009
   0.11514513 -0.11079846  0.06267707       0.009
  -0.07676342 -0.00000000  0.14102341       0.009
  -0.03838171 -0.02215969  0.12535414       0.009
  -0.00000000  0.00000000  0.14102341       0.005
   0.03838171 -0.02215969  0.12535414       0.009
   0.07676342 -0.04431938  0.10968488       0.009
   0.11514513 -0.06647907  0.09401561       0.005
  -0.00000000  0.04431938  0.12535414       0.009
   0.03838171  0.02215969  0.10968488       0.009
   0.07676342  0.00000000  0.09401561       0.009
   0.11514513 -0.02215969  0.07834634       0.009
  -0.07676342  0.08863877  0.15669268       0.009
  -0.03838171  0.06647907  0.14102341       0.009
  -0.00000000  0.08863877  0.10968488       0.009
   0.03838171  0.06647907  0.09401561       0.009
   0.07676342  0.04431938  0.07834634       0.009
   0.11514513  0.02215969  0.06267707       0.009
  -0.07676342  0.13295815  0.14102341       0.009
  -0.03838171  0.11079846  0.12535414       0.009
  -0.00000000  0.13295815  0.09401561       0.005
   0.03838171  0.11079846  0.07834634       0.009
   0.07676342  0.08863877  0.06267707       0.009
 
 k-points in reciprocal lattice and weights: Automatically generated mesh + R-points 
   0.50000000  0.50000000  0.50000000       0.000
   0.47500000  0.47500000  0.47500000       0.000
   0.45000000  0.45000000  0.45000000       0.000
   0.42500000  0.42500000  0.42500000       0.000
   0.40000000  0.40000000  0.40000000       0.000
   0.37500000  0.37500000  0.37500000       0.000
   0.35000000  0.35000000  0.35000000       0.000
   0.32500000  0.32500000  0.32500000       0.000
   0.30000000  0.30000000  0.30000000       0.000
   0.27500000  0.27500000  0.27500000       0.000
   0.25000000  0.25000000  0.25000000       0.000
   0.22500000  0.22500000  0.22500000       0.000
   0.20000000  0.20000000  0.20000000       0.000
   0.17500000  0.17500000  0.17500000       0.000
   0.15000000  0.15000000  0.15000000       0.000
   0.12500000  0.12500000  0.12500000       0.000
   0.10000000  0.10000000  0.10000000       0.000
   0.07500000  0.07500000  0.07500000       0.000
   0.05000000  0.05000000  0.05000000       0.000
   0.02500000  0.02500000  0.02500000       0.000
   0.00000000  0.00000000  0.00000000       0.000
   0.00000000  0.02500000  0.02500000       0.000
   0.00000000  0.05000000  0.05000000       0.000
   0.00000000  0.07500000  0.07500000       0.000
   0.00000000  0.10000000  0.10000000       0.000
   0.00000000  0.12500000  0.12500000       0.000
   0.00000000  0.15000000  0.15000000       0.000
   0.00000000  0.17500000  0.17500000       0.000
   0.00000000  0.20000000  0.20000000       0.000
   0.00000000  0.22500000  0.22500000       0.000
   0.00000000  0.25000000  0.25000000       0.000
   0.00000000  0.27500000  0.27500000       0.000
   0.00000000  0.30000000  0.30000000       0.000
   0.00000000  0.32500000  0.32500000       0.000
   0.00000000  0.35000000  0.35000000       0.000
   0.00000000  0.37500000  0.37500000       0.000
   0.00000000  0.40000000  0.40000000       0.000
   0.00000000  0.42500000  0.42500000       0.000
   0.00000000  0.45000000  0.45000000       0.000
   0.00000000  0.47500000  0.47500000       0.000
   0.00000000  0.50000000  0.50000000       0.000
   0.00000000  0.00000000  0.00000000       0.005
   0.16666667  0.00000000  0.00000000       0.009
   0.33333333  0.00000000  0.00000000       0.009
   0.50000000  0.00000000  0.00000000       0.005
   0.00000000  0.16666667  0.00000000       0.009
   0.16666667  0.16666667  0.00000000       0.009
   0.33333333  0.16666667  0.00000000       0.009
   0.50000000  0.16666667  0.00000000       0.009
  -0.33333333  0.16666667  0.00000000       0.009
  -0.16666667  0.16666667  0.00000000       0.009
   0.00000000  0.33333333  0.00000000       0.009
   0.16666667  0.33333333  0.00000000       0.009
   0.33333333  0.33333333  0.00000000       0.009
   0.50000000  0.33333333  0.00000000       0.009
  -0.33333333  0.33333333  0.00000000       0.009
  -0.16666667  0.33333333  0.00000000       0.009
   0.00000000  0.50000000  0.00000000       0.005
   0.16666667  0.50000000  0.00000000       0.009
   0.33333333  0.50000000  0.00000000       0.009
   0.50000000  0.50000000  0.00000000       0.005
   0.00000000  0.00000000  0.16666667       0.009
   0.16666667  0.00000000  0.16666667       0.009
   0.33333333  0.00000000  0.16666667       0.009
   0.50000000  0.00000000  0.16666667       0.009
  -0.33333333  0.00000000  0.16666667       0.009
  -0.16666667  0.00000000  0.16666667       0.009
   0.00000000  0.16666667  0.16666667       0.009
   0.16666667  0.16666667  0.16666667       0.009
   0.33333333  0.16666667  0.16666667       0.009
   0.50000000  0.16666667  0.16666667       0.009
  -0.33333333  0.16666667  0.16666667       0.009
  -0.16666667  0.16666667  0.16666667       0.009
   0.00000000  0.33333333  0.16666667       0.009
   0.16666667  0.33333333  0.16666667       0.009
   0.33333333  0.33333333  0.16666667       0.009
   0.50000000  0.33333333  0.16666667       0.009
  -0.33333333  0.33333333  0.16666667       0.009
  -0.16666667  0.33333333  0.16666667       0.009
   0.00000000  0.50000000  0.16666667       0.009
   0.16666667  0.50000000  0.16666667       0.009
   0.33333333  0.50000000  0.16666667       0.009
   0.50000000  0.50000000  0.16666667       0.009
  -0.33333333  0.50000000  0.16666667       0.009
  -0.16666667  0.50000000  0.16666667       0.009
   0.00000000 -0.33333333  0.16666667       0.009
   0.16666667 -0.33333333  0.16666667       0.009
   0.33333333 -0.33333333  0.16666667       0.009
   0.50000000 -0.33333333  0.16666667       0.009
  -0.33333333 -0.33333333  0.16666667       0.009
  -0.16666667 -0.33333333  0.16666667       0.009
   0.00000000 -0.16666667  0.16666667       0.009
   0.16666667 -0.16666667  0.16666667       0.009
   0.33333333 -0.16666667  0.16666667       0.009
   0.50000000 -0.16666667  0.16666667       0.009
  -0.33333333 -0.16666667  0.16666667       0.009
  -0.16666667 -0.16666667  0.16666667       0.009
   0.00000000  0.00000000  0.33333333       0.009
   0.16666667  0.00000000  0.33333333       0.009
   0.33333333  0.00000000  0.33333333       0.009
   0.50000000  0.00000000  0.33333333       0.009
  -0.33333333  0.00000000  0.33333333       0.009
  -0.16666667  0.00000000  0.33333333       0.009
   0.00000000  0.16666667  0.33333333       0.009
   0.16666667  0.16666667  0.33333333       0.009
   0.33333333  0.16666667  0.33333333       0.009
   0.50000000  0.16666667  0.33333333       0.009
  -0.33333333  0.16666667  0.33333333       0.009
  -0.16666667  0.16666667  0.33333333       0.009
   0.00000000  0.33333333  0.33333333       0.009
   0.16666667  0.33333333  0.33333333       0.009
   0.33333333  0.33333333  0.33333333       0.009
   0.50000000  0.33333333  0.33333333       0.009
  -0.33333333  0.33333333  0.33333333       0.009
  -0.16666667  0.33333333  0.33333333       0.009
   0.00000000  0.50000000  0.33333333       0.009
   0.16666667  0.50000000  0.33333333       0.009
   0.33333333  0.50000000  0.33333333       0.009
   0.50000000  0.50000000  0.33333333       0.009
  -0.33333333  0.50000000  0.33333333       0.009
  -0.16666667  0.50000000  0.33333333       0.009
   0.00000000 -0.33333333  0.33333333       0.009
   0.16666667 -0.33333333  0.33333333       0.009
   0.33333333 -0.33333333  0.33333333       0.009
   0.50000000 -0.33333333  0.33333333       0.009
  -0.33333333 -0.33333333  0.33333333       0.009
  -0.16666667 -0.33333333  0.33333333       0.009
   0.00000000 -0.16666667  0.33333333       0.009
   0.16666667 -0.16666667  0.33333333       0.009
   0.33333333 -0.16666667  0.33333333       0.009
   0.50000000 -0.16666667  0.33333333       0.009
  -0.33333333 -0.16666667  0.33333333       0.009
  -0.16666667 -0.16666667  0.33333333       0.009
   0.00000000  0.00000000  0.50000000       0.005
   0.16666667  0.00000000  0.50000000       0.009
   0.33333333  0.00000000  0.50000000       0.009
   0.50000000  0.00000000  0.50000000       0.005
   0.00000000  0.16666667  0.50000000       0.009
   0.16666667  0.16666667  0.50000000       0.009
   0.33333333  0.16666667  0.50000000       0.009
   0.50000000  0.16666667  0.50000000       0.009
  -0.33333333  0.16666667  0.50000000       0.009
  -0.16666667  0.16666667  0.50000000       0.009
   0.00000000  0.33333333  0.50000000       0.009
   0.16666667  0.33333333  0.50000000       0.009
   0.33333333  0.33333333  0.50000000       0.009
   0.50000000  0.33333333  0.50000000       0.009
  -0.33333333  0.33333333  0.50000000       0.009
  -0.16666667  0.33333333  0.50000000       0.009
   0.00000000  0.50000000  0.50000000       0.005
   0.16666667  0.50000000  0.50000000       0.009
   0.33333333  0.50000000  0.50000000       0.009
 
 position of ions in fractional coordinates (direct lattice) 
   0.00000000  0.00000000  0.00000000
 
 position of ions in cartesian coordinates  (Angst):
   0.00000000  0.00000000  0.00000000
 


--------------------------------------------------------------------------------------------------------


 k-point  1 :   0.5000 0.5000 0.5000  plane waves:     718
 k-point  2 :   0.4750 0.4750 0.4750  plane waves:     718
 k-point  3 :   0.4500 0.4500 0.4500  plane waves:     715
 k-point  4 :   0.4250 0.4250 0.4250  plane waves:     715
 k-point  5 :   0.4000 0.4000 0.4000  plane waves:     715
 k-point  6 :   0.3750 0.3750 0.3750  plane waves:     715
 k-point  7 :   0.3500 0.3500 0.3500  plane waves:     709
 k-point  8 :   0.3250 0.3250 0.3250  plane waves:     697
 k-point  9 :   0.3000 0.3000 0.3000  plane waves:     712
 k-point 10 :   0.2750 0.2750 0.2750  plane waves:     709
 k-point 11 :   0.2500 0.2500 0.2500  plane waves:     703
 k-point 12 :   0.2250 0.2250 0.2250  plane waves:     709
 k-point 13 :   0.2000 0.2000 0.2000  plane waves:     709
 k-point 14 :   0.1750 0.1750 0.1750  plane waves:     712
 k-point 15 :   0.1500 0.1500 0.1500  plane waves:     712
 k-point 16 :   0.1250 0.1250 0.1250  plane waves:     712
 k-point 17 :   0.1000 0.1000 0.1000  plane waves:     706
 k-point 18 :   0.0750 0.0750 0.0750  plane waves:     718
 k-point 19 :   0.0500 0.0500 0.0500  plane waves:     722
 k-point 20 :   0.0250 0.0250 0.0250  plane waves:     725
 k-point 21 :   0.0000 0.0000 0.0000  plane waves:     725
 k-point 22 :   0.0000 0.0250 0.0250  plane waves:     725
 k-point 23 :   0.0000 0.0500 0.0500  plane waves:     717
 k-point 24 :   0.0000 0.0750 0.0750  plane waves:     709
 k-point 25 :   0.0000 0.1000 0.1000  plane waves:     713
 k-point 26 :   0.0000 0.1250 0.1250  plane waves:     701
 k-point 27 :   0.0000 0.1500 0.1500  plane waves:     697
 k-point 28 :   0.0000 0.1750 0.1750  plane waves:     697
 k-point 29 :   0.0000 0.2000 0.2000  plane waves:     701
 k-point 30 :   0.0000 0.2250 0.2250  plane waves:     713
 k-point 31 :   0.0000 0.2500 0.2500  plane waves:     713
 k-point 32 :   0.0000 0.2750 0.2750  plane waves:     709
 k-point 33 :   0.0000 0.3000 0.3000  plane waves:     709
 k-point 34 :   0.0000 0.3250 0.3250  plane waves:     717
 k-point 35 :   0.0000 0.3500 0.3500  plane waves:     713
 k-point 36 :   0.0000 0.3750 0.3750  plane waves:     709
 k-point 37 :   0.0000 0.4000 0.4000  plane waves:     700
 k-point 38 :   0.0000 0.4250 0.4250  plane waves:     708
 k-point 39 :   0.0000 0.4500 0.4500  plane waves:     708
 k-point 40 :   0.0000 0.4750 0.4750  plane waves:     708
 k-point 41 :   0.0000 0.5000 0.5000  plane waves:     724
 k-point 42 :   0.0000 0.0000 0.0000  plane waves:     725
 k-point 43 :   0.1667 0.0000 0.0000  plane waves:     712
 k-point 44 :   0.3333 0.0000 0.0000  plane waves:     697
 k-point 45 :   0.5000 0.0000 0.0000  plane waves:     718
 k-point 46 :   0.0000 0.1667 0.0000  plane waves:     712
 k-point 47 :   0.1667 0.1667 0.0000  plane waves:     693
 k-point 48 :   0.3333 0.1667 0.0000  plane waves:     714
 k-point 49 :   0.5000 0.1667 0.0000  plane waves:     714
 k-point 50 :  -0.3333 0.1667 0.0000  plane waves:     703
 k-point 51 :  -0.1667 0.1667 0.0000  plane waves:     710
 k-point 52 :   0.0000 0.3333 0.0000  plane waves:     697
 k-point 53 :   0.1667 0.3333 0.0000  plane waves:     714
 k-point 54 :   0.3333 0.3333 0.0000  plane waves:     717
 k-point 55 :   0.5000 0.3333 0.0000  plane waves:     709
 k-point 56 :  -0.3333 0.3333 0.0000  plane waves:     716
 k-point 57 :  -0.1667 0.3333 0.0000  plane waves:     703
 k-point 58 :   0.0000 0.5000 0.0000  plane waves:     718
 k-point 59 :   0.1667 0.5000 0.0000  plane waves:     714
 k-point 60 :   0.3333 0.5000 0.0000  plane waves:     709
 k-point 61 :   0.5000 0.5000 0.0000  plane waves:     724
 k-point 62 :   0.0000 0.0000 0.1667  plane waves:     712
 k-point 63 :   0.1667 0.0000 0.1667  plane waves:     693
 k-point 64 :   0.3333 0.0000 0.1667  plane waves:     714
 k-point 65 :   0.5000 0.0000 0.1667  plane waves:     714
 k-point 66 :  -0.3333 0.0000 0.1667  plane waves:     703
 k-point 67 :  -0.1667 0.0000 0.1667  plane waves:     710
 k-point 68 :   0.0000 0.1667 0.1667  plane waves:     693
 k-point 69 :   0.1667 0.1667 0.1667  plane waves:     712
 k-point 70 :   0.3333 0.1667 0.1667  plane waves:     710
 k-point 71 :   0.5000 0.1667 0.1667  plane waves:     703
 k-point 72 :  -0.3333 0.1667 0.1667  plane waves:     714
 k-point 73 :  -0.1667 0.1667 0.1667  plane waves:     714
 k-point 74 :   0.0000 0.3333 0.1667  plane waves:     714
 k-point 75 :   0.1667 0.3333 0.1667  plane waves:     710
 k-point 76 :   0.3333 0.3333 0.1667  plane waves:     714
 k-point 77 :   0.5000 0.3333 0.1667  plane waves:     709
 k-point 78 :  -0.3333 0.3333 0.1667  plane waves:     714
 k-point 79 :  -0.1667 0.3333 0.1667  plane waves:     709
 k-point 80 :   0.0000 0.5000 0.1667  plane waves:     714
 k-point 81 :   0.1667 0.5000 0.1667  plane waves:     703
 k-point 82 :   0.3333 0.5000 0.1667  plane waves:     709
 k-point 83 :   0.5000 0.5000 0.1667  plane waves:     709
 k-point 84 :  -0.3333 0.5000 0.1667  plane waves:     708
 k-point 85 :  -0.1667 0.5000 0.1667  plane waves:     714
 k-point 86 :   0.0000-0.3333 0.1667  plane waves:     703
 k-point 87 :   0.1667-0.3333 0.1667  plane waves:     714
 k-point 88 :   0.3333-0.3333 0.1667  plane waves:     714
 k-point 89 :   0.5000-0.3333 0.1667  plane waves:     708
 k-point 90 :  -0.3333-0.3333 0.1667  plane waves:     709
 k-point 91 :  -0.1667-0.3333 0.1667  plane waves:     709
 k-point 92 :   0.0000-0.1667 0.1667  plane waves:     710
 k-point 93 :   0.1667-0.1667 0.1667  plane waves:     714
 k-point 94 :   0.3333-0.1667 0.1667  plane waves:     709
 k-point 95 :   0.5000-0.1667 0.1667  plane waves:     714
 k-point 96 :  -0.3333-0.1667 0.1667  plane waves:     709
 k-point 97 :  -0.1667-0.1667 0.1667  plane waves:     714
 k-point 98 :   0.0000 0.0000 0.3333  plane waves:     697
 k-point 99 :   0.1667 0.0000 0.3333  plane waves:     714
 k-point ** :   0.3333 0.0000 0.3333  plane waves:     717
 k-point ** :   0.5000 0.0000 0.3333  plane waves:     709
 k-point ** :  -0.3333 0.0000 0.3333  plane waves:     716
 k-point ** :  -0.1667 0.0000 0.3333  plane waves:     703
 k-point ** :   0.0000 0.1667 0.3333  plane waves:     714
 k-point ** :   0.1667 0.1667 0.3333  plane waves:     710
 k-point ** :   0.3333 0.1667 0.3333  plane waves:     714
 k-point ** :   0.5000 0.1667 0.3333  plane waves:     709
 k-point ** :  -0.3333 0.1667 0.3333  plane waves:     714
 k-point ** :  -0.1667 0.1667 0.3333  plane waves:     709
 k-point ** :   0.0000 0.3333 0.3333  plane waves:     717
 k-point ** :   0.1667 0.3333 0.3333  plane waves:     714
 k-point ** :   0.3333 0.3333 0.3333  plane waves:     697
 k-point ** :   0.5000 0.3333 0.3333  plane waves:     703
 k-point ** :  -0.3333 0.3333 0.3333  plane waves:     716
 k-point ** :  -0.1667 0.3333 0.3333  plane waves:     709
 k-point ** :   0.0000 0.5000 0.3333  plane waves:     709
 k-point ** :   0.1667 0.5000 0.3333  plane waves:     709
 k-point ** :   0.3333 0.5000 0.3333  plane waves:     703
 k-point ** :   0.5000 0.5000 0.3333  plane waves:     714
 k-point ** :  -0.3333 0.5000 0.3333  plane waves:     714
 k-point ** :  -0.1667 0.5000 0.3333  plane waves:     708
 k-point ** :   0.0000-0.3333 0.3333  plane waves:     716
 k-point ** :   0.1667-0.3333 0.3333  plane waves:     714
 k-point ** :   0.3333-0.3333 0.3333  plane waves:     716
 k-point ** :   0.5000-0.3333 0.3333  plane waves:     714
 k-point ** :  -0.3333-0.3333 0.3333  plane waves:     716
 k-point ** :  -0.1667-0.3333 0.3333  plane waves:     714
 k-point ** :   0.0000-0.1667 0.3333  plane waves:     703
 k-point ** :   0.1667-0.1667 0.3333  plane waves:     709
 k-point ** :   0.3333-0.1667 0.3333  plane waves:     709
 k-point ** :   0.5000-0.1667 0.3333  plane waves:     708
 k-point ** :  -0.3333-0.1667 0.3333  plane waves:     714
 k-point ** :  -0.1667-0.1667 0.3333  plane waves:     714
 k-point ** :   0.0000 0.0000 0.5000  plane waves:     718
 k-point ** :   0.1667 0.0000 0.5000  plane waves:     714
 k-point ** :   0.3333 0.0000 0.5000  plane waves:     709
 k-point ** :   0.5000 0.0000 0.5000  plane waves:     724
 k-point ** :   0.0000 0.1667 0.5000  plane waves:     714
 k-point ** :   0.1667 0.1667 0.5000  plane waves:     703
 k-point ** :   0.3333 0.1667 0.5000  plane waves:     709
 k-point ** :   0.5000 0.1667 0.5000  plane waves:     709
 k-point ** :  -0.3333 0.1667 0.5000  plane waves:     708
 k-point ** :  -0.1667 0.1667 0.5000  plane waves:     714
 k-point ** :   0.0000 0.3333 0.5000  plane waves:     709
 k-point ** :   0.1667 0.3333 0.5000  plane waves:     709
 k-point ** :   0.3333 0.3333 0.5000  plane waves:     703
 k-point ** :   0.5000 0.3333 0.5000  plane waves:     714
 k-point ** :  -0.3333 0.3333 0.5000  plane waves:     714
 k-point ** :  -0.1667 0.3333 0.5000  plane waves:     708
 k-point ** :   0.0000 0.5000 0.5000  plane waves:     724
 k-point ** :   0.1667 0.5000 0.5000  plane waves:     709
 k-point ** :   0.3333 0.5000 0.5000  plane waves:     714

 maximum and minimum number of plane-waves per node :       376      336

 maximum number of plane-waves:       725
 maximum index in each direction: 
   IXMAX=    6   IYMAX=    6   IZMAX=    6
   IXMIN=   -6   IYMIN=   -6   IZMIN=   -6


 parallel 3D FFT for wavefunctions:
    minimum data exchange during FFTs selected (reduces bandwidth)
 parallel 3D FFT for charge:
    minimum data exchange during FFTs selected (reduces bandwidth)


 total amount of memory used by VASP MPI-rank0   116104. kBytes
=======================================================================

   base      :      30000. kBytes
   nonl-proj :       7907. kBytes
   fftplans  :      13354. kBytes
   grid      :       5838. kBytes
   one-center:         15. kBytes
   wavefun   :      58990. kBytes
 
     INWAV:  cpu time    0.4906: real time    0.5042
 Broyden mixing: mesh for mixing (old mesh)
   NGX = 13   NGY = 13   NGZ = 13
  (NGX  = 56   NGY  = 56   NGZ  = 56)
  gives a total of   2197 points

 charge density for first step will be calculated from the start-wavefunctions


--------------------------------------------------------------------------------------------------------


 Maximum index for augmentation-charges        85087 (set IRDMAX)


--------------------------------------------------------------------------------------------------------


 initial charge from wavefunction
 First call to EWALD:  gamma=   0.453
 Maximum number of real-space cells 3x 3x 3
 Maximum number of reciprocal cells 3x 3x 3

    FEWALD:  cpu time    0.0017: real time    0.0017


--------------------------------------- Iteration      1(   1)  ---------------------------------------


    POTLOK:  cpu time    0.2025: real time    0.2032
    SETDIJ:  cpu time    0.1018: real time    0.1019
     EDDAV:  cpu time    7.3293: real time    7.3337
       DOS:  cpu time    0.0013: real time    0.0013
    --------------------------------------------
      LOOP:  cpu time    7.6350: real time    7.6400

 eigenvalue-minimisations  : 27640
 total energy-change (2. order) :-0.1376819E+03  (-0.1038619E+01)
 number of electron      18.0000000 magnetization 
 augmentation part        2.6545903 magnetization 

 Free energy of the ion-electron system (eV)
  ---------------------------------------------------
  alpha Z        PSCENC =        63.49827359
  Ewald energy   TEWEN  =     -1720.24414233
  -Hartree energ DENC   =      -644.00905546
  -exchange      EXHF   =         0.00000000
  -V(xc)+E(xc)   XCENC  =       -52.61973842
  PAW double counting   =      2271.19488743    -2334.77454163
  entropy T*S    EENTRO =        -0.00000000
  eigenvalues    EBANDS =      -360.63251172
  atomic energy  EATOM  =      2639.90492407
  Solvation  Ediel_sol  =         0.00000000
  ---------------------------------------------------
  free energy    TOTEN  =      -137.68190445 eV

  energy without entropy =     -137.68190445  energy(sigma->0) =     -137.68190445


--------------------------------------------------------------------------------------------------------




--------------------------------------- Iteration      1(   2)  ---------------------------------------


     EDDAV:  cpu time    6.5051: real time    6.5105
       DOS:  cpu time    0.0011: real time    0.0011
    --------------------------------------------
      LOOP:  cpu time    6.5062: real time    6.5116

 eigenvalue-minimisations  : 23040
 total energy-change (2. order) :-0.2033582E-01  (-0.2033456E-01)
 number of electron      18.0000000 magnetization 
 augmentation part        2.6545903 magnetization 

 Free energy of the ion-electron system (eV)
  ---------------------------------------------------
  alpha Z        PSCENC =        63.49827359
  Ewald energy   TEWEN  =     -1720.24414233
  -Hartree energ DENC   =      -644.00905546
  -exchange      EXHF   =         0.00000000
  -V(xc)+E(xc)   XCENC  =       -52.61973842
  PAW double counting   =      2271.19488743    -2334.77454163
  entropy T*S    EENTRO =        -0.00000000
  eigenvalues    EBANDS =      -360.65284754
  atomic energy  EATOM  =      2639.90492407
  Solvation  Ediel_sol  =         0.00000000
  ---------------------------------------------------
  free energy    TOTEN  =      -137.70224027 eV

  energy without entropy =     -137.70224027  energy(sigma->0) =     -137.70224027


--------------------------------------------------------------------------------------------------------




--------------------------------------- Iteration      1(   3)  ---------------------------------------


     EDDAV:  cpu time    7.5890: real time    7.5943
       DOS:  cpu time    0.0013: real time    0.0013
    --------------------------------------------
      LOOP:  cpu time    7.5903: real time    7.5957

 eigenvalue-minimisations  : 27072
 total energy-change (2. order) :-0.7321044E-04  (-0.7320951E-04)
 number of electron      18.0000000 magnetization 
 augmentation part        2.6545903 magnetization 

 Free energy of the ion-electron system (eV)
  ---------------------------------------------------
  alpha Z        PSCENC =        63.49827359
  Ewald energy   TEWEN  =     -1720.24414233
  -Hartree energ DENC   =      -644.00905546
  -exchange      EXHF   =         0.00000000
  -V(xc)+E(xc)   XCENC  =       -52.61973842
  PAW double counting   =      2271.19488743    -2334.77454163
  entropy T*S    EENTRO =        -0.00000000
  eigenvalues    EBANDS =      -360.65292075
  atomic energy  EATOM  =      2639.90492407
  Solvation  Ediel_sol  =         0.00000000
  ---------------------------------------------------
  free energy    TOTEN  =      -137.70231348 eV

  energy without entropy =     -137.70231348  energy(sigma->0) =     -137.70231348


--------------------------------------------------------------------------------------------------------




--------------------------------------- Iteration      1(   4)  ---------------------------------------


     EDDAV:  cpu time    8.0131: real time    8.0244
       DOS:  cpu time    0.0014: real time    0.0014
    --------------------------------------------
      LOOP:  cpu time    8.0145: real time    8.0258

 eigenvalue-minimisations  : 23360
 total energy-change (2. order) :-0.1072481E-05  (-0.1072499E-05)
 number of electron      18.0000000 magnetization 
 augmentation part        2.6545903 magnetization 

 Free energy of the ion-electron system (eV)
  ---------------------------------------------------
  alpha Z        PSCENC =        63.49827359
  Ewald energy   TEWEN  =     -1720.24414233
  -Hartree energ DENC   =      -644.00905546
  -exchange      EXHF   =         0.00000000
  -V(xc)+E(xc)   XCENC  =       -52.61973842
  PAW double counting   =      2271.19488743    -2334.77454163
  entropy T*S    EENTRO =        -0.00000000
  eigenvalues    EBANDS =      -360.65292182
  atomic energy  EATOM  =      2639.90492407
  Solvation  Ediel_sol  =         0.00000000
  ---------------------------------------------------
  free energy    TOTEN  =      -137.70231455 eV

  energy without entropy =     -137.70231455  energy(sigma->0) =     -137.70231455


--------------------------------------------------------------------------------------------------------




--------------------------------------- Iteration      1(   5)  ---------------------------------------


     EDDAV:  cpu time    8.5094: real time    8.5230
       DOS:  cpu time    0.0014: real time    0.0014
    CHARGE:  cpu time    1.5213: real time    1.5235
    MIXING:  cpu time    0.0032: real time    0.0032
    --------------------------------------------
      LOOP:  cpu time   10.0353: real time   10.0511

 eigenvalue-minimisations  : 25528
 total energy-change (2. order) :-0.3539117E-07  (-0.3537844E-07)
 number of electron      18.0000000 magnetization 
 augmentation part        3.1192815 magnetization 

 Broyden mixing:
  rms(total) = 0.40210E+00    rms(broyden)= 0.40185E+00
  rms(prec ) = 0.10820E+01
  weight for this iteration     100.00

 Free energy of the ion-electron system (eV)
  ---------------------------------------------------
  alpha Z        PSCENC =        63.49827359
  Ewald energy   TEWEN  =     -1720.24414233
  -Hartree energ DENC   =      -644.00905546
  -exchange      EXHF   =         0.00000000
  -V(xc)+E(xc)   XCENC  =       -52.61973842
  PAW double counting   =      2271.19488743    -2334.77454163
  entropy T*S    EENTRO =        -0.00000000
  eigenvalues    EBANDS =      -360.65292186
  atomic energy  EATOM  =      2639.90492407
  Solvation  Ediel_sol  =         0.00000000
  ---------------------------------------------------
  free energy    TOTEN  =      -137.70231459 eV

  energy without entropy =     -137.70231459  energy(sigma->0) =     -137.70231459


--------------------------------------------------------------------------------------------------------




--------------------------------------- Iteration      1(   6)  ---------------------------------------


    POTLOK:  cpu time    0.2520: real time    0.2523
    SETDIJ:  cpu time    0.1171: real time    0.1172
     EDDAV:  cpu time    9.2488: real time    9.2626
       DOS:  cpu time    0.0015: real time    0.0014
    CHARGE:  cpu time    1.5329: real time    1.5348
    MIXING:  cpu time    0.0030: real time    0.0030
    --------------------------------------------
      LOOP:  cpu time   11.1552: real time   11.1713

 eigenvalue-minimisations  : 29104
 total energy-change (2. order) : 0.7815265E+00  (-0.2692413E-01)
 number of electron      18.0000000 magnetization 
 augmentation part        3.0240048 magnetization 

 Broyden mixing:
  rms(total) = 0.15615E+00    rms(broyden)= 0.15615E+00
  rms(prec ) = 0.41535E+00
  weight for this iteration     100.00

 eigenvalues of (default mixing * dielectric matrix)
  average eigenvalue GAMMA=   1.6284
  1.6284

 Free energy of the ion-electron system (eV)
  ---------------------------------------------------
  alpha Z        PSCENC =        63.49827359
  Ewald energy   TEWEN  =     -1720.24414233
  -Hartree energ DENC   =      -661.38852565
  -exchange      EXHF   =         0.00000000
  -V(xc)+E(xc)   XCENC  =       -51.13259727
  PAW double counting   =      2315.30293442    -2381.30456561
  entropy T*S    EENTRO =        -0.00000000
  eigenvalues    EBANDS =      -341.55708931
  atomic energy  EATOM  =      2639.90492407
  Solvation  Ediel_sol  =         0.00000000
  ---------------------------------------------------
  free energy    TOTEN  =      -136.92078808 eV

  energy without entropy =     -136.92078808  energy(sigma->0) =     -136.92078808


--------------------------------------------------------------------------------------------------------




--------------------------------------- Iteration      1(   7)  ---------------------------------------


    POTLOK:  cpu time    0.2501: real time    0.2505
    SETDIJ:  cpu time    0.1166: real time    0.1167
     EDDAV:  cpu time    9.0030: real time    9.0168
       DOS:  cpu time    0.0014: real time    0.0015
    CHARGE:  cpu time    1.5363: real time    1.5378
    MIXING:  cpu time    0.0029: real time    0.0029
    --------------------------------------------
      LOOP:  cpu time   10.9104: real time   10.9262

 eigenvalue-minimisations  : 28056
 total energy-change (2. order) : 0.9851671E-01  (-0.2746398E-01)
 number of electron      18.0000000 magnetization 
 augmentation part        2.9663782 magnetization 

 Broyden mixing:
  rms(total) = 0.15950E-01    rms(broyden)= 0.15829E-01
  rms(prec ) = 0.36357E-01
  weight for this iteration     100.00

 eigenvalues of (default mixing * dielectric matrix)
  average eigenvalue GAMMA=   1.2780
  0.9018  1.6542

 Free energy of the ion-electron system (eV)
  ---------------------------------------------------
  alpha Z        PSCENC =        63.49827359
  Ewald energy   TEWEN  =     -1720.24414233
  -Hartree energ DENC   =      -672.32559981
  -exchange      EXHF   =         0.00000000
  -V(xc)+E(xc)   XCENC  =       -50.97051049
  PAW double counting   =      2339.62998098    -2406.76796566
  entropy T*S    EENTRO =        -0.00000000
  eigenvalues    EBANDS =      -329.54723172
  atomic energy  EATOM  =      2639.90492407
  Solvation  Ediel_sol  =         0.00000000
  ---------------------------------------------------
  free energy    TOTEN  =      -136.82227137 eV

  energy without entropy =     -136.82227137  energy(sigma->0) =     -136.82227137


--------------------------------------------------------------------------------------------------------




--------------------------------------- Iteration      1(   8)  ---------------------------------------


    POTLOK:  cpu time    0.2424: real time    0.2434
    SETDIJ:  cpu time    0.1188: real time    0.1189
     EDDAV:  cpu time    8.1758: real time    8.1892
       DOS:  cpu time    0.0014: real time    0.0015
    CHARGE:  cpu time    1.5360: real time    1.5378
    MIXING:  cpu time    0.0035: real time    0.0035
    --------------------------------------------
      LOOP:  cpu time   10.0779: real time   10.0942

 eigenvalue-minimisations  : 24008
 total energy-change (2. order) :-0.3932721E-02  (-0.1134297E-02)
 number of electron      18.0000000 magnetization 
 augmentation part        2.9703329 magnetization 

 Broyden mixing:
  rms(total) = 0.13610E-01    rms(broyden)= 0.13577E-01
  rms(prec ) = 0.29028E-01
  weight for this iteration     100.00

 eigenvalues of (default mixing * dielectric matrix)
  average eigenvalue GAMMA=   1.5972
  1.4343  1.4343  1.9231

 Free energy of the ion-electron system (eV)
  ---------------------------------------------------
  alpha Z        PSCENC =        63.49827359
  Ewald energy   TEWEN  =     -1720.24414233
  -Hartree energ DENC   =      -671.98859563
  -exchange      EXHF   =         0.00000000
  -V(xc)+E(xc)   XCENC  =       -51.10002792
  PAW double counting   =      2333.87002408    -2400.86353913
  entropy T*S    EENTRO =        -0.00000000
  eigenvalues    EBANDS =      -329.90312083
  atomic energy  EATOM  =      2639.90492407
  Solvation  Ediel_sol  =         0.00000000
  ---------------------------------------------------
  free energy    TOTEN  =      -136.82620410 eV

  energy without entropy =     -136.82620410  energy(sigma->0) =     -136.82620410


--------------------------------------------------------------------------------------------------------




--------------------------------------- Iteration      1(   9)  ---------------------------------------


    POTLOK:  cpu time    0.2499: real time    0.2503
    SETDIJ:  cpu time    0.1165: real time    0.1166
     EDDAV:  cpu time    8.9272: real time    8.9405
       DOS:  cpu time    0.0015: real time    0.0014
    CHARGE:  cpu time    1.5322: real time    1.5339
    MIXING:  cpu time    0.0033: real time    0.0033
    --------------------------------------------
      LOOP:  cpu time   10.8305: real time   10.8461

 eigenvalue-minimisations  : 27120
 total energy-change (2. order) : 0.2683882E-04  (-0.4297650E-03)
 number of electron      18.0000000 magnetization 
 augmentation part        2.9738419 magnetization 

 Broyden mixing:
  rms(total) = 0.40615E-02    rms(broyden)= 0.40592E-02
  rms(prec ) = 0.80323E-02
  weight for this iteration     100.00

 eigenvalues of (default mixing * dielectric matrix)
  average eigenvalue GAMMA=   1.5296
  2.6042  1.3866  1.3866  0.7411

 Free energy of the ion-electron system (eV)
  ---------------------------------------------------
  alpha Z        PSCENC =        63.49827359
  Ewald energy   TEWEN  =     -1720.24414233
  -Hartree energ DENC   =      -671.53580399
  -exchange      EXHF   =         0.00000000
  -V(xc)+E(xc)   XCENC  =       -51.25041042
  PAW double counting   =      2320.04921762    -2386.76066983
  entropy T*S    EENTRO =        -0.00000000
  eigenvalues    EBANDS =      -330.48756596
  atomic energy  EATOM  =      2639.90492407
  Solvation  Ediel_sol  =         0.00000000
  ---------------------------------------------------
  free energy    TOTEN  =      -136.82617726 eV

  energy without entropy =     -136.82617726  energy(sigma->0) =     -136.82617726


--------------------------------------------------------------------------------------------------------




--------------------------------------- Iteration      1(  10)  ---------------------------------------


    POTLOK:  cpu time    0.2519: real time    0.2523
    SETDIJ:  cpu time    0.1129: real time    0.1131
     EDDAV:  cpu time    8.5902: real time    8.6028
       DOS:  cpu time    0.0014: real time    0.0014
    CHARGE:  cpu time    1.5116: real time    1.5132
    MIXING:  cpu time    0.0034: real time    0.0034
    --------------------------------------------
      LOOP:  cpu time   10.4713: real time   10.4860

 eigenvalue-minimisations  : 25776
 total energy-change (2. order) : 0.1262342E-03  (-0.4689073E-04)
 number of electron      18.0000000 magnetization 
 augmentation part        2.9730699 magnetization 

 Broyden mixing:
  rms(total) = 0.13422E-02    rms(broyden)= 0.13399E-02
  rms(prec ) = 0.17629E-02
  weight for this iteration     100.00

 eigenvalues of (default mixing * dielectric matrix)
  average eigenvalue GAMMA=   1.4808
  2.3454  1.4496  1.4496  1.0796  1.0796

 Free energy of the ion-electron system (eV)
  ---------------------------------------------------
  alpha Z        PSCENC =        63.49827359
  Ewald energy   TEWEN  =     -1720.24414233
  -Hartree energ DENC   =      -671.53358543
  -exchange      EXHF   =         0.00000000
  -V(xc)+E(xc)   XCENC  =       -51.26458120
  PAW double counting   =      2316.71947681    -2383.32372914
  entropy T*S    EENTRO =        -0.00000000
  eigenvalues    EBANDS =      -330.58268739
  atomic energy  EATOM  =      2639.90492407
  Solvation  Ediel_sol  =         0.00000000
  ---------------------------------------------------
  free energy    TOTEN  =      -136.82605102 eV

  energy without entropy =     -136.82605102  energy(sigma->0) =     -136.82605102


--------------------------------------------------------------------------------------------------------




--------------------------------------- Iteration      1(  11)  ---------------------------------------


    POTLOK:  cpu time    0.2483: real time    0.2492
    SETDIJ:  cpu time    0.1142: real time    0.1143
     EDDAV:  cpu time    9.8417: real time    9.8561
       DOS:  cpu time    0.0019: real time    0.0019
    CHARGE:  cpu time    1.5233: real time    1.5250
    MIXING:  cpu time    0.0033: real time    0.0033
    --------------------------------------------
      LOOP:  cpu time   11.7337: real time   11.7498

 eigenvalue-minimisations  : 32072
 total energy-change (2. order) : 0.1495708E-03  (-0.2747941E-04)
 number of electron      18.0000000 magnetization 
 augmentation part        2.9726972 magnetization 

 Broyden mixing:
  rms(total) = 0.44355E-03    rms(broyden)= 0.43539E-03
  rms(prec ) = 0.62245E-03
  weight for this iteration     100.00

 eigenvalues of (default mixing * dielectric matrix)
  average eigenvalue GAMMA=   1.5097
  1.9836  1.9836  1.7367  0.8861  1.2342  1.2342

 Free energy of the ion-electron system (eV)
  ---------------------------------------------------
  alpha Z        PSCENC =        63.49827359
  Ewald energy   TEWEN  =     -1720.24414233
  -Hartree energ DENC   =      -671.49228194
  -exchange      EXHF   =         0.00000000
  -V(xc)+E(xc)   XCENC  =       -51.26553760
  PAW double counting   =      2316.20593864    -2382.77347205
  entropy T*S    EENTRO =        -0.00000000
  eigenvalues    EBANDS =      -330.65960383
  atomic energy  EATOM  =      2639.90492407
  Solvation  Ediel_sol  =         0.00000000
  ---------------------------------------------------
  free energy    TOTEN  =      -136.82590145 eV

  energy without entropy =     -136.82590145  energy(sigma->0) =     -136.82590145


--------------------------------------------------------------------------------------------------------




--------------------------------------- Iteration      1(  12)  ---------------------------------------


    POTLOK:  cpu time    0.2505: real time    0.2508
    SETDIJ:  cpu time    0.1133: real time    0.1134
     EDDAV:  cpu time   10.0782: real time   10.0939
       DOS:  cpu time    0.0015: real time    0.0015
    CHARGE:  cpu time    1.5368: real time    1.5385
    MIXING:  cpu time    0.0033: real time    0.0033
    --------------------------------------------
      LOOP:  cpu time   11.9826: real time   12.0013

 eigenvalue-minimisations  : 33504
 total energy-change (2. order) :-0.1559971E-05  (-0.4349620E-05)
 number of electron      18.0000000 magnetization 
 augmentation part        2.9724767 magnetization 

 Broyden mixing:
  rms(total) = 0.19538E-03    rms(broyden)= 0.18622E-03
  rms(prec ) = 0.50784E-03
  weight for this iteration     100.00

 eigenvalues of (default mixing * dielectric matrix)
  average eigenvalue GAMMA=   1.6098
  2.3442  2.3442  1.6729  1.4498  1.4498  1.0037  1.0037

 Free energy of the ion-electron system (eV)
  ---------------------------------------------------
  alpha Z        PSCENC =        63.49827359
  Ewald energy   TEWEN  =     -1720.24414233
  -Hartree energ DENC   =      -671.50567787
  -exchange      EXHF   =         0.00000000
  -V(xc)+E(xc)   XCENC  =       -51.26485090
  PAW double counting   =      2316.12559713    -2382.69305566
  entropy T*S    EENTRO =        -0.00000000
  eigenvalues    EBANDS =      -330.64697105
  atomic energy  EATOM  =      2639.90492407
  Solvation  Ediel_sol  =         0.00000000
  ---------------------------------------------------
  free energy    TOTEN  =      -136.82590301 eV

  energy without entropy =     -136.82590301  energy(sigma->0) =     -136.82590301


--------------------------------------------------------------------------------------------------------




--------------------------------------- Iteration      1(  13)  ---------------------------------------


    POTLOK:  cpu time    0.2512: real time    0.2531
    SETDIJ:  cpu time    0.1146: real time    0.1147
     EDDAV:  cpu time    7.8758: real time    7.8874
       DOS:  cpu time    0.0014: real time    0.0014
    CHARGE:  cpu time    1.5156: real time    1.5170
    MIXING:  cpu time    0.0032: real time    0.0032
    --------------------------------------------
      LOOP:  cpu time    9.7616: real time    9.7767

 eigenvalue-minimisations  : 22000
 total energy-change (2. order) : 0.5937036E-06  (-0.2424850E-06)
 number of electron      18.0000000 magnetization 
 augmentation part        2.9725402 magnetization 

 Broyden mixing:
  rms(total) = 0.54336E-04    rms(broyden)= 0.52081E-04
  rms(prec ) = 0.12341E-03
  weight for this iteration     100.00

 eigenvalues of (default mixing * dielectric matrix)
  average eigenvalue GAMMA=   1.6529
  2.9871  2.1522  2.1522  1.4992  1.2779  1.2779  0.8708  1.0061

 Free energy of the ion-electron system (eV)
  ---------------------------------------------------
  alpha Z        PSCENC =        63.49827359
  Ewald energy   TEWEN  =     -1720.24414233
  -Hartree energ DENC   =      -671.49644996
  -exchange      EXHF   =         0.00000000
  -V(xc)+E(xc)   XCENC  =       -51.26879199
  PAW double counting   =      2315.69865472    -2382.25860450
  entropy T*S    EENTRO =        -0.00000000
  eigenvalues    EBANDS =      -330.65976603
  atomic energy  EATOM  =      2639.90492407
  Solvation  Ediel_sol  =         0.00000000
  ---------------------------------------------------
  free energy    TOTEN  =      -136.82590242 eV

  energy without entropy =     -136.82590242  energy(sigma->0) =     -136.82590242


--------------------------------------------------------------------------------------------------------




--------------------------------------- Iteration      1(  14)  ---------------------------------------


    POTLOK:  cpu time    0.2427: real time    0.2439
    SETDIJ:  cpu time    0.1081: real time    0.1083
     EDDAV:  cpu time    9.5966: real time    9.6090
       DOS:  cpu time    0.0014: real time    0.0014
    CHARGE:  cpu time    1.5173: real time    1.5187
    MIXING:  cpu time    0.0036: real time    0.0036
    --------------------------------------------
      LOOP:  cpu time   11.4698: real time   11.4848

 eigenvalue-minimisations  : 31720
 total energy-change (2. order) : 0.9871883E-06  (-0.7863644E-07)
 number of electron      18.0000000 magnetization 
 augmentation part        2.9725694 magnetization 

 Broyden mixing:
  rms(total) = 0.44073E-04    rms(broyden)= 0.43189E-04
  rms(prec ) = 0.77805E-04
  weight for this iteration     100.00

 eigenvalues of (default mixing * dielectric matrix)
  average eigenvalue GAMMA=   1.6671
  2.8682  2.4089  2.4089  1.6155  1.3771  1.2619  1.2619  0.9008  0.9008

 Free energy of the ion-electron system (eV)
  ---------------------------------------------------
  alpha Z        PSCENC =        63.49827359
  Ewald energy   TEWEN  =     -1720.24414233
  -Hartree energ DENC   =      -671.49377116
  -exchange      EXHF   =         0.00000000
  -V(xc)+E(xc)   XCENC  =       -51.26986699
  PAW double counting   =      2315.72025753    -2382.27983850
  entropy T*S    EENTRO =        -0.00000000
  eigenvalues    EBANDS =      -330.66173765
  atomic energy  EATOM  =      2639.90492407
  Solvation  Ediel_sol  =         0.00000000
  ---------------------------------------------------
  free energy    TOTEN  =      -136.82590143 eV

  energy without entropy =     -136.82590143  energy(sigma->0) =     -136.82590143


--------------------------------------------------------------------------------------------------------




--------------------------------------- Iteration      1(  15)  ---------------------------------------


    POTLOK:  cpu time    0.2410: real time    0.2413
    SETDIJ:  cpu time    0.1059: real time    0.1060
     EDDAV:  cpu time    8.3116: real time    8.3170
       DOS:  cpu time    0.0013: real time    0.0013
    CHARGE:  cpu time    1.3101: real time    1.3104
    MIXING:  cpu time    0.0032: real time    0.0032
    --------------------------------------------
      LOOP:  cpu time    9.9731: real time    9.9792

 eigenvalue-minimisations  : 30968
 total energy-change (2. order) : 0.6139562E-06  (-0.2771724E-07)
 number of electron      18.0000000 magnetization 
 augmentation part        2.9725437 magnetization 

 Broyden mixing:
  rms(total) = 0.17332E-04    rms(broyden)= 0.15003E-04
  rms(prec ) = 0.20549E-04
  weight for this iteration     100.00
  WARNING: grid for Broyden might be to small

 eigenvalues of (default mixing * dielectric matrix)
  average eigenvalue GAMMA=   1.7124
  2.9294  2.5901  2.5901  1.6877  1.6877  1.4653  1.1999  1.0736  0.9501  0.9501

 Free energy of the ion-electron system (eV)
  ---------------------------------------------------
  alpha Z        PSCENC =        63.49827359
  Ewald energy   TEWEN  =     -1720.24414233
  -Hartree energ DENC   =      -671.49354413
  -exchange      EXHF   =         0.00000000
  -V(xc)+E(xc)   XCENC  =       -51.26930950
  PAW double counting   =      2315.76623298    -2382.32558391
  entropy T*S    EENTRO =        -0.00000000
  eigenvalues    EBANDS =      -330.66275159
  atomic energy  EATOM  =      2639.90492407
  Solvation  Ediel_sol  =         0.00000000
  ---------------------------------------------------
  free energy    TOTEN  =      -136.82590082 eV

  energy without entropy =     -136.82590082  energy(sigma->0) =     -136.82590082


--------------------------------------------------------------------------------------------------------




--------------------------------------- Iteration      1(  16)  ---------------------------------------


    POTLOK:  cpu time    0.1990: real time    0.1992
    SETDIJ:  cpu time    0.0938: real time    0.0939
     EDDAV:  cpu time    6.9080: real time    6.9122
       DOS:  cpu time    0.0012: real time    0.0012
    CHARGE:  cpu time    1.2892: real time    1.2895
    MIXING:  cpu time    0.0031: real time    0.0031
    --------------------------------------------
      LOOP:  cpu time    8.4944: real time    8.4990

 eigenvalue-minimisations  : 24776
 total energy-change (2. order) :-0.2752636E-06  (-0.2184827E-08)
 number of electron      18.0000000 magnetization 
 augmentation part        2.9725438 magnetization 

 Broyden mixing:
  rms(total) = 0.10560E-04    rms(broyden)= 0.59847E-05
  rms(prec ) = 0.91557E-05
  weight for this iteration     100.00
  WARNING: grid for Broyden might be to small

 eigenvalues of (default mixing * dielectric matrix)
  average eigenvalue GAMMA=   1.6969
  3.5146  2.7251  2.1374  1.8472  1.8472  1.4392  1.1601  1.1601  0.9148  0.9601
  0.9601

 Free energy of the ion-electron system (eV)
  ---------------------------------------------------
  alpha Z        PSCENC =        63.49827359
  Ewald energy   TEWEN  =     -1720.24414233
  -Hartree energ DENC   =      -671.49311898
  -exchange      EXHF   =         0.00000000
  -V(xc)+E(xc)   XCENC  =       -51.26942688
  PAW double counting   =      2315.74883300    -2382.30824319
  entropy T*S    EENTRO =        -0.00000000
  eigenvalues    EBANDS =      -330.66300038
  atomic energy  EATOM  =      2639.90492407
  Solvation  Ediel_sol  =         0.00000000
  ---------------------------------------------------
  free energy    TOTEN  =      -136.82590109 eV

  energy without entropy =     -136.82590109  energy(sigma->0) =     -136.82590109


--------------------------------------------------------------------------------------------------------




--------------------------------------- Iteration      1(  17)  ---------------------------------------


    POTLOK:  cpu time    0.2024: real time    0.2031
    SETDIJ:  cpu time    0.0910: real time    0.0910
     EDDAV:  cpu time    7.6065: real time    7.6110
       DOS:  cpu time    0.0011: real time    0.0011
    CHARGE:  cpu time    1.2777: real time    1.2780
    MIXING:  cpu time    0.0032: real time    0.0032
    --------------------------------------------
      LOOP:  cpu time    9.1819: real time    9.1874

 eigenvalue-minimisations  : 29168
 total energy-change (2. order) :-0.7166136E-07  (-0.4849683E-09)
 number of electron      18.0000000 magnetization 
 augmentation part        2.9725413 magnetization 

 Broyden mixing:
  rms(total) = 0.87663E-05    rms(broyden)= 0.12370E-05
  rms(prec ) = 0.32904E-05
  weight for this iteration     100.00
  WARNING: grid for Broyden might be to small

 eigenvalues of (default mixing * dielectric matrix)
  average eigenvalue GAMMA=   1.7208
  3.3334  2.9010  2.2185  1.9574  1.9574  1.6393  1.3749  1.3749  0.9244  0.9244
  1.0222  1.0222

 Free energy of the ion-electron system (eV)
  ---------------------------------------------------
  alpha Z        PSCENC =        63.49827359
  Ewald energy   TEWEN  =     -1720.24414233
  -Hartree energ DENC   =      -671.49310964
  -exchange      EXHF   =         0.00000000
  -V(xc)+E(xc)   XCENC  =       -51.26939322
  PAW double counting   =      2315.74680947    -2382.30624298
  entropy T*S    EENTRO =        -0.00000000
  eigenvalues    EBANDS =      -330.66302013
  atomic energy  EATOM  =      2639.90492407
  Solvation  Ediel_sol  =         0.00000000
  ---------------------------------------------------
  free energy    TOTEN  =      -136.82590116 eV

  energy without entropy =     -136.82590116  energy(sigma->0) =     -136.82590116


--------------------------------------------------------------------------------------------------------




--------------------------------------- Iteration      1(  18)  ---------------------------------------


    POTLOK:  cpu time    0.1936: real time    0.1938
    SETDIJ:  cpu time    0.0936: real time    0.0937
     EDDAV:  cpu time    5.3925: real time    5.3958
       DOS:  cpu time    0.0013: real time    0.0013
    CHARGE:  cpu time    1.3232: real time    1.3235
    MIXING:  cpu time    0.0034: real time    0.0034
    --------------------------------------------
      LOOP:  cpu time    7.0077: real time    7.0114

 eigenvalue-minimisations  : 14832
 total energy-change (2. order) : 0.2375646E-07  (-0.2804967E-10)
 number of electron      18.0000000 magnetization 
 augmentation part        2.9725408 magnetization 

 Broyden mixing:
  rms(total) = 0.86938E-05    rms(broyden)= 0.68099E-06
  rms(prec ) = 0.12037E-05
  weight for this iteration     100.00
  WARNING: grid for Broyden might be to small

 eigenvalues of (default mixing * dielectric matrix)
  average eigenvalue GAMMA=   1.7469
  3.7553  2.8961  2.8961  1.9717  1.8415  1.8415  1.3511  1.3511  1.0416  1.0416
  0.9352  0.9352  0.8510

 Free energy of the ion-electron system (eV)
  ---------------------------------------------------
  alpha Z        PSCENC =        63.49827359
  Ewald energy   TEWEN  =     -1720.24414233
  -Hartree energ DENC   =      -671.49323791
  -exchange      EXHF   =         0.00000000
  -V(xc)+E(xc)   XCENC  =       -51.26940116
  PAW double counting   =      2315.74596636    -2382.30535354
  entropy T*S    EENTRO =        -0.00000000
  eigenvalues    EBANDS =      -330.66293023
  atomic energy  EATOM  =      2639.90492407
  Solvation  Ediel_sol  =         0.00000000
  ---------------------------------------------------
  free energy    TOTEN  =      -136.82590114 eV

  energy without entropy =     -136.82590114  energy(sigma->0) =     -136.82590114


--------------------------------------------------------------------------------------------------------




--------------------------------------- Iteration      1(  19)  ---------------------------------------


    POTLOK:  cpu time    0.1978: real time    0.1980
    SETDIJ:  cpu time    0.0939: real time    0.0940
     EDDAV:  cpu time    5.0224: real time    5.0253
       DOS:  cpu time    0.0011: real time    0.0011
    --------------------------------------------
      LOOP:  cpu time    5.3152: real time    5.3183

 eigenvalue-minimisations  : 12936
 total energy-change (2. order) : 0.7064500E-08  (-0.6202344E-11)
 number of electron      18.0000000 magnetization 
 augmentation part        2.9725408 magnetization 

 Free energy of the ion-electron system (eV)
  ---------------------------------------------------
  alpha Z        PSCENC =        63.49827359
  Ewald energy   TEWEN  =     -1720.24414233
  -Hartree energ DENC   =      -671.49324453
  -exchange      EXHF   =         0.00000000
  -V(xc)+E(xc)   XCENC  =       -51.26939909
  PAW double counting   =      2315.74592716    -2382.30530545
  entropy T*S    EENTRO =        -0.00000000
  eigenvalues    EBANDS =      -330.66293455
  atomic energy  EATOM  =      2639.90492407
  Solvation  Ediel_sol  =         0.00000000
  ---------------------------------------------------
  free energy    TOTEN  =      -136.82590113 eV

  energy without entropy =     -136.82590113  energy(sigma->0) =     -136.82590113


--------------------------------------------------------------------------------------------------------




 average (electrostatic) potential at core
  the test charge radii are     1.2024
  (the norm of the test charge is              1.0000)
       1-115.3317
 
 
 
 E-fermi :   1.5000     XC(G=0):  -8.4689     alpha+bet : -7.3034


 k-point     1 :       0.5000    0.5000    0.5000
  band No.  band energies     occupation 
      1     -28.6866      2.00000
      2     -28.6866      2.00000
      3     -28.6859      2.00000
      4     -28.6823      2.00000
      5     -28.6823      2.00000
      6     -21.4094      2.00000
      7      -1.7751      2.00000
      8       0.8103      2.00000
      9       0.8103      2.00000
     10       6.0686      0.00000
     11      10.2865      0.00000
     12      10.2865      0.00000
     13      10.6567      0.00000
     14      13.0861      0.00000
     15      14.6239      0.00000
     16      14.6239      0.00000
     17      15.7215      0.00000
     18      16.5336      0.00000
     19      16.5336      0.00000
     20      18.8858      0.00000
     21      18.9431      0.00000
     22      18.9431      0.00000
     23      20.6037      0.00000
     24      23.7358      0.00000
     25      23.9115      0.00000
     26      25.3807      0.00000
     27      25.3807      0.00000
     28      26.5811      0.00000
     29      26.5811      0.00000
     30      27.1416      0.00000
     31      28.5365      0.00000
     32      30.2742      0.00000
     33      30.2742      0.00000
     34      30.9847      0.00000
     35      31.9975      0.00000
     36      31.9975      0.00000
     37      32.2330      0.00000
     38      33.4182      0.00000
     39      34.0288      0.00000
     40      34.0288      0.00000
     41      36.6391      0.00000
     42      36.6391      0.00000
     43      39.7924      0.00000
     44      39.7924      0.00000
     45      40.0299      0.00000
     46      40.0300      0.00000
     47      40.4810      0.00000
     48      42.1743      0.00000
     49      44.1459      0.00000
     50      44.1459      0.00000
     51      46.4551      0.00000
     52      46.4551      0.00000
     53      46.4640      0.00000
     54      46.8035      0.00000
     55      47.8722      0.00000
     56      50.3722      0.00000
     57      50.3722      0.00000
     58      50.7260      0.00000
     59      51.1624      0.00000
     60      51.1625      0.00000
     61      51.2143      0.00000
     62      52.0999      0.00000
     63      53.3150      0.00000
     64      53.3158      0.00000

 k-point     2 :       0.4750    0.4750    0.4750
  band No.  band energies     occupation 
      1     -28.6865      2.00000
      2     -28.6865      2.00000
      3     -28.6856      2.00000
      4     -28.6822      2.00000
      5     -28.6822      2.00000
      6     -21.4100      2.00000
      7      -1.7642      2.00000
      8       0.8125      2.00000
      9       0.8125      2.00000
     10       6.0681      0.00000
     11      10.2933      0.00000
     12      10.2933      0.00000
     13      10.6637      0.00000
     14      12.9796      0.00000
     15      14.5635      0.00000
     16      14.5635      0.00000
     17      15.8496      0.00000
[...]
     11       8.3973      0.00000
     12      10.7964      0.00000
     13      11.3247      0.00000
     14      12.7286      0.00000
     15      14.5746      0.00000
     16      15.4317      0.00000
     17      16.6044      0.00000
     18      17.9679      0.00000
     19      18.1912      0.00000
     20      18.7395      0.00000
     21      19.0379      0.00000
     22      19.3092      0.00000
     23      20.4390      0.00000
     24      22.3063      0.00000
     25      22.8583      0.00000
     26      24.3218      0.00000
     27      24.4107      0.00000
     28      24.8369      0.00000
     29      26.0796      0.00000
     30      26.3135      0.00000
     31      27.8906      0.00000
     32      28.6844      0.00000
     33      29.9198      0.00000
     34      30.8849      0.00000
     35      31.3626      0.00000
     36      32.4033      0.00000
     37      32.7001      0.00000
     38      33.0357      0.00000
     39      35.2984      0.00000
     40      35.9338      0.00000
     41      36.0395      0.00000
     42      36.9102      0.00000
     43      39.5100      0.00000
     44      39.8832      0.00000
     45      40.8999      0.00000
     46      41.1784      0.00000
     47      42.3638      0.00000
     48      42.5056      0.00000
     49      44.5318      0.00000
     50      44.7855      0.00000
     51      45.3860      0.00000
     52      45.5717      0.00000
     53      46.1550      0.00000
     54      47.2267      0.00000
     55      48.5298      0.00000
     56      49.1617      0.00000
     57      49.3160      0.00000
     58      50.3651      0.00000
     59      50.6729      0.00000
     60      50.8361      0.00000
     61      51.4245      0.00000
     62      51.9227      0.00000
     63      52.3809      0.00000
     64      53.9454      0.00000

 k-point   149 :      -0.1667    0.3333    0.5000
  band No.  band energies     occupation 
      1     -28.6878      2.00000
      2     -28.6870      2.00000
      3     -28.6834      2.00000
      4     -28.6808      2.00000
      5     -28.6652      2.00000
      6     -21.3762      2.00000
      7      -1.2139      2.00000
      8      -0.4306      2.00000
      9      -0.0536      2.00000
     10       7.3750      0.00000
     11       8.8844      0.00000
     12      10.7232      0.00000
     13      11.7125      0.00000
     14      14.6199      0.00000
     15      15.0394      0.00000
     16      15.9989      0.00000
     17      17.5755      0.00000
     18      17.6949      0.00000
     19      17.7899      0.00000
     20      17.8324      0.00000
     21      18.2367      0.00000
     22      19.0864      0.00000
     23      20.2142      0.00000
     24      22.3154      0.00000
     25      22.7736      0.00000
     26      23.3349      0.00000
     27      23.6512      0.00000
     28      24.5283      0.00000
     29      24.6404      0.00000
     30      27.5592      0.00000
     31      28.6566      0.00000
     32      28.7100      0.00000
     33      29.6130      0.00000
     34      31.4433      0.00000
     35      32.0711      0.00000
     36      32.2582      0.00000
     37      32.5254      0.00000
     38      33.7853      0.00000
     39      34.6545      0.00000
     40      35.6746      0.00000
     41      36.0765      0.00000
     42      37.4380      0.00000
     43      39.0791      0.00000
     44      39.0918      0.00000
     45      40.4442      0.00000
     46      41.8568      0.00000
     47      42.2400      0.00000
     48      42.3228      0.00000
     49      43.8180      0.00000
     50      44.8721      0.00000
     51      46.0456      0.00000
     52      46.2333      0.00000
     53      47.3173      0.00000
     54      47.7090      0.00000
     55      48.1670      0.00000
     56      48.7141      0.00000
     57      49.4185      0.00000
     58      49.8661      0.00000
     59      49.9464      0.00000
     60      50.4793      0.00000
     61      52.3987      0.00000
     62      52.5703      0.00000
     63      52.7676      0.00000
     64      53.9178      0.00000

 k-point   150 :       0.0000    0.5000    0.5000
  band No.  band energies     occupation 
      1     -28.6982      2.00000
      2     -28.6976      2.00000
      3     -28.6963      2.00000
      4     -28.6904      2.00000
      5     -28.6730      2.00000
      6     -21.3768      2.00000
      7      -1.5366      2.00000
      8       0.0743      2.00000
      9       0.0761      2.00000
     10       6.1987      0.00000
     11       7.6414      0.00000
     12      13.7598      0.00000
     13      14.3298      0.00000
     14      14.3301      0.00000
     15      14.8075      0.00000
     16      15.5555      0.00000
     17      16.8740      0.00000
     18      17.6845      0.00000
     19      17.6849      0.00000
     20      17.8626      0.00000
     21      17.8626      0.00000
     22      18.4120      0.00000
     23      18.7175      0.00000
     24      21.5728      0.00000
     25      22.9691      0.00000
     26      22.9695      0.00000
     27      23.5352      0.00000
     28      23.7718      0.00000
     29      23.7724      0.00000
     30      27.2458      0.00000
     31      29.7459      0.00000
     32      30.7368      0.00000
     33      30.7381      0.00000
     34      31.9336      0.00000
     35      32.6771      0.00000
     36      33.8421      0.00000
     37      34.0424      0.00000
     38      34.2401      0.00000
     39      34.2408      0.00000
     40      35.3601      0.00000
     41      36.8781      0.00000
     42      37.5827      0.00000
     43      37.7476      0.00000
     44      37.7502      0.00000
     45      38.3010      0.00000
     46      40.0569      0.00000
     47      41.6089      0.00000
     48      41.6117      0.00000
     49      42.7063      0.00000
     50      43.1282      0.00000
     51      46.5375      0.00000
     52      46.5383      0.00000
     53      47.0409      0.00000
     54      48.8594      0.00000
     55      48.8610      0.00000
     56      50.0257      0.00000
     57      50.1588      0.00000
     58      50.1607      0.00000
     59      51.3902      0.00000
     60      51.8773      0.00000
     61      53.4986      0.00000
     62      53.5166      0.00000
     63      53.5208      0.00000
     64      54.0275      0.00000

 k-point   151 :       0.1667    0.5000    0.5000
  band No.  band energies     occupation 
      1     -28.6882      2.00000
      2     -28.6825      2.00000
      3     -28.6818      2.00000
      4     -28.6747      2.00000
      5     -28.6738      2.00000
      6     -21.3847      2.00000
      7      -1.3503      2.00000
      8      -0.2093      2.00000
      9       0.2411      2.00000
     10       6.7987      0.00000
     11       8.4674      0.00000
     12      11.0202      0.00000
     13      12.8946      0.00000
     14      13.8772      0.00000
     15      15.0801      0.00000
     16      16.1269      0.00000
     17      16.4628      0.00000
     18      17.2218      0.00000
     19      17.8204      0.00000
     20      18.1838      0.00000
     21      18.4100      0.00000
     22      19.0083      0.00000
     23      19.6557      0.00000
     24      22.1698      0.00000
     25      22.8739      0.00000
     26      23.8746      0.00000
     27      23.9931      0.00000
     28      24.1671      0.00000
     29      24.4616      0.00000
     30      27.3834      0.00000
     31      28.9368      0.00000
     32      30.0147      0.00000
     33      30.7680      0.00000
     34      31.7830      0.00000
     35      31.8358      0.00000
     36      32.0838      0.00000
     37      33.3348      0.00000
     38      34.5639      0.00000
     39      35.1078      0.00000
     40      35.6077      0.00000
     41      35.8704      0.00000
     42      37.4654      0.00000
     43      38.1828      0.00000
     44      39.2381      0.00000
     45      39.5121      0.00000
     46      41.2122      0.00000
     47      41.9502      0.00000
     48      42.6403      0.00000
     49      43.0056      0.00000
     50      44.7286      0.00000
     51      44.8950      0.00000
     52      45.9908      0.00000
     53      46.9335      0.00000
     54      46.9620      0.00000
     55      47.6152      0.00000
     56      48.7366      0.00000
     57      49.2227      0.00000
     58      50.3916      0.00000
     59      50.9303      0.00000
     60      51.3028      0.00000
     61      52.3302      0.00000
     62      52.5301      0.00000
     63      52.8445      0.00000
     64      54.3261      0.00000

 k-point   152 :       0.3333    0.5000    0.5000
  band No.  band energies     occupation 
      1     -28.6896      2.00000
      2     -28.6861      2.00000
      3     -28.6830      2.00000
      4     -28.6828      2.00000
      5     -28.6740      2.00000
      6     -21.4012      2.00000
      7      -1.5418      2.00000
      8       0.2029      2.00000
      9       0.6059      2.00000
     10       7.0314      0.00000
     11       8.9975      0.00000
     12      11.0344      0.00000
     13      11.0691      0.00000
     14      12.9816      0.00000
     15      13.9771      0.00000
     16      14.7506      0.00000
     17      16.2830      0.00000
     18      16.7519      0.00000
     19      18.3485      0.00000
     20      18.5199      0.00000
     21      18.7384      0.00000
     22      19.3926      0.00000
     23      20.2915      0.00000
     24      22.7987      0.00000
     25      23.8610      0.00000
     26      25.1061      0.00000
     27      25.1869      0.00000
     28      25.4697      0.00000
     29      25.6303      0.00000
     30      27.5504      0.00000
     31      28.3833      0.00000
     32      29.2946      0.00000
     33      29.3468      0.00000
     34      30.8743      0.00000
     35      31.9783      0.00000
     36      32.3129      0.00000
     37      32.9360      0.00000
     38      34.0686      0.00000
     39      34.9283      0.00000
     40      35.0380      0.00000
     41      36.7537      0.00000
     42      37.2885      0.00000
     43      38.9606      0.00000
     44      39.2530      0.00000
     45      39.8222      0.00000
     46      40.7335      0.00000
     47      41.3522      0.00000
     48      41.7565      0.00000
     49      44.8163      0.00000
     50      45.1595      0.00000
     51      45.2994      0.00000
     52      45.5765      0.00000
     53      46.4473      0.00000
     54      47.5242      0.00000
     55      48.2168      0.00000
     56      48.2481      0.00000
     57      48.8971      0.00000
     58      49.5968      0.00000
     59      50.8815      0.00000
     60      51.0448      0.00000
     61      51.7882      0.00000
     62      52.4257      0.00000
     63      52.7643      0.00000
     64      54.4845      0.00000


--------------------------------------------------------------------------------------------------------


 soft charge-density along one line, spin component           1
         0         1         2         3         4         5         6         7         8         9
 total charge-density along one line
 
 pseudopotential strength for first ion, spin component:           1
-22.434   0.000  -0.000   0.000   0.000   8.984  -0.000   0.000
  0.000 -22.434   0.000   0.000   0.000  -0.000   8.984  -0.000
 -0.000   0.000 -22.434   0.000  -0.000   0.000  -0.000   8.984
  0.000   0.000   0.000 -22.434   0.000  -0.000  -0.000  -0.000
  0.000   0.000  -0.000   0.000 -22.434  -0.000  -0.000   0.000
  8.984  -0.000   0.000  -0.000  -0.000  19.344   0.000  -0.000
 -0.000   8.984  -0.000  -0.000  -0.000   0.000  19.344   0.000
  0.000  -0.000   8.984  -0.000   0.000  -0.000   0.000  19.344
 -0.000  -0.000  -0.000   8.984  -0.000   0.000   0.000   0.000
 -0.000  -0.000   0.000  -0.000   8.984  -0.000  -0.000  -0.000
  0.000   0.000  -0.000   0.000   0.000  -0.000  -0.000   0.000
 -0.000  -0.000   0.000  -0.000  -0.000   0.000   0.000  -0.000
 -0.000   0.000   0.000  -0.000   0.000   0.000  -0.000   0.000
 -0.000  -0.000   0.000  -0.000   0.000  -0.000  -0.000  -0.000
 -0.000  -0.000   0.000   0.000  -0.000  -0.000  -0.000  -0.000
 -0.000   0.000  -0.000  -0.000  -0.000   0.000  -0.000   0.000
 -0.000   0.000   0.000  -0.000  -0.000  -0.000  -0.000  -0.000
  0.000  -0.000   0.000   0.000  -0.000  -0.000  -0.000  -0.000
 total augmentation occupancy for first ion, spin component:           1
  2.005  -0.000   0.000   0.000  -0.000   0.006   0.000  -0.000  -0.000  -0.000  -0.000   0.000   0.000  -0.000   0.000  -0.000
 -0.000   2.005  -0.000  -0.000   0.000   0.000   0.006   0.000   0.000  -0.000  -0.000   0.000   0.000   0.000   0.000   0.000
  0.000  -0.000   2.005  -0.000   0.000  -0.000   0.000   0.006   0.000  -0.000   0.000  -0.000  -0.000   0.000   0.000  -0.000
  0.000  -0.000  -0.000   2.005  -0.000  -0.000   0.000   0.000   0.006   0.000  -0.000   0.000   0.000   0.000   0.000  -0.000
 -0.000   0.000   0.000  -0.000   2.005  -0.000  -0.000  -0.000   0.000   0.006  -0.000   0.000  -0.000  -0.000   0.000  -0.000
  0.006   0.000  -0.000  -0.000  -0.000   0.000  -0.000   0.000   0.000   0.000   0.000  -0.000  -0.000  -0.000  -0.000  -0.000
  0.000   0.006   0.000   0.000  -0.000  -0.000   0.000  -0.000  -0.000   0.000   0.000  -0.000   0.000  -0.000   0.000  -0.000
 -0.000   0.000   0.006   0.000  -0.000   0.000  -0.000   0.001  -0.000   0.000  -0.000   0.000   0.000  -0.000   0.000  -0.000
 -0.000   0.000   0.000   0.006   0.000   0.000  -0.000  -0.000   0.000  -0.000   0.000  -0.000   0.000  -0.000   0.000  -0.000
 -0.000  -0.000  -0.000   0.000   0.006   0.000   0.000   0.000  -0.000   0.000   0.000  -0.000  -0.000   0.000  -0.000  -0.000
 -0.000  -0.000   0.000  -0.000  -0.000   0.000   0.000  -0.000   0.000   0.000   1.951  -0.032  -0.000  -0.000   0.000   0.000
  0.000   0.000  -0.000   0.000   0.000  -0.000  -0.000   0.000  -0.000  -0.000  -0.032   0.002   0.000  -0.000   0.000  -0.000
  0.000   0.000  -0.000   0.000  -0.000  -0.000   0.000   0.000   0.000  -0.000  -0.000   0.000   2.125   0.001   0.002  -0.078
 -0.000   0.000   0.000   0.000  -0.000  -0.000  -0.000  -0.000  -0.000   0.000  -0.000  -0.000   0.001   2.125   0.001  -0.000
  0.000   0.000   0.000   0.000   0.000  -0.000   0.000   0.000   0.000  -0.000   0.000   0.000   0.002   0.001   2.127  -0.000
 -0.000   0.000  -0.000  -0.000  -0.000  -0.000  -0.000  -0.000  -0.000  -0.000   0.000  -0.000  -0.078  -0.000  -0.000   0.003
  0.000  -0.000  -0.000  -0.000   0.000   0.000   0.000  -0.000   0.000   0.000   0.000  -0.000  -0.000  -0.078  -0.000   0.000
 -0.000  -0.000  -0.000  -0.000  -0.000   0.000  -0.000  -0.000  -0.000   0.000  -0.000   0.000  -0.000  -0.000  -0.078   0.000


------------------------ aborting loop because EDIFF is reached ----------------------------------------


    CHARGE:  cpu time    0.1052: real time    0.1052
    FORLOC:  cpu time    0.0021: real time    0.0021
    FORNL :  cpu time    0.5463: real time    0.5466
    STRESS:  cpu time   24.8892: real time   24.8946
    FORCOR:  cpu time    0.1892: real time    0.1892
    FORHAR:  cpu time    0.0131: real time    0.0131
    MIXING:  cpu time    0.0031: real time    0.0031
    OFIELD:  cpu time    0.0010: real time    0.0000

  FORCE on cell =-STRESS in cart. coord.  units (eV):
  Direction    XX          YY          ZZ          XY          YZ          ZX
  --------------------------------------------------------------------------------------
  Alpha Z    63.49827    63.49827    63.49827
  Ewald    -573.41473  -573.41473  -573.41473    -0.00000    -0.00000    -0.00000
  Hartree   223.81696   223.83577   223.84048    -0.01629    -0.00665    -0.01152
  E(xc)    -110.99819  -111.00002  -111.00048     0.00158     0.00065     0.00112
  Local    -171.60894  -171.60168  -171.59990    -0.00628    -0.00256    -0.00444
  n-local    98.53198    98.49650    98.48765     0.03073     0.01255     0.02173
  augment    76.75437    76.76267    76.76474    -0.00719    -0.00293    -0.00508
  Kinetic   388.05751   388.02044   388.01117     0.03211     0.01311     0.02270
  Fock        0.00000     0.00000     0.00000     0.00000     0.00000     0.00000
  -------------------------------------------------------------------------------------
  Total      -5.36276    -5.40278    -5.41279     0.03466     0.01415     0.02451
  in kB    -143.00028  -144.06744  -144.33436     0.92421     0.37736     0.65351
  external pressure =     -143.80 kB  Pullay stress =        0.00 kB


 VOLUME and BASIS-vectors are now :
 -----------------------------------------------------------------------------
  energy-cutoff  :      300.00
  volume of cell :       60.08
      direct lattice vectors                 reciprocal lattice vectors
     4.396350177  0.000000000  0.000000000     0.227461408 -0.131324905 -0.092860731
     2.198175089  3.807350937 -0.000000000     0.000000000  0.262649810 -0.092860731
     2.198175089  1.269116979  3.589604888    -0.000000000  0.000000000  0.278582192

  length of vectors
     4.396350177  4.396350177  4.396350177     0.278582193  0.278582193  0.278582192


 FORCES acting on ions
    electron-ion (+dipol)            ewald-force                    non-local-force                 convergence-correction
 -----------------------------------------------------------------------------------------------
   0.332E-06 -.264E-06 -.174E-06   0.481E-14 0.658E-15 -.418E-15   -.101E-05 0.332E-06 0.779E-06   -.188E-06 0.232E-06 0.661E-07
 -----------------------------------------------------------------------------------------------
   0.280E-06 -.245E-06 -.132E-06   0.481E-14 0.658E-15 -.418E-15   -.101E-05 0.332E-06 0.779E-06   -.188E-06 0.232E-06 0.661E-07
 
 
 POSITION                                       TOTAL-FORCE (eV/Angst)
 -----------------------------------------------------------------------------------
      0.00000      0.00000      0.00000        -0.000001      0.000000      0.000001
 -----------------------------------------------------------------------------------
    total drift:                               -0.000001      0.000000      0.000001


--------------------------------------------------------------------------------------------------------



  FREE ENERGIE OF THE ION-ELECTRON SYSTEM (eV)
  ---------------------------------------------------
  free  energy   TOTEN  =      -136.82590113 eV

  energy  without entropy=     -136.82590113  energy(sigma->0) =     -136.82590113
 


--------------------------------------------------------------------------------------------------------


    POTLOK:  cpu time    0.2854: real time    0.2865


--------------------------------------------------------------------------------------------------------


 writing wavefunctions
     LOOP+:  cpu time  204.6727: real time  204.9908
    4ORBIT:  cpu time    0.0000: real time    0.0000

 total amount of memory used by VASP MPI-rank0   116104. kBytes
=======================================================================

   base      :      30000. kBytes
   nonl-proj :       7907. kBytes
   fftplans  :      13354. kBytes
   grid      :       5838. kBytes
   one-center:         15. kBytes
   wavefun   :      58990. kBytes
 
  
  
 General timing and accounting informations for this job:
 ========================================================
  
                  Total CPU time used (sec):      209.274
                            User time (sec):      207.029
                          System time (sec):        2.245
                         Elapsed time (sec):      208.614
  
                   Maximum memory used (kb):      192208.
                   Average memory used (kb):           0.
  
                          Minor page faults:        73732
                          Major page faults:            0
                 Voluntary context switches:         7060
