   1   1   0   0
  0.6532254E+02  0.4520565E-09  0.4520565E-09  0.4520565E-09  0.1000000E-15
  1.000000000000000E-004
  CAR 
 Og_FCC                                  
     73.99929806    -56.83952208  301     -3.52270287      1.00000000
    -56.840  0.0000E+00  0.0000E+00
    -56.403  0.0000E+00  0.0000E+00
    -55.967  0.0000E+00  0.0000E+00
    -55.531  0.0000E+00  0.0000E+00
    -55.095  0.0000E+00  0.0000E+00
    -54.659  0.0000E+00  0.0000E+00
    -54.223  0.0000E+00  0.0000E+00
    -53.787  0.0000E+00  0.0000E+00
    -53.350  0.0000E+00  0.0000E+00
    -52.914  0.0000E+00  0.0000E+00
    -52.478  0.0000E+00  0.0000E+00
    -52.042  0.0000E+00  0.0000E+00
    -51.606  0.0000E+00  0.0000E+00
    -51.170  0.0000E+00  0.0000E+00
    -50.734  0.0000E+00  0.4000E+01
    -50.298  0.0000E+00  0.4000E+01
    -49.861  0.0000E+00  0.4000E+01
    -49.425  0.0000E+00  0.4000E+01
    -48.989  0.0000E+00  0.4000E+01
    -48.553  0.0000E+00  0.4000E+01
    -48.117  0.0000E+00  0.4000E+01
    -47.681  0.0000E+00  0.4000E+01
    -47.245  0.0000E+00  0.4000E+01
    -46.809  0.0000E+00  0.4000E+01
    -46.372  0.0000E+00  0.4000E+01
    -45.936  0.0000E+00  0.1000E+02
    -45.500  0.0000E+00  0.1000E+02
    -45.064  0.0000E+00  0.1000E+02
    -44.628  0.0000E+00  0.1000E+02
    -44.192  0.0000E+00  0.1000E+02
    -43.756  0.0000E+00  0.1000E+02
    -43.320  0.0000E+00  0.1000E+02
    -42.883  0.0000E+00  0.1000E+02
    -42.447  0.0000E+00  0.1000E+02
    -42.011  0.0000E+00  0.1000E+02
    -41.575  0.0000E+00  0.1000E+02
    -41.139  0.0000E+00  0.1000E+02
    -40.703  0.0000E+00  0.1000E+02
    -40.267  0.0000E+00  0.1000E+02
    -39.830  0.0000E+00  0.1000E+02
    -39.394  0.0000E+00  0.1000E+02
    -38.958  0.0000E+00  0.1000E+02
    -38.522  0.0000E+00  0.1000E+02
    -38.086  0.0000E+00  0.1000E+02
    -37.650  0.0000E+00  0.1000E+02
    -37.214  0.0000E+00  0.1000E+02
    -36.778  0.0000E+00  0.1000E+02
    -36.341  0.0000E+00  0.1000E+02
    -35.905  0.0000E+00  0.1000E+02
    -35.469  0.0000E+00  0.1000E+02
    -35.033  0.0000E+00  0.1000E+02
    -34.597  0.0000E+00  0.1000E+02
    -34.161  0.0000E+00  0.1000E+02
    -33.725  0.0000E+00  0.1000E+02
    -33.289  0.0000E+00  0.1000E+02
    -32.852  0.0000E+00  0.1000E+02
    -32.416  0.0000E+00  0.1000E+02
    -31.980  0.0000E+00  0.1000E+02
    -31.544  0.0000E+00  0.1000E+02
    -31.108  0.0000E+00  0.1000E+02
    -30.672  0.0000E+00  0.1000E+02
    -30.236  0.0000E+00  0.1000E+02
    -29.799  0.0000E+00  0.1000E+02
    -29.363  0.0000E+00  0.1000E+02
    -28.927  0.0000E+00  0.1000E+02
    -28.491  0.0000E+00  0.1000E+02
    -28.055  0.0000E+00  0.1000E+02
    -27.619  0.0000E+00  0.1000E+02
    -27.183  0.0000E+00  0.1000E+02
    -26.747  0.0000E+00  0.1000E+02
    -26.310  0.0000E+00  0.1000E+02
    -25.874  0.0000E+00  0.1000E+02
    -25.438  0.0000E+00  0.1000E+02
    -25.002  0.0000E+00  0.1000E+02
    -24.566  0.0000E+00  0.1000E+02
    -24.130  0.0000E+00  0.1000E+02
    -23.694  0.0000E+00  0.1000E+02
    -23.258  0.0000E+00  0.1000E+02
    -22.821  0.0000E+00  0.1000E+02
    -22.385  0.0000E+00  0.1000E+02
    -21.949  0.0000E+00  0.1000E+02
    -21.513  0.0000E+00  0.1000E+02
    -21.077  0.0000E+00  0.1000E+02
    -20.641  0.0000E+00  0.1000E+02
    -20.205  0.0000E+00  0.1055E+02
    -19.769  0.0000E+00  0.1200E+02
    -19.332  0.0000E+00  0.1200E+02
    -18.896  0.0000E+00  0.1200E+02
    -18.460  0.0000E+00  0.1200E+02
    -18.024  0.0000E+00  0.1200E+02
    -17.588  0.0000E+00  0.1200E+02
    -17.152  0.0000E+00  0.1200E+02
    -16.716  0.0000E+00  0.1200E+02
    -16.279  0.0000E+00  0.1200E+02
    -15.843  0.0000E+00  0.1200E+02
    -15.407  0.0000E+00  0.1200E+02
    -14.971  0.0000E+00  0.1200E+02
    -14.535  0.0000E+00  0.1200E+02
    -14.099  0.0000E+00  0.1200E+02
    -13.663  0.0000E+00  0.1200E+02
    -13.227  0.0000E+00  0.1200E+02
    -12.790  0.0000E+00  0.1200E+02
    -12.354  0.0000E+00  0.1200E+02
    -11.918  0.0000E+00  0.1200E+02
    -11.482  0.0000E+00  0.1200E+02
    -11.046  0.0000E+00  0.1200E+02
    -10.610  0.0000E+00  0.1200E+02
    -10.174  0.0000E+00  0.1200E+02
     -9.738  0.0000E+00  0.1200E+02
     -9.301  0.0000E+00  0.1200E+02
     -8.865  0.0000E+00  0.1200E+02
     -8.429  0.0000E+00  0.1200E+02
     -7.993  0.0000E+00  0.1353E+02
     -7.557  0.0000E+00  0.1399E+02
     -7.121  0.0000E+00  0.1400E+02
     -6.685  0.0000E+00  0.1400E+02
     -6.249  0.0000E+00  0.1400E+02
     -5.812  0.0000E+00  0.1400E+02
     -5.376  0.0000E+00  0.1495E+02
     -4.940  0.0000E+00  0.1575E+02
     -4.504  0.0000E+00  0.1678E+02
     -4.068  0.2548E+00  0.1778E+02
     -3.632  0.0000E+00  0.1800E+02
     -3.196  0.0000E+00  0.1800E+02
     -2.759  0.0000E+00  0.1800E+02
     -2.323  0.0000E+00  0.1800E+02
     -1.887  0.0000E+00  0.1800E+02
     -1.451  0.0000E+00  0.1800E+02
     -1.015  0.0000E+00  0.1800E+02
     -0.579  0.0000E+00  0.1800E+02
     -0.143  0.0000E+00  0.1800E+02
      0.293  0.0000E+00  0.1800E+02
      0.730  0.0000E+00  0.1800E+02
      1.166  0.0000E+00  0.1800E+02
      1.602  0.0000E+00  0.1800E+02
      2.038  0.0000E+00  0.1800E+02
      2.474  0.0000E+00  0.1800E+02
      2.910  0.0000E+00  0.1800E+02
      3.346  0.0000E+00  0.1801E+02
      3.782  0.0000E+00  0.1801E+02
      4.219  0.0000E+00  0.1808E+02
      4.655  0.0000E+00  0.1814E+02
      5.091  0.0000E+00  0.1817E+02
      5.527  0.0000E+00  0.1867E+02
      5.963  0.0000E+00  0.1922E+02
      6.399  0.0000E+00  0.1981E+02
      6.835  0.0000E+00  0.2031E+02
      7.271  0.0000E+00  0.2064E+02
      7.708  0.0000E+00  0.2186E+02
      8.144  0.0000E+00  0.2203E+02
      8.580  0.0000E+00  0.2295E+02
      9.016  0.0000E+00  0.2360E+02
      9.452  0.0000E+00  0.2461E+02
      9.888  0.0000E+00  0.2550E+02
     10.324  0.0000E+00  0.2586E+02
     10.761  0.0000E+00  0.2594E+02
     11.197  0.0000E+00  0.2674E+02
     11.633  0.5092E+00  0.2776E+02
     12.069  0.2548E+00  0.2837E+02
     12.505  0.0000E+00  0.2868E+02
     12.941  0.0000E+00  0.2964E+02
     13.377  0.0000E+00  0.3047E+02
     13.813  0.1721E-01  0.3070E+02
     14.250  0.0000E+00  0.3145E+02
     14.686  0.5095E+00  0.3227E+02
     15.122  0.6369E-01  0.3420E+02
     15.558  0.0000E+00  0.3552E+02
     15.994  0.0000E+00  0.3715E+02
     16.430  0.0000E+00  0.3856E+02
     16.866  0.0000E+00  0.3996E+02
     17.302  0.0000E+00  0.4170E+02
     17.739  0.2215E-04  0.4358E+02
     18.175  0.0000E+00  0.4564E+02
     18.611  0.0000E+00  0.4718E+02
     19.047  0.0000E+00  0.4808E+02
     19.483  0.0000E+00  0.4918E+02
     19.919  0.0000E+00  0.5013E+02
     20.355  0.0000E+00  0.5141E+02
     20.792  0.8068E+00  0.5310E+02
     21.228  0.0000E+00  0.5414E+02
     21.664  0.0000E+00  0.5538E+02
     22.100  0.0000E+00  0.5666E+02
     22.536  0.0000E+00  0.5762E+02
     22.972  0.0000E+00  0.5810E+02
     23.408  0.0000E+00  0.5867E+02
     23.844  0.8242E-01  0.5975E+02
     24.281  0.1130E-01  0.6111E+02
     24.717  0.7499E-01  0.6175E+02
     25.153  0.6963E-04  0.6325E+02
     25.589  0.5095E+00  0.6408E+02
     26.025  0.0000E+00  0.6569E+02
     26.461  0.0000E+00  0.6664E+02
     26.897  0.5657E-16  0.6809E+02
     27.333  0.0000E+00  0.7044E+02
     27.770  0.0000E+00  0.7121E+02
     28.206  0.0000E+00  0.7219E+02
     28.642  0.0000E+00  0.7296E+02
     29.078  0.0000E+00  0.7352E+02
     29.514  0.8866E-11  0.7469E+02
     29.950  0.0000E+00  0.7515E+02
     30.386  0.3431E+00  0.7732E+02
     30.822  0.0000E+00  0.7887E+02
     31.259  0.0000E+00  0.8054E+02
     31.695  0.0000E+00  0.8184E+02
     32.131  0.0000E+00  0.8316E+02
     32.567  0.0000E+00  0.8421E+02
     33.003  0.0000E+00  0.8522E+02
     33.439  0.0000E+00  0.8664E+02
     33.875  0.0000E+00  0.8739E+02
     34.312  0.0000E+00  0.8878E+02
     34.748  0.2123E-01  0.8927E+02
     35.184  0.5095E+00  0.9045E+02
     35.620  0.0000E+00  0.9140E+02
     36.056  0.6369E-01  0.9295E+02
     36.492  0.0000E+00  0.9483E+02
     36.928  0.2548E+00  0.9604E+02
     37.364  0.0000E+00  0.9726E+02
     37.801  0.0000E+00  0.9826E+02
     38.237  0.3293E-01  0.9919E+02
     38.673  0.5095E+00  0.1010E+03
     39.109  0.0000E+00  0.1025E+03
     39.545  0.0000E+00  0.1034E+03
     39.981  0.1544E+00  0.1053E+03
     40.417  0.0000E+00  0.1066E+03
     40.853  0.0000E+00  0.1084E+03
     41.290  0.0000E+00  0.1088E+03
     41.726  0.0000E+00  0.1105E+03
     42.162  0.2548E+00  0.1119E+03
     42.598  0.2466E-06  0.1135E+03
     43.034  0.0000E+00  0.1147E+03
     43.470  0.4430E-02  0.1162E+03
     43.906  0.1207E+00  0.1177E+03
     44.342  0.0000E+00  0.1186E+03
     44.779  0.0000E+00  0.1202E+03
     45.215  0.0000E+00  0.1211E+03
     45.651  0.0000E+00  0.1221E+03
     46.087  0.1699E+00  0.1233E+03
     46.523  0.6793E-01  0.1247E+03
     46.959  0.0000E+00  0.1269E+03
     47.395  0.1698E+00  0.1281E+03
     47.832  0.0000E+00  0.1303E+03
     48.268  0.0000E+00  0.1314E+03
     48.704  0.0000E+00  0.1329E+03
     49.140  0.1698E+00  0.1341E+03
     49.576  0.0000E+00  0.1358E+03
     50.012  0.0000E+00  0.1370E+03
     50.448  0.5095E+00  0.1380E+03
     50.884  0.0000E+00  0.1401E+03
     51.321  0.2045E-01  0.1412E+03
     51.757  0.0000E+00  0.1424E+03
     52.193  0.0000E+00  0.1442E+03
     52.629  0.0000E+00  0.1454E+03
     53.065  0.4969E+00  0.1473E+03
     53.501  0.7605E-01  0.1477E+03
     53.937  0.0000E+00  0.1494E+03
     54.373  0.0000E+00  0.1512E+03
     54.810  0.0000E+00  0.1529E+03
     55.246  0.0000E+00  0.1547E+03
     55.682  0.2234E+00  0.1565E+03
     56.118  0.0000E+00  0.1575E+03
     56.554  0.1223E+00  0.1591E+03
     56.990  0.0000E+00  0.1599E+03
     57.426  0.5095E+00  0.1621E+03
     57.863  0.0000E+00  0.1650E+03
     58.299  0.8548E-11  0.1660E+03
     58.735  0.0000E+00  0.1683E+03
     59.171  0.0000E+00  0.1694E+03
     59.607  0.0000E+00  0.1703E+03
     60.043  0.0000E+00  0.1717E+03
     60.479  0.0000E+00  0.1735E+03
     60.915  0.0000E+00  0.1747E+03
     61.352  0.0000E+00  0.1764E+03
     61.788  0.0000E+00  0.1781E+03
     62.224  0.0000E+00  0.1796E+03
     62.660  0.0000E+00  0.1814E+03
     63.096  0.0000E+00  0.1830E+03
     63.532  0.0000E+00  0.1850E+03
     63.968  0.0000E+00  0.1863E+03
     64.404  0.0000E+00  0.1876E+03
     64.841  0.0000E+00  0.1890E+03
     65.277  0.0000E+00  0.1904E+03
     65.713  0.0000E+00  0.1917E+03
     66.149  0.0000E+00  0.1931E+03
     66.585  0.0000E+00  0.1945E+03
     67.021  0.0000E+00  0.1952E+03
     67.457  0.3448E-03  0.1956E+03
     67.893  0.0000E+00  0.1958E+03
     68.330  0.0000E+00  0.1960E+03
     68.766  0.0000E+00  0.1960E+03
     69.202  0.0000E+00  0.1960E+03
     69.638  0.0000E+00  0.1960E+03
     70.074  0.0000E+00  0.1960E+03
     70.510  0.0000E+00  0.1960E+03
     70.946  0.0000E+00  0.1960E+03
     71.383  0.0000E+00  0.1960E+03
     71.819  0.0000E+00  0.1960E+03
     72.255  0.0000E+00  0.1960E+03
     72.691  0.0000E+00  0.1960E+03
     73.127  0.0000E+00  0.1960E+03
     73.563  0.0000E+00  0.1960E+03
     73.999  0.0000E+00  0.1960E+03
