    1    1    1    1
  0.6532254E+02  0.4520565E-09  0.4520565E-09  0.4520565E-09  0.1000000E-15
  1.000000000000000E-004
  CAR 
 Og_FCC                                  
     18    216    196
 
  0.0000000E+00  0.0000000E+00  0.0000000E+00  0.4629630E-02
    1      -50.892000   1.000000
    2      -50.891999   1.000000
    3      -50.889435   1.000000
    4      -50.889433   1.000000
    5      -46.164028   1.000000
    6      -46.164028   1.000000
    7      -46.161547   1.000000
    8      -46.161547   1.000000
    9      -46.160568   1.000000
   10      -46.160568   1.000000
   11      -20.355029   1.000000
   12      -20.355024   1.000000
   13       -7.450514   1.000000
   14       -7.450510   1.000000
   15       -3.755307   1.000000
   16       -3.755296   1.000000
   17       -3.754972   1.000000
   18       -3.754970   1.000000
   19        3.253806   0.000000
   20        3.253808   0.000000
   21        9.063255   0.000000
   22        9.063270   0.000000
   23        9.063537   0.000000
   24        9.063541   0.000000
   25        9.136062   0.000000
   26        9.136068   0.000000
   27       10.638174   0.000000
   28       10.638198   0.000000
   29       11.810352   0.000000
   30       11.810364   0.000000
   31       11.810398   0.000000
   32       11.810409   0.000000
   33       12.772599   0.000000
   34       12.772603   0.000000
   35       12.916387   0.000000
   36       12.916393   0.000000
   37       12.916396   0.000000
   38       12.916399   0.000000
   39       14.543971   0.000000
   40       14.543975   0.000000
   41       18.244150   0.000000
   42       18.244150   0.000000
   43       18.276534   0.000000
   44       18.276534   0.000000
   45       18.276535   0.000000
   46       18.276535   0.000000
   47       20.689576   0.000000
   48       20.689576   0.000000
   49       22.070279   0.000000
   50       22.070279   0.000000
   51       22.070280   0.000000
   52       22.070280   0.000000
   53       23.022351   0.000000
   54       23.022352   0.000000
   55       24.188646   0.000000
   56       24.188646   0.000000
   57       24.188646   0.000000
   58       24.188646   0.000000
   59       24.349670   0.000000
   60       24.349670   0.000000
   61       24.541470   0.000000
   62       24.541470   0.000000
   63       25.180066   0.000000
   64       25.180066   0.000000
   65       25.180066   0.000000
   66       25.180066   0.000000
   67       25.328040   0.000000
   68       25.328040   0.000000
   69       25.328040   0.000000
   70       25.328040   0.000000
   71       26.737159   0.000000
   72       26.737160   0.000000
   73       32.773587   0.000000
   74       32.773587   0.000000
   75       32.802982   0.000000
   76       32.802982   0.000000
   77       32.802982   0.000000
   78       32.802982   0.000000
   79       34.526085   0.000000
   80       34.526085   0.000000
   81       34.526085   0.000000
   82       34.526085   0.000000
   83       34.741054   0.000000
   84       34.741054   0.000000
   85       35.327652   0.000000
   86       35.327653   0.000000
   87       35.327653   0.000000
   88       35.327653   0.000000
   89       35.327653   0.000000
   90       35.327653   0.000000
   91       35.765684   0.000000
   92       35.765684   0.000000
   93       35.765684   0.000000
   94       35.765685   0.000000
   95       35.948591   0.000000
   96       35.948591   0.000000
   97       36.161442   0.000000
   98       36.161442   0.000000
   99       36.161443   0.000000
  100       36.161443   0.000000
  101       38.113600   0.000000
  102       38.113600   0.000000
  103       38.113601   0.000000
  104       38.113601   0.000000
  105       38.141741   0.000000
  106       38.141742   0.000000
  107       38.509686   0.000000
  108       38.509689   0.000000
  109       38.833301   0.000000
  110       38.833302   0.000000
  111       38.833302   0.000000
  112       38.833302   0.000000
  113       40.828135   0.000000
  114       40.828136   0.000000
  115       40.842470   0.000000
  116       40.842470   0.000000
  117       40.842471   0.000000
  118       40.842471   0.000000
  119       41.086593   0.000000
  120       41.086594   0.000000
  121       41.802753   0.000000
  122       41.802755   0.000000
  123       42.122008   0.000000
  124       42.122008   0.000000
  125       42.122008   0.000000
  126       42.122008   0.000000
  127       42.137277   0.000000
  128       42.137277   0.000000
  129       42.387768   0.000000
  130       42.387768   0.000000
  131       42.436443   0.000000
  132       42.436443   0.000000
  133       42.436444   0.000000
  134       42.436444   0.000000
  135       45.435530   0.000000
  136       45.435530   0.000000
  137       45.435531   0.000000
  138       45.435531   0.000000
  139       45.548895   0.000000
  140       45.548895   0.000000
  141       47.999879   0.000000
  142       47.999880   0.000000
  143       54.322490   0.000000
  144       54.322492   0.000000
  145       54.540442   0.000000
  146       54.540443   0.000000
  147       54.540443   0.000000
  148       54.540443   0.000000
  149       57.467218   0.000000
  150       57.467218   0.000000
  151       57.811532   0.000000
  152       57.811532   0.000000
  153       57.811533   0.000000
  154       57.811533   0.000000
  155       60.614167   0.000000
  156       60.614167   0.000000
  157       60.614168   0.000000
  158       60.614168   0.000000
  159       62.095232   0.000000
  160       62.095232   0.000000
  161       62.095233   0.000000
  162       62.095233   0.000000
  163       62.193438   0.000000
  164       62.193438   0.000000
  165       64.125267   0.000000
  166       64.125267   0.000000
  167       65.000953   0.000000
  168       65.000953   0.000000
  169       65.000953   0.000000
  170       65.000954   0.000000
  171       65.000954   0.000000
  172       65.000954   0.000000
  173       65.406978   0.000000
  174       65.406978   0.000000
  175       65.406979   0.000000
  176       65.406979   0.000000
  177       66.524602   0.000000
  178       66.524602   0.000000
  179       66.524603   0.000000
  180       66.524603   0.000000
  181       66.881571   0.000000
  182       66.881571   0.000000
  183       66.881571   0.000000
  184       66.881571   0.000000
  185       67.205013   0.000000
  186       67.205013   0.000000
  187       67.410078   0.000000
  188       67.410078   0.000000
  189       67.458869   0.000000
  190       67.458869   0.000000
  191       67.466633   0.000000
  192       67.466634   0.000000
  193       67.466634   0.000000
  194       67.466635   0.000000
  195       67.555630   0.000000
  196       67.555630   0.000000
 
  0.1666667E+00  0.1538294E-16  0.2081668E-16  0.4629630E-02
    1      -50.891935   1.000000
    2      -50.891914   1.000000
    3      -50.889349   1.000000
    4      -50.889346   1.000000
    5      -46.164686   1.000000
    6      -46.164684   1.000000
    7      -46.162212   1.000000
    8      -46.162209   1.000000
    9      -46.161187   1.000000
   10      -46.161178   1.000000
   11      -20.311025   1.000000
   12      -20.311021   1.000000
   13       -7.626083   1.000000
   14       -7.626079   1.000000
   15       -4.331353   1.000000
   16       -4.331346   1.000000
   17       -3.840076   1.000000
   18       -3.840071   1.000000
   19        4.135556   0.000000
   20        4.135559   0.000000
   21        8.205376   0.000000
   22        8.205394   0.000000
   23        9.270524   0.000000
   24        9.270547   0.000000
   25        9.327600   0.000000
   26        9.327601   0.000000
   27       10.876797   0.000000
   28       10.876798   0.000000
   29       10.930245   0.000000
   30       10.930261   0.000000
   31       11.365093   0.000000
   32       11.365102   0.000000
   33       12.793325   0.000000
   34       12.793351   0.000000
   35       14.702848   0.000000
   36       14.702850   0.000000
   37       14.786350   0.000000
   38       14.786356   0.000000
   39       16.595503   0.000000
   40       16.595512   0.000000
   41       17.233747   0.000000
   42       17.233747   0.000000
   43       17.337545   0.000000
   44       17.337545   0.000000
   45       18.325388   0.000000
   46       18.325388   0.000000
   47       18.750686   0.000000
   48       18.750686   0.000000
   49       20.784877   0.000000
   50       20.784877   0.000000
   51       21.440939   0.000000
   52       21.440939   0.000000
   53       22.636530   0.000000
   54       22.636530   0.000000
   55       23.542056   0.000000
   56       23.542056   0.000000
   57       23.585829   0.000000
   58       23.585829   0.000000
   59       23.661794   0.000000
   60       23.661794   0.000000
   61       24.876828   0.000000
   62       24.876828   0.000000
   63       25.099062   0.000000
   64       25.099062   0.000000
   65       25.786905   0.000000
   66       25.786905   0.000000
   67       26.378129   0.000000
   68       26.378129   0.000000
   69       27.026416   0.000000
   70       27.026416   0.000000
   71       29.660378   0.000000
   72       29.660379   0.000000
   73       31.424727   0.000000
   74       31.424727   0.000000
   75       31.598232   0.000000
   76       31.598232   0.000000
   77       31.723197   0.000000
   78       31.723197   0.000000
   79       31.769220   0.000000
   80       31.769220   0.000000
   81       32.624041   0.000000
   82       32.624041   0.000000
   83       32.831827   0.000000
   84       32.831827   0.000000
   85       34.618202   0.000000
   86       34.618202   0.000000
   87       34.782600   0.000000
   88       34.782600   0.000000
   89       35.236969   0.000000
   90       35.236970   0.000000
   91       35.448897   0.000000
   92       35.448897   0.000000
   93       35.511973   0.000000
   94       35.511973   0.000000
   95       36.104772   0.000000
   96       36.104772   0.000000
   97       36.178503   0.000000
   98       36.178503   0.000000
   99       36.474023   0.000000
  100       36.474024   0.000000
  101       36.576993   0.000000
  102       36.576993   0.000000
  103       38.184905   0.000000
  104       38.184906   0.000000
  105       38.327348   0.000000
  106       38.327349   0.000000
  107       38.729207   0.000000
  108       38.729207   0.000000
  109       39.842231   0.000000
  110       39.842232   0.000000
  111       40.042607   0.000000
  112       40.042607   0.000000
  113       40.043071   0.000000
  114       40.043071   0.000000
  115       41.952518   0.000000
  116       41.952518   0.000000
  117       42.027422   0.000000
  118       42.027423   0.000000
  119       42.753600   0.000000
  120       42.753602   0.000000
  121       43.207708   0.000000
  122       43.207708   0.000000
  123       43.485528   0.000000
  124       43.485529   0.000000
  125       43.751431   0.000000
  126       43.751431   0.000000
  127       43.802973   0.000000
  128       43.802973   0.000000
  129       44.957252   0.000000
  130       44.957252   0.000000
  131       45.014738   0.000000
  132       45.014738   0.000000
  133       45.448359   0.000000
  134       45.448359   0.000000
  135       46.080076   0.000000
  136       46.080077   0.000000
  137       46.128139   0.000000
  138       46.128139   0.000000
  139       47.390477   0.000000
  140       47.390477   0.000000
  141       49.680561   0.000000
  142       49.680561   0.000000
  143       52.047806   0.000000
  144       52.047806   0.000000
  145       52.116733   0.000000
  146       52.116733   0.000000
  147       52.918591   0.000000
  148       52.918593   0.000000
  149       57.031574   0.000000
  150       57.031574   0.000000
  151       57.377600   0.000000
  152       57.377600   0.000000
  153       58.450076   0.000000
  154       58.450076   0.000000
  155       58.950628   0.000000
  156       58.950628   0.000000
  157       58.959460   0.000000
  158       58.959460   0.000000
  159       59.620116   0.000000
  160       59.620117   0.000000
  161       61.139155   0.000000
  162       61.139156   0.000000
  163       61.502685   0.000000
  164       61.502685   0.000000
  165       61.678787   0.000000
  166       61.678787   0.000000
  167       61.681136   0.000000
  168       61.681136   0.000000
  169       62.290723   0.000000
  170       62.290723   0.000000
  171       62.397976   0.000000
  172       62.397976   0.000000
  173       63.294696   0.000000
  174       63.294696   0.000000
  175       63.499560   0.000000
  176       63.499560   0.000000
  177       64.137516   0.000000
  178       64.137518   0.000000
  179       64.539871   0.000000
  180       64.539871   0.000000
  181       64.646279   0.000000
  182       64.646279   0.000000
  183       65.342463   0.000000
  184       65.342463   0.000000
  185       65.728561   0.000000
  186       65.728561   0.000000
  187       66.270231   0.000000
  188       66.270232   0.000000
  189       66.403952   0.000000
  190       66.403952   0.000000
  191       66.481642   0.000000
  192       66.481642   0.000000
  193       67.622102   0.000000
  194       67.622102   0.000000
  195       67.731753   0.000000
  196       67.731753   0.000000
 
  0.3333333E+00  0.5852146E-16  0.1387779E-16  0.4629630E-02
    1      -50.892243   1.000000
    2      -50.892236   1.000000
    3      -50.889331   1.000000
    4      -50.889324   1.000000
    5      -46.163993   1.000000
    6      -46.163983   1.000000
    7      -46.161522   1.000000
    8      -46.161512   1.000000
    9      -46.160519   1.000000
   10      -46.160501   1.000000
   11      -20.221186   1.000000
   12      -20.221181   1.000000
   13       -8.025177   1.000000
   14       -8.025172   1.000000
   15       -5.109503   1.000000
   16       -5.109498   1.000000
   17       -4.001068   1.000000
   18       -4.001049   1.000000
   19        5.153991   0.000000
   20        5.153997   0.000000
   21        8.317571   0.000000
   22        8.317582   0.000000
   23        8.908476   0.000000
   24        8.908508   0.000000
   25        8.976271   0.000000
   26        8.976272   0.000000
   27       10.597642   0.000000
   28       10.597650   0.000000
   29       11.737216   0.000000
   30       11.737219   0.000000
   31       11.848836   0.000000
   32       11.848858   0.000000
   33       15.981269   0.000000
   34       15.981300   0.000000
   35       16.661674   0.000000
   36       16.661686   0.000000
   37       17.138183   0.000000
   38       17.138188   0.000000
   39       17.207185   0.000000
   40       17.207191   0.000000
   41       15.424318   0.000000
   42       15.424318   0.000000
   43       15.424698   0.000000
   44       15.424698   0.000000
   45       18.449112   0.000000
   46       18.449112   0.000000
   47       18.584313   0.000000
   48       18.584315   0.000000
   49       20.547912   0.000000
   50       20.547912   0.000000
   51       21.141483   0.000000
   52       21.141483   0.000000
   53       21.489312   0.000000
   54       21.489313   0.000000
   55       22.379191   0.000000
   56       22.379191   0.000000
   57       22.727040   0.000000
   58       22.727040   0.000000
   59       23.534299   0.000000
   60       23.534299   0.000000
   61       25.208564   0.000000
   62       25.208564   0.000000
   63       25.346398   0.000000
   64       25.346398   0.000000
   65       25.707498   0.000000
   66       25.707499   0.000000
   67       26.663300   0.000000
   68       26.663300   0.000000
   69       26.938517   0.000000
   70       26.938517   0.000000
   71       27.401125   0.000000
   72       27.401125   0.000000
   73       30.034743   0.000000
   74       30.034744   0.000000
   75       30.087590   0.000000
   76       30.087590   0.000000
   77       30.185661   0.000000
   78       30.185662   0.000000
   79       30.233700   0.000000
   80       30.233700   0.000000
   81       31.126700   0.000000
   82       31.126700   0.000000
   83       31.399248   0.000000
   84       31.399248   0.000000
   85       34.246902   0.000000
   86       34.246903   0.000000
   87       34.286808   0.000000
   88       34.286808   0.000000
   89       34.418278   0.000000
   90       34.418278   0.000000
   91       34.989498   0.000000
   92       34.989498   0.000000
   93       35.100340   0.000000
   94       35.100340   0.000000
   95       36.688579   0.000000
   96       36.688580   0.000000
   97       37.166493   0.000000
   98       37.166493   0.000000
   99       37.219745   0.000000
  100       37.219746   0.000000
  101       37.554200   0.000000
  102       37.554200   0.000000
  103       38.417002   0.000000
  104       38.417002   0.000000
  105       39.640213   0.000000
  106       39.640213   0.000000
  107       39.793493   0.000000
  108       39.793493   0.000000
  109       40.452592   0.000000
  110       40.452594   0.000000
  111       41.387648   0.000000
  112       41.387648   0.000000
  113       41.511632   0.000000
  114       41.511632   0.000000
  115       43.551635   0.000000
  116       43.551635   0.000000
  117       45.258262   0.000000
  118       45.258263   0.000000
  119       45.398661   0.000000
  120       45.398661   0.000000
  121       45.790194   0.000000
  122       45.790195   0.000000
  123       45.802290   0.000000
  124       45.802290   0.000000
  125       45.839250   0.000000
  126       45.839250   0.000000
  127       46.485976   0.000000
  128       46.485977   0.000000
  129       47.707963   0.000000
  130       47.707964   0.000000
  131       48.077159   0.000000
  132       48.077159   0.000000
  133       48.167744   0.000000
  134       48.167744   0.000000
  135       49.135360   0.000000
  136       49.135360   0.000000
  137       49.179774   0.000000
  138       49.179774   0.000000
  139       49.858920   0.000000
  140       49.858921   0.000000
  141       50.114165   0.000000
  142       50.114165   0.000000
  143       50.118020   0.000000
  144       50.118020   0.000000
  145       51.937889   0.000000
  146       51.937890   0.000000
  147       52.113486   0.000000
  148       52.113487   0.000000
  149       52.534911   0.000000
  150       52.534911   0.000000
  151       52.567642   0.000000
  152       52.567642   0.000000
  153       55.428083   0.000000
  154       55.428084   0.000000
  155       55.783902   0.000000
  156       55.783902   0.000000
  157       56.162462   0.000000
  158       56.162462   0.000000
  159       56.466557   0.000000
  160       56.466557   0.000000
  161       57.714225   0.000000
  162       57.714225   0.000000
  163       57.764312   0.000000
  164       57.764312   0.000000
  165       58.156373   0.000000
  166       58.156375   0.000000
  167       58.766431   0.000000
  168       58.766431   0.000000
  169       58.806033   0.000000
  170       58.806034   0.000000
  171       59.030017   0.000000
  172       59.030018   0.000000
  173       61.151530   0.000000
  174       61.151530   0.000000
  175       61.373125   0.000000
  176       61.373125   0.000000
  177       64.444193   0.000000
  178       64.444194   0.000000
  179       64.816297   0.000000
  180       64.816297   0.000000
  181       64.954266   0.000000
  182       64.954266   0.000000
  183       65.701019   0.000000
  184       65.701019   0.000000
  185       65.776110   0.000000
  186       65.776110   0.000000
  187       66.269731   0.000000
  188       66.269731   0.000000
  189       66.371538   0.000000
  190       66.371538   0.000000
  191       66.686552   0.000000
  192       66.686552   0.000000
  193       66.976051   0.000000
  194       66.976052   0.000000
  195       67.144055   0.000000
  196       67.144055   0.000000
 
  0.5000000E+00  0.6002661E-16  0.0000000E+00  0.4629630E-02
    1      -50.892027   1.000000
    2      -50.892023   1.000000
    3      -50.889065   1.000000
    4      -50.889061   1.000000
    5      -46.163810   1.000000
    6      -46.163791   1.000000
    7      -46.161249   1.000000
    8      -46.161227   1.000000
    9      -46.160130   1.000000
   10      -46.160090   1.000000
   11      -20.175542   1.000000
   12      -20.175537   1.000000
   13       -8.238350   1.000000
   14       -8.238344   1.000000
   15       -5.386930   1.000000
   16       -5.386926   1.000000
   17       -4.077483   1.000000
   18       -4.077460   1.000000
   19        5.265618   0.000000
   20        5.265626   0.000000
   21        8.624949   0.000000
   22        8.624980   0.000000
   23        8.689247   0.000000
   24        8.689252   0.000000
   25        8.821565   0.000000
   26        8.821572   0.000000
   27       10.941932   0.000000
   28       10.941940   0.000000
   29       13.933961   0.000000
   30       13.933965   0.000000
   31       14.052086   0.000000
   32       14.052088   0.000000
   33       14.145123   0.000000
   34       14.145172   0.000000
   35       14.172395   0.000000
   36       14.172411   0.000000
   37       14.708747   0.000000
   38       14.708766   0.000000
   39       19.106717   0.000000
   40       19.106761   0.000000
   41       16.882008   0.000000
   42       16.882008   0.000000
   43       16.897134   0.000000
   44       16.897134   0.000000
   45       18.519193   0.000000
   46       18.519193   0.000000
   47       19.527002   0.000000
   48       19.527003   0.000000
   49       20.632099   0.000000
   50       20.632100   0.000000
   51       20.834474   0.000000
   52       20.834474   0.000000
   53       20.890182   0.000000
   54       20.890182   0.000000
   55       21.237864   0.000000
   56       21.237865   0.000000
   57       22.084721   0.000000
   58       22.084721   0.000000
   59       23.843082   0.000000
   60       23.843082   0.000000
   61       24.492150   0.000000
   62       24.492151   0.000000
   63       25.456837   0.000000
   64       25.456837   0.000000
   65       25.683613   0.000000
   66       25.683613   0.000000
   67       25.963702   0.000000
   68       25.963702   0.000000
   69       26.317544   0.000000
   70       26.317544   0.000000
   71       26.875512   0.000000
   72       26.875512   0.000000
   73       27.479225   0.000000
   74       27.479226   0.000000
   75       29.620133   0.000000
   76       29.620134   0.000000
   77       29.672328   0.000000
   78       29.672328   0.000000
   79       29.717702   0.000000
   80       29.717703   0.000000
   81       30.786728   0.000000
   82       30.786728   0.000000
   83       31.109906   0.000000
   84       31.109906   0.000000
   85       34.046256   0.000000
   86       34.046256   0.000000
   87       34.119817   0.000000
   88       34.119818   0.000000
   89       34.580719   0.000000
   90       34.580720   0.000000
   91       34.826683   0.000000
   92       34.826683   0.000000
   93       34.980425   0.000000
   94       34.980425   0.000000
   95       37.200420   0.000000
   96       37.200420   0.000000
   97       37.337649   0.000000
   98       37.337650   0.000000
   99       37.778750   0.000000
  100       37.778750   0.000000
  101       37.859333   0.000000
  102       37.859333   0.000000
  103       41.152750   0.000000
  104       41.152750   0.000000
  105       41.187537   0.000000
  106       41.187537   0.000000
  107       41.514930   0.000000
  108       41.514931   0.000000
  109       42.034932   0.000000
  110       42.034932   0.000000
  111       42.659102   0.000000
  112       42.659102   0.000000
  113       43.491193   0.000000
  114       43.491193   0.000000
  115       43.573726   0.000000
  116       43.573726   0.000000
  117       44.721149   0.000000
  118       44.721149   0.000000
  119       44.870788   0.000000
  120       44.870788   0.000000
  121       45.031236   0.000000
  122       45.031236   0.000000
  123       46.702190   0.000000
  124       46.702190   0.000000
  125       46.738568   0.000000
  126       46.738568   0.000000
  127       48.238015   0.000000
  128       48.238015   0.000000
  129       48.352149   0.000000
  130       48.352149   0.000000
  131       48.765276   0.000000
  132       48.765276   0.000000
  133       48.934368   0.000000
  134       48.934369   0.000000
  135       49.129945   0.000000
  136       49.129945   0.000000
  137       50.022058   0.000000
  138       50.022058   0.000000
  139       50.158010   0.000000
  140       50.158010   0.000000
  141       51.288114   0.000000
  142       51.288115   0.000000
  143       51.467751   0.000000
  144       51.467751   0.000000
  145       51.864354   0.000000
  146       51.864354   0.000000
  147       52.546331   0.000000
  148       52.546332   0.000000
  149       52.671902   0.000000
  150       52.671904   0.000000
  151       52.697414   0.000000
  152       52.697414   0.000000
  153       52.707881   0.000000
  154       52.707882   0.000000
  155       53.826680   0.000000
  156       53.826680   0.000000
  157       54.012330   0.000000
  158       54.012330   0.000000
  159       54.365132   0.000000
  160       54.365133   0.000000
  161       56.319777   0.000000
  162       56.319777   0.000000
  163       56.416980   0.000000
  164       56.416980   0.000000
  165       57.258998   0.000000
  166       57.258998   0.000000
  167       57.273858   0.000000
  168       57.273858   0.000000
  169       59.149925   0.000000
  170       59.149926   0.000000
  171       59.412508   0.000000
  172       59.412508   0.000000
  173       59.852067   0.000000
  174       59.852067   0.000000
  175       60.881351   0.000000
  176       60.881351   0.000000
  177       61.094111   0.000000
  178       61.094111   0.000000
  179       61.238489   0.000000
  180       61.238489   0.000000
  181       64.668479   0.000000
  182       64.668479   0.000000
  183       65.465173   0.000000
  184       65.465174   0.000000
  185       65.586286   0.000000
  186       65.586286   0.000000
  187       65.604451   0.000000
  188       65.604451   0.000000
  189       65.683329   0.000000
  190       65.683329   0.000000
  191       66.382984   0.000000
  192       66.382985   0.000000
  193       66.490017   0.000000
  194       66.490018   0.000000
  195       66.550689   0.000000
  196       66.550689   0.000000
 
 -0.3333333E+00 -0.5852146E-16 -0.1387779E-16  0.4629630E-02
    1      -50.892060   1.000000
    2      -50.892056   1.000000
    3      -50.889040   1.000000
    4      -50.889036   1.000000
    5      -46.163863   1.000000
    6      -46.163858   1.000000
    7      -46.161282   1.000000
    8      -46.161271   1.000000
    9      -46.160154   1.000000
   10      -46.160139   1.000000
   11      -20.221153   1.000000
   12      -20.221151   1.000000
   13       -8.025099   1.000000
   14       -8.025094   1.000000
   15       -5.109441   1.000000
   16       -5.109435   1.000000
   17       -4.001016   1.000000
   18       -4.000996   1.000000
   19        5.154011   0.000000
   20        5.154018   0.000000
   21        8.317541   0.000000
   22        8.317552   0.000000
   23        8.908489   0.000000
   24        8.908522   0.000000
   25        8.976289   0.000000
   26        8.976290   0.000000
   27       10.597642   0.000000
   28       10.597650   0.000000
   29       11.737217   0.000000
   30       11.737219   0.000000
   31       11.848841   0.000000
   32       11.848862   0.000000
   33       15.981262   0.000000
   34       15.981292   0.000000
   35       16.661765   0.000000
   36       16.661777   0.000000
   37       17.138229   0.000000
   38       17.138235   0.000000
   39       17.207249   0.000000
   40       17.207257   0.000000
   41       15.424318   0.000000
   42       15.424318   0.000000
   43       15.424698   0.000000
   44       15.424698   0.000000
   45       18.449112   0.000000
   46       18.449112   0.000000
   47       18.584313   0.000000
   48       18.584315   0.000000
   49       20.547912   0.000000
   50       20.547912   0.000000
   51       21.141483   0.000000
   52       21.141483   0.000000
   53       21.489312   0.000000
   54       21.489313   0.000000
   55       22.379191   0.000000
   56       22.379191   0.000000
   57       22.727040   0.000000
   58       22.727040   0.000000
   59       23.534299   0.000000
   60       23.534299   0.000000
   61       25.208564   0.000000
   62       25.208564   0.000000
   63       25.346398   0.000000
   64       25.346398   0.000000
   65       25.707498   0.000000
   66       25.707499   0.000000
   67       26.663300   0.000000
   68       26.663300   0.000000
   69       26.938517   0.000000
   70       26.938517   0.000000
   71       27.401125   0.000000
   72       27.401125   0.000000
   73       30.034743   0.000000
   74       30.034744   0.000000
   75       30.087590   0.000000
   76       30.087590   0.000000
   77       30.185661   0.000000
   78       30.185662   0.000000
   79       30.233700   0.000000
   80       30.233700   0.000000
   81       31.126700   0.000000
   82       31.126700   0.000000
   83       31.399248   0.000000
   84       31.399248   0.000000
   85       34.246902   0.000000
   86       34.246903   0.000000
   87       34.286808   0.000000
   88       34.286808   0.000000
   89       34.418278   0.000000
   90       34.418278   0.000000
   91       34.989498   0.000000
   92       34.989498   0.000000
   93       35.100340   0.000000
   94       35.100340   0.000000
   95       36.688579   0.000000
   96       36.688580   0.000000
   97       37.166493   0.000000
   98       37.166493   0.000000
   99       37.219745   0.000000
  100       37.219746   0.000000
  101       37.554200   0.000000
  102       37.554200   0.000000
  103       38.417002   0.000000
  104       38.417002   0.000000
  105       39.640213   0.000000
  106       39.640213   0.000000
  107       39.793493   0.000000
  108       39.793493   0.000000
  109       40.452592   0.000000