   1   1   0   0
  0.5764366E+02  0.4335996E-09  0.4335996E-09  0.4335996E-09  0.1000000E-15
  1.000000000000000E-004
  CAR 
 Og_FCC                                  
     59.13754735    -22.36275158  301     -5.45143955      1.00000000
    -22.363  0.0000E+00  0.0000E+00
    -22.091  0.0000E+00  0.0000E+00
    -21.819  0.0000E+00  0.0000E+00
    -21.548  0.0000E+00  0.0000E+00
    -21.276  0.0000E+00  0.0000E+00
    -21.004  0.0000E+00  0.0000E+00
    -20.733  0.0000E+00  0.0000E+00
    -20.461  0.0000E+00  0.0000E+00
    -20.189  0.0000E+00  0.0000E+00
    -19.918  0.0000E+00  0.0000E+00
    -19.646  0.0000E+00  0.0000E+00
    -19.374  0.0000E+00  0.0000E+00
    -19.103  0.0000E+00  0.0000E+00
    -18.831  0.0000E+00  0.0000E+00
    -18.559  0.0000E+00  0.1389E+00
    -18.288  0.0000E+00  0.1861E+01
    -18.016  0.0000E+00  0.2000E+01
    -17.744  0.0000E+00  0.2000E+01
    -17.473  0.0000E+00  0.2000E+01
    -17.201  0.0000E+00  0.2000E+01
    -16.929  0.0000E+00  0.2000E+01
    -16.658  0.0000E+00  0.2000E+01
    -16.386  0.0000E+00  0.2000E+01
    -16.114  0.0000E+00  0.2000E+01
    -15.843  0.0000E+00  0.2000E+01
    -15.571  0.0000E+00  0.2000E+01
    -15.299  0.0000E+00  0.2000E+01
    -15.028  0.0000E+00  0.2000E+01
    -14.756  0.0000E+00  0.2000E+01
    -14.484  0.0000E+00  0.2000E+01
    -14.213  0.0000E+00  0.2000E+01
    -13.941  0.0000E+00  0.2000E+01
    -13.669  0.0000E+00  0.2000E+01
    -13.398  0.0000E+00  0.2000E+01
    -13.126  0.0000E+00  0.2000E+01
    -12.854  0.0000E+00  0.2000E+01
    -12.583  0.0000E+00  0.2000E+01
    -12.311  0.0000E+00  0.2000E+01
    -12.039  0.0000E+00  0.2000E+01
    -11.768  0.0000E+00  0.2000E+01
    -11.496  0.0000E+00  0.2000E+01
    -11.224  0.0000E+00  0.2000E+01
    -10.953  0.0000E+00  0.2000E+01
    -10.681  0.0000E+00  0.2000E+01
    -10.409  0.0000E+00  0.2000E+01
    -10.138  0.0000E+00  0.2000E+01
     -9.866  0.0000E+00  0.2000E+01
     -9.594  0.0000E+00  0.2000E+01
     -9.323  0.0000E+00  0.2000E+01
     -9.051  0.0000E+00  0.2000E+01
     -8.779  0.0000E+00  0.2000E+01
     -8.508  0.0000E+00  0.2000E+01
     -8.236  0.0000E+00  0.2287E+01
     -7.964  0.0000E+00  0.3528E+01
     -7.693  0.0000E+00  0.3750E+01
     -7.421  0.0000E+00  0.3861E+01
     -7.149  0.8157E+00  0.4323E+01
     -6.878  0.0000E+00  0.4917E+01
     -6.606  0.0000E+00  0.5565E+01
     -6.334  0.0000E+00  0.6556E+01
     -6.063  0.2727E+00  0.7407E+01
     -5.791  0.0000E+00  0.7907E+01
     -5.519  0.0000E+00  0.8000E+01
     -5.248  0.0000E+00  0.8000E+01
     -4.976  0.0000E+00  0.8000E+01
     -4.704  0.0000E+00  0.8000E+01
     -4.433  0.0000E+00  0.8000E+01
     -4.161  0.0000E+00  0.8000E+01
     -3.889  0.0000E+00  0.8000E+01
     -3.618  0.0000E+00  0.8000E+01
     -3.346  0.0000E+00  0.8000E+01
     -3.074  0.0000E+00  0.8000E+01
     -2.803  0.0000E+00  0.8000E+01
     -2.531  0.0000E+00  0.8000E+01
     -2.259  0.0000E+00  0.8000E+01
     -1.988  0.0000E+00  0.8000E+01
     -1.716  0.0000E+00  0.8000E+01
     -1.444  0.0000E+00  0.8000E+01
     -1.173  0.0000E+00  0.8000E+01
     -0.901  0.0000E+00  0.8000E+01
     -0.629  0.0000E+00  0.8000E+01
     -0.358  0.0000E+00  0.8000E+01
     -0.086  0.0000E+00  0.8000E+01
      0.186  0.0000E+00  0.8000E+01
      0.457  0.0000E+00  0.8000E+01
      0.729  0.0000E+00  0.8000E+01
      1.001  0.0000E+00  0.8000E+01
      1.272  0.0000E+00  0.8000E+01
      1.544  0.0000E+00  0.8000E+01
      1.816  0.0000E+00  0.8000E+01
      2.087  0.0000E+00  0.8000E+01
      2.359  0.0000E+00  0.8000E+01
      2.631  0.0000E+00  0.8000E+01
      2.902  0.0000E+00  0.8000E+01
      3.174  0.0000E+00  0.8000E+01
      3.446  0.0000E+00  0.8000E+01
      3.717  0.0000E+00  0.8009E+01
      3.989  0.0000E+00  0.8009E+01
      4.261  0.0000E+00  0.8009E+01
      4.532  0.0000E+00  0.8083E+01
      4.804  0.0000E+00  0.8167E+01
      5.076  0.0000E+00  0.8167E+01
      5.347  0.0000E+00  0.8556E+01
      5.619  0.0000E+00  0.9000E+01
      5.891  0.0000E+00  0.9361E+01
      6.162  0.0000E+00  0.9806E+01
      6.434  0.0000E+00  0.1031E+02
      6.706  0.0000E+00  0.1031E+02
      6.977  0.0000E+00  0.1064E+02
      7.249  0.8180E+00  0.1164E+02
      7.521  0.0000E+00  0.1203E+02
      7.792  0.0000E+00  0.1219E+02
      8.064  0.0000E+00  0.1249E+02
      8.336  0.0000E+00  0.1319E+02
      8.607  0.6009E-10  0.1338E+02
      8.879  0.0000E+00  0.1389E+02
      9.151  0.0000E+00  0.1515E+02
      9.422  0.0000E+00  0.1572E+02
      9.694  0.0000E+00  0.1648E+02
      9.966  0.0000E+00  0.1727E+02
     10.237  0.2518E+00  0.1767E+02
     10.509  0.1968E-15  0.1835E+02
     10.781  0.0000E+00  0.1843E+02
     11.052  0.0000E+00  0.1870E+02
     11.324  0.0000E+00  0.1928E+02
     11.596  0.0000E+00  0.2033E+02
     11.867  0.0000E+00  0.2099E+02
     12.139  0.0000E+00  0.2138E+02
     12.411  0.0000E+00  0.2205E+02
     12.682  0.0000E+00  0.2280E+02
     12.954  0.0000E+00  0.2287E+02
     13.226  0.0000E+00  0.2357E+02
     13.497  0.0000E+00  0.2394E+02
     13.769  0.0000E+00  0.2417E+02
     14.041  0.0000E+00  0.2475E+02
     14.312  0.0000E+00  0.2503E+02
     14.584  0.0000E+00  0.2547E+02
     14.856  0.3828E-01  0.2609E+02
     15.127  0.0000E+00  0.2723E+02
     15.399  0.0000E+00  0.2779E+02
     15.671  0.7014E+00  0.2872E+02
     15.942  0.0000E+00  0.2914E+02
     16.214  0.0000E+00  0.2990E+02
     16.486  0.0000E+00  0.3042E+02
     16.757  0.0000E+00  0.3142E+02
     17.029  0.0000E+00  0.3219E+02
     17.301  0.0000E+00  0.3281E+02
     17.572  0.0000E+00  0.3331E+02
     17.844  0.0000E+00  0.3417E+02
     18.116  0.0000E+00  0.3459E+02
     18.387  0.0000E+00  0.3493E+02
     18.659  0.0000E+00  0.3570E+02
     18.931  0.0000E+00  0.3637E+02
     19.202  0.8180E+00  0.3715E+02
     19.474  0.0000E+00  0.3844E+02
     19.746  0.0000E+00  0.3877E+02
     20.017  0.1022E+00  0.3969E+02
     20.289  0.0000E+00  0.3980E+02
     20.561  0.2045E+00  0.4013E+02
     20.832  0.0000E+00  0.4152E+02
     21.104  0.0000E+00  0.4187E+02
     21.376  0.1038E-10  0.4272E+02
     21.647  0.0000E+00  0.4365E+02
     21.919  0.0000E+00  0.4438E+02
     22.191  0.0000E+00  0.4531E+02
     22.462  0.0000E+00  0.4588E+02
     22.734  0.7910E+00  0.4706E+02
     23.006  0.0000E+00  0.4771E+02
     23.277  0.3408E-01  0.4800E+02
     23.549  0.0000E+00  0.4839E+02
     23.821  0.0000E+00  0.4894E+02
     24.092  0.0000E+00  0.4905E+02
     24.364  0.0000E+00  0.4957E+02
     24.636  0.0000E+00  0.5113E+02
     24.907  0.5153E-10  0.5146E+02
     25.179  0.0000E+00  0.5171E+02
     25.451  0.0000E+00  0.5258E+02
     25.722  0.0000E+00  0.5314E+02
     25.994  0.0000E+00  0.5408E+02
     26.266  0.0000E+00  0.5472E+02
     26.537  0.0000E+00  0.5559E+02
     26.809  0.0000E+00  0.5737E+02
     27.081  0.0000E+00  0.5793E+02
     27.352  0.0000E+00  0.5806E+02
     27.624  0.0000E+00  0.5889E+02
     27.896  0.8149E+00  0.5954E+02
     28.167  0.0000E+00  0.6026E+02
     28.439  0.7841E-03  0.6048E+02
     28.711  0.0000E+00  0.6118E+02
     28.982  0.0000E+00  0.6162E+02
     29.254  0.0000E+00  0.6202E+02
     29.526  0.8180E+00  0.6263E+02
     29.797  0.0000E+00  0.6341E+02
     30.069  0.0000E+00  0.6407E+02
     30.341  0.0000E+00  0.6491E+02
     30.612  0.0000E+00  0.6598E+02
     30.884  0.0000E+00  0.6624E+02
     31.156  0.0000E+00  0.6709E+02
     31.427  0.0000E+00  0.6797E+02
     31.699  0.6737E-04  0.6836E+02
     31.971  0.0000E+00  0.6950E+02
     32.242  0.0000E+00  0.7020E+02
     32.514  0.8180E+00  0.7103E+02
     32.786  0.0000E+00  0.7149E+02
     33.057  0.0000E+00  0.7214E+02
     33.329  0.1288E-06  0.7310E+02
     33.601  0.0000E+00  0.7396E+02
     33.872  0.0000E+00  0.7407E+02
     34.144  0.0000E+00  0.7530E+02
     34.416  0.0000E+00  0.7607E+02
     34.687  0.7759E-11  0.7639E+02
     34.959  0.0000E+00  0.7715E+02
     35.231  0.0000E+00  0.7796E+02
     35.502  0.0000E+00  0.7846E+02
     35.774  0.0000E+00  0.7922E+02
     36.046  0.0000E+00  0.7922E+02
     36.317  0.0000E+00  0.7947E+02
     36.589  0.0000E+00  0.8022E+02
     36.861  0.0000E+00  0.8059E+02
     37.132  0.2612E+00  0.8204E+02
     37.404  0.0000E+00  0.8302E+02
     37.676  0.1022E+00  0.8399E+02
     37.947  0.0000E+00  0.8452E+02
     38.219  0.8962E-12  0.8503E+02
     38.491  0.0000E+00  0.8580E+02
     38.762  0.8179E+00  0.8654E+02
     39.034  0.0000E+00  0.8796E+02
     39.306  0.0000E+00  0.8819E+02
     39.577  0.0000E+00  0.8935E+02
     39.849  0.0000E+00  0.9041E+02
     40.121  0.2770E-12  0.9061E+02
     40.392  0.2045E+00  0.9211E+02
     40.664  0.0000E+00  0.9300E+02
     40.936  0.0000E+00  0.9394E+02
     41.207  0.2045E+00  0.9399E+02
     41.479  0.0000E+00  0.9477E+02
     41.751  0.0000E+00  0.9523E+02
     42.022  0.0000E+00  0.9580E+02
     42.294  0.0000E+00  0.9669E+02
     42.566  0.0000E+00  0.9731E+02
     42.837  0.0000E+00  0.9791E+02
     43.109  0.0000E+00  0.9865E+02
     43.381  0.0000E+00  0.9976E+02
     43.652  0.0000E+00  0.1001E+03
     43.924  0.0000E+00  0.1008E+03
     44.196  0.5448E+00  0.1016E+03
     44.467  0.1827E-07  0.1023E+03
     44.739  0.0000E+00  0.1034E+03
     45.011  0.0000E+00  0.1039E+03
     45.282  0.0000E+00  0.1052E+03
     45.554  0.0000E+00  0.1061E+03
     45.826  0.0000E+00  0.1072E+03
     46.097  0.0000E+00  0.1073E+03
     46.369  0.0000E+00  0.1079E+03
     46.641  0.0000E+00  0.1085E+03
     46.913  0.0000E+00  0.1093E+03
     47.184  0.0000E+00  0.1100E+03
     47.456  0.0000E+00  0.1108E+03
     47.728  0.0000E+00  0.1113E+03
     47.999  0.2646E-02  0.1124E+03
     48.271  0.5453E+00  0.1131E+03
     48.543  0.0000E+00  0.1138E+03
     48.814  0.2418E-02  0.1146E+03
     49.086  0.0000E+00  0.1160E+03
     49.358  0.0000E+00  0.1160E+03
     49.629  0.0000E+00  0.1168E+03
     49.901  0.2004E+00  0.1173E+03
     50.173  0.0000E+00  0.1178E+03
     50.444  0.4090E+00  0.1187E+03
     50.716  0.8180E+00  0.1199E+03
     50.988  0.0000E+00  0.1212E+03
     51.259  0.0000E+00  0.1216E+03
     51.531  0.0000E+00  0.1229E+03
     51.803  0.5776E-05  0.1237E+03
     52.074  0.1941E-01  0.1245E+03
     52.346  0.0000E+00  0.1253E+03
     52.618  0.0000E+00  0.1260E+03
     52.889  0.0000E+00  0.1261E+03
     53.161  0.0000E+00  0.1268E+03
     53.433  0.0000E+00  0.1274E+03
     53.704  0.1371E-04  0.1274E+03
     53.976  0.0000E+00  0.1279E+03
     54.248  0.0000E+00  0.1279E+03
     54.519  0.0000E+00  0.1279E+03
     54.791  0.0000E+00  0.1279E+03
     55.063  0.0000E+00  0.1279E+03
     55.334  0.0000E+00  0.1279E+03
     55.606  0.0000E+00  0.1280E+03
     55.878  0.0000E+00  0.1280E+03
     56.149  0.0000E+00  0.1280E+03
     56.421  0.0000E+00  0.1280E+03
     56.693  0.0000E+00  0.1280E+03
     56.964  0.0000E+00  0.1280E+03
     57.236  0.0000E+00  0.1280E+03
     57.508  0.0000E+00  0.1280E+03
     57.779  0.0000E+00  0.1280E+03
     58.051  0.0000E+00  0.1280E+03
     58.323  0.0000E+00  0.1280E+03
     58.594  0.0000E+00  0.1280E+03
     58.866  0.0000E+00  0.1280E+03
     59.138  0.0000E+00  0.1280E+03
