   1   1   0   0
  0.5802654E+02  0.4345576E-09  0.4345576E-09  0.4345573E-09  0.1000000E-15
  1.000000000000000E-004
  CAR 
 Og_FCC                                  
     34.23594675    -44.67486637  301      3.06617557      1.00000000
    -44.675  0.0000E+00  0.0000E+00
    -44.412  0.0000E+00  0.0000E+00
    -44.149  0.0000E+00  0.0000E+00
    -43.886  0.0000E+00  0.0000E+00
    -43.623  0.0000E+00  0.0000E+00
    -43.360  0.0000E+00  0.0000E+00
    -43.097  0.0000E+00  0.0000E+00
    -42.834  0.0000E+00  0.0000E+00
    -42.571  0.0000E+00  0.0000E+00
    -42.308  0.0000E+00  0.0000E+00
    -42.045  0.0000E+00  0.0000E+00
    -41.781  0.0000E+00  0.0000E+00
    -41.518  0.0000E+00  0.0000E+00
    -41.255  0.0000E+00  0.0000E+00
    -40.992  0.0000E+00  0.4000E+01
    -40.729  0.0000E+00  0.4000E+01
    -40.466  0.0000E+00  0.4000E+01
    -40.203  0.0000E+00  0.4000E+01
    -39.940  0.0000E+00  0.4000E+01
    -39.677  0.0000E+00  0.4000E+01
    -39.414  0.0000E+00  0.4000E+01
    -39.151  0.0000E+00  0.4000E+01
    -38.888  0.0000E+00  0.4000E+01
    -38.625  0.0000E+00  0.4000E+01
    -38.362  0.0000E+00  0.4000E+01
    -38.099  0.0000E+00  0.4000E+01
    -37.836  0.0000E+00  0.4000E+01
    -37.573  0.0000E+00  0.4000E+01
    -37.310  0.0000E+00  0.4000E+01
    -37.047  0.0000E+00  0.4000E+01
    -36.784  0.0000E+00  0.4000E+01
    -36.521  0.0000E+00  0.4000E+01
    -36.258  0.0000E+00  0.4000E+01
    -35.995  0.0000E+00  0.4000E+01
    -35.732  0.0000E+00  0.4000E+01
    -35.469  0.0000E+00  0.4000E+01
    -35.206  0.0000E+00  0.4000E+01
    -34.943  0.0000E+00  0.4000E+01
    -34.679  0.0000E+00  0.4000E+01
    -34.416  0.0000E+00  0.4000E+01
    -34.153  0.0000E+00  0.4000E+01
    -33.890  0.0000E+00  0.4000E+01
    -33.627  0.0000E+00  0.4000E+01
    -33.364  0.0000E+00  0.1000E+02
    -33.101  0.0000E+00  0.1000E+02
    -32.838  0.0000E+00  0.1000E+02
    -32.575  0.0000E+00  0.1000E+02
    -32.312  0.0000E+00  0.1000E+02
    -32.049  0.0000E+00  0.1000E+02
    -31.786  0.0000E+00  0.1000E+02
    -31.523  0.0000E+00  0.1000E+02
    -31.260  0.0000E+00  0.1000E+02
    -30.997  0.0000E+00  0.1000E+02
    -30.734  0.0000E+00  0.1000E+02
    -30.471  0.0000E+00  0.1000E+02
    -30.208  0.0000E+00  0.1000E+02
    -29.945  0.0000E+00  0.1000E+02
    -29.682  0.0000E+00  0.1000E+02
    -29.419  0.0000E+00  0.1000E+02
    -29.156  0.0000E+00  0.1000E+02
    -28.893  0.0000E+00  0.1000E+02
    -28.630  0.0000E+00  0.1000E+02
    -28.367  0.0000E+00  0.1000E+02
    -28.104  0.0000E+00  0.1000E+02
    -27.841  0.0000E+00  0.1000E+02
    -27.578  0.0000E+00  0.1000E+02
    -27.314  0.0000E+00  0.1000E+02
    -27.051  0.0000E+00  0.1000E+02
    -26.788  0.0000E+00  0.1000E+02
    -26.525  0.0000E+00  0.1000E+02
    -26.262  0.0000E+00  0.1000E+02
    -25.999  0.0000E+00  0.1000E+02
    -25.736  0.0000E+00  0.1000E+02
    -25.473  0.0000E+00  0.1003E+02
    -25.210  0.0000E+00  0.1200E+02
    -24.947  0.0000E+00  0.1200E+02
    -24.684  0.0000E+00  0.1200E+02
    -24.421  0.0000E+00  0.1200E+02
    -24.158  0.0000E+00  0.1200E+02
    -23.895  0.0000E+00  0.1200E+02
    -23.632  0.0000E+00  0.1200E+02
    -23.369  0.0000E+00  0.1200E+02
    -23.106  0.0000E+00  0.1200E+02
    -22.843  0.0000E+00  0.1200E+02
    -22.580  0.0000E+00  0.1200E+02
    -22.317  0.0000E+00  0.1200E+02
    -22.054  0.0000E+00  0.1200E+02
    -21.791  0.0000E+00  0.1200E+02
    -21.528  0.0000E+00  0.1200E+02
    -21.265  0.0000E+00  0.1200E+02
    -21.002  0.0000E+00  0.1200E+02
    -20.739  0.0000E+00  0.1200E+02
    -20.476  0.0000E+00  0.1200E+02
    -20.213  0.0000E+00  0.1200E+02
    -19.949  0.0000E+00  0.1200E+02
    -19.686  0.0000E+00  0.1200E+02
    -19.423  0.0000E+00  0.1200E+02
    -19.160  0.0000E+00  0.1200E+02
    -18.897  0.0000E+00  0.1200E+02
    -18.634  0.0000E+00  0.1200E+02
    -18.371  0.0000E+00  0.1200E+02
    -18.108  0.0000E+00  0.1200E+02
    -17.845  0.0000E+00  0.1200E+02
    -17.582  0.0000E+00  0.1200E+02
    -17.319  0.0000E+00  0.1200E+02
    -17.056  0.0000E+00  0.1200E+02
    -16.793  0.0000E+00  0.1200E+02
    -16.530  0.0000E+00  0.1200E+02
    -16.267  0.0000E+00  0.1200E+02
    -16.004  0.0000E+00  0.1200E+02
    -15.741  0.0000E+00  0.1200E+02
    -15.478  0.0000E+00  0.1200E+02
    -15.215  0.0000E+00  0.1200E+02
    -14.952  0.0000E+00  0.1200E+02
    -14.689  0.0000E+00  0.1200E+02
    -14.426  0.0000E+00  0.1200E+02
    -14.163  0.0000E+00  0.1200E+02
    -13.900  0.0000E+00  0.1200E+02
    -13.637  0.0000E+00  0.1200E+02
    -13.374  0.0000E+00  0.1200E+02
    -13.111  0.0000E+00  0.1200E+02
    -12.848  0.0000E+00  0.1200E+02
    -12.584  0.0000E+00  0.1200E+02
    -12.321  0.0000E+00  0.1200E+02
    -12.058  0.0000E+00  0.1200E+02
    -11.795  0.0000E+00  0.1200E+02
    -11.532  0.0000E+00  0.1200E+02
    -11.269  0.0000E+00  0.1200E+02
    -11.006  0.0000E+00  0.1200E+02
    -10.743  0.0000E+00  0.1200E+02
    -10.480  0.0000E+00  0.1200E+02
    -10.217  0.0000E+00  0.1200E+02
     -9.954  0.0000E+00  0.1353E+02
     -9.691  0.5940E-01  0.1400E+02
     -9.428  0.0000E+00  0.1400E+02
     -9.165  0.0000E+00  0.1400E+02
     -8.902  0.0000E+00  0.1400E+02
     -8.639  0.0000E+00  0.1400E+02
     -8.376  0.0000E+00  0.1400E+02
     -8.113  0.0000E+00  0.1400E+02
     -7.850  0.0000E+00  0.1400E+02
     -7.587  0.0000E+00  0.1400E+02
     -7.324  0.0000E+00  0.1400E+02
     -7.061  0.0000E+00  0.1400E+02
     -6.798  0.0000E+00  0.1400E+02
     -6.535  0.0000E+00  0.1400E+02
     -6.272  0.0000E+00  0.1400E+02
     -6.009  0.0000E+00  0.1400E+02
     -5.746  0.0000E+00  0.1400E+02
     -5.482  0.0000E+00  0.1400E+02
     -5.219  0.0000E+00  0.1400E+02
     -4.956  0.0000E+00  0.1400E+02
     -4.693  0.0000E+00  0.1400E+02
     -4.430  0.0000E+00  0.1400E+02
     -4.167  0.0000E+00  0.1400E+02
     -3.904  0.0000E+00  0.1400E+02
     -3.641  0.0000E+00  0.1400E+02
     -3.378  0.0000E+00  0.1400E+02
     -3.115  0.0000E+00  0.1400E+02
     -2.852  0.0000E+00  0.1400E+02
     -2.589  0.0000E+00  0.1400E+02
     -2.326  0.0000E+00  0.1400E+02
     -2.063  0.0000E+00  0.1400E+02
     -1.800  0.0000E+00  0.1400E+02
     -1.537  0.0000E+00  0.1400E+02
     -1.274  0.0000E+00  0.1400E+02
     -1.011  0.0000E+00  0.1400E+02
     -0.748  0.0000E+00  0.1400E+02
     -0.485  0.2061E-02  0.1422E+02
     -0.222  0.0000E+00  0.1553E+02
      0.041  0.0000E+00  0.1553E+02
      0.304  0.0000E+00  0.1572E+02
      0.567  0.0000E+00  0.1616E+02
      0.830  0.0000E+00  0.1616E+02
      1.093  0.0000E+00  0.1616E+02
      1.356  0.0000E+00  0.1700E+02
      1.619  0.0000E+00  0.1738E+02
      1.883  0.0000E+00  0.1738E+02
      2.146  0.0000E+00  0.1756E+02
      2.409  0.0000E+00  0.1769E+02
      2.672  0.0000E+00  0.1794E+02
      2.935  0.0000E+00  0.1794E+02
      3.198  0.0000E+00  0.1800E+02
      3.461  0.0000E+00  0.1800E+02
      3.724  0.0000E+00  0.1803E+02
      3.987  0.0000E+00  0.1803E+02
      4.250  0.0000E+00  0.1803E+02
      4.513  0.0000E+00  0.1803E+02
      4.776  0.0000E+00  0.1803E+02
      5.039  0.0000E+00  0.1803E+02
      5.302  0.0000E+00  0.1803E+02
      5.565  0.0000E+00  0.1803E+02
      5.828  0.0000E+00  0.1803E+02
      6.091  0.6067E-01  0.1805E+02
      6.354  0.0000E+00  0.1828E+02
      6.617  0.0000E+00  0.1850E+02
      6.880  0.0000E+00  0.1850E+02
      7.143  0.0000E+00  0.1869E+02
      7.406  0.0000E+00  0.1869E+02
      7.669  0.0000E+00  0.1944E+02
      7.932  0.0000E+00  0.1962E+02
      8.195  0.0000E+00  0.2009E+02
      8.458  0.0000E+00  0.2009E+02
      8.721  0.0000E+00  0.2009E+02
      8.984  0.0000E+00  0.2009E+02
      9.248  0.7128E+00  0.2141E+02
      9.511  0.0000E+00  0.2141E+02
      9.774  0.0000E+00  0.2141E+02
     10.037  0.0000E+00  0.2141E+02
     10.300  0.1730E-04  0.2141E+02
     10.563  0.0000E+00  0.2222E+02
     10.826  0.0000E+00  0.2222E+02
     11.089  0.0000E+00  0.2347E+02
     11.352  0.0000E+00  0.2372E+02
     11.615  0.0000E+00  0.2406E+02
     11.878  0.0000E+00  0.2459E+02
     12.141  0.0000E+00  0.2459E+02
     12.404  0.0000E+00  0.2500E+02
     12.667  0.2540E+01  0.2592E+02
     12.930  0.0000E+00  0.2619E+02
     13.193  0.0000E+00  0.2631E+02
     13.456  0.0000E+00  0.2669E+02
     13.719  0.0000E+00  0.2694E+02
     13.982  0.0000E+00  0.2738E+02
     14.245  0.0000E+00  0.2738E+02
     14.508  0.0000E+00  0.2816E+02
     14.771  0.0000E+00  0.2816E+02
     15.034  0.0000E+00  0.2841E+02
     15.297  0.0000E+00  0.2884E+02
     15.560  0.0000E+00  0.2884E+02
     15.823  0.0000E+00  0.2884E+02
     16.086  0.0000E+00  0.2903E+02
     16.349  0.4891E-08  0.2988E+02
     16.613  0.1398E-02  0.3047E+02
     16.876  0.0000E+00  0.3228E+02
     17.139  0.0000E+00  0.3278E+02
     17.402  0.0000E+00  0.3297E+02
     17.665  0.0000E+00  0.3316E+02
     17.928  0.0000E+00  0.3344E+02
     18.191  0.0000E+00  0.3431E+02
     18.454  0.0000E+00  0.3444E+02
     18.717  0.0000E+00  0.3453E+02
     18.980  0.0000E+00  0.3478E+02
     19.243  0.0000E+00  0.3478E+02
     19.506  0.0000E+00  0.3588E+02
     19.769  0.0000E+00  0.3634E+02
     20.032  0.0000E+00  0.3672E+02
     20.295  0.0000E+00  0.3709E+02
     20.558  0.0000E+00  0.3747E+02
     20.821  0.3564E+00  0.3756E+02
     21.084  0.0000E+00  0.3959E+02
     21.347  0.0000E+00  0.3959E+02
     21.610  0.0000E+00  0.4075E+02
     21.873  0.0000E+00  0.4109E+02
     22.136  0.0000E+00  0.4128E+02
     22.399  0.0000E+00  0.4203E+02
     22.662  0.0000E+00  0.4278E+02
     22.925  0.2343E-06  0.4297E+02
     23.188  0.4752E+00  0.4587E+02
     23.451  0.0000E+00  0.4700E+02
     23.715  0.0000E+00  0.4794E+02
     23.978  0.0000E+00  0.4825E+02
     24.241  0.0000E+00  0.5019E+02
     24.504  0.0000E+00  0.5066E+02
     24.767  0.0000E+00  0.5188E+02
     25.030  0.0000E+00  0.5306E+02
     25.293  0.4840E-08  0.5472E+02
     25.556  0.0000E+00  0.5634E+02
     25.819  0.0000E+00  0.5634E+02
     26.082  0.0000E+00  0.5672E+02
     26.345  0.0000E+00  0.5694E+02
     26.608  0.0000E+00  0.5694E+02
     26.871  0.0000E+00  0.5719E+02
     27.134  0.0000E+00  0.5816E+02
     27.397  0.0000E+00  0.5891E+02
     27.660  0.2686E-03  0.5984E+02
     27.923  0.2721E+01  0.6078E+02
     28.186  0.0000E+00  0.6125E+02
     28.449  0.0000E+00  0.6194E+02
     28.712  0.0000E+00  0.6194E+02
     28.975  0.0000E+00  0.6194E+02
     29.238  0.0000E+00  0.6269E+02
     29.501  0.0000E+00  0.6297E+02
     29.764  0.0000E+00  0.6297E+02
     30.027  0.0000E+00  0.6306E+02
     30.290  0.9075E-01  0.6356E+02
     30.553  0.0000E+00  0.6356E+02
     30.816  0.0000E+00  0.6400E+02
     31.080  0.0000E+00  0.6400E+02
     31.343  0.0000E+00  0.6400E+02
     31.606  0.0000E+00  0.6400E+02
     31.869  0.0000E+00  0.6400E+02
     32.132  0.0000E+00  0.6400E+02
     32.395  0.0000E+00  0.6400E+02
     32.658  0.0000E+00  0.6400E+02
     32.921  0.0000E+00  0.6400E+02
     33.184  0.0000E+00  0.6400E+02
     33.447  0.0000E+00  0.6400E+02
     33.710  0.0000E+00  0.6400E+02
     33.973  0.0000E+00  0.6400E+02
     34.236  0.0000E+00  0.6400E+02
