    1    1    1    1
  0.5802654E+02  0.4345575E-09  0.4345576E-09  0.4345573E-09  0.1000000E-15
  1.000000000000000E-004
  CAR 
 Og_FCC                                  
     18     64     64
 
  0.0000000E+00  0.0000000E+00  0.0000000E+00  0.1562500E-01
    1      -41.088004   1.000000
    2      -41.088011   1.000000
    3      -41.087961   1.000000
    4      -41.087961   1.000000
    5      -33.419455   1.000000
    6      -33.418942   1.000000
    7      -33.418563   1.000000
    8      -33.418196   1.000000
    9      -33.418116   1.000000
   10      -33.417806   1.000000
   11      -25.501765   1.000000
   12      -25.499081   1.000000
   13       -9.699889   1.000000
   14       -9.698616   1.000000
   15        3.498409   0.000000
   16        3.508203   0.000000
   17        2.985706   1.000000
   18        2.985659   1.000000
   19        3.018497   1.000000
   20        3.018161   1.000000
   21       11.576973   0.000000
   22       11.577283   0.000000
   23       11.577623   0.000000
   24       11.577939   0.000000
   25       12.148543   0.000000
   26       12.149644   0.000000
   27       11.816018   0.000000
   28       11.817717   0.000000
   29       14.457887   0.000000
   30       14.461094   0.000000
   31       14.913891   0.000000
   32       14.914190   0.000000
   33       14.914543   0.000000
   34       14.914856   0.000000
   35       15.196347   0.000000
   36       15.197913   0.000000
   37       15.199003   0.000000
   38       15.200579   0.000000
   39       16.780684   0.000000
   40       16.781065   0.000000
   41       24.623223   0.000000
   42       24.610369   0.000000
   43       24.617306   0.000000
   44       24.618972   0.000000
   45       24.611538   0.000000
   46       24.627405   0.000000
   47       25.134645   0.000000
   48       25.131991   0.000000
   49       26.139225   0.000000
   50       26.140006   0.000000
   51       26.146298   0.000000
   52       26.147081   0.000000
   53       26.327152   0.000000
   54       26.329987   0.000000
   55       27.661892   0.000000
   56       27.667868   0.000000
   57       29.363498   0.000000
   58       29.366776   0.000000
   59       29.368573   0.000000
   60       29.371871   0.000000
   61       30.124900   0.000000
   62       30.127248   0.000000
   63       30.289310   0.000000
   64       30.290248   0.000000
 
  0.2500000E+00 -0.4841849E-16  0.5551115E-16  0.1562500E-01
    1      -41.086410   1.000000
    2      -41.086323   1.000000
    3      -41.085509   1.000000
    4      -41.085412   1.000000
    5      -33.417871   1.000000
    6      -33.418132   1.000000
    7      -33.417338   1.000000
    8      -33.416627   1.000000
    9      -33.416541   1.000000
   10      -33.415826   1.000000
   11      -25.440115   1.000000
   12      -25.437106   1.000000
   13       -9.867642   1.000000
   14       -9.866486   1.000000
   15        0.375945   1.000000
   16        0.385122   1.000000
   17        2.643750   1.000000
   18        2.656231   1.000000
   19        6.091621   0.000000
   20        6.094686   0.000000
   21       10.488871   0.000000
   22       10.491465   0.000000
   23       11.641468   0.000000
   24       11.641559   0.000000
   25       11.860066   0.000000
   26       11.859913   0.000000
   27       12.505395   0.000000
   28       12.506329   0.000000
   29       13.649411   0.000000
   30       13.650040   0.000000
   31       13.882207   0.000000
   32       13.884850   0.000000
   33       16.707030   0.000000
   34       16.708808   0.000000
   35       18.911798   0.000000
   36       18.913545   0.000000
   37       19.263601   0.000000
   38       19.265562   0.000000
   39       21.652476   0.000000
   40       21.653919   0.000000
   41       22.417318   0.000000
   42       22.422920   0.000000
   43       21.063509   0.000000
   44       21.063743   0.000000
   45       24.828840   0.000000
   46       24.830474   0.000000
   47       22.573464   0.000000
   48       22.581128   0.000000
   49       24.120084   0.000000
   50       24.120879   0.000000
   51       25.275061   0.000000
   52       25.281169   0.000000
   53       25.494712   0.000000
   54       25.500085   0.000000
   55       26.774206   0.000000
   56       26.779354   0.000000
   57       27.156614   0.000000
   58       27.157852   0.000000
   59       27.982502   0.000000
   60       27.984880   0.000000
   61       30.242820   0.000000
   62       30.244376   0.000000
   63       30.606134   0.000000
   64       30.613422   0.000000
 
  0.5000000E+00 -0.9683698E-16  0.1110223E-15  0.1562500E-01
    1      -41.085488   1.000000
    2      -41.085469   1.000000
    3      -41.083713   1.000000
    4      -41.083668   1.000000
    5      -33.418586   1.000000
    6      -33.418375   1.000000
    7      -33.414687   1.000000
    8      -33.414041   1.000000
    9      -33.414389   1.000000
   10      -33.413672   1.000000
   11      -25.376438   1.000000
   12      -25.373325   1.000000
   13      -10.038554   1.000000
   14      -10.037351   1.000000
   15       -0.646366   1.000000
   16       -0.638908   1.000000
   17        2.341857   1.000000
   18        2.351381   1.000000
   19        6.397077   0.000000
   20        6.397839   0.000000
   21       10.961866   0.000000
   22       10.962859   0.000000
   23       11.173217   0.000000
   24       11.173355   0.000000
   25       11.174441   0.000000
   26       11.175260   0.000000
   27       12.967618   0.000000
   28       12.969930   0.000000
   29       16.354007   0.000000
   30       16.353359   0.000000
   31       16.623674   0.000000
   32       16.626084   0.000000
   33       17.106507   0.000000
   34       17.109846   0.000000
   35       18.156377   0.000000
   36       18.157192   0.000000
   37       18.297297   0.000000
   38       18.301193   0.000000
   39       21.592898   0.000000
   40       21.597442   0.000000
   41       22.562620   0.000000
   42       22.566613   0.000000
   43       22.570388   0.000000
   44       22.573685   0.000000
   45       25.061170   0.000000
   46       25.062756   0.000000
   47       26.203985   0.000000
   48       26.205852   0.000000
   49       23.937722   0.000000
   50       23.941910   0.000000
   51       25.244627   0.000000
   52       25.245852   0.000000
   53       25.436271   0.000000
   54       25.439405   0.000000
   55       25.488046   0.000000
   56       25.490946   0.000000
   57       26.966983   0.000000
   58       26.968770   0.000000
   59       27.192070   0.000000
   60       27.195778   0.000000
   61       28.276755   0.000000
   62       28.278354   0.000000
   63       29.406304   0.000000
   64       29.409335   0.000000
 
 -0.2500000E+00  0.4841849E-16 -0.5551115E-16  0.1562500E-01
    1      -41.086405   1.000000
    2      -41.086308   1.000000
    3      -41.085508   1.000000
    4      -41.085413   1.000000
    5      -33.417871   1.000000
    6      -33.418129   1.000000
    7      -33.417336   1.000000
    8      -33.416629   1.000000
    9      -33.416540   1.000000
   10      -33.415827   1.000000
   11      -25.440110   1.000000
   12      -25.437102   1.000000
   13       -9.867648   1.000000
   14       -9.866491   1.000000
   15        0.375950   1.000000
   16        0.385125   1.000000
   17        2.643759   1.000000
   18        2.656235   1.000000
   19        6.091620   0.000000
   20        6.094684   0.000000
   21       10.488871   0.000000
   22       10.491465   0.000000
   23       11.641472   0.000000
   24       11.641562   0.000000
   25       11.860064   0.000000
   26       11.859910   0.000000
   27       12.505392   0.000000
   28       12.506326   0.000000
   29       13.649412   0.000000
   30       13.650041   0.000000
   31       13.882207   0.000000
   32       13.884849   0.000000
   33       16.707030   0.000000
   34       16.708808   0.000000
   35       18.911799   0.000000
   36       18.913546   0.000000
   37       19.263600   0.000000
   38       19.265561   0.000000
   39       21.652477   0.000000
   40       21.653920   0.000000
   41       22.417317   0.000000
   42       22.422919   0.000000
   43       21.063510   0.000000
   44       21.063744   0.000000
   45       24.828836   0.000000
   46       24.830479   0.000000
   47       22.573462   0.000000
   48       22.581129   0.000000
   49       24.120084   0.000000
   50       24.120878   0.000000
   51       25.275061   0.000000
   52       25.281169   0.000000
   53       25.494712   0.000000
   54       25.500085   0.000000
   55       26.774206   0.000000
   56       26.779354   0.000000
   57       27.156614   0.000000
   58       27.157852   0.000000
   59       27.982502   0.000000
   60       27.984881   0.000000
   61       30.242820   0.000000
   62       30.244376   0.000000
   63       30.606134   0.000000
   64       30.613422   0.000000
 
  0.5169879E-25  0.2500000E+00  0.0000000E+00  0.1562500E-01
    1      -41.086323   1.000000
    2      -41.086369   1.000000
    3      -41.085518   1.000000
    4      -41.085465   1.000000
    5      -33.418296   1.000000
    6      -33.417880   1.000000
    7      -33.416821   1.000000
    8      -33.416983   1.000000
    9      -33.416198   1.000000
   10      -33.416145   1.000000
   11      -25.439953   1.000000
   12      -25.437248   1.000000
   13       -9.867733   1.000000
   14       -9.866393   1.000000
   15        0.380199   1.000000
   16        0.380914   1.000000
   17        2.649142   1.000000
   18        2.650809   1.000000
   19        6.092207   0.000000
   20        6.094104   0.000000
   21       10.489926   0.000000
   22       10.490398   0.000000
   23       11.641494   0.000000
   24       11.641547   0.000000
   25       11.859731   0.000000
   26       11.860264   0.000000
   27       12.505238   0.000000
   28       12.506495   0.000000
   29       13.649679   0.000000
   30       13.649763   0.000000
   31       13.883401   0.000000
   32       13.883647   0.000000
   33       16.707477   0.000000
   34       16.708345   0.000000
   35       18.911079   0.000000
   36       18.914354   0.000000
   37       19.264450   0.000000
   38       19.264605   0.000000
   39       21.654327   0.000000
   40       21.652088   0.000000
   41       22.419978   0.000000
   42       22.420198   0.000000
   43       21.063658   0.000000
   44       21.063581   0.000000
   45       24.828564   0.000000
   46       24.831596   0.000000
   47       22.577538   0.000000
   48       22.576001   0.000000
   49       24.119150   0.000000
   50       24.121801   0.000000
   51       25.277984   0.000000
   52       25.278238   0.000000
   53       25.496704   0.000000
   54       25.498101   0.000000
   55       26.774709   0.000000
   56       26.778852   0.000000
   57       27.156303   0.000000
   58       27.158162   0.000000
   59       27.983390   0.000000
   60       27.984004   0.000000
   61       30.242598   0.000000
   62       30.244589   0.000000
   63       30.609195   0.000000
   64       30.610348   0.000000
 
  0.2500000E+00  0.2500000E+00  0.5551115E-16  0.1562500E-01
    1      -41.085938   1.000000
    2      -41.085643   1.000000
    3      -41.085683   1.000000
    4      -41.085437   1.000000
    5      -33.418464   1.000000
    6      -33.418011   1.000000
    7      -33.416902   1.000000
    8      -33.416447   1.000000
    9      -33.415837   1.000000
   10      -33.415482   1.000000
   11      -25.419570   1.000000
   12      -25.416823   1.000000
   13       -9.915551   1.000000
   14       -9.914331   1.000000
   15        0.283680   1.000000
   16        0.292247   1.000000
   17        1.928570   1.000000
   18        1.940347   1.000000
   19        6.978083   0.000000
   20        6.979706   0.000000
   21        9.061386   0.000000
   22        9.062765   0.000000
   23       10.370984   0.000000
   24       10.373160   0.000000
   25       12.699170   0.000000
   26       12.701158   0.000000
   27       13.840526   0.000000
   28       13.842361   0.000000
   29       16.033191   0.000000
   30       16.038152   0.000000
   31       16.771180   0.000000
   32       16.773647   0.000000
   33       16.658424   0.000000
   34       16.678620   0.000000
   35       16.800708   0.000000
   36       16.811670   0.000000
   37       17.626911   0.000000
   38       17.627286   0.000000
   39       21.951799   0.000000
   40       21.954368   0.000000
   41       21.571561   0.000000
   42       21.571597   0.000000
   43       23.007454   0.000000
   44       23.009503   0.000000
   45       23.399065   0.000000
   46       23.399268   0.000000
   47       23.322325   0.000000
   48       23.323324   0.000000
   49       23.912449   0.000000
   50       23.917337   0.000000
   51       25.043008   0.000000
   52       25.045656   0.000000
   53       25.239731   0.000000
   54       25.247166   0.000000
   55       25.445813   0.000000
   56       25.451426   0.000000
   57       25.484706   0.000000
   58       25.487452   0.000000
   59       27.617034   0.000000
   60       27.621473   0.000000
   61       30.258133   0.000000
   62       30.261886   0.000000
   63       30.646944   0.000000
   64       30.648710   0.000000
 
  0.5000000E+00  0.2500000E+00  0.2775558E-16  0.1562500E-01
    1      -41.084635   1.000000
    2      -41.084576   1.000000
    3      -41.083303   1.000000
    4      -41.083240   1.000000
    5      -33.417502   1.000000
    6      -33.417310   1.000000
    7      -33.415425   1.000000
    8      -33.414885   1.000000
    9      -33.413684   1.000000
   10      -33.413278   1.000000
   11      -25.355969   1.000000
   12      -25.353008   1.000000
   13      -10.073297   1.000000
   14      -10.072154   1.000000
   15       -0.482877   1.000000
   16       -0.475562   1.000000
   17        1.169059   1.000000
   18        1.177394   1.000000
   19        7.544485   0.000000
   20        7.546010   0.000000
   21        9.138705   0.000000
   22        9.140311   0.000000
   23       10.894705   0.000000
   24       10.896366   0.000000
   25       12.664681   0.000000
   26       12.666661   0.000000
   27       14.453003   0.000000
   28       14.454514   0.000000
   29       16.184031   0.000000
   30       16.184855   0.000000
   31       16.809197   0.000000
   32       16.810531   0.000000
   33       18.176175   0.000000
   34       18.179305   0.000000
   35       19.377635   0.000000
   36       19.380471   0.000000
   37       20.844134   0.000000
   38       20.843789   0.000000
   39       20.962142   0.000000
   40       20.958931   0.000000
   41       21.581150   0.000000
   42       21.585601   0.000000
   43       23.082252   0.000000
   44       23.080991   0.000000
   45       23.470277   0.000000
   46       23.472795   0.000000
   47       24.191359   0.000000
   48       24.191193   0.000000
   49       23.134290   0.000000
   50       23.138108   0.000000
   51       24.170385   0.000000
   52       24.172689   0.000000
   53       24.557502   0.000000
   54       24.559893   0.000000
   55       24.938138   0.000000
   56       24.939734   0.000000
   57       25.296610   0.000000
   58       25.302258   0.000000
   59       27.567315   0.000000
   60       27.570809   0.000000
   61       27.919830   0.000000
   62       27.922274   0.000000
   63       29.058330   0.000000
   64       29.060263   0.000000
 
 -0.2500000E+00  0.2500000E+00 -0.3205369E-16  0.1562500E-01
    1      -41.085169   1.000000
    2      -41.085050   1.000000
    3      -41.083362   1.000000
    4      -41.083263   1.000000
    5      -33.417397   1.000000
    6      -33.417082   1.000000
    7      -33.415931   1.000000
    8      -33.415459   1.000000
    9      -33.414175   1.000000
   10      -33.414023   1.000000
   11      -25.377127   1.000000
   12      -25.374174   1.000000
   13      -10.024216   1.000000
   14      -10.022994   1.000000
   15       -0.348902   1.000000
   16       -0.343030   1.000000
   17        1.457445   1.000000
   18        1.464277   1.000000
   19        7.965114   0.000000
   20        7.966728   0.000000
   21        9.239466   0.000000
   22        9.240223   0.000000
   23       10.870841   0.000000
   24       10.872302   0.000000
   25       12.212394   0.000000
   26       12.215313   0.000000
   27       13.424357   0.000000
   28       13.425330   0.000000
   29       15.100377   0.000000
   30       15.101366   0.000000
   31       16.495236   0.000000
   32       16.495846   0.000000
   33       16.912154   0.000000
   34       16.913043   0.000000
   35       19.705003   0.000000
   36       19.720009   0.000000
   37       20.322836   0.000000
   38       20.318077   0.000000
   39       22.328319   0.000000
   40       22.329489   0.000000
   41       22.258802   0.000000
   42       22.254542   0.000000
   43       23.353132   0.000000
   44       23.355737   0.000000
   45       23.005148   0.000000
   46       23.001588   0.000000
   47       24.261525   0.000000
   48       24.260519   0.000000
   49       22.938402   0.000000
   50       22.940590   0.000000
   51       24.692606   0.000000
   52       24.697349   0.000000
   53       25.179250   0.000000
   54       25.181597   0.000000
   55       25.954709   0.000000
   56       25.955926   0.000000
   57       26.946125   0.000000
   58       26.949322   0.000000
   59       27.070634   0.000000
   60       27.074641   0.000000
   61       27.186523   0.000000
   62       27.187665   0.000000
   63       28.296399   0.000000
   64       28.300198   0.000000
 
  0.1033976E-24  0.5000000E+00  0.0000000E+00  0.1562500E-01
    1      -41.085470   1.000000
    2      -41.085472   1.000000
    3      -41.083734   1.000000
    4      -41.083714   1.000000
    5      -33.418783   1.000000
    6      -33.418156   1.000000
    7      -33.414657   1.000000
    8      -33.414120   1.000000
    9      -33.414045   1.000000
   10      -33.413970   1.000000
   11      -25.376229   1.000000
   12      -25.373515   1.000000
   13      -10.038608   1.000000
   14      -10.037296   1.000000
   15       -0.643143   1.000000
   16       -0.642131   1.000000
   17        2.345951   1.000000
   18        2.347279   1.000000
   19        6.396640   0.000000
   20        6.398290   0.000000
   21       10.962334   0.000000
   22       10.962396   0.000000
   23       11.172826   0.000000
   24       11.173746   0.000000
   25       11.174029   0.000000
   26       11.175687   0.000000
   27       12.968856   0.000000
   28       12.968678   0.000000
   29       16.353339   0.000000
   30       16.354129   0.000000
   31       16.624719   0.000000
   32       16.624916   0.000000
   33       17.108047   0.000000
   34       17.108246   0.000000
   35       18.156779   0.000000
   36       18.156837   0.000000
   37       18.299076   0.000000
   38       18.299361   0.000000
   39       21.594641   0.000000
   40       21.595705   0.000000
   41       22.564340   0.000000
   42       22.564694   0.000000
   43       22.569910   0.000000
   44       22.574349   0.000000
   45       25.060724   0.000000
   46       25.063230   0.000000
   47       26.203929   0.000000
   48       26.205929   0.000000
   49       23.938807   0.000000
   50       23.940806   0.000000
   51       25.245091   0.000000
   52       25.245382   0.000000
   53       25.436683   0.000000
   54       25.438926   0.000000
   55       25.489245   0.000000
   56       25.489798   0.000000
   57       26.966528   0.000000
   58       26.969201   0.000000
   59       27.193716   0.000000
   60       27.194141   0.000000
   61       28.276748   0.000000
   62       28.278368   0.000000
   63       29.406452   0.000000
   64       29.409185   0.000000
 
  0.2500000E+00  0.5000000E+00  0.8326673E-16  0.1562500E-01
    1      -41.084554   1.000000
    2      -41.084499   1.000000
    3      -41.083367   1.000000
    4      -41.083324   1.000000
    5      -33.417678   1.000000
    6      -33.417091   1.000000
    7      -33.415352   1.000000
    8      -33.414954   1.000000
    9      -33.413692   1.000000
   10      -33.413316   1.000000
   11      -25.355814   1.000000
   12      -25.353127   1.000000
   13      -10.073335   1.000000
   14      -10.072098   1.000000
   15       -0.481673   1.000000
   16       -0.476759   1.000000
   17        1.170350   1.000000
   18        1.176117   1.000000
   19        7.544716   0.000000
   20        7.545777   0.000000
   21        9.139336   0.000000
   22        9.139679   0.000000
   23       10.895587   0.000000
   24       10.895499   0.000000
   25       12.664877   0.000000
   26       12.666470   0.000000
   27       14.453845   0.000000
   28       14.453657   0.000000
   29       16.184146   0.000000
   30       16.184740   0.000000
   31       16.809817   0.000000
   32       16.809914   0.000000
   33       18.176746   0.000000
   34       18.178682   0.000000
   35       19.378189   0.000000
   36       19.379919   0.000000
   37       20.840695   0.000000
   38       20.847297   0.000000
   39       20.957435   0.000000
   40       20.963847   0.000000
   41       21.586791   0.000000
   42       21.579667   0.000000
   43       23.080272   0.000000
   44       23.082978   0.000000
   45       23.471132   0.000000
   46       23.471975   0.000000
   47       24.191598   0.000000
   48       24.190973   0.000000
   49       23.134636   0.000000
   50       23.137751   0.000000
   51       24.170400   0.000000
   52       24.172660   0.000000
   53       24.556833   0.000000
   54       24.560568   0.000000
   55       24.936695   0.000000
   56       24.941185   0.000000
   57       25.298557   0.000000
   58       25.300316   0.000000
   59       27.567331   0.000000
   60       27.570790   0.000000
   61       27.920409   0.000000
   62       27.921688   0.000000
   63       29.057433   0.000000
   64       29.061163   0.000000
 
  0.5000000E+00  0.5000000E+00  0.1110223E-15  0.1562500E-01
    1      -41.083888   1.000000
    2      -41.083841   1.000000
    3      -41.082334   1.000000
    4      -41.082282   1.000000
    5      -33.418012   1.000000
    6      -33.417556   1.000000
    7      -33.414933   1.000000
    8      -33.414503   1.000000
    9      -33.411909   1.000000
   10      -33.411504   1.000000
   11      -25.333840   1.000000
   12      -25.331073   1.000000
   13      -10.119194   1.000000
   14      -10.117963   1.000000
   15       -0.600215   1.000000
   16       -0.592388   1.000000
   17        1.127014   1.000000
   18        1.136184   1.000000
   19        6.497468   0.000000
   20        6.498709   0.000000
   21        8.110605   0.000000
   22        8.111855   0.000000
   23       11.478251   0.000000
   24       11.479337   0.000000
   25       16.614123   0.000000
   26       16.616438   0.000000
   27       16.518299   0.000000
   28       16.522449   0.000000
   29       16.311163   0.000000
   30       16.312982   0.000000
   31       17.766559   0.000000
   32       17.767342   0.000000
   33       18.700110   0.000000
   34       18.704476   0.000000
   35       20.813253   0.000000
   36       20.815794   0.000000
   37       20.918897   0.000000
   38       20.922308   0.000000
   39       19.311505   0.000000
   40       19.311863   0.000000
   41       21.681498   0.000000
   42       21.684710   0.000000
   43       21.355795   0.000000
   44       21.360430   0.000000
   45       19.747242   0.000000
   46       19.747923   0.000000
   47       23.244471   0.000000
   48       23.246896   0.000000
   49       22.842926   0.000000
   50       22.850784   0.000000
   51       22.902230   0.000000
   52       22.908818   0.000000
   53       23.034067   0.000000
   54       23.040887   0.000000
   55       23.341714   0.000000
   56       23.344292   0.000000
   57       24.327081   0.000000
   58       24.332888   0.000000
   59       27.050134   0.000000
   60       27.053322   0.000000
   61       29.392188   0.000000
   62       29.393470   0.000000
   63       29.786780   0.000000
   64       29.790373   0.000000
 
 -0.2500000E+00  0.5000000E+00 -0.9714451E-16  0.1562500E-01
    1      -41.084550   1.000000
    2      -41.084499   1.000000
    3      -41.083373   1.000000
    4      -41.083338   1.000000
    5      -33.417676   1.000000
    6      -33.417090   1.000000
    7      -33.415351   1.000000
    8      -33.414954   1.000000
    9      -33.413692   1.000000
   10      -33.413316   1.000000
   11      -25.355818   1.000000
   12      -25.353139   1.000000
   13      -10.073353   1.000000
   14      -10.072088   1.000000
   15       -0.481678   1.000000
   16       -0.476763   1.000000
   17        1.170345   1.000000
   18        1.176113   1.000000
   19        7.544719   0.000000
   20        7.545780   0.000000
   21        9.139338   0.000000
   22        9.139681   0.000000
   23       10.895585   0.000000
   24       10.895497   0.000000
   25       12.664879   0.000000
   26       12.666472   0.000000
   27       14.453843   0.000000
   28       14.453655   0.000000
   29       16.184146   0.000000
   30       16.184740   0.000000
   31       16.809813   0.000000
   32       16.809910   0.000000
   33       18.176743   0.000000
   34       18.178679   0.000000
   35       19.378192   0.000000
   36       19.379921   0.000000
   37       20.840696   0.000000
   38       20.847298   0.000000
   39       20.957435   0.000000
   40       20.963847   0.000000
   41       21.586790   0.000000
   42       21.579665   0.000000
   43       23.080270   0.000000
   44       23.082976   0.000000
   45       23.471131   0.000000
   46       23.471974   0.000000
   47       24.191597   0.000000
   48       24.190972   0.000000
   49       23.134636   0.000000
   50       23.137751   0.000000
   51       24.170401   0.000000
   52       24.172661   0.000000
   53       24.556833   0.000000
   54       24.560567   0.000000
   55       24.936694   0.000000
   56       24.941185   0.000000
   57       25.298554   0.000000
   58       25.300313   0.000000
   59       27.567332   0.000000
   60       27.570791   0.000000
   61       27.920409   0.000000
   62       27.921688   0.000000
   63       29.057431   0.000000
   64       29.061161   0.000000
 
 -0.5169879E-25 -0.2500000E+00  0.0000000E+00  0.1562500E-01
    1      -41.086316   1.000000
    2      -41.086369   1.000000
    3      -41.085520   1.000000
    4      -41.085461   1.000000
    5      -33.418293   1.000000
    6      -33.417881   1.000000
    7      -33.416821   1.000000
    8      -33.416982   1.000000
    9      -33.416198   1.000000
   10      -33.416145   1.000000
   11      -25.439963   1.000000
   12      -25.437256   1.000000
   13       -9.867733   1.000000
   14       -9.866399   1.000000
   15        0.380202   1.000000
   16        0.380918   1.000000
   17        2.649135   1.000000
   18        2.650803   1.000000
   19        6.092209   0.000000
   20        6.094106   0.000000
   21       10.489925   0.000000
   22       10.490397   0.000000
   23       11.641490   0.000000
   24       11.641543   0.000000
   25       11.859727   0.000000
   26       11.860266   0.000000
   27       12.505236   0.000000
   28       12.506498   0.000000
   29       13.649678   0.000000
   30       13.649761   0.000000
   31       13.883403   0.000000
   32       13.883648   0.000000
   33       16.707478   0.000000
   34       16.708346   0.000000
   35       18.911080   0.000000
   36       18.914356   0.000000
   37       19.264448   0.000000
   38       19.264603   0.000000
   39       21.654328   0.000000
   40       21.652088   0.000000
   41       22.419977   0.000000
   42       22.420196   0.000000
   43       21.063658   0.000000
   44       21.063581   0.000000
   45       24.828568   0.000000
   46       24.831592   0.000000
   47       22.577537   0.000000
   48       22.575999   0.000000
   49       24.119150   0.000000
   50       24.121801   0.000000
   51       25.277982   0.000000
   52       25.278236   0.000000
   53       25.496704   0.000000
   54       25.498102   0.000000
   55       26.774708   0.000000
   56       26.778851   0.000000
   57       27.156302   0.000000
   58       27.158162   0.000000
   59       27.983390   0.000000
   60       27.984004   0.000000
   61       30.242599   0.000000
   62       30.244590   0.000000
   63       30.609195   0.000000
   64       30.610348   0.000000
 
  0.2500000E+00 -0.2500000E+00  0.3205369E-16  0.1562500E-01
    1      -41.085168   1.000000
    2      -41.085059   1.000000
    3      -41.083364   1.000000
    4      -41.083260   1.000000
    5      -33.417396   1.000000
    6      -33.417081   1.000000
    7      -33.415934   1.000000
    8      -33.415453   1.000000
    9      -33.414177   1.000000
   10      -33.414019   1.000000
   11      -25.377131   1.000000
   12      -25.374179   1.000000
   13      -10.024227   1.000000
   14      -10.023000   1.000000
   15       -0.348898   1.000000
   16       -0.343027   1.000000
   17        1.457440   1.000000
   18        1.464273   1.000000
   19        7.965111   0.000000
   20        7.966726   0.000000
   21        9.239465   0.000000
   22        9.240222   0.000000
   23       10.870840   0.000000
   24       10.872301   0.000000
   25       12.212395   0.000000
   26       12.215315   0.000000
   27       13.424356   0.000000
   28       13.425329   0.000000
   29       15.100376   0.000000
   30       15.101368   0.000000
   31       16.495238   0.000000
   32       16.495847   0.000000
   33       16.912153   0.000000
   34       16.913042   0.000000
   35       19.705004   0.000000
   36       19.720010   0.000000
   37       20.322835   0.000000
   38       20.318076   0.000000
   39       22.328317   0.000000
   40       22.329487   0.000000
   41       22.258801   0.000000
   42       22.254541   0.000000
   43       23.353133   0.000000
   44       23.355738   0.000000