Og_FCC                                  
   1.00000000000000     
     3.242103    0.000000    0.000000
    -1.080689    3.056688    0.000000
    -1.080689   -1.528319    2.647184
   Cn
     1
Direct
  0.000000  0.000000  0.000000
 
   36   36   36
  50.748      49.651      47.473      46.570      48.443      52.345      55.685      55.779      51.498      43.694    
  34.396      25.603      18.499      13.334      9.7640      7.3893      5.9159      5.1156      4.8636      5.1156    
  5.9159      7.3893      9.7640      13.334      18.499      25.603      34.396      43.694      51.498      55.779    
  55.685      52.345      48.443      46.570      47.473      49.651      49.651      49.332      47.649      46.558    
  47.829      51.374      55.076      56.195      53.113      46.154      37.095      28.024      20.384      14.677    
  10.685      7.9854      6.2643      5.2706      4.8496      4.9320      5.5328      6.7462      8.7626      11.853    
  16.368      22.722      30.940      40.211      48.811      54.623      56.243      53.997      50.033      47.094    
  46.715      48.255      47.473      47.649      46.977      46.621      48.008      51.301      54.893      56.341    
  53.923      47.616      38.902      29.796      21.859      15.775      11.455      8.4918      6.5559      5.3871    
  4.8071      4.7273      5.1342      6.0921      7.7461      10.335      14.157      19.615      26.964      35.810    
  44.867      52.183      55.976      55.691      52.541      48.897      46.807      46.715      46.570      46.558    
  46.621      47.188      49.017      52.132      55.274      56.446      54.117      48.143      39.755      30.790    
  22.792      16.526      12.008      8.8656      6.7673      5.4538      4.7349      4.5067      4.7351      5.4541    
  6.7675      8.8656      12.007      16.523      22.784      30.774      39.725      48.093      54.043      56.346    
  55.155      52.004      48.897      47.094      48.443      47.829      48.008      49.017      51.014      53.716    
  56.043      56.436      53.706      47.755      39.629      30.938      23.096      16.858      12.292      9.0707    
  6.8768      5.4606      4.6306      4.2744      4.3452      4.8514      5.8616      7.5116      10.018      13.644    
  18.734      25.532      33.755      42.403      49.926      54.820      56.389      55.155      52.541      50.033    
  52.345      51.374      51.301      52.132      53.716      55.556      56.695      55.956      52.516      46.398    
  38.514      30.224      22.741      16.733      12.276      9.0836      6.8687      5.3999      4.4925      4.0347    
  3.9714      4.2966      5.0462      6.3129      8.2546      11.092      15.083      20.542      27.549      35.636    
  43.747      50.512      54.820      56.346      55.691      53.997      55.685      55.076      54.893      55.274    
  56.043      56.695      56.448      54.471      50.268      43.987      36.423      28.686      21.752      16.159    
  11.957      8.8974      6.7370      5.2680      4.3210      3.7902      3.6198      3.7947      4.3299      5.2810    
  6.7531      8.9141      11.970      16.160      21.726      28.612      36.277      43.747      49.926      54.043    
  55.976      56.243      55.779      56.195      56.341      56.446      56.436      55.956      54.471      51.470    
  46.728      40.489      33.432      26.427      20.214      15.188      11.360      8.5235      6.4861      5.0668    
  4.1182      3.5442      3.2943      3.3489      3.7120      4.4113      5.5114      7.1232      9.4084      12.546    
  16.736      22.138      28.612      35.636      42.403      48.093      52.183      54.623      51.498      53.113    
  53.923      54.117      53.706      52.516      50.268      46.728      41.881      36.024      29.718      23.621    
  18.263      13.909      10.536      7.9909      6.1308      4.8040      3.8878      3.3003      2.9973      2.9606    
  3.1877      3.6911      4.5041      5.6947      7.3700      9.6734      12.746      16.736      21.726      27.549    
  33.755      39.725      44.867      48.811      43.694      46.154      47.616      48.143      47.755      46.398    
  43.987      40.489      36.024      30.897      25.563      20.500      16.068      12.430      9.5515      7.3409    
  5.6942      4.4916      3.6362      3.0610      2.7308      2.6289      2.7521      3.1037      3.6998      4.5754    
  5.7961      7.4566      9.6734      12.546      16.160      20.542      25.532      30.774      35.810      40.211    
  34.396      37.095      38.902      39.755      39.629      38.514      36.423      33.432      29.718      25.563    
  21.320      17.320      13.805      10.863      8.4817      6.6208      5.2041      4.1453      3.3706      2.8299    
  2.4947      2.3527      2.3994      2.6357      3.0675      3.7117      4.6020      5.7961      7.3700      9.4084    
  11.970      15.083      18.734      22.784      26.964      30.940      25.603      28.024      29.796      30.790    
  30.938      30.224      28.686      26.427      23.621      20.500      17.320      14.310      11.619      9.3075    
  7.3987      5.8762      4.6899      3.7816      3.1004      2.6102      2.2900      2.1297      2.1254      2.2766    
  2.5852      3.0580      3.7117      4.5754      5.6947      7.1232      8.9141      11.092      13.644      16.523    
  19.615      22.722      18.499      20.384      21.859      22.792      23.096      22.741      21.752      20.214    
  18.263      16.068      13.805      11.619      9.6104      7.8468      6.3610      5.1469      4.1774      3.4175    
  2.8353      2.4069      2.1175      1.9588      1.9267      2.0198      2.2383      2.5852      3.0675      3.6998    
  4.5041      5.5114      6.7530      8.2546      10.018      12.007      14.157      16.368      13.334      14.677    
  15.775      16.526      16.858      16.733      16.159      15.188      13.909      12.430      10.863      9.3075    
  7.8468      6.5385      5.4094      4.4631      3.6885      3.0684      2.5857      2.2263      1.9801      1.8401    
  1.8017      1.8619      2.0198      2.2766      2.6357      3.1037      3.6911      4.4113      5.2810      6.3129    
  7.5116      8.8656      10.335      11.853      9.7640      10.685      11.455      12.008      12.292      12.276    
  11.957      11.360      10.536      9.5515      8.4817      7.3987      6.3610      5.4094      4.5675      3.8444    
  3.2395      2.7478      2.3624      2.0763      1.8829      1.7763      1.7506      1.8017      1.9267      2.1254    
  2.3994      2.7521      3.1877      3.7120      4.3299      5.0462      5.8615      6.7675      7.7461      8.7626    
  7.3893      7.9854      8.4918      8.8656      9.0707      9.0836      8.8974      8.5235      7.9909      7.3409    
  6.6208      5.8762      5.1469      4.4631      3.8444      3.3024      2.8427      2.4672      2.1755      1.9654    
  1.8327      1.7718      1.7763      1.8401      1.9587      2.1297      2.3527      2.6289      2.9606      3.3489    
  3.7947      4.2966      4.8514      5.4541      6.0921      6.7462      5.9159      6.2643      6.5559      6.7673    
  6.8768      6.8687      6.7370      6.4861      6.1308      5.6942      5.2041      4.6899      4.1774      3.6885    
  3.2395      2.8427      2.5062      2.2358      2.0344      1.9022      1.8368      1.8327      1.8829      1.9801    
  2.1175      2.2900      2.4947      2.7308      2.9973      3.2943      3.6198      3.9714      4.3452      4.7350    
  5.1342      5.5328      5.1156      5.2706      5.3871      5.4538      5.4606      5.3999      5.2680      5.0668    
  4.8040      4.4916      4.1453      3.7816      3.4175      3.0684      2.7478      2.4672      2.2358      2.0607    
  1.9464      1.8942      1.9022      1.9654      2.0763      2.2263      2.4069      2.6102      2.8299      3.0610    
  3.3003      3.5442      3.7902      4.0347      4.2744      4.5066      4.7273      4.9320      4.8636      4.8496    
  4.8071      4.7349      4.6306      4.4925      4.3210      4.1182      3.8878      3.6362      3.3706      3.1004    
  2.8353      2.5857      2.3624      2.1755      2.0344      1.9464      1.9165      1.9464      2.0344      2.1755    
  2.3624      2.5857      2.8353      3.1004      3.3706      3.6362      3.8878      4.1182      4.3210      4.4925    
  4.6306      4.7349      4.8071      4.8496      5.1156      4.9320      4.7273      4.5066      4.2744      4.0347    
  3.7902      3.5442      3.3003      3.0610      2.8299      2.6102      2.4069      2.2263      2.0763      1.9654    
  1.9022      1.8942      1.9464      2.0607      2.2358      2.4672      2.7478      3.0684      3.4175      3.7816    
  4.1453      4.4916      4.8040      5.0668      5.2680      5.3999      5.4606      5.4538      5.3871      5.2706    
  5.9159      5.5328      5.1342      4.7350      4.3452      3.9714      3.6198      3.2943      2.9973      2.7308    
  2.4947      2.2900      2.1175      1.9801      1.8829      1.8327      1.8368      1.9022      2.0344      2.2358    
  2.5062      2.8427      3.2395      3.6885      4.1774      4.6899      5.2041      5.6942      6.1308      6.4861    
  6.7370      6.8687      6.8768      6.7673      6.5559      6.2643      7.3893      6.7462      6.0921      5.4541    
  4.8514      4.2966      3.7947      3.3489      2.9606      2.6289      2.3527      2.1297      1.9587      1.8401    
  1.7763      1.7718      1.8327      1.9654      2.1755      2.4672      2.8427      3.3024      3.8444      4.4631    
  5.1469      5.8762      6.6208      7.3409      7.9909      8.5235      8.8974      9.0836      9.0707      8.8656    
  8.4918      7.9854      9.7640      8.7626      7.7461      6.7675      5.8615      5.0462      4.3299      3.7120    
  3.1877      2.7521      2.3994      2.1254      1.9267      1.8017      1.7506      1.7763      1.8829      2.0763    
  2.3624      2.7478      3.2395      3.8444      4.5675      5.4094      6.3610      7.3987      8.4817      9.5515    
  10.536      11.360      11.957      12.276      12.292      12.008      11.455      10.685      13.334      11.853    
  10.335      8.8656      7.5116      6.3129      5.2810      4.4113      3.6911      3.1037      2.6357      2.2766    
  2.0198      1.8619      1.8017      1.8401      1.9801      2.2263      2.5857      3.0684      3.6885      4.4631    
  5.4094      6.5385      7.8468      9.3075      10.863      12.430      13.909      15.188      16.159      16.733    
  16.858      16.526      15.775      14.677      18.499      16.368      14.157      12.007      10.018      8.2546    
  6.7530      5.5114      4.5041      3.6998      3.0675      2.5852      2.2383      2.0198      1.9267      1.9588    
  2.1175      2.4069      2.8353      3.4175      4.1774      5.1469      6.3610      7.8468      9.6104      11.619    
  13.805      16.068      18.263      20.214      21.752      22.741      23.096      22.792      21.859      20.384    
  25.603      22.722      19.615      16.523      13.644      11.092      8.9141      7.1232      5.6947      4.5754    
  3.7117      3.0580      2.5852      2.2766      2.1254      2.1297      2.2900      2.6102      3.1004      3.7816    
  4.6899      5.8762      7.3987      9.3075      11.619      14.310      17.320      20.500      23.621      26.427    
  28.686      30.224      30.938      30.790      29.796      28.024      34.396      30.940      26.964      22.784    
  18.734      15.083      11.970      9.4084      7.3700      5.7961      4.6020      3.7117      3.0675      2.6357    
  2.3994      2.3527      2.4947      2.8299      3.3706      4.1453      5.2041      6.6208      8.4817      10.863    
  13.805      17.320      21.320      25.563      29.718      33.432      36.423      38.514      39.629      39.755    
  38.902      37.095      43.694      40.211      35.810      30.774      25.532      20.542      16.160      12.546    
  9.6734      7.4566      5.7961      4.5754      3.6998      3.1037      2.7521      2.6289      2.7308      3.0610    
  3.6362      4.4916      5.6942      7.3409      9.5515      12.430      16.068      20.500      25.563      30.897    
  36.024      40.489      43.987      46.398      47.755      48.143      47.616      46.154      51.498      48.811    
  44.867      39.725      33.755      27.549      21.726      16.736      12.746      9.6734      7.3700      5.6947    
  4.5041      3.6911      3.1877      2.9606      2.9973      3.3003      3.8878      4.8040      6.1308      7.9909    
  10.536      13.909      18.263      23.621      29.718      36.024      41.881      46.728      50.268      52.516    
  53.706      54.117      53.923      53.113      55.779      54.623      52.183      48.093      42.403      35.636    
  28.612      22.138      16.736      12.546      9.4084      7.1232      5.5114      4.4113      3.7120      3.3489    
  3.2943      3.5442      4.1182      5.0668      6.4861      8.5235      11.360      15.188      20.214      26.427    
  33.432      40.489      46.728      51.470      54.471      55.956      56.436      56.446      56.341      56.195    
  55.685      56.243      55.976      54.043      49.926      43.747      36.277      28.612      21.726      16.160    
  11.970      8.9141      6.7531      5.2810      4.3299      3.7947      3.6198      3.7902      4.3210      5.2680    
  6.7370      8.8974      11.957      16.159      21.752      28.686      36.423      43.987      50.268      54.471    
  56.448      56.695      56.043      55.274      54.893      55.076      52.345      53.997      55.691      56.346    
  54.820      50.512      43.747      35.636      27.549      20.542      15.083      11.092      8.2546      6.3129    
  5.0462      4.2966      3.9714      4.0347      4.4925      5.3999      6.8687      9.0836      12.276      16.733    
  22.741      30.224      38.514      46.398      52.516      55.956      56.695      55.556      53.716      52.132    
  51.301      51.374      48.443      50.033      52.541      55.155      56.389      54.820      49.926      42.403    
  33.755      25.532      18.734      13.644      10.018      7.5116      5.8616      4.8514      4.3452      4.2744    
  4.6306      5.4606      6.8768      9.0707      12.292      16.858      23.096      30.938      39.629      47.755    
  53.706      56.436      56.043      53.716      51.014      49.017      48.008      47.829      46.570      47.094    
  48.897      52.004      55.155      56.346      54.043      48.093      39.725      30.774      22.784      16.523    
  12.007      8.8656      6.7675      5.4541      4.7351      4.5067      4.7349      5.4538      6.7673      8.8656    
  12.008      16.526      22.792      30.790      39.755      48.143      54.117      56.446      55.274      52.132    
  49.017      47.188      46.621      46.558      47.473      46.715      46.807      48.897      52.541      55.691    
  55.976      52.183      44.867      35.810      26.964      19.615      14.157      10.335      7.7461      6.0921    
  5.1342      4.7273      4.8071      5.3871      6.5559      8.4918      11.455      15.775      21.859      29.796    
  38.902      47.616      53.923      56.341      54.893      51.301      48.008      46.621      46.977      47.649    
  49.651      48.255      46.715      47.094      50.033      53.997      56.243      54.623      48.811      40.211    
  30.940      22.722      16.368      11.853      8.7626      6.7462      5.5328      4.9320      4.8496      5.2706    
  6.2643      7.9854      10.685      14.677      20.384      28.024      37.095      46.154      53.113      56.195    
  55.076      51.374      47.829      46.558      47.649      49.332      49.651      49.332      47.649      46.558    
  47.829      51.374      55.076      56.195      53.113      46.154      37.095      28.024      20.384      14.677    
  10.685      7.9854      6.2643      5.2706      4.8496      4.9320      5.5328      6.7462      8.7626      11.853    
  16.368      22.722      30.940      40.211      48.811      54.623      56.243      53.997      50.033      47.094    
  46.715      48.255      49.332      49.651      48.255      46.715      47.094      50.033      53.997      56.243    
  54.623      48.811      40.211      30.940      22.722      16.368      11.853      8.7626      6.7462      5.5328    
  4.9320      4.8496      5.2706      6.2643      7.9854      10.685      14.677      20.384      28.024      37.095    
  46.154      53.113      56.195      55.076      51.374      47.829      46.558      47.649      47.649      48.255    
  47.649      46.673      47.036      49.627      53.454      56.116      55.359      50.441      42.383      33.164    
  24.629      17.812      12.873      9.4523      7.1740      5.7566      4.9847      4.7410      4.9847      5.7566    
  7.1741      9.4524      12.873      17.812      24.629      33.164      42.383      50.441      55.359      56.116    
  53.454      49.627      47.036      46.673      46.558      46.715      46.673      46.621      47.563      50.147    
  53.667      56.172      55.634      51.190      43.575      34.555      25.945      18.880      13.660      9.9993    
  7.5160      5.9258      5.0021      4.6087      4.6861      5.2462      6.3724      8.2315      11.072      15.205    
  21.027      28.677      37.587      46.351      53.064      56.203      55.545      52.444      49.065      47.036    
  47.829      47.094      47.036      47.563      49.017      51.580      54.574      56.447      55.551      51.138    
  43.791      35.041      26.560      19.472      14.143      10.355      7.7410      6.0246      4.9779      4.4549    
  4.3824      4.7508      5.6109      7.0824      9.3681      12.728      17.498      23.999      32.091      40.902    
  48.886      54.374      56.395      55.269      52.444      49.627      51.374      50.033      49.627      50.147    
  51.580      53.716      55.822      56.650      54.967      50.247      43.018      34.591      26.421      19.526    
  14.271      10.482      7.8245      6.0395      4.9068      4.2807      4.0798      4.2818      4.9090      6.0425    
  7.8278      10.484      14.270      19.516      26.393      34.534      42.919      50.094      54.758      56.395    
  55.545      53.454      55.076      53.997      53.454      53.667      54.574      55.822      56.695      56.221    
  53.540      48.373      41.231      33.216      25.533      19.034      14.028      10.365      7.7535      5.9617    
  4.7861      4.0872      3.7840      3.8459      4.2780      5.1270      6.4909      8.5323      11.464      15.533    
  21.020      27.941      35.800      43.592      50.094      54.374      56.203      56.116      56.195      56.243    
  56.116      56.172      56.447      56.650      56.221      54.471      50.876      45.363      38.431      30.981    
  23.963      18.038      13.433      10.009      7.5277      5.7902      4.6154      3.8767      3.4986      3.4483    
  3.7209      4.3394      5.3628      6.8991      9.1122      12.194      16.364      21.823      28.476      35.800    
  42.919      48.886      53.064      55.359      53.113      54.623      55.359      55.634      55.551      54.967    
  53.540      50.876      46.728      41.184      34.711      28.025      21.838      16.629      12.540      9.4435    
  7.1616      5.5316      4.3982      3.6525      3.2271      3.0921      3.2378      3.6738      4.4299      5.5727    
  7.2099      9.4942      12.585      16.654      21.822      27.941      34.534      40.902      46.351      50.441    
  46.154      48.811      50.441      51.190      51.138      50.247      48.373      45.363      41.184      36.024    
  30.302      24.571      19.340      14.933      11.424      8.7129      6.6816      5.1994      4.1419      3.4178    
  2.9723      2.7785      2.8273      3.1202      3.6714      4.5149      5.7170      7.3782      9.6275      12.585    
  16.364      21.020      26.393      32.091      37.587      42.383      37.095      40.211      42.383      43.575    
  43.791      43.018      41.231      38.431      34.711      30.302      25.563      20.905      16.678      13.091    
  10.174      7.8750      6.1216      4.8132      3.8558      3.1777      2.7357      2.5079      2.4863      2.6700    
  3.0639      3.6843      4.5655      5.7684      7.3782      9.4942      12.194      15.533      19.516      23.999    
  28.677      33.164      28.024      30.940      33.164      34.556      35.041      34.591      33.216      30.981    
  28.025      24.571      20.905      17.320      14.054      11.231      8.8785      6.9895      5.5181      4.3947    
  3.5518      2.9374      2.5189      2.2793      2.2120      2.3150      2.5900      3.0432      3.6912      4.5655    
  5.7170      7.2099      9.1122      11.464      14.270      17.498      21.027      24.629      20.384      22.722    
  24.629      25.945      26.560      26.421      25.533      23.963      21.838      19.340      16.678      14.054    
  11.619      9.4569      7.6168      6.1089      4.9061      3.9654      3.2428      2.7035      2.3241      2.0921    
  2.0014      2.0498      2.2371      2.5659      3.0432      3.6843      4.5149      5.5727      6.8991      8.5323    
  10.484      12.728      15.205      17.812      14.677      16.368      17.812      18.880      19.472      19.526    
  19.034      18.038      16.629      14.933      13.091      11.231      9.4569      7.8468      6.4485      5.2745    
  4.3143      3.5449      2.9417      2.4834      2.1550      1.9467      1.8530      1.8706      1.9985      2.2371    
  2.5900      3.0639      3.6714      4.4299      5.3628      6.4909      7.8278      9.3681      11.072      12.873    
  10.685      11.853      12.873      13.660      14.143      14.271      14.028      13.433      12.540      11.424    
  10.174      8.8785      7.6168      6.4485      5.4093      4.5145      3.7641      3.1500      2.6608      2.2862    
  2.0168      1.8457      1.7669      1.7761      1.8706      2.0498      2.3150      2.6700      3.1202      3.6738    
  4.3394      5.1270      6.0425      7.0824      8.2315      9.4523      7.9854      8.7626      9.4523      9.9993    
  10.355      10.482      10.365      10.009      9.4435      8.7129      7.8750      6.9895      6.1089      5.2745    
  4.5145      3.8443      3.2705      2.7936      2.4117      2.1210      1.9168      1.7937      1.7457      1.7669    
  1.8530      2.0014      2.2120      2.4863      2.8273      3.2378      3.7209      4.2780      4.9089      5.6109    
  6.3724      7.1741      6.2643      6.7462      7.1740      7.5160      7.7410      7.8245      7.7535      7.5277    
  7.1616      6.6816      6.1216      5.5181      4.9061      4.3143      3.7641      3.2705      2.8426      2.4863    
  2.2043      1.9972      1.8630      1.7972      1.7937      1.8457      1.9467      2.0921      2.2793      2.5079    
  2.7785      3.0921      3.4483      3.8459      4.2818      4.7508      5.2462      5.7566      5.2706      5.5328    
  5.7566      5.9258      6.0246      6.0395      5.9617      5.7902      5.5316      5.1994      4.8132      4.3947    
  3.9654      3.5449      3.1500      2.7936      2.4863      2.2357      2.0472      1.9232      1.8630      1.8630    
  1.9169      2.0168      2.1550      2.3241      2.5189      2.7357      2.9724      3.2271      3.4986      3.7840    
  4.0798      4.3824      4.6861      4.9847      4.8496      4.9320      4.9847      5.0021      4.9779      4.9068    
  4.7861      4.6154      4.3982      4.1419      3.8558      3.5518      3.2428      2.9417      2.6608      2.4117    
  2.2043      2.0472      1.9464      1.9051      1.9232      1.9972      2.1210      2.2862      2.4834      2.7035    
  2.9374      3.1777      3.4178      3.6525      3.8768      4.0872      4.2807      4.4549      4.6087      4.7410    
  4.9320      4.8496      4.7410      4.6087      4.4549      4.2807      4.0872      3.8767      3.6525      3.4178    
  3.1777      2.9374      2.7035      2.4834      2.2862      2.1210      1.9972      1.9232      1.9051      1.9464    
  2.0472      2.2043      2.4117      2.6609      2.9418      3.2428      3.5518      3.8558      4.1419      4.3982    
  4.6154      4.7861      4.9068      4.9779      5.0021      4.9847      5.5328      5.2706      4.9847      4.6861    
  4.3824      4.0798      3.7840      3.4986      3.2271      2.9723      2.7357      2.5189      2.3241      2.1550    
  2.0168      1.9168      1.8630      1.8630      1.9232      2.0472      2.2358      2.4863      2.7936      3.1500    
  3.5450      3.9655      4.3947      4.8133      5.1995      5.5316      5.7902      5.9617      6.0395      6.0247    
  5.9259      5.7566      6.7462      6.2643      5.7566      5.2462      4.7508      4.2818      3.8459      3.4483    
  3.0921      2.7785      2.5079      2.2793      2.0921      1.9467      1.8457      1.7937      1.7972      1.8630    
  1.9972      2.2043      2.4863      2.8427      3.2705      3.7641      4.3143      4.9061      5.5182      6.1216    
  6.6817      7.1617      7.5278      7.7535      7.8246      7.7410      7.5160      7.1741      8.7626      7.9854    
  7.1741      6.3724      5.6109      4.9090      4.2780      3.7209      3.2378      2.8273      2.4863      2.2120    
  2.0014      1.8530      1.7669      1.7457      1.7937      1.9169      2.1210      2.4117      2.7936      3.2705    
  3.8444      4.5146      5.2746      6.1089      6.9895      7.8751      8.7129      9.4435      10.009      10.365    
  10.482      10.355      9.9994      9.4523      11.853      10.685      9.4524      8.2315      7.0824      6.0425    
  5.1270      4.3394      3.6738      3.1202      2.6700      2.3150      2.0498      1.8706      1.7761      1.7669    
  1.8457      2.0168      2.2862      2.6609      3.1500      3.7641      4.5146      5.4094      6.4486      7.6168    
  8.8786      10.174      11.424      12.540      13.433      14.028      14.271      14.143      13.660      12.873    
  16.368      14.677      12.873      11.072      9.3681      7.8278      6.4909      5.3628      4.4299      3.6714    
  3.0639      2.5900      2.2371      1.9985      1.8706      1.8530      1.9467      2.1550      2.4834      2.9418    
  3.5450      4.3143      5.2746      6.4486      7.8468      9.4570      11.231      13.091      14.933      16.629    
  18.038      19.034      19.526      19.472      18.880      17.812      22.722      20.384      17.812      15.205    
  12.728      10.484      8.5323      6.8991      5.5727      4.5149      3.6843      3.0432      2.5659      2.2371    
  2.0498      2.0014      2.0921      2.3241      2.7035      3.2428      3.9655      4.9061      6.1089      7.6168    
  9.4570      11.619      14.054      16.678      19.340      21.839      23.964      25.534      26.421      26.560    
  25.945      24.629      30.940      28.024      24.629      21.027      17.498      14.270      11.464      9.1122    
  7.2099      5.7170      4.5655      3.6912      3.0432      2.5900      2.3150      2.2120      2.2793      2.5189    
  2.9374      3.5518      4.3947      5.5182      6.9895      8.8786      11.231      14.054      17.320      20.905    
  24.571      28.025      30.981      33.216      34.591      35.041      34.556      33.164      40.211      37.095    
  33.164      28.677      23.999      19.516      15.533      12.194      9.4942      7.3782      5.7684      4.5655    
  3.6843      3.0639      2.6700      2.4863      2.5079      2.7357      3.1777      3.8558      4.8133      6.1216    
  7.8751      10.174      13.091      16.678      20.905      25.564      30.302      34.711      38.431      41.231    
  43.018      43.791      43.575      42.383      48.811      46.154      42.383      37.587      32.091      26.393    
  21.020      16.364      12.585      9.6275      7.3782      5.7170      4.5149      3.6714      3.1202      2.8273    
  2.7785      2.9724      3.4178      4.1419      5.1995      6.6817      8.7129      11.424      14.933      19.340    
  24.571      30.302      36.024      41.184      45.363      48.373      50.247      51.139      51.190      50.441    
  54.623      53.113      50.441      46.351      40.902      34.534      27.941      21.823      16.654      12.585    
  9.4942      7.2099      5.5727      4.4299      3.6738      3.2378      3.0922      3.2271      3.6525      4.3982    
  5.5316      7.1617      9.4435      12.540      16.629      21.839      28.025      34.711      41.184      46.728    
  50.876      53.540      54.967      55.551      55.634      55.359      56.243      56.195      55.359      53.064    
  48.886      42.919      35.800      28.476      21.822      16.364      12.194      9.1122      6.8991      5.3628    
  4.3394      3.7209      3.4483      3.4986      3.8768      4.6154      5.7902      7.5278      10.009      13.433    
  18.038      23.964      30.981      38.431      45.363      50.876      54.471      56.221      56.650      56.447    
  56.172      56.116      53.997      55.076      56.116      56.203      54.374      50.094      43.592      35.800    
  27.941      21.020      15.533      11.464      8.5323      6.4909      5.1270      4.2780      3.8459      3.7840    
  4.0872      4.7861      5.9617      7.7535      10.365      14.028      19.034      25.534      33.216      41.231    
  48.373      53.540      56.221      56.695      55.822      54.574      53.666      53.454      50.033      51.374    