Og_FCC                                  
   1.00000000000000     
     3.242103    0.000000    0.000000
    -1.080689    3.056688    0.000000
    -1.080689   -1.528319    2.647184
   Cn
     1
Direct
  0.000000  0.000000  0.000000
 
   36   36   36
 0.50748060899E+02 0.49651129880E+02 0.47473438471E+02 0.46569932832E+02 0.48442735658E+02
 0.52345215533E+02 0.55684798073E+02 0.55778889415E+02 0.51498205338E+02 0.43694442165E+02
 0.34395543530E+02 0.25603078777E+02 0.18499027785E+02 0.13333702016E+02 0.97639777923E+01
 0.73893413048E+01 0.59158831110E+01 0.51155958000E+01 0.48635614585E+01 0.51155958021E+01
 0.59158831149E+01 0.73893413099E+01 0.97639777984E+01 0.13333702023E+02 0.18499027793E+02
 0.25603078785E+02 0.34395543536E+02 0.43694442168E+02 0.51498205334E+02 0.55778889404E+02
 0.55684798057E+02 0.52345215513E+02 0.48442735639E+02 0.46569932816E+02 0.47473438460E+02
 0.49651129875E+02 0.49651130033E+02 0.49332217012E+02 0.47649388235E+02 0.46557668077E+02
 0.47829101667E+02 0.51373901059E+02 0.55076093555E+02 0.56194877022E+02 0.53113088553E+02
 0.46153876063E+02 0.37095080938E+02 0.28024205769E+02 0.20383725018E+02 0.14677025913E+02
 0.10684588158E+02 0.79853863375E+01 0.62643132824E+01 0.52706260063E+01 0.48495635803E+01
 0.49320279673E+01 0.55327931253E+01 0.67462393952E+01 0.87626025839E+01 0.11852661683E+02
 0.16367944900E+02 0.22721755816E+02 0.30940126178E+02 0.40211464668E+02 0.48810791954E+02
 0.54623382142E+02 0.56242550293E+02 0.53996744933E+02 0.50033460262E+02 0.47094377638E+02
 0.46714994257E+02 0.48254914021E+02 0.47473439033E+02 0.47649388678E+02 0.46977258653E+02
 0.46621450667E+02 0.48007823293E+02 0.51300603914E+02 0.54892670144E+02 0.56340959355E+02
 0.53923005516E+02 0.47615624990E+02 0.38902188770E+02 0.29795940284E+02 0.21858869327E+02
 0.15774509853E+02 0.11454573140E+02 0.84918079176E+01 0.65558893331E+01 0.53871258877E+01
 0.48071320980E+01 0.47273293504E+01 0.51342131293E+01 0.60921214162E+01 0.77460813256E+01
 0.10334804085E+02 0.14157133334E+02 0.19614693345E+02 0.26964462567E+02 0.35809745750E+02
 0.44866619037E+02 0.52182935394E+02 0.55975612347E+02 0.55691315212E+02 0.52541026993E+02
 0.48897024331E+02 0.46806570127E+02 0.46714994656E+02 0.46569933999E+02 0.46557669148E+02
 0.46621451334E+02 0.47188322047E+02 0.49017353433E+02 0.52132207002E+02 0.55274337116E+02
 0.56445759991E+02 0.54116997196E+02 0.48143068637E+02 0.39755108639E+02 0.30790279425E+02
 0.22791636288E+02 0.16526275791E+02 0.12008096794E+02 0.88656138556E+01 0.67672722998E+01
 0.54538196806E+01 0.47349137414E+01 0.45066519442E+01 0.47350502167E+01 0.54540758013E+01
 0.67675286166E+01 0.88656366841E+01 0.12007247749E+02 0.16523369621E+02 0.22784186518E+02
 0.30774351109E+02 0.39725167686E+02 0.48093223469E+02 0.54042829826E+02 0.56346314993E+02
 0.55155063515E+02 0.52004228944E+02 0.48897025033E+02 0.47094378684E+02 0.48442737702E+02
 0.47829103513E+02 0.48007824718E+02 0.49017354202E+02 0.51013562589E+02 0.53715908815E+02
 0.56043071825E+02 0.56436025460E+02 0.53706201117E+02 0.47754990812E+02 0.39629263924E+02
 0.30938188475E+02 0.23096025866E+02 0.16857841792E+02 0.12292248643E+02 0.90707033959E+01
 0.68767913065E+01 0.54605661576E+01 0.46306222575E+01 0.42744499526E+01 0.43452319785E+01
 0.48514488474E+01 0.58615514660E+01 0.75115599736E+01 0.10018039348E+02 0.13643976069E+02
 0.18734120101E+02 0.25532414743E+02 0.33754924037E+02 0.42403459848E+02 0.49925755255E+02
 0.54819992886E+02 0.56389283396E+02 0.55155064774E+02 0.52541028898E+02 0.50033462361E+02
 0.52345218882E+02 0.51373903927E+02 0.51300606176E+02 0.52132208525E+02 0.53715909537E+02
 0.55556342902E+02 0.56695312551E+02 0.55956322108E+02 0.52516348797E+02 0.46398419577E+02
 0.38513823110E+02 0.30223900464E+02 0.22740608223E+02 0.16732803367E+02 0.12275996194E+02
 0.90836438445E+01 0.68686844417E+01 0.53999281953E+01 0.44924586357E+01 0.40347232864E+01
 0.39714279273E+01 0.42965632252E+01 0.50461972815E+01 0.63129293124E+01 0.82546372075E+01
 0.11092017164E+02 0.15083292371E+02 0.20542103193E+02 0.27548606997E+02 0.35635979458E+02
 0.43746924302E+02 0.50512092913E+02 0.54819994588E+02 0.56346318011E+02 0.55691318868E+02
 0.53996748621E+02 0.55684803119E+02 0.55076097758E+02 0.54892673395E+02 0.55274339385E+02
 0.56043073155E+02 0.56695313096E+02 0.56448290193E+02 0.54470932489E+02 0.50267596434E+02
 0.43986825138E+02 0.36423064391E+02 0.28685955158E+02 0.21751947182E+02 0.16158857293E+02
 0.11956531968E+02 0.88973604042E+01 0.67369840628E+01 0.52680204518E+01 0.43210069737E+01
 0.37901790643E+01 0.36198118739E+01 0.37946578552E+01 0.43299124994E+01 0.52809662952E+01
 0.67530513993E+01 0.89141205407E+01 0.11969584569E+02 0.16159661693E+02 0.21726207594E+02
 0.28612263697E+02 0.36276656709E+02 0.43746925818E+02 0.49925758562E+02 0.54042834629E+02
 0.55975617943E+02 0.56242555905E+02 0.55778896114E+02 0.56194882654E+02 0.56340963693E+02
 0.56445763019E+02 0.56436027310E+02 0.55956323026E+02 0.54470932793E+02 0.51469812314E+02
 0.46728344469E+02 0.40489492922E+02 0.33432377611E+02 0.26427128817E+02 0.20214222077E+02
 0.15187970406E+02 0.11359651873E+02 0.85235015749E+01 0.64861206777E+01 0.50668078272E+01
 0.41182021412E+01 0.35442062470E+01 0.32943096218E+01 0.33488535520E+01 0.37120381114E+01
 0.44112602843E+01 0.55114434379E+01 0.71231660778E+01 0.94084415849E+01 0.12545613272E+02
 0.16736194896E+02 0.22138175135E+02 0.28612264501E+02 0.35635981761E+02 0.42403464029E+02
 0.48093229386E+02 0.52182942416E+02 0.54623389402E+02 0.51498212955E+02 0.53113095173E+02
 0.53923010719E+02 0.54117000867E+02 0.53706203384E+02 0.52516349957E+02 0.50267596866E+02
 0.46728344544E+02 0.41881368501E+02 0.36023773533E+02 0.29717937281E+02 0.23620882928E+02
 0.18262824881E+02 0.13908638450E+02 0.10535586960E+02 0.79909398102E+01 0.61307705917E+01
 0.48039768949E+01 0.38878483165E+01 0.33002648328E+01 0.29973373050E+01 0.29605719875E+01
 0.31877070160E+01 0.36910553074E+01 0.45041151035E+01 0.56946924698E+01 0.73700022238E+01
 0.96733663755E+01 0.12746496595E+02 0.16736194985E+02 0.21726208377E+02 0.27548609133E+02
 0.33754927997E+02 0.39725173521E+02 0.44866626303E+02 0.48810799845E+02 0.43694449420E+02
 0.46153882671E+02 0.47615630372E+02 0.48143072527E+02 0.47754993246E+02 0.46398420816E+02
 0.43986825566E+02 0.40489492933E+02 0.36023773442E+02 0.30897465820E+02 0.25563469024E+02
 0.20499809716E+02 0.16067924415E+02 0.12430009213E+02 0.95515035945E+01 0.73408903117E+01
 0.56941983998E+01 0.44915644642E+01 0.36361776505E+01 0.30610452000E+01 0.27307651589E+01
 0.26288762854E+01 0.27520790220E+01 0.31036562484E+01 0.36997958879E+01 0.45754065683E+01
 0.57960951277E+01 0.74566141234E+01 0.96733660679E+01 0.12545612945E+02 0.16159661826E+02
 0.20542104372E+02 0.25532417478E+02 0.30774355628E+02 0.35809751856E+02 0.40211471760E+02
 0.34395549101E+02 0.37095086326E+02 0.38902193359E+02 0.39755112054E+02 0.39629266078E+02
 0.38513824164E+02 0.36423064664E+02 0.33432377463E+02 0.29717937020E+02 0.25563468849E+02
 0.21319537304E+02 0.17320099821E+02 0.13804755886E+02 0.10863226215E+02 0.84817269968E+01
 0.66207928473E+01 0.52041265304E+01 0.41452798410E+01 0.33705659237E+01 0.28299312723E+01
 0.24947467499E+01 0.23526761607E+01 0.23993585231E+01 0.26357404154E+01 0.30675083657E+01
 0.37116536544E+01 0.46020079851E+01 0.57960947256E+01 0.73700014531E+01 0.94084406269E+01
 0.11969583771E+02 0.15083292206E+02 0.18734121054E+02 0.22784188922E+02 0.26964466450E+02
 0.30940131208E+02 0.25603081839E+02 0.28024209031E+02 0.29795943226E+02 0.30790281660E+02
 0.30938189836E+02 0.30223901003E+02 0.28685955088E+02 0.26427128416E+02 0.23620882453E+02
 0.20499809344E+02 0.17320099631E+02 0.14310357397E+02 0.11619158266E+02 0.93075280881E+01
 0.73986850400E+01 0.58761837016E+01 0.46898681623E+01 0.37816036916E+01 0.31003721116E+01
 0.26101982726E+01 0.22899938762E+01 0.21296610047E+01 0.21254387705E+01 0.22765636579E+01
 0.25851596860E+01 0.30580387485E+01 0.37116533152E+01 0.45754058107E+01 0.56946912737E+01
 0.71231645290E+01 0.89141188602E+01 0.11092015698E+02 0.13643975223E+02 0.16523369750E+02
 0.19614694625E+02 0.22721758158E+02 0.18499028255E+02 0.20383725887E+02 0.21858870246E+02
 0.22791636949E+02 0.23096026092E+02 0.22740607993E+02 0.21751946608E+02 0.20214221343E+02
 0.18262824168E+02 0.16067923853E+02 0.13804755530E+02 0.11619158109E+02 0.96104130240E+01
 0.78468375597E+01 0.63609501861E+01 0.51469161549E+01 0.41774464939E+01 0.34175133624E+01
 0.28352607369E+01 0.24069006833E+01 0.21174564799E+01 0.19587501333E+01 0.19267170369E+01
 0.20198329949E+01 0.22383082659E+01 0.25851594422E+01 0.30675077905E+01 0.36997948928E+01
 0.45041136299E+01 0.55114414964E+01 0.67530491030E+01 0.82546347812E+01 0.10018037098E+02
 0.12007245994E+02 0.14157132308E+02 0.16367944680E+02 0.13333700432E+02 0.14677024756E+02
 0.15774508946E+02 0.16526274943E+02 0.16857840868E+02 0.16732802323E+02 0.16158856176E+02
 0.15187969318E+02 0.13908637501E+02 0.12430008481E+02 0.10863225725E+02 0.93075278149E+01
 0.78468374513E+01 0.65385343934E+01 0.54093614692E+01 0.44630525483E+01 0.36884761972E+01
 0.30684286955E+01 0.25857214773E+01 0.22263230609E+01 0.19801278904E+01 0.18401110537E+01
 0.18016589949E+01 0.18618619456E+01 0.20198328224E+01 0.22765632540E+01 0.26357397048E+01
 0.31036551445E+01 0.36910537323E+01 0.44112581993E+01 0.52809637331E+01 0.63129263967E+01
 0.75115569115E+01 0.88656337285E+01 0.10334801472E+02 0.11852659566E+02 0.97639749852E+01
 0.10684585705E+02 0.11454570992E+02 0.12008094866E+02 0.12292246860E+02 0.12275994521E+02
 0.11956530421E+02 0.11359650502E+02 0.10535585824E+02 0.95515027302E+01 0.84817264040E+01
 0.73986846821E+01 0.63609500042E+01 0.54093614019E+01 0.45675066676E+01 0.38443711596E+01
 0.32395493902E+01 0.27478403833E+01 0.23623677132E+01 0.20762728145E+01 0.18829448051E+01
 0.17762701860E+01 0.17506155900E+01 0.18016588685E+01 0.19267167455E+01 0.21254382688E+01
 0.23993577522E+01 0.27520779086E+01 0.31877054822E+01 0.37120360960E+01 0.43299099851E+01
 0.50461943181E+01 0.58615481767E+01 0.67675251824E+01 0.77460779474E+01 0.87625994354E+01
 0.73893380571E+01 0.79853833410E+01 0.84918051975E+01 0.88656113993E+01 0.90707011776E+01
 0.90836418483E+01 0.88973586355E+01 0.85235000574E+01 0.79909385713E+01 0.73408893651E+01
 0.66207921815E+01 0.58761832776E+01 0.51469159157E+01 0.44630524331E+01 0.38443711180E+01
 0.33023668533E+01 0.28426621973E+01 0.24671607059E+01 0.21755093706E+01 0.19653636700E+01
 0.18326766780E+01 0.17717542379E+01 0.17762700977E+01 0.18401108418E+01 0.19587497656E+01
 0.21296604480E+01 0.23526753740E+01 0.26288752158E+01 0.29605705719E+01 0.33488517291E+01
 0.37946555860E+01 0.42965605138E+01 0.48514457549E+01 0.54540724440E+01 0.60921179464E+01
 0.67462359695E+01 0.59158799323E+01 0.62643102622E+01 0.65558865330E+01 0.67672697475E+01
 0.68767890076E+01 0.68686823941E+01 0.67369822685E+01 0.64861191457E+01 0.61307693335E+01
 0.56941974193E+01 0.52041258156E+01 0.46898676817E+01 0.41774462003E+01 0.36884760371E+01
 0.32395493149E+01 0.28426621703E+01 0.25061913522E+01 0.22357705465E+01 0.20343538103E+01
 0.19022493275E+01 0.18367556694E+01 0.18326766265E+01 0.18829446675E+01 0.19801276330E+01
 0.21174560733E+01 0.22899932949E+01 0.24947459676E+01 0.27307641431E+01 0.29973360141E+01
 0.32943080091E+01 0.36198098997E+01 0.39714255751E+01 0.43452292701E+01 0.47350472184E+01
 0.51342099458E+01 0.55327898815E+01 0.51155928508E+01 0.52706231500E+01 0.53871232014E+01
 0.54538172141E+01 0.54605639349E+01 0.53999262231E+01 0.52680187288E+01 0.50668063518E+01
 0.48039756670E+01 0.44915634821E+01 0.41452790958E+01 0.37816031623E+01 0.34175130156E+01
 0.30684284892E+01 0.27478402741E+01 0.24671606565E+01 0.22357705301E+01 0.20606932297E+01
 0.19464164291E+01 0.18942354829E+01 0.19022493056E+01 0.19653636002E+01 0.20762726643E+01
 0.22263227959E+01 0.24069002726E+01 0.26101976914E+01 0.28299305010E+01 0.30610442200E+01
 0.33002636218E+01 0.35442047777E+01 0.37901773085E+01 0.40347212251E+01 0.42744475883E+01
 0.45066493105E+01 0.47273265141E+01 0.49320250215E+01 0.48635586206E+01 0.48495607909E+01
 0.48071294456E+01 0.47349112941E+01 0.46306200567E+01 0.44924566969E+01 0.43210052940E+01
 0.41182007086E+01 0.38878471179E+01 0.36361766748E+01 0.33705651600E+01 0.31003715452E+01
 0.28352603455E+01 0.25857212301E+01 0.23623675740E+01 0.21755093034E+01 0.20343537848E+01
 0.19464164235E+01 0.19165182712E+01 0.19464164246E+01 0.20343537871E+01 0.21755093068E+01
 0.23623675784E+01 0.25857212354E+01 0.28352603515E+01 0.31003715515E+01 0.33705651662E+01
 0.36361766804E+01 0.38878471227E+01 0.41182007123E+01 0.43210052965E+01 0.44924566984E+01
 0.46306200574E+01 0.47349112942E+01 0.48071294455E+01 0.48495607908E+01 0.51155928518E+01
 0.49320250226E+01 0.47273265153E+01 0.45066493115E+01 0.42744475889E+01 0.40347212251E+01
 0.37901773076E+01 0.35442047758E+01 0.33002636188E+01 0.30610442160E+01 0.28299304964E+01
 0.26101976864E+01 0.24069002677E+01 0.22263227915E+01 0.20762726608E+01 0.19653635978E+01
 0.19022493045E+01 0.18942354830E+01 0.19464164303E+01 0.20606932320E+01 0.22357705334E+01
 0.24671606607E+01 0.27478402790E+01 0.30684284949E+01 0.34175130220E+01 0.37816031692E+01
 0.41452791028E+01 0.44915634888E+01 0.48039756730E+01 0.50668063568E+01 0.52680187328E+01
 0.53999262260E+01 0.54605639370E+01 0.54538172155E+01 0.53871232025E+01 0.52706231509E+01
 0.59158799345E+01 0.55327898836E+01 0.51342099478E+01 0.47350472204E+01 0.43452292718E+01
 0.39714255764E+01 0.36198099004E+01 0.32943080090E+01 0.29973360131E+01 0.27307641412E+01
 0.24947459649E+01 0.22899932916E+01 0.21174560698E+01 0.19801276298E+01 0.18829446650E+01
 0.18326766250E+01 0.18367556693E+01 0.19022493287E+01 0.20343538127E+01 0.22357705497E+01
 0.25061913562E+01 0.28426621749E+01 0.32395493199E+01 0.36884760427E+01 0.41774462065E+01
 0.46898676885E+01 0.52041258227E+01 0.56941974264E+01 0.61307693402E+01 0.64861191517E+01
 0.67369822737E+01 0.68686823984E+01 0.68767890110E+01 0.67672697504E+01 0.65558865355E+01
 0.62643102644E+01 0.73893380604E+01 0.67462359726E+01 0.60921179492E+01 0.54540724465E+01
 0.48514457572E+01 0.42965605159E+01 0.37946555878E+01 0.33488517305E+01 0.29605705728E+01
 0.26288752160E+01 0.23526753734E+01 0.21296604466E+01 0.19587497638E+01 0.18401108399E+01
 0.17762700962E+01 0.17717542374E+01 0.18326766787E+01 0.19653636720E+01 0.21755093736E+01
 0.24671607096E+01 0.28426622015E+01 0.33023668577E+01 0.38443711225E+01 0.44630524378E+01
 0.51469159209E+01 0.58761832834E+01 0.66207921878E+01 0.73408893719E+01 0.79909385781E+01
 0.85235000640E+01 0.88973586416E+01 0.90836418537E+01 0.90707011824E+01 0.88656114036E+01
 0.84918052014E+01 0.79853833445E+01 0.97639749890E+01 0.87625994387E+01 0.77460779502E+01
 0.67675251847E+01 0.58615481788E+01 0.50461943201E+01 0.43299099872E+01 0.37120360981E+01
 0.31877054842E+01 0.27520779103E+01 0.23993577532E+01 0.21254382692E+01 0.19267167453E+01
 0.18016588679E+01 0.17506155896E+01 0.17762701862E+01 0.18829448063E+01 0.20762728169E+01
 0.23623677165E+01 0.27478403871E+01 0.32395493941E+01 0.38443711632E+01 0.45675066710E+01
 0.54093614051E+01 0.63609500077E+01 0.73986846863E+01 0.84817264091E+01 0.95515027362E+01
 0.10535585831E+02 0.11359650509E+02 0.11956530427E+02 0.12275994527E+02 0.12292246865E+02
 0.12008094871E+02 0.11454570997E+02 0.10684585710E+02 0.13333700435E+02 0.11852659569E+02
 0.10334801474E+02 0.88656337294E+01 0.75115569121E+01 0.63129263973E+01 0.52809637341E+01
 0.44112582008E+01 0.36910537342E+01 0.31036551466E+01 0.26357397068E+01 0.22765632555E+01
 0.20198328232E+01 0.18618619461E+01 0.18016589953E+01 0.18401110545E+01 0.19801278920E+01
 0.22263230634E+01 0.25857214805E+01 0.30684286989E+01 0.36884762002E+01 0.44630525506E+01
 0.54093614708E+01 0.65385343945E+01 0.78468374526E+01 0.93075278172E+01 0.10863225728E+02
 0.12430008486E+02 0.13908637508E+02 0.15187969325E+02 0.16158856183E+02 0.16732802330E+02
 0.16857840874E+02 0.16526274948E+02 0.15774508950E+02 0.14677024760E+02 0.18499028255E+02
 0.16367944679E+02 0.14157132307E+02 0.12007245991E+02 0.10018037095E+02 0.82546347788E+01
 0.67530491012E+01 0.55114414956E+01 0.45041136302E+01 0.36997948940E+01 0.30675077922E+01
 0.25851594439E+01 0.22383082673E+01 0.20198329960E+01 0.19267170378E+01 0.19587501345E+01
 0.21174564817E+01 0.24069006858E+01 0.28352607398E+01 0.34175133651E+01 0.41774464957E+01
 0.51469161555E+01 0.63609501855E+01 0.78468375584E+01 0.96104130229E+01 0.11619158109E+02
 0.13804755532E+02 0.16067923858E+02 0.18262824174E+02 0.20214221350E+02 0.21751946615E+02
 0.22740607999E+02 0.23096026097E+02 0.22791636953E+02 0.21858870248E+02 0.20383725888E+02
 0.25603081836E+02 0.22721758153E+02 0.19614694619E+02 0.16523369744E+02 0.13643975216E+02
 0.11092015692E+02 0.89141188543E+01 0.71231645244E+01 0.56946912709E+01 0.45754058095E+01
 0.37116533153E+01 0.30580387493E+01 0.25851596872E+01 0.22765636590E+01 0.21254387717E+01
 0.21296610062E+01 0.22899938782E+01 0.26101982751E+01 0.31003721141E+01 0.37816036936E+01
 0.46898681630E+01 0.58761837004E+01 0.73986850371E+01 0.93075280843E+01 0.11619158262E+02
 0.14310357395E+02 0.17320099632E+02 0.20499809348E+02 0.23620882459E+02 0.26427128423E+02
 0.28685955095E+02 0.30223901010E+02 0.30938189841E+02 0.30790281662E+02 0.29795943225E+02
 0.28024209028E+02 0.34395549093E+02 0.30940131199E+02 0.26964466440E+02 0.22784188911E+02
 0.18734121043E+02 0.15083292195E+02 0.11969583761E+02 0.94084406178E+01 0.73700014461E+01
 0.57960947209E+01 0.46020079825E+01 0.37116536533E+01 0.30675083657E+01 0.26357404160E+01
 0.23993585240E+01 0.23526761621E+01 0.24947467519E+01 0.28299312748E+01 0.33705659261E+01
 0.41452798425E+01 0.52041265301E+01 0.66207928447E+01 0.84817269920E+01 0.10863226209E+02
 0.13804755881E+02 0.17320099817E+02 0.21319537304E+02 0.25563468852E+02 0.29717937026E+02
 0.33432377470E+02 0.36423064671E+02 0.38513824170E+02 0.39629266080E+02 0.39755112054E+02
 0.38902193356E+02 0.37095086320E+02 0.43694449410E+02 0.40211471750E+02 0.35809751845E+02
 0.30774355616E+02 0.25532417465E+02 0.20542104358E+02 0.16159661812E+02 0.12545612932E+02
 0.96733660567E+01 0.74566141147E+01 0.57960951216E+01 0.45754065645E+01 0.36997958859E+01
 0.31036562477E+01 0.27520790224E+01 0.26288762867E+01 0.27307651609E+01 0.30610452025E+01
 0.36361776529E+01 0.44915644655E+01 0.56941983989E+01 0.73408903081E+01 0.95515035885E+01
 0.12430009206E+02 0.16067924409E+02 0.20499809711E+02 0.25563469023E+02 0.30897465823E+02
 0.36023773448E+02 0.40489492941E+02 0.43986825572E+02 0.46398420821E+02 0.47754993247E+02
 0.48143072525E+02 0.47615630366E+02 0.46153882663E+02 0.51498212945E+02 0.48810799834E+02
 0.44866626292E+02 0.39725173510E+02 0.33754927984E+02 0.27548609119E+02 0.21726208362E+02
 0.16736194970E+02 0.12746496580E+02 0.96733663632E+01 0.73700022142E+01 0.56946924629E+01
 0.45041150991E+01 0.36910553050E+01 0.31877070153E+01 0.29605719883E+01 0.29973373070E+01
 0.33002648354E+01 0.38878483191E+01 0.48039768963E+01 0.61307705909E+01 0.79909398065E+01
 0.10535586953E+02 0.13908638442E+02 0.18262824874E+02 0.23620882922E+02 0.29717937280E+02
 0.36023773535E+02 0.41881368506E+02 0.46728344549E+02 0.50267596870E+02 0.52516349958E+02
 0.53706203382E+02 0.54117000862E+02 0.53923010711E+02 0.53113095163E+02 0.55778896105E+02
 0.54623389393E+02 0.52182942409E+02 0.48093229379E+02 0.42403464022E+02 0.35635981752E+02
 0.28612264489E+02 0.22138175120E+02 0.16736194880E+02 0.12545613257E+02 0.94084415724E+01
 0.71231660681E+01 0.55114434310E+01 0.44112602800E+01 0.37120381093E+01 0.33488535519E+01
 0.32943096234E+01 0.35442062497E+01 0.41182021440E+01 0.50668078291E+01 0.64861206774E+01
 0.85235015717E+01 0.11359651867E+02 0.15187970398E+02 0.20214222070E+02 0.26427128812E+02
 0.33432377609E+02 0.40489492923E+02 0.46728344471E+02 0.51469812315E+02 0.54470932792E+02
 0.55956323022E+02 0.56436027304E+02 0.56445763011E+02 0.56340963683E+02 0.56194882644E+02
 0.55684803112E+02 0.56242555901E+02 0.55975617942E+02 0.54042834630E+02 0.49925758562E+02
 0.43746925816E+02 0.36276656702E+02 0.28612263685E+02 0.21726207580E+02 0.16159661678E+02
 0.11969584555E+02 0.89141205288E+01 0.67530513901E+01 0.52809662889E+01 0.43299124958E+01
 0.37946578540E+01 0.36198118748E+01 0.37901790667E+01 0.43210069767E+01 0.52680204542E+01
 0.67369840634E+01 0.88973604021E+01 0.11956531963E+02 0.16158857287E+02 0.21751947176E+02
 0.28685955154E+02 0.36423064389E+02 0.43986825136E+02 0.50267596432E+02 0.54470932485E+02
 0.56448290185E+02 0.56695313086E+02 0.56043073143E+02 0.55274339372E+02 0.54892673384E+02
 0.55076097749E+02 0.52345218877E+02 0.53996748620E+02 0.55691318871E+02 0.56346318017E+02
 0.54819994595E+02 0.50512092918E+02 0.43746924302E+02 0.35635979452E+02 0.27548606986E+02
 0.20542103179E+02 0.15083292356E+02 0.11092017151E+02 0.82546371968E+01 0.63129293045E+01
 0.50461972764E+01 0.42965632229E+01 0.39714279274E+01 0.40347232884E+01 0.44924586387E+01
 0.53999281982E+01 0.68686844433E+01 0.90836438438E+01 0.12275996192E+02 0.16732803363E+02
 0.22740608219E+02 0.30223900461E+02 0.38513823108E+02 0.46398419574E+02 0.52516348792E+02
 0.55956322099E+02 0.56695312537E+02 0.55556342885E+02 0.53715909519E+02 0.52132208509E+02
 0.51300606163E+02 0.51373903919E+02 0.48442737699E+02 0.50033462362E+02 0.52541028904E+02
 0.55155064784E+02 0.56389283408E+02 0.54819992898E+02 0.49925755262E+02 0.42403459848E+02
 0.33754924030E+02 0.25532414731E+02 0.18734120087E+02 0.13643976055E+02 0.10018039336E+02
 0.75115599646E+01 0.58615514597E+01 0.48514488439E+01 0.43452319775E+01 0.42744499538E+01
 0.46306222602E+01 0.54605661607E+01 0.68767913090E+01 0.90707033968E+01 0.12292248642E+02
 0.16857841791E+02 0.23096025865E+02 0.30938188474E+02 0.39629263923E+02 0.47754990810E+02
 0.53706201110E+02 0.56436025447E+02 0.56043071806E+02 0.53715908793E+02 0.51013562567E+02
 0.49017354183E+02 0.48007824704E+02 0.47829103504E+02 0.46569933997E+02 0.47094378687E+02
 0.48897025041E+02 0.52004228956E+02 0.55155063530E+02 0.56346315008E+02 0.54042829837E+02
 0.48093223474E+02 0.39725167684E+02 0.30774351101E+02 0.22784186506E+02 0.16523369609E+02
 0.12007247738E+02 0.88656366747E+01 0.67675286096E+01 0.54540757968E+01 0.47350502147E+01
 0.45066519445E+01 0.47349137435E+01 0.54538196838E+01 0.67672723030E+01 0.88656138580E+01
 0.12008096795E+02 0.16526275792E+02 0.22791636289E+02 0.30790279427E+02 0.39755108640E+02
 0.48143068635E+02 0.54116997189E+02 0.56445759976E+02 0.55274337095E+02 0.52132206977E+02
 0.49017353408E+02 0.47188322026E+02 0.46621451320E+02 0.46557669140E+02 0.47473439032E+02
 0.46714994660E+02 0.46806570135E+02 0.48897024343E+02 0.52541027009E+02 0.55691315229E+02
 0.55975612361E+02 0.52182935402E+02 0.44866619037E+02 0.35809745744E+02 0.26964462557E+02
 0.19614693334E+02 0.14157133323E+02 0.10334804076E+02 0.77460813184E+01 0.60921214111E+01
 0.51342131264E+01 0.47273293498E+01 0.48071320996E+01 0.53871258907E+01 0.65558893368E+01
 0.84918079212E+01 0.11454573143E+02 0.15774509856E+02 0.21858869331E+02 0.29795940288E+02
 0.38902188773E+02 0.47615624989E+02 0.53923005510E+02 0.56340959340E+02 0.54892670123E+02
 0.51300603888E+02 0.48007823268E+02 0.46621450647E+02 0.46977258640E+02 0.47649388672E+02
 0.49651130032E+02 0.48254914026E+02 0.46714994266E+02 0.47094377652E+02 0.50033460279E+02
 0.53996744951E+02 0.56242550308E+02 0.54623382151E+02 0.48810791956E+02 0.40211464664E+02
 0.30940126169E+02 0.22721755806E+02 0.16367944891E+02 0.11852661674E+02 0.87626025770E+01
 0.67462393899E+01 0.55327931218E+01 0.49320279659E+01 0.48495635811E+01 0.52706260089E+01
 0.62643132863E+01 0.79853863421E+01 0.10684588162E+02 0.14677025918E+02 0.20383725024E+02
 0.28024205775E+02 0.37095080943E+02 0.46153876064E+02 0.53113088548E+02 0.56194877010E+02
 0.55076093536E+02 0.51373901037E+02 0.47829101645E+02 0.46557668059E+02 0.47649388223E+02
 0.49332217006E+02 0.49651130171E+02 0.49332217124E+02 0.47649388315E+02 0.46557668141E+02
 0.47829101764E+02 0.51373901257E+02 0.55076093896E+02 0.56194877495E+02 0.53113089089E+02
 0.46153876571E+02 0.37095081346E+02 0.28024206043E+02 0.20383725161E+02 0.14677025946E+02
 0.10684588111E+02 0.79853862459E+01 0.62643131826E+01 0.52706259332E+01 0.48495635579E+01
 0.49320280020E+01 0.55327932036E+01 0.67462394881E+01 0.87626026549E+01 0.11852661697E+02
 0.16367944828E+02 0.22721755635E+02 0.30940125878E+02 0.40211464265E+02 0.48810791496E+02
 0.54623381712E+02 0.56242549976E+02 0.53996744778E+02 0.50033460262E+02 0.47094377744E+02
 0.46714994407E+02 0.48254914176E+02 0.49332217098E+02 0.49650987420E+02 0.48254847112E+02
 0.46714975257E+02 0.47094386253E+02 0.50033349026E+02 0.53996889722E+02 0.56242518225E+02
 0.54623286500E+02 0.48810732894E+02 0.40211356247E+02 0.30940044807E+02 0.22721659526E+02
 0.16367889607E+02 0.11852615547E+02 0.87625759422E+01 0.67462173148E+01 0.55327842408E+01
 0.49320226979E+01 0.48495655239E+01 0.52706326865E+01 0.62643278146E+01 0.79854059077E+01
 0.10684627477E+02 0.14677066726E+02 0.20383800708E+02 0.28024275492E+02 0.37095201600E+02
 0.46153896886E+02 0.53113132700E+02 0.56194892419E+02 0.55076039681E+02 0.51374020027E+02
 0.47829004847E+02 0.46557634993E+02 0.47649387370E+02 0.47649388561E+02 0.48254847397E+02
 0.47649438986E+02 0.46672977988E+02 0.47036125530E+02 0.49627189040E+02 0.53453948260E+02
 0.56116004708E+02 0.55359387448E+02 0.50441198843E+02 0.42382519696E+02 0.33163566484E+02
 0.24629265765E+02 0.17811765574E+02 0.12872580878E+02 0.94522972569E+01 0.71740464732E+01
 0.57566012910E+01 0.49846658145E+01 0.47409586275E+01 0.49846767279E+01 0.57566249820E+01
 0.71740862573E+01 0.94523552421E+01 0.12872678718E+02 0.17811881645E+02 0.24629439224E+02
 0.33163734014E+02 0.42382760753E+02 0.50441335159E+02 0.55359369415E+02 0.56115952281E+02
 0.53453766600E+02 0.49627057753E+02 0.47036108678E+02 0.46672951023E+02 0.46557668894E+02
 0.46714976071E+02 0.46672978553E+02 0.46621365027E+02 0.47562934181E+02 0.50146764537E+02
 0.53666531687E+02 0.56172283602E+02 0.55633940999E+02 0.51189789580E+02 0.43575344522E+02
 0.34555499078E+02 0.25945213413E+02 0.18880259569E+02 0.13660401947E+02 0.99993228993E+01
 0.75159729597E+01 0.59258450489E+01 0.50020935433E+01 0.46087410475E+01 0.46860556441E+01
 0.52462412310E+01 0.63724203060E+01 0.82315334434E+01 0.11072302001E+02 0.15205457760E+02
 0.21026890294E+02 0.28676920614E+02 0.37587222569E+02 0.46350731827E+02 0.53063945088E+02
 0.56202594640E+02 0.55544886438E+02 0.52444299837E+02 0.49065444832E+02 0.47036135676E+02
 0.47829103281E+02 0.47094387774E+02 0.47036126810E+02 0.47562934923E+02 0.49017457801E+02
 0.51579675741E+02 0.54574242848E+02 0.56446609366E+02 0.55551360832E+02 0.51138420729E+02
 0.43790870256E+02 0.35040925113E+02 0.26559937121E+02 0.19471663089E+02 0.14143063079E+02
 0.10354519261E+02 0.77409759288E+01 0.60246494441E+01 0.49779184614E+01 0.44549034243E+01
 0.43824249582E+01 0.47507965458E+01 0.56109123302E+01 0.70824205403E+01 0.93681354840E+01
 0.12727846223E+02 0.17498255505E+02 0.23998864263E+02 0.32091167642E+02 0.40901746443E+02
 0.48886378415E+02 0.54374158696E+02 0.56394988656E+02 0.55268721110E+02 0.52444437542E+02
 0.49627222152E+02 0.51373903923E+02 0.50033351490E+02 0.49627191132E+02 0.50146766047E+02
 0.51579676503E+02 0.53715851875E+02 0.55822023932E+02 0.56650461897E+02 0.54966903865E+02
 0.50247081890E+02 0.43018344871E+02 0.34590758885E+02 0.26420831914E+02 0.19526147896E+02
 0.14271149365E+02 0.10482016815E+02 0.78245458707E+01 0.60395149442E+01 0.49068031858E+01
 0.42807376033E+01 0.40798433758E+01 0.42818478315E+01 0.49089564301E+01 0.60425260604E+01
 0.78277885171E+01 0.10484232707E+02 0.14269654729E+02 0.19516011645E+02 0.26393358888E+02
 0.34534105255E+02 0.42918862421E+02 0.50094059674E+02 0.54757876530E+02 0.56394880850E+02
 0.55544813553E+02 0.53453745401E+02 0.55076098134E+02 0.53996893452E+02 0.53453951316E+02
 0.53666533960E+02 0.54574244272E+02 0.55822024552E+02 0.56695303118E+02 0.56220629990E+02
 0.53540202320E+02 0.48372793879E+02 0.41231200890E+02 0.33216098677E+02 0.25533444819E+02
 0.19033896381E+02 0.14028154326E+02 0.10364931206E+02 0.77534845421E+01 0.59616733897E+01
 0.47860820993E+01 0.40871540401E+01 0.37840118667E+01 0.38458691353E+01 0.42779603189E+01
 0.51270495065E+01 0.64908633953E+01 0.85322671435E+01 0.11463653822E+02 0.15532946693E+02
 0.21019881828E+02 0.27941388030E+02 0.35800181112E+02 0.43591708621E+02 0.50094098699E+02
 0.54374191568E+02 0.56202600335E+02 0.56116074173E+02 0.56194883421E+02 0.56242523415E+02
 0.56116008884E+02 0.56172286673E+02 0.56446611360E+02 0.56650462957E+02 0.56220630370E+02
 0.54470785280E+02 0.50875747494E+02 0.45362950913E+02 0.38430984988E+02 0.30981060605E+02
 0.23963470475E+02 0.18037790060E+02 0.13433392727E+02 0.10009436089E+02 0.75277312837E+01
 0.57901592855E+01 0.46153809416E+01 0.38767381038E+01 0.34986363542E+01 0.34482737740E+01
 0.37209207698E+01 0.43393928675E+01 0.53627893390E+01 0.68990727978E+01 0.91122161023E+01
 0.12194115135E+02 0.16363781838E+02 0.21822501174E+02 0.28475844447E+02 0.35800165712E+02
 0.42918814435E+02 0.48886363668E+02 0.53063873278E+02 0.55359406140E+02 0.53113096192E+02
 0.54623292886E+02 0.55359392644E+02 0.55633944820E+02 0.55551363318E+02 0.54966905227E+02
 0.53540202883E+02 0.50875747622E+02 0.46728358039E+02 0.41183708066E+02 0.34710826033E+02
 0.28024934989E+02 0.21838444661E+02 0.16628614697E+02 0.12539687866E+02 0.94434953821E+01
 0.71616036050E+01 0.55315683276E+01 0.43982222420E+01 0.36524862834E+01 0.32271056778E+01
 0.30921479748E+01 0.32377895809E+01 0.36737976543E+01 0.44299463042E+01 0.55726942518E+01
 0.72099417070E+01 0.94942038466E+01 0.12584660501E+02 0.16653832008E+02 0.21822490512E+02
 0.27941385044E+02 0.34534080506E+02 0.40901729312E+02 0.46350673333E+02 0.50441273930E+02
 0.46153883730E+02 0.48810739619E+02 0.50441204496E+02 0.51189793820E+02 0.51138423513E+02
 0.50247083415E+02 0.48372794490E+02 0.45362951011E+02 0.41183707999E+02 0.36023570149E+02