   1   1   0   0
  0.2623385E+02  0.3242103E-09  0.3242103E-09  0.3242103E-09  0.1000000E-15
  1.000000000000000E-004
  CAR 
 Og_FCC                                  
     62.24474289     -9.25844685  301      3.24973080      1.00000000
     -9.258  0.0000E+00  0.0000E+00
     -9.020  0.0000E+00  0.0000E+00
     -8.782  0.0000E+00  0.0000E+00
     -8.543  0.0000E+00  0.0000E+00
     -8.305  0.0000E+00  0.0000E+00
     -8.067  0.0000E+00  0.0000E+00
     -7.828  0.0000E+00  0.0000E+00
     -7.590  0.0000E+00  0.0000E+00
     -7.352  0.0000E+00  0.0000E+00
     -7.113  0.0000E+00  0.0000E+00
     -6.875  0.0000E+00  0.0000E+00
     -6.637  0.0000E+00  0.0000E+00
     -6.398  0.0000E+00  0.0000E+00
     -6.160  0.3471E-06  0.8273E-07
     -5.922  0.3857E-01  0.9193E-02
     -5.683  0.2764E-03  0.9259E-02
     -5.445  0.2259E-05  0.9260E-02
     -5.207  0.4614E+00  0.1192E+00
     -4.968  0.4774E-02  0.1204E+00
     -4.730  0.7054E-06  0.1204E+00
     -4.492  0.2300E+00  0.1752E+00
     -4.253  0.3104E-02  0.1759E+00
     -4.015  0.7472E+00  0.3540E+00
     -3.777  0.2464E+00  0.4127E+00
     -3.538  0.4050E+00  0.5093E+00
     -3.300  0.1055E-01  0.5118E+00
     -3.062  0.5290E+00  0.6378E+00
     -2.823  0.2491E+01  0.1231E+01
     -2.585  0.8321E+00  0.1430E+01
     -2.346  0.7483E+00  0.1608E+01
     -2.108  0.6147E+01  0.3073E+01
     -1.870  0.5007E+01  0.4267E+01
     -1.631  0.7080E+00  0.4435E+01
     -1.393  0.1479E+01  0.4788E+01
     -1.155  0.7425E-01  0.4806E+01
     -0.916  0.6968E-02  0.4807E+01
     -0.678  0.1938E+01  0.5269E+01
     -0.440  0.1812E+01  0.5701E+01
     -0.201  0.2369E+00  0.5758E+01
      0.037  0.5118E+00  0.5879E+01
      0.275  0.2114E+00  0.5930E+01
      0.514  0.5771E+00  0.6067E+01
      0.752  0.1096E+01  0.6329E+01
      0.990  0.5182E+01  0.7564E+01
      1.229  0.3128E+01  0.8309E+01
      1.467  0.3655E+01  0.9180E+01
      1.705  0.2662E+01  0.9815E+01
      1.944  0.2159E+01  0.1033E+02
      2.182  0.2426E+01  0.1091E+02
      2.420  0.1015E-02  0.1091E+02
      2.659  0.1865E+01  0.1135E+02
      2.897  0.2343E+01  0.1191E+02
      3.135  0.3362E+00  0.1199E+02
      3.374  0.2670E+00  0.1205E+02
      3.612  0.4971E-02  0.1206E+02
      3.850  0.0000E+00  0.1206E+02
      4.089  0.0000E+00  0.1206E+02
      4.327  0.0000E+00  0.1206E+02
      4.566  0.1623E-06  0.1206E+02
      4.804  0.4486E+00  0.1216E+02
      5.042  0.1754E-01  0.1217E+02
      5.281  0.3815E-01  0.1218E+02
      5.519  0.1792E-01  0.1218E+02
      5.757  0.1847E+01  0.1262E+02
      5.996  0.9139E-01  0.1264E+02
      6.234  0.3750E+00  0.1273E+02
      6.472  0.1044E+01  0.1298E+02
      6.711  0.8187E+00  0.1318E+02
      6.949  0.1568E+00  0.1321E+02
      7.187  0.7763E-16  0.1321E+02
      7.426  0.3555E-01  0.1322E+02
      7.664  0.4309E+00  0.1332E+02
      7.902  0.8028E+00  0.1352E+02
      8.141  0.3624E+00  0.1360E+02
      8.379  0.0000E+00  0.1360E+02
      8.617  0.1513E-02  0.1360E+02
      8.856  0.3093E+00  0.1368E+02
      9.094  0.3482E+00  0.1376E+02
      9.332  0.5841E+00  0.1390E+02
      9.571  0.0000E+00  0.1390E+02
      9.809  0.5512E-11  0.1390E+02
     10.047  0.2783E+00  0.1396E+02
     10.286  0.1660E+01  0.1436E+02
     10.524  0.3686E-02  0.1436E+02
     10.762  0.1294E-16  0.1436E+02
     11.001  0.1281E-01  0.1436E+02
     11.239  0.2203E+00  0.1442E+02
     11.477  0.1454E+01  0.1476E+02
     11.716  0.9701E+00  0.1499E+02
     11.954  0.5717E+00  0.1513E+02
     12.193  0.3448E+00  0.1521E+02
     12.431  0.4756E+00  0.1533E+02
     12.669  0.6898E+00  0.1549E+02
     12.908  0.1205E-02  0.1549E+02
     13.146  0.1159E+01  0.1577E+02
     13.384  0.5488E-02  0.1577E+02
     13.623  0.1107E+00  0.1579E+02
     13.861  0.2293E+00  0.1585E+02
     14.099  0.4759E+00  0.1596E+02
     14.338  0.9317E+00  0.1619E+02
     14.576  0.6839E-03  0.1619E+02
     14.814  0.3043E-01  0.1619E+02
     15.053  0.4368E+00  0.1630E+02
     15.291  0.1227E+01  0.1659E+02
     15.529  0.1241E+01  0.1688E+02
     15.768  0.1653E+01  0.1728E+02
     16.006  0.2589E+00  0.1734E+02
     16.244  0.1255E+00  0.1737E+02
     16.483  0.2777E-07  0.1737E+02
     16.721  0.4317E+00  0.1747E+02
     16.959  0.9526E+00  0.1770E+02
     17.198  0.1423E-01  0.1770E+02
     17.436  0.1123E-03  0.1770E+02
     17.674  0.6459E+00  0.1786E+02
     17.913  0.3616E+00  0.1794E+02
     18.151  0.8447E-01  0.1796E+02
     18.389  0.3842E+00  0.1806E+02
     18.628  0.1491E+00  0.1809E+02
     18.866  0.1070E+01  0.1835E+02
     19.104  0.1013E+01  0.1859E+02
     19.343  0.9144E+00  0.1881E+02
     19.581  0.4549E+00  0.1891E+02
     19.820  0.4598E+00  0.1902E+02
     20.058  0.1384E+01  0.1935E+02
     20.296  0.4013E-01  0.1936E+02
     20.535  0.2328E+00  0.1942E+02
     20.773  0.6616E+00  0.1958E+02
     21.011  0.2967E+01  0.2028E+02
     21.250  0.4085E+00  0.2038E+02
     21.488  0.1465E+01  0.2073E+02
     21.726  0.1597E+01  0.2111E+02
     21.965  0.2486E+00  0.2117E+02
     22.203  0.1310E+01  0.2148E+02
     22.441  0.2394E+01  0.2205E+02
     22.680  0.3733E+00  0.2214E+02
     22.918  0.4534E+00  0.2225E+02
     23.156  0.1614E+01  0.2263E+02
     23.395  0.7967E+00  0.2282E+02
     23.633  0.2519E+01  0.2342E+02
     23.871  0.8034E+00  0.2362E+02
     24.110  0.1210E+00  0.2364E+02
     24.348  0.5042E+00  0.2376E+02
     24.586  0.5262E+00  0.2389E+02
     24.825  0.1186E+01  0.2417E+02
     25.063  0.7370E+00  0.2435E+02
     25.301  0.6025E+00  0.2449E+02
     25.540  0.3401E+00  0.2457E+02
     25.778  0.5561E+00  0.2471E+02
     26.016  0.2021E+01  0.2519E+02
     26.255  0.1701E+01  0.2559E+02
     26.493  0.9697E+00  0.2582E+02
     26.731  0.9097E+00  0.2604E+02
     26.970  0.4892E+00  0.2616E+02
     27.208  0.4657E+00  0.2627E+02
     27.447  0.3029E+00  0.2634E+02
     27.685  0.9674E+00  0.2657E+02
     27.923  0.2139E+01  0.2708E+02
     28.162  0.2896E+01  0.2777E+02
     28.400  0.1833E+00  0.2781E+02
     28.638  0.1398E+01  0.2815E+02
     28.877  0.7785E-01  0.2817E+02
     29.115  0.1391E+01  0.2850E+02
     29.353  0.6910E+00  0.2866E+02
     29.592  0.9805E+00  0.2890E+02
     29.830  0.8693E+00  0.2910E+02
     30.068  0.9901E+00  0.2934E+02
     30.307  0.1181E-01  0.2934E+02
     30.545  0.3176E+01  0.3010E+02
     30.783  0.9332E+00  0.3032E+02
     31.022  0.5525E+00  0.3045E+02
     31.260  0.5377E+00  0.3058E+02
     31.498  0.7855E+00  0.3077E+02
     31.737  0.1810E+01  0.3120E+02
     31.975  0.1462E+01  0.3155E+02
     32.213  0.2023E+01  0.3203E+02
     32.452  0.1550E+01  0.3240E+02
     32.690  0.9230E+00  0.3262E+02
     32.928  0.7660E+00  0.3280E+02
     33.167  0.1098E+01  0.3306E+02
     33.405  0.2293E+01  0.3361E+02
     33.643  0.2181E+01  0.3413E+02
     33.882  0.6565E+00  0.3429E+02
     34.120  0.5270E+00  0.3441E+02
     34.358  0.1643E+01  0.3480E+02
     34.597  0.3995E+00  0.3490E+02
     34.835  0.1469E+01  0.3525E+02
     35.074  0.4707E-01  0.3526E+02
     35.312  0.2034E+01  0.3575E+02
     35.550  0.2229E+01  0.3628E+02
     35.789  0.1362E+01  0.3660E+02
     36.027  0.5411E+00  0.3673E+02
     36.265  0.6294E+00  0.3688E+02
     36.504  0.8773E+00  0.3709E+02
     36.742  0.9912E+00  0.3733E+02
     36.980  0.1151E+01  0.3760E+02
     37.219  0.1457E+01  0.3795E+02
     37.457  0.9735E+00  0.3818E+02
     37.695  0.4889E+00  0.3830E+02
     37.934  0.7300E+00  0.3847E+02
     38.172  0.1844E+01  0.3891E+02
     38.410  0.6750E+00  0.3907E+02
     38.649  0.6992E+00  0.3924E+02
     38.887  0.6294E+00  0.3939E+02
     39.125  0.4911E+00  0.3950E+02
     39.364  0.6854E+00  0.3967E+02
     39.602  0.3299E+01  0.4045E+02
     39.840  0.1241E+01  0.4075E+02
     40.079  0.1781E+00  0.4079E+02
     40.317  0.1543E+01  0.4116E+02
     40.555  0.7141E+00  0.4133E+02
     40.794  0.2390E+01  0.4190E+02
     41.032  0.6147E+00  0.4205E+02
     41.270  0.1922E+01  0.4250E+02
     41.509  0.1855E+01  0.4295E+02
     41.747  0.1074E+01  0.4320E+02
     41.986  0.2841E+00  0.4327E+02
     42.224  0.2104E+01  0.4377E+02
     42.462  0.1507E+01  0.4413E+02
     42.701  0.1771E+01  0.4455E+02
     42.939  0.9662E+00  0.4478E+02
     43.177  0.1168E+01  0.4506E+02
     43.416  0.1879E+01  0.4551E+02
     43.654  0.5439E+00  0.4564E+02
     43.892  0.4489E+00  0.4575E+02
     44.131  0.1116E+01  0.4601E+02
     44.369  0.7162E+00  0.4618E+02
     44.607  0.2240E+01  0.4672E+02
     44.846  0.9322E+00  0.4694E+02
     45.084  0.5763E+00  0.4708E+02
     45.322  0.2077E+01  0.4757E+02
     45.561  0.1665E+01  0.4797E+02
     45.799  0.4153E+00  0.4807E+02
     46.037  0.1654E+01  0.4846E+02
     46.276  0.1788E+01  0.4889E+02
     46.514  0.2798E+01  0.4955E+02
     46.752  0.9961E+00  0.4979E+02
     46.991  0.5080E+00  0.4991E+02
     47.229  0.1160E+01  0.5019E+02
     47.467  0.1168E+00  0.5022E+02
     47.706  0.1810E+01  0.5065E+02
     47.944  0.2329E+01  0.5120E+02
     48.182  0.1285E+01  0.5151E+02
     48.421  0.1027E+01  0.5175E+02
     48.659  0.4077E+00  0.5185E+02
     48.897  0.1392E+01  0.5218E+02
     49.136  0.3068E-01  0.5219E+02
     49.374  0.8907E-01  0.5221E+02
     49.613  0.3056E+01  0.5294E+02
     49.851  0.1331E+01  0.5326E+02
     50.089  0.1292E+01  0.5357E+02
     50.328  0.9583E+00  0.5379E+02
     50.566  0.1990E+01  0.5427E+02
     50.804  0.3106E+01  0.5501E+02
     51.043  0.1884E+00  0.5505E+02
     51.281  0.6769E+00  0.5522E+02
     51.519  0.7476E+00  0.5539E+02
     51.758  0.1663E+01  0.5579E+02
     51.996  0.8069E+00  0.5598E+02
     52.234  0.6143E+00  0.5613E+02
     52.473  0.9606E+00  0.5636E+02
     52.711  0.1253E+01  0.5666E+02
     52.949  0.1791E+01  0.5708E+02
     53.188  0.3898E+01  0.5801E+02
     53.426  0.2413E+01  0.5859E+02
     53.664  0.5680E+00  0.5872E+02
     53.903  0.1596E+01  0.5910E+02
     54.141  0.5550E+00  0.5924E+02
     54.379  0.1121E+01  0.5950E+02
     54.618  0.1776E+01  0.5993E+02
     54.856  0.8579E+00  0.6013E+02
     55.094  0.1238E+01  0.6043E+02
     55.333  0.4719E+00  0.6054E+02
     55.571  0.2321E+00  0.6059E+02
     55.809  0.4672E+00  0.6070E+02
     56.048  0.3438E+00  0.6079E+02
     56.286  0.1193E+01  0.6107E+02
     56.524  0.3477E+00  0.6115E+02
     56.763  0.2021E+01  0.6164E+02
     57.001  0.2834E+01  0.6231E+02
     57.240  0.2155E+01  0.6282E+02
     57.478  0.1871E+01  0.6327E+02
     57.716  0.7591E+00  0.6345E+02
     57.955  0.1409E+01  0.6379E+02
     58.193  0.5269E-04  0.6379E+02
     58.431  0.2126E+00  0.6384E+02
     58.670  0.1183E+00  0.6387E+02
     58.908  0.2541E+00  0.6393E+02
     59.146  0.3086E+00  0.6400E+02
     59.385  0.2733E-05  0.6400E+02
     59.623  0.0000E+00  0.6400E+02
     59.861  0.0000E+00  0.6400E+02
     60.100  0.0000E+00  0.6400E+02
     60.338  0.0000E+00  0.6400E+02
     60.576  0.0000E+00  0.6400E+02
     60.815  0.0000E+00  0.6400E+02
     61.053  0.0000E+00  0.6400E+02
     61.291  0.0000E+00  0.6400E+02
     61.530  0.0000E+00  0.6400E+02
     61.768  0.0000E+00  0.6400E+02
     62.006  0.0000E+00  0.6400E+02
     62.245  0.0000E+00  0.6400E+02
