    1    1    1    1
  0.2623385E+02  0.3242103E-09  0.3242103E-09  0.3242103E-09  0.1000000E-15
  1.000000000000000E-004
  CAR 
 Og_FCC                                  
     12    216     64
 
  0.0000000E+00  0.0000000E+00  0.0000000E+00  0.4629630E-02
    1       -6.008302   1.000000
    2       -6.008302   1.000000
    3       -2.117709   1.000000
    4       -2.117709   1.000000
    5       -2.117690   1.000000
    6       -2.117690   1.000000
    7        0.534247   1.000000
    8        0.534247   1.000000
    9        1.480696   1.000000
   10        1.480696   1.000000
   11        1.480747   1.000000
   12        1.480747   1.000000
   13       13.837663   0.000000
   14       13.837663   0.000000
   15       18.834282   0.000000
   16       18.834282   0.000000
   17       18.834282   0.000000
   18       18.834282   0.000000
   19       18.834429   0.000000
   20       18.834429   0.000000
   21       23.257009   0.000000
   22       23.257009   0.000000
   23       23.257206   0.000000
   24       23.257206   0.000000
   25       24.235996   0.000000
   26       24.235996   0.000000
   27       25.173827   0.000000
   28       25.173828   0.000000
   29       25.173906   0.000000
   30       25.173906   0.000000
   31       28.699954   0.000000
   32       28.699954   0.000000
   33       28.699989   0.000000
   34       28.699989   0.000000
   35       30.049707   0.000000
   36       30.049707   0.000000
   37       35.535779   0.000000
   38       35.535779   0.000000
   39       37.502482   0.000000
   40       37.502482   0.000000
   41       37.502700   0.000000
   42       37.502700   0.000000
   43       43.313718   0.000000
   44       43.313718   0.000000
   45       44.113165   0.000000
   46       44.113165   0.000000
   47       49.152563   0.000000
   48       49.152563   0.000000
   49       49.152574   0.000000
   50       49.152574   0.000000
   51       53.503413   0.000000
   52       53.503414   0.000000
   53       53.503414   0.000000
   54       53.503414   0.000000
   55       53.503616   0.000000
   56       53.503616   0.000000
   57       56.097505   0.000000
   58       56.097505   0.000000
   59       57.043484   0.000000
   60       57.043484   0.000000
   61       57.043834   0.000000
   62       57.043834   0.000000
   63       58.509938   0.000000
   64       58.509939   0.000000
 
  0.1666667E+00  0.0000000E+00  0.0000000E+00  0.4629630E-02
    1       -5.288542   1.000000
    2       -5.288542   1.000000
    3       -2.121889   1.000000
    4       -2.121889   1.000000
    5       -2.007453   1.000000
    6       -2.007453   1.000000
    7        0.693884   1.000000
    8        0.693884   1.000000
    9        1.282100   1.000000
   10        1.282100   1.000000
   11        1.604669   1.000000
   12        1.604669   1.000000
   13       11.976823   0.000000
   14       11.976823   0.000000
   15       17.559433   0.000000
   16       17.559433   0.000000
   17       18.817787   0.000000
   18       18.817787   0.000000
   19       19.511358   0.000000
   20       19.511358   0.000000
   21       19.761645   0.000000
   22       19.761646   0.000000
   23       21.404114   0.000000
   24       21.404114   0.000000
   25       26.210764   0.000000
   26       26.210764   0.000000
   27       26.816815   0.000000
   28       26.816815   0.000000
   29       27.561035   0.000000
   30       27.561035   0.000000
   31       29.032251   0.000000
   32       29.032251   0.000000
   33       29.808360   0.000000
   34       29.808360   0.000000
   35       32.195554   0.000000
   36       32.195554   0.000000
   37       35.345402   0.000000
   38       35.345402   0.000000
   39       36.810779   0.000000
   40       36.810779   0.000000
   41       38.816636   0.000000
   42       38.816636   0.000000
   43       44.934811   0.000000
   44       44.934811   0.000000
   45       45.167407   0.000000
   46       45.167407   0.000000
   47       46.117898   0.000000
   48       46.117898   0.000000
   49       47.564724   0.000000
   50       47.564724   0.000000
   51       48.436282   0.000000
   52       48.436282   0.000000
   53       51.143478   0.000000
   54       51.143479   0.000000
   55       52.752849   0.000000
   56       52.752850   0.000000
   57       54.093046   0.000000
   58       54.093046   0.000000
   59       56.710617   0.000000
   60       56.710617   0.000000
   61       56.831556   0.000000
   62       56.831556   0.000000
   63       57.554481   0.000000
   64       57.554481   0.000000
 
  0.3333333E+00  0.2775558E-16 -0.2775558E-16  0.4629630E-02
    1       -3.736957   1.000000
    2       -3.736957   1.000000
    3       -2.193445   1.000000
    4       -2.193445   1.000000
    5       -1.429542   1.000000
    6       -1.429542   1.000000
    7        0.904198   1.000000
    8        0.904198   1.000000
    9        1.417764   1.000000
   10        1.417764   1.000000
   11        2.061473   1.000000
   12        2.061473   1.000000
   13        7.476158   0.000000
   14        7.476158   0.000000
   15       13.978711   0.000000
   16       13.978712   0.000000
   17       16.669929   0.000000
   18       16.669929   0.000000
   19       19.898166   0.000000
   20       19.898166   0.000000
   21       21.655939   0.000000
   22       21.655939   0.000000
   23       22.918440   0.000000
   24       22.918440   0.000000
   25       24.406027   0.000000
   26       24.406027   0.000000
   27       29.034227   0.000000
   28       29.034227   0.000000
   29       29.813864   0.000000
   30       29.813864   0.000000
   31       31.146036   0.000000
   32       31.146036   0.000000
   33       31.914318   0.000000
   34       31.914318   0.000000
   35       33.516400   0.000000
   36       33.516400   0.000000
   37       35.317292   0.000000
   38       35.317292   0.000000
   39       39.255580   0.000000
   40       39.255580   0.000000
   41       40.695040   0.000000
   42       40.695040   0.000000
   43       41.570397   0.000000
   44       41.570397   0.000000
   45       42.162893   0.000000
   46       42.162893   0.000000
   47       43.297495   0.000000
   48       43.297495   0.000000
   49       44.347273   0.000000
   50       44.347273   0.000000
   51       50.129103   0.000000
   52       50.129104   0.000000
   53       50.604567   0.000000
   54       50.604567   0.000000
   55       52.785823   0.000000
   56       52.785823   0.000000
   57       53.254991   0.000000
   58       53.254991   0.000000
   59       56.573907   0.000000
   60       56.573907   0.000000
   61       56.829038   0.000000
   62       56.829038   0.000000
   63       57.816588   0.000000
   64       57.816589   0.000000
 
  0.5000000E+00  0.0000000E+00  0.0000000E+00  0.4629630E-02
    1       -3.240038   1.000000
    2       -3.240038   1.000000
    3       -2.258014   1.000000
    4       -2.258014   1.000000
    5       -0.162400   1.000000
    6       -0.162400   1.000000
    7        0.840392   1.000000
    8        0.840392   1.000000
    9        2.516035   1.000000
   10        2.516035   1.000000
   11        2.995350   1.000000
   12        2.995350   1.000000
   13        3.284252   0.164434
   14        3.284252   0.164432
   15       12.525707   0.000000
   16       12.525707   0.000000
   17       15.462022   0.000000
   18       15.462022   0.000000
   19       20.360701   0.000000
   20       20.360701   0.000000
   21       22.739037   0.000000
   22       22.739037   0.000000
   23       23.084625   0.000000
   24       23.084626   0.000000
   25       25.314204   0.000000
   26       25.314204   0.000000
   27       29.925417   0.000000
   28       29.925417   0.000000
   29       30.785991   0.000000
   30       30.785991   0.000000
   31       30.796787   0.000000
   32       30.796787   0.000000
   33       33.306942   0.000000
   34       33.306942   0.000000
   35       33.380655   0.000000
   36       33.380655   0.000000
   37       36.383566   0.000000
   38       36.383567   0.000000
   39       38.137833   0.000000
   40       38.137834   0.000000
   41       40.086169   0.000000
   42       40.086169   0.000000
   43       40.890600   0.000000
   44       40.890600   0.000000
   45       42.253077   0.000000
   46       42.253077   0.000000
   47       43.060585   0.000000
   48       43.060585   0.000000
   49       43.791580   0.000000
   50       43.791580   0.000000
   51       47.785836   0.000000
   52       47.785837   0.000000
   53       52.556285   0.000000
   54       52.556285   0.000000
   55       52.965701   0.000000
   56       52.965701   0.000000
   57       53.807258   0.000000
   58       53.807258   0.000000
   59       55.231712   0.000000
   60       55.231712   0.000000
   61       55.412925   0.000000
   62       55.412925   0.000000
   63       57.102974   0.000000
   64       57.102975   0.000000
 
 -0.3333333E+00 -0.2775558E-16  0.2775558E-16  0.4629630E-02
    1       -3.736957   1.000000
    2       -3.736957   1.000000
    3       -2.193445   1.000000
    4       -2.193445   1.000000
    5       -1.429542   1.000000
    6       -1.429542   1.000000
    7        0.904198   1.000000
    8        0.904198   1.000000
    9        1.417764   1.000000
   10        1.417764   1.000000
   11        2.061473   1.000000
   12        2.061473   1.000000
   13        7.476158   0.000000
   14        7.476158   0.000000
   15       13.978712   0.000000
   16       13.978712   0.000000
   17       16.669929   0.000000
   18       16.669929   0.000000
   19       19.898166   0.000000
   20       19.898166   0.000000
   21       21.655939   0.000000
   22       21.655939   0.000000
   23       22.918440   0.000000
   24       22.918440   0.000000
   25       24.406027   0.000000
   26       24.406027   0.000000
   27       29.034226   0.000000
   28       29.034226   0.000000
   29       29.813864   0.000000
   30       29.813864   0.000000
   31       31.146037   0.000000
   32       31.146037   0.000000
   33       31.914318   0.000000
   34       31.914318   0.000000
   35       33.516400   0.000000
   36       33.516400   0.000000
   37       35.317292   0.000000
   38       35.317292   0.000000
   39       39.255580   0.000000
   40       39.255580   0.000000
   41       40.695040   0.000000
   42       40.695040   0.000000
   43       41.570397   0.000000
   44       41.570397   0.000000
   45       42.162893   0.000000
   46       42.162893   0.000000
   47       43.297495   0.000000
   48       43.297495   0.000000
   49       44.347273   0.000000
   50       44.347273   0.000000
   51       50.129104   0.000000
   52       50.129104   0.000000
   53       50.604566   0.000000
   54       50.604567   0.000000
   55       52.785823   0.000000
   56       52.785823   0.000000
   57       53.254991   0.000000
   58       53.254991   0.000000
   59       56.573907   0.000000
   60       56.573907   0.000000
   61       56.829037   0.000000
   62       56.829037   0.000000
   63       57.816578   0.000000
   64       57.816578   0.000000
 
 -0.1666667E+00  0.0000000E+00  0.0000000E+00  0.4629630E-02
    1       -5.288542   1.000000
    2       -5.288542   1.000000
    3       -2.121889   1.000000
    4       -2.121889   1.000000
    5       -2.007453   1.000000
    6       -2.007453   1.000000
    7        0.693884   1.000000
    8        0.693884   1.000000
    9        1.282100   1.000000
   10        1.282100   1.000000
   11        1.604669   1.000000
   12        1.604669   1.000000
   13       11.976823   0.000000
   14       11.976823   0.000000
   15       17.559434   0.000000
   16       17.559434   0.000000
   17       18.817788   0.000000
   18       18.817788   0.000000
   19       19.511357   0.000000
   20       19.511357   0.000000
   21       19.761645   0.000000
   22       19.761645   0.000000
   23       21.404114   0.000000
   24       21.404114   0.000000
   25       26.210764   0.000000
   26       26.210764   0.000000
   27       26.816816   0.000000
   28       26.816816   0.000000
   29       27.561035   0.000000
   30       27.561035   0.000000
   31       29.032251   0.000000
   32       29.032251   0.000000
   33       29.808360   0.000000
   34       29.808360   0.000000
   35       32.195554   0.000000
   36       32.195554   0.000000
   37       35.345402   0.000000
   38       35.345402   0.000000
   39       36.810779   0.000000
   40       36.810779   0.000000
   41       38.816636   0.000000
   42       38.816636   0.000000
   43       44.934811   0.000000
   44       44.934811   0.000000
   45       45.167407   0.000000
   46       45.167407   0.000000
   47       46.117898   0.000000
   48       46.117898   0.000000
   49       47.564725   0.000000
   50       47.564725   0.000000
   51       48.436282   0.000000
   52       48.436282   0.000000
   53       51.143478   0.000000
   54       51.143478   0.000000
   55       52.752849   0.000000
   56       52.752850   0.000000
   57       54.093046   0.000000
   58       54.093046   0.000000
   59       56.710617   0.000000
   60       56.710617   0.000000
   61       56.831555   0.000000
   62       56.831555   0.000000
   63       57.554480   0.000000
   64       57.554480   0.000000
 
  0.0000000E+00  0.1666667E+00  0.1387779E-16  0.4629630E-02
    1       -5.288542   1.000000
    2       -5.288542   1.000000
    3       -2.121889   1.000000
    4       -2.121889   1.000000
    5       -2.007454   1.000000
    6       -2.007454   1.000000
    7        0.693884   1.000000
    8        0.693884   1.000000
    9        1.282100   1.000000
   10        1.282100   1.000000
   11        1.604669   1.000000
   12        1.604669   1.000000
   13       11.976823   0.000000
   14       11.976823   0.000000
   15       17.559434   0.000000
   16       17.559434   0.000000
   17       18.817788   0.000000
   18       18.817788   0.000000
   19       19.511357   0.000000
   20       19.511358   0.000000
   21       19.761645   0.000000
   22       19.761645   0.000000
   23       21.404114   0.000000
   24       21.404114   0.000000
   25       26.210764   0.000000
   26       26.210764   0.000000
   27       26.816816   0.000000
   28       26.816816   0.000000
   29       27.561035   0.000000
   30       27.561035   0.000000
   31       29.032251   0.000000
   32       29.032251   0.000000
   33       29.808360   0.000000
   34       29.808360   0.000000
   35       32.195554   0.000000
   36       32.195554   0.000000
   37       35.345402   0.000000
   38       35.345402   0.000000
   39       36.810779   0.000000
   40       36.810779   0.000000
   41       38.816636   0.000000
   42       38.816636   0.000000
   43       44.934811   0.000000
   44       44.934811   0.000000
   45       45.167407   0.000000
   46       45.167407   0.000000
   47       46.117898   0.000000
   48       46.117898   0.000000
   49       47.564724   0.000000
   50       47.564724   0.000000
   51       48.436282   0.000000
   52       48.436282   0.000000
   53       51.143478   0.000000
   54       51.143478   0.000000
   55       52.752850   0.000000
   56       52.752850   0.000000
   57       54.093046   0.000000
   58       54.093046   0.000000
   59       56.710617   0.000000
   60       56.710617   0.000000
   61       56.831555   0.000000
   62       56.831555   0.000000
   63       57.554480   0.000000
   64       57.554480   0.000000
 
  0.1666667E+00  0.1666667E+00  0.2775558E-16  0.4629630E-02
    1       -4.044847   1.000000
    2       -4.044847   1.000000
    3       -2.113676   1.000000
    4       -2.113676   1.000000
    5       -1.862313   1.000000
    6       -1.862313   1.000000
    7        0.973992   1.000000
    8        0.973992   1.000000
    9        1.134073   1.000000
   10        1.134073   1.000000
   11        1.962998   1.000000
   12        1.962998   1.000000
   13        9.105415   0.000000
   14        9.105415   0.000000
   15       14.225092   0.000000
   16       14.225092   0.000000
   17       16.882894   0.000000
   18       16.882895   0.000000
   19       19.993649   0.000000
   20       19.993649   0.000000
   21       21.316913   0.000000
   22       21.316914   0.000000
   23       23.081236   0.000000
   24       23.081236   0.000000
   25       26.029590   0.000000
   26       26.029590   0.000000
   27       26.664148   0.000000
   28       26.664149   0.000000
   29       27.753713   0.000000
   30       27.753713   0.000000
   31       30.433117   0.000000
   32       30.433117   0.000000
   33       33.059039   0.000000
   34       33.059039   0.000000
   35       34.249715   0.000000
   36       34.249715   0.000000
   37       35.609083   0.000000
   38       35.609083   0.000000
   39       37.907495   0.000000
   40       37.907495   0.000000
   41       40.184434   0.000000
   42       40.184434   0.000000
   43       41.401411   0.000000
   44       41.401411   0.000000
   45       42.148397   0.000000
   46       42.148397   0.000000
   47       45.338903   0.000000
   48       45.338903   0.000000
   49       47.059824   0.000000
   50       47.059824   0.000000
   51       48.772309   0.000000
   52       48.772309   0.000000
   53       51.589754   0.000000
   54       51.589754   0.000000
   55       51.790267   0.000000
   56       51.790267   0.000000
   57       53.126945   0.000000
   58       53.126945   0.000000
   59       54.957086   0.000000
   60       54.957086   0.000000
   61       57.043524   0.000000
   62       57.043524   0.000000
   63       57.804729   0.000000
   64       57.804732   0.000000
 
  0.3333333E+00  0.1666667E+00  0.2775558E-16  0.4629630E-02
    1       -2.933683   1.000000
    2       -2.933682   1.000000
    3       -2.144335   1.000000
    4       -2.144335   1.000000
    5       -0.821853   1.000000
    6       -0.821852   1.000000
    7        0.834141   1.000000
    8        0.834141   1.000000
    9        1.520088   1.000000
   10        1.520088   1.000000
   11        2.670850   1.000000
   12        2.670850   1.000000
   13        5.602222   0.000000
   14        5.602222   0.000000
   15       11.460407   0.000000
   16       11.460407   0.000000
   17       15.291727   0.000000
   18       15.291727   0.000000
   19       20.949590   0.000000
   20       20.949590   0.000000
   21       22.321550   0.000000
   22       22.321550   0.000000
   23       23.523013   0.000000
   24       23.523014   0.000000
   25       26.001790   0.000000
   26       26.001790   0.000000
   27       28.019196   0.000000
   28       28.019196   0.000000
   29       30.461051   0.000000
   30       30.461051   0.000000
   31       31.738784   0.000000
   32       31.738784   0.000000
   33       33.433764   0.000000
   34       33.433765   0.000000
   35       34.624991   0.000000
   36       34.624991   0.000000
   37       35.315148   0.000000
   38       35.315148   0.000000
   39       37.201371   0.000000
   40       37.201371   0.000000
   41       39.598270   0.000000
   42       39.598270   0.000000
   43       41.203411   0.000000
   44       41.203411   0.000000
   45       43.181552   0.000000
   46       43.181552   0.000000
   47       44.589247   0.000000
   48       44.589247   0.000000
   49       46.453669   0.000000
   50       46.453669   0.000000
   51       47.731255   0.000000
   52       47.731255   0.000000
   53       49.532475   0.000000
   54       49.532475   0.000000
   55       50.652134   0.000000
   56       50.652134   0.000000
   57       53.166177   0.000000
   58       53.166177   0.000000
   59       54.419681   0.000000
   60       54.419681   0.000000
   61       56.943573   0.000000
   62       56.943573   0.000000
   63       57.342516   0.000000
   64       57.342516   0.000000
 
  0.5000000E+00  0.1666667E+00  0.5551115E-16  0.4629630E-02
    1       -2.933678   1.000000
    2       -2.933678   1.000000
    3       -2.144336   1.000000
    4       -2.144336   1.000000
    5       -0.821841   1.000000
    6       -0.821841   1.000000
    7        0.834139   1.000000
    8        0.834139   1.000000
    9        1.520103   1.000000
   10        1.520103   1.000000
   11        2.670949   1.000000
   12        2.670949   1.000000
   13        5.602099   0.000000
   14        5.602099   0.000000
   15       11.460427   0.000000
   16       11.460428   0.000000
   17       15.291733   0.000000
   18       15.291734   0.000000
   19       20.949556   0.000000
   20       20.949556   0.000000
   21       22.321525   0.000000
   22       22.321525   0.000000
   23       23.523021   0.000000
   24       23.523021   0.000000
   25       26.001733   0.000000
   26       26.001733   0.000000
   27       28.018981   0.000000
   28       28.018981   0.000000
   29       30.460929   0.000000
   30       30.460929   0.000000
   31       31.739120   0.000000
   32       31.739120   0.000000
   33       33.433657   0.000000
   34       33.433657   0.000000
   35       34.625162   0.000000
   36       34.625162   0.000000
   37       35.315233   0.000000
   38       35.315233   0.000000
   39       37.201497   0.000000
   40       37.201497   0.000000
   41       39.598256   0.000000
   42       39.598256   0.000000
   43       41.203446   0.000000
   44       41.203446   0.000000
   45       43.181501   0.000000
   46       43.181501   0.000000
   47       44.589397   0.000000
   48       44.589397   0.000000
   49       46.453486   0.000000
   50       46.453486   0.000000
   51       47.731219   0.000000
   52       47.731219   0.000000
   53       49.532340   0.000000
   54       49.532340   0.000000
   55       50.652117   0.000000
   56       50.652117   0.000000
   57       53.166176   0.000000
   58       53.166176   0.000000
   59       54.419545   0.000000
   60       54.419545   0.000000
   61       56.943571   0.000000
   62       56.943571   0.000000
   63       57.342566   0.000000
   64       57.342566   0.000000
 
 -0.3333333E+00  0.1666667E+00 -0.1387779E-16  0.4629630E-02
    1       -4.044810   1.000000
    2       -4.044810   1.000000
    3       -2.113669   1.000000
    4       -2.113669   1.000000
    5       -1.862304   1.000000
    6       -1.862304   1.000000
    7        0.973995   1.000000
    8        0.973995   1.000000
    9        1.134075   1.000000
   10        1.134075   1.000000
   11        1.962989   1.000000
   12        1.962989   1.000000
   13        9.105430   0.000000
   14        9.105430   0.000000
   15       14.225122   0.000000
   16       14.225122   0.000000
   17       16.882959   0.000000
   18       16.882959   0.000000
   19       19.993591   0.000000
   20       19.993592   0.000000
   21       21.316845   0.000000
   22       21.316845   0.000000
   23       23.081125   0.000000
   24       23.081126   0.000000
   25       26.029337   0.000000
   26       26.029338   0.000000
   27       26.664015   0.000000
   28       26.664015   0.000000
   29       27.753560   0.000000
   30       27.753560   0.000000
   31       30.433436   0.000000
   32       30.433436   0.000000
   33       33.059194   0.000000
   34       33.059194   0.000000
   35       34.249773   0.000000
   36       34.249773   0.000000
   37       35.609087   0.000000
   38       35.609087   0.000000
   39       37.907628   0.000000
   40       37.907628   0.000000
   41       40.184235   0.000000
   42       40.184235   0.000000
   43       41.401838   0.000000
   44       41.401838   0.000000
   45       42.148711   0.000000
   46       42.148711   0.000000
   47       45.338870   0.000000
   48       45.338871   0.000000
   49       47.059467   0.000000
   50       47.059467   0.000000
   51       48.772201   0.000000
   52       48.772201   0.000000
   53       51.589697   0.000000
   54       51.589697   0.000000
   55       51.790132   0.000000
   56       51.790132   0.000000
   57       53.127184   0.000000
   58       53.127184   0.000000
   59       54.957023   0.000000
   60       54.957023   0.000000
   61       57.043459   0.000000
   62       57.043459   0.000000
   63       57.804575   0.000000
   64       57.804984   0.000000
 
 -0.1666667E+00  0.1666667E+00 -0.1743022E-17  0.4629630E-02
    1       -5.288522   1.000000
    2       -5.288522   1.000000
    3       -2.121875   1.000000
    4       -2.121875   1.000000
    5       -2.007458   1.000000
    6       -2.007458   1.000000
    7        0.693881   1.000000
    8        0.693881   1.000000
    9        1.282107   1.000000
   10        1.282107   1.000000
   11        1.604639   1.000000
   12        1.604639   1.000000
   13       11.976904   0.000000
   14       11.976904   0.000000
   15       17.559543   0.000000
   16       17.559543   0.000000
   17       18.817748   0.000000
   18       18.817748   0.000000
   19       19.511320   0.000000
   20       19.511320   0.000000
   21       19.761637   0.000000
   22       19.761637   0.000000
   23       21.403938   0.000000
   24       21.403938   0.000000
   25       26.210566   0.000000
   26       26.210566   0.000000
   27       26.816812   0.000000
   28       26.816812   0.000000
   29       27.561074   0.000000
   30       27.561074   0.000000
   31       29.032221   0.000000
   32       29.032221   0.000000
   33       29.808353   0.000000
   34       29.808353   0.000000
   35       32.195846   0.000000
   36       32.195846   0.000000
   37       35.345353   0.000000
   38       35.345353   0.000000
   39       36.810660   0.000000
   40       36.810660   0.000000
   41       38.816563   0.000000
   42       38.816563   0.000000
   43       44.934935   0.000000
   44       44.934935   0.000000
   45       45.167665   0.000000
   46       45.167665   0.000000
   47       46.117970   0.000000
   48       46.117970   0.000000
   49       47.564913   0.000000
   50       47.564913   0.000000
   51       48.436683   0.000000
   52       48.436683   0.000000
   53       51.143636   0.000000
   54       51.143636   0.000000
   55       52.752578   0.000000
   56       52.752578   0.000000
   57       54.092976   0.000000
   58       54.092976   0.000000
   59       56.710368   0.000000
   60       56.710368   0.000000
   61       56.831066   0.000000
   62       56.831066   0.000000
   63       57.554164   0.000000
   64       57.554164   0.000000
 
  0.0000000E+00  0.3333333E+00  0.2775558E-16  0.4629630E-02
    1       -3.736957   1.000000
    2       -3.736957   1.000000
    3       -2.193444   1.000000
    4       -2.193444   1.000000
    5       -1.429543   1.000000
    6       -1.429543   1.000000
    7        0.904198   1.000000
    8        0.904198   1.000000
    9        1.417764   1.000000
   10        1.417764   1.000000
   11        2.061472   1.000000
   12        2.061472   1.000000
   13        7.476158   0.000000
   14        7.476158   0.000000
   15       13.978712   0.000000
   16       13.978712   0.000000
   17       16.669929   0.000000
   18       16.669929   0.000000
   19       19.898166   0.000000
   20       19.898166   0.000000
   21       21.655939   0.000000
   22       21.655939   0.000000
   23       22.918440   0.000000
   24       22.918440   0.000000
   25       24.406027   0.000000
   26       24.406027   0.000000
   27       29.034226   0.000000
   28       29.034226   0.000000
   29       29.813864   0.000000
   30       29.813864   0.000000
   31       31.146037   0.000000
   32       31.146037   0.000000
   33       31.914318   0.000000
   34       31.914318   0.000000
   35       33.516400   0.000000
   36       33.516400   0.000000
   37       35.317292   0.000000
   38       35.317292   0.000000
   39       39.255580   0.000000
   40       39.255580   0.000000
   41       40.695040   0.000000
   42       40.695040   0.000000
   43       41.570397   0.000000
   44       41.570397   0.000000
   45       42.162893   0.000000
   46       42.162893   0.000000
   47       43.297495   0.000000
   48       43.297495   0.000000
   49       44.347273   0.000000
   50       44.347273   0.000000
   51       50.129103   0.000000
   52       50.129103   0.000000
   53       50.604567   0.000000
   54       50.604567   0.000000
   55       52.785823   0.000000
   56       52.785823   0.000000
   57       53.254991   0.000000
   58       53.254991   0.000000
   59       56.573907   0.000000
   60       56.573907   0.000000
   61       56.829037   0.000000
   62       56.829037   0.000000
   63       57.816580   0.000000
   64       57.816580   0.000000
 
  0.1666667E+00  0.3333333E+00  0.1110223E-15  0.4629630E-02
    1       -2.933682   1.000000
    2       -2.933682   1.000000
    3       -2.144334   1.000000
    4       -2.144334   1.000000
    5       -0.821853   1.000000
    6       -0.821853   1.000000
    7        0.834141   1.000000
    8        0.834141   1.000000
    9        1.520088   1.000000
   10        1.520088   1.000000
   11        2.670850   1.000000
   12        2.670850   1.000000
   13        5.602221   0.000000
   14        5.602221   0.000000
   15       11.460407   0.000000
   16       11.460407   0.000000
   17       15.291727   0.000000
   18       15.291727   0.000000
   19       20.949590   0.000000
   20       20.949590   0.000000
   21       22.321550   0.000000
   22       22.321550   0.000000
   23       23.523014   0.000000
   24       23.523014   0.000000
   25       26.001790   0.000000
   26       26.001790   0.000000
   27       28.019196   0.000000
   28       28.019196   0.000000
   29       30.461051   0.000000
   30       30.461052   0.000000
   31       31.738784   0.000000
   32       31.738784   0.000000
   33       33.433764   0.000000
   34       33.433765   0.000000
   35       34.624991   0.000000
   36       34.624991   0.000000
   37       35.315148   0.000000
   38       35.315148   0.000000
   39       37.201371   0.000000
   40       37.201371   0.000000
   41       39.598270   0.000000
   42       39.598270   0.000000
   43       41.203411   0.000000
   44       41.203411   0.000000