<?xml version="1.0" encoding="ISO-8859-1"?>
<modeling>
 <generator>
  <i name="program" type="string">vasp </i>
  <i name="version" type="string">5.4.4.18Apr17-6-g9f103f2a35  </i>
  <i name="subversion" type="string">(build Nov 03 2018 10:20:46) complex            parallel </i>
  <i name="platform" type="string">LinuxIFC </i>
  <i name="date" type="string">2018 12 22 </i>
  <i name="time" type="string">09:35:44 </i>
 </generator>
 <incar>
  <i type="string" name="SYSTEM">   Og_FCC</i>
  <i type="string" name="PREC">accurate</i>
  <i type="string" name="ALGO">   Normal</i>
  <i type="logical" name="ADDGRID"> T  </i>
  <i type="logical" name="LSORBIT"> T  </i>
  <i type="int" name="ISPIN">     1</i>
  <i type="int" name="MAXMIX">    50</i>
  <i type="int" name="NELM">    50</i>
  <i type="int" name="NELMDL">    -5</i>
  <i type="int" name="NELMIN">     2</i>
  <i type="int" name="IBRION">    -1</i>
  <i type="int" name="NFREE">     5</i>
  <i name="EDIFF">      0.00000001</i>
  <i name="EDIFFG">      0.00001000</i>
  <i type="int" name="NSW">     1</i>
  <i type="int" name="ISIF">     3</i>
  <i type="int" name="ISYM">     0</i>
  <i name="SYMPREC">      0.00000010</i>
  <i name="ENCUT">    300.00000000</i>
  <i type="int" name="NBANDS">    64</i>
  <i name="POTIM">      0.10000000</i>
  <i type="logical" name="LREAL"> F  </i>
  <i type="int" name="ISMEAR">     0</i>
  <i name="SIGMA">      0.05000000</i>
  <i type="int" name="NWRITE">     2</i>
  <i type="logical" name="LWAVE"> T  </i>
  <i type="logical" name="LCHARG"> T  </i>
  <i type="logical" name="LVTOT"> F  </i>
  <i type="logical" name="GGA_COMPAT"> F  </i>
  <v type="int" name="KPOINT_BSE">    -1     0     0     0</v>
  <i type="int" name="NELM">    50</i>
  <i type="string" name="METAGGA"> SCAN</i>
 </incar>
 <structure name="primitive_cell" >
  <crystal>
   <varray name="basis" >
    <v>       3.24210280       0.00000000       0.00000000 </v>
    <v>      -1.08068920       3.05668799       0.00000000 </v>
    <v>      -1.08068920      -1.52831910       2.64718382 </v>
   </varray>
   <i name="volume">     26.23384760 </i>
   <varray name="rec_basis" >
    <v>       0.30844179       0.10904931       0.18887689 </v>
    <v>       0.00000000       0.32715148       0.18887689 </v>
    <v>       0.00000000       0.00000000       0.37775994 </v>
   </varray>
  </crystal>
  <varray name="positions" >
   <v>       0.00000000       0.00000000       0.00000000 </v>
  </varray>
 </structure>
 <varray name="primitive_index" >
  <v type="int" >        1 </v>
 </varray>
 <kpoints>
  <generation param="Gamma">
   <v type="int" name="divisions">       6        6        6 </v>
   <v name="usershift">      0.00000000       0.00000000       0.00000000 </v>
   <v name="genvec1">      0.16666667      -0.00000000       0.00000000 </v>
   <v name="genvec2">      0.00000000       0.16666667       0.00000000 </v>
   <v name="genvec3">      0.00000000       0.00000000       0.16666667 </v>
   <v name="shift">      0.00000000       0.00000000       0.00000000 </v>
  </generation>
  <varray name="kpointlist" >
   <v>       0.00000000       0.00000000       0.00000000 </v>
   <v>       0.16666667       0.00000000       0.00000000 </v>
   <v>       0.33333333       0.00000000      -0.00000000 </v>
   <v>       0.50000000       0.00000000       0.00000000 </v>
   <v>      -0.33333333      -0.00000000       0.00000000 </v>
   <v>      -0.16666667       0.00000000       0.00000000 </v>
   <v>       0.00000000       0.16666667       0.00000000 </v>
   <v>       0.16666667       0.16666667       0.00000000 </v>
   <v>       0.33333333       0.16666667       0.00000000 </v>
   <v>       0.50000000       0.16666667       0.00000000 </v>
   <v>      -0.33333333       0.16666667      -0.00000000 </v>
   <v>      -0.16666667       0.16666667      -0.00000000 </v>
   <v>       0.00000000       0.33333333       0.00000000 </v>
   <v>       0.16666667       0.33333333       0.00000000 </v>
   <v>       0.33333333       0.33333333       0.00000000 </v>
   <v>       0.50000000       0.33333333       0.00000000 </v>
   <v>      -0.33333333       0.33333333       0.00000000 </v>
   <v>      -0.16666667       0.33333333       0.00000000 </v>
   <v>       0.00000000       0.50000000      -0.00000000 </v>
   <v>       0.16666667       0.50000000       0.00000000 </v>
   <v>       0.33333333       0.50000000       0.00000000 </v>
   <v>       0.50000000       0.50000000      -0.00000000 </v>
   <v>      -0.33333333       0.50000000      -0.00000000 </v>
   <v>      -0.16666667       0.50000000       0.00000000 </v>
   <v>       0.00000000      -0.33333333      -0.00000000 </v>
   <v>       0.16666667      -0.33333333      -0.00000000 </v>
   <v>       0.33333333      -0.33333333      -0.00000000 </v>
   <v>       0.50000000      -0.33333333      -0.00000000 </v>
   <v>      -0.33333333      -0.33333333       0.00000000 </v>
   <v>      -0.16666667      -0.33333333      -0.00000000 </v>
   <v>       0.00000000      -0.16666667      -0.00000000 </v>
   <v>       0.16666667      -0.16666667       0.00000000 </v>
   <v>       0.33333333      -0.16666667       0.00000000 </v>
   <v>       0.50000000      -0.16666667       0.00000000 </v>
   <v>      -0.33333333      -0.16666667      -0.00000000 </v>
   <v>      -0.16666667      -0.16666667      -0.00000000 </v>
   <v>       0.00000000       0.00000000       0.16666667 </v>
   <v>       0.16666667       0.00000000       0.16666667 </v>
   <v>       0.33333333       0.00000000       0.16666667 </v>
   <v>       0.50000000       0.00000000       0.16666667 </v>
   <v>      -0.33333333      -0.00000000       0.16666667 </v>
   <v>      -0.16666667       0.00000000       0.16666667 </v>
   <v>       0.00000000       0.16666667       0.16666667 </v>
   <v>       0.16666667       0.16666667       0.16666667 </v>
   <v>       0.33333333       0.16666667       0.16666667 </v>
   <v>       0.50000000       0.16666667       0.16666667 </v>
   <v>      -0.33333333       0.16666667       0.16666667 </v>
   <v>      -0.16666667       0.16666667       0.16666667 </v>
   <v>       0.00000000       0.33333333       0.16666667 </v>
   <v>       0.16666667       0.33333333       0.16666667 </v>
   <v>       0.33333333       0.33333333       0.16666667 </v>
   <v>       0.50000000       0.33333333       0.16666667 </v>
   <v>      -0.33333333       0.33333333       0.16666667 </v>
   <v>      -0.16666667       0.33333333       0.16666667 </v>
   <v>       0.00000000       0.50000000       0.16666667 </v>
   <v>       0.16666667       0.50000000       0.16666667 </v>
   <v>       0.33333333       0.50000000       0.16666667 </v>
   <v>       0.50000000       0.50000000       0.16666667 </v>
   <v>      -0.33333333       0.50000000       0.16666667 </v>
   <v>      -0.16666667       0.50000000       0.16666667 </v>
   <v>       0.00000000      -0.33333333       0.16666667 </v>
   <v>       0.16666667      -0.33333333       0.16666667 </v>
   <v>       0.33333333      -0.33333333       0.16666667 </v>
   <v>       0.50000000      -0.33333333       0.16666667 </v>
   <v>      -0.33333333      -0.33333333       0.16666667 </v>
   <v>      -0.16666667      -0.33333333       0.16666667 </v>
   <v>       0.00000000      -0.16666667       0.16666667 </v>
   <v>       0.16666667      -0.16666667       0.16666667 </v>
   <v>       0.33333333      -0.16666667       0.16666667 </v>
   <v>       0.50000000      -0.16666667       0.16666667 </v>
   <v>      -0.33333333      -0.16666667       0.16666667 </v>
   <v>      -0.16666667      -0.16666667       0.16666667 </v>
   <v>       0.00000000       0.00000000       0.33333333 </v>
   <v>       0.16666667       0.00000000       0.33333333 </v>
   <v>       0.33333333       0.00000000       0.33333333 </v>
   <v>       0.50000000       0.00000000       0.33333333 </v>
   <v>      -0.33333333      -0.00000000       0.33333333 </v>
   <v>      -0.16666667       0.00000000       0.33333333 </v>
   <v>       0.00000000       0.16666667       0.33333333 </v>
   <v>       0.16666667       0.16666667       0.33333333 </v>
   <v>       0.33333333       0.16666667       0.33333333 </v>
   <v>       0.50000000       0.16666667       0.33333333 </v>
   <v>      -0.33333333       0.16666667       0.33333333 </v>
   <v>      -0.16666667       0.16666667       0.33333333 </v>
   <v>       0.00000000       0.33333333       0.33333333 </v>
   <v>       0.16666667       0.33333333       0.33333333 </v>
   <v>       0.33333333       0.33333333       0.33333333 </v>
   <v>       0.50000000       0.33333333       0.33333333 </v>
   <v>      -0.33333333       0.33333333       0.33333333 </v>
   <v>      -0.16666667       0.33333333       0.33333333 </v>
   <v>       0.00000000       0.50000000       0.33333333 </v>
   <v>       0.16666667       0.50000000       0.33333333 </v>
   <v>       0.33333333       0.50000000       0.33333333 </v>
   <v>       0.50000000       0.50000000       0.33333333 </v>
   <v>      -0.33333333       0.50000000       0.33333333 </v>
   <v>      -0.16666667       0.50000000       0.33333333 </v>
   <v>       0.00000000      -0.33333333       0.33333333 </v>
   <v>       0.16666667      -0.33333333       0.33333333 </v>
   <v>       0.33333333      -0.33333333       0.33333333 </v>
   <v>       0.50000000      -0.33333333       0.33333333 </v>
   <v>      -0.33333333      -0.33333333       0.33333333 </v>
   <v>      -0.16666667      -0.33333333       0.33333333 </v>
   <v>       0.00000000      -0.16666667       0.33333333 </v>
   <v>       0.16666667      -0.16666667       0.33333333 </v>
   <v>       0.33333333      -0.16666667       0.33333333 </v>
   <v>       0.50000000      -0.16666667       0.33333333 </v>
   <v>      -0.33333333      -0.16666667       0.33333333 </v>
   <v>      -0.16666667      -0.16666667       0.33333333 </v>
   <v>       0.00000000       0.00000000       0.50000000 </v>
   <v>       0.16666667       0.00000000       0.50000000 </v>
   <v>       0.33333333       0.00000000       0.50000000 </v>
   <v>       0.50000000       0.00000000       0.50000000 </v>
   <v>      -0.33333333      -0.00000000       0.50000000 </v>
   <v>      -0.16666667       0.00000000       0.50000000 </v>
   <v>       0.00000000       0.16666667       0.50000000 </v>
   <v>       0.16666667       0.16666667       0.50000000 </v>
   <v>       0.33333333       0.16666667       0.50000000 </v>
   <v>       0.50000000       0.16666667       0.50000000 </v>
   <v>      -0.33333333       0.16666667       0.50000000 </v>
   <v>      -0.16666667       0.16666667       0.50000000 </v>
   <v>       0.00000000       0.33333333       0.50000000 </v>
   <v>       0.16666667       0.33333333       0.50000000 </v>
   <v>       0.33333333       0.33333333       0.50000000 </v>
   <v>       0.50000000       0.33333333       0.50000000 </v>
   <v>      -0.33333333       0.33333333       0.50000000 </v>
   <v>      -0.16666667       0.33333333       0.50000000 </v>
   <v>       0.00000000       0.50000000       0.50000000 </v>
   <v>       0.16666667       0.50000000       0.50000000 </v>
   <v>       0.33333333       0.50000000       0.50000000 </v>
   <v>       0.50000000       0.50000000       0.50000000 </v>
   <v>      -0.33333333       0.50000000       0.50000000 </v>
   <v>      -0.16666667       0.50000000       0.50000000 </v>
   <v>       0.00000000      -0.33333333       0.50000000 </v>
   <v>       0.16666667      -0.33333333       0.50000000 </v>
   <v>       0.33333333      -0.33333333       0.50000000 </v>
   <v>       0.50000000      -0.33333333       0.50000000 </v>
   <v>      -0.33333333      -0.33333333       0.50000000 </v>
   <v>      -0.16666667      -0.33333333       0.50000000 </v>
   <v>       0.00000000      -0.16666667       0.50000000 </v>
   <v>       0.16666667      -0.16666667       0.50000000 </v>
   <v>       0.33333333      -0.16666667       0.50000000 </v>
   <v>       0.50000000      -0.16666667       0.50000000 </v>
   <v>      -0.33333333      -0.16666667       0.50000000 </v>
   <v>      -0.16666667      -0.16666667       0.50000000 </v>
   <v>       0.00000000       0.00000000      -0.33333333 </v>
   <v>       0.16666667       0.00000000      -0.33333333 </v>
   <v>       0.33333333       0.00000000      -0.33333333 </v>
   <v>       0.50000000       0.00000000      -0.33333333 </v>
   <v>      -0.33333333      -0.00000000      -0.33333333 </v>
   <v>      -0.16666667       0.00000000      -0.33333333 </v>
   <v>       0.00000000       0.16666667      -0.33333333 </v>
   <v>       0.16666667       0.16666667      -0.33333333 </v>
   <v>       0.33333333       0.16666667      -0.33333333 </v>
   <v>       0.50000000       0.16666667      -0.33333333 </v>
   <v>      -0.33333333       0.16666667      -0.33333333 </v>
   <v>      -0.16666667       0.16666667      -0.33333333 </v>
   <v>       0.00000000       0.33333333      -0.33333333 </v>
   <v>       0.16666667       0.33333333      -0.33333333 </v>
   <v>       0.33333333       0.33333333      -0.33333333 </v>
   <v>       0.50000000       0.33333333      -0.33333333 </v>
   <v>      -0.33333333       0.33333333      -0.33333333 </v>
   <v>      -0.16666667       0.33333333      -0.33333333 </v>
   <v>       0.00000000       0.50000000      -0.33333333 </v>
   <v>       0.16666667       0.50000000      -0.33333333 </v>
   <v>       0.33333333       0.50000000      -0.33333333 </v>
   <v>       0.50000000       0.50000000      -0.33333333 </v>
   <v>      -0.33333333       0.50000000      -0.33333333 </v>
   <v>      -0.16666667       0.50000000      -0.33333333 </v>
   <v>       0.00000000      -0.33333333      -0.33333333 </v>
   <v>       0.16666667      -0.33333333      -0.33333333 </v>
   <v>       0.33333333      -0.33333333      -0.33333333 </v>
   <v>       0.50000000      -0.33333333      -0.33333333 </v>
   <v>      -0.33333333      -0.33333333      -0.33333333 </v>
   <v>      -0.16666667      -0.33333333      -0.33333333 </v>
   <v>       0.00000000      -0.16666667      -0.33333333 </v>
   <v>       0.16666667      -0.16666667      -0.33333333 </v>
   <v>       0.33333333      -0.16666667      -0.33333333 </v>
   <v>       0.50000000      -0.16666667      -0.33333333 </v>
   <v>      -0.33333333      -0.16666667      -0.33333333 </v>
   <v>      -0.16666667      -0.16666667      -0.33333333 </v>
   <v>       0.00000000       0.00000000      -0.16666667 </v>
   <v>       0.16666667       0.00000000      -0.16666667 </v>
   <v>       0.33333333       0.00000000      -0.16666667 </v>
   <v>       0.50000000       0.00000000      -0.16666667 </v>
   <v>      -0.33333333      -0.00000000      -0.16666667 </v>
   <v>      -0.16666667       0.00000000      -0.16666667 </v>
   <v>       0.00000000       0.16666667      -0.16666667 </v>
   <v>       0.16666667       0.16666667      -0.16666667 </v>
   <v>       0.33333333       0.16666667      -0.16666667 </v>
   <v>       0.50000000       0.16666667      -0.16666667 </v>
   <v>      -0.33333333       0.16666667      -0.16666667 </v>
   <v>      -0.16666667       0.16666667      -0.16666667 </v>
   <v>       0.00000000       0.33333333      -0.16666667 </v>
   <v>       0.16666667       0.33333333      -0.16666667 </v>
   <v>       0.33333333       0.33333333      -0.16666667 </v>
   <v>       0.50000000       0.33333333      -0.16666667 </v>
   <v>      -0.33333333       0.33333333      -0.16666667 </v>
   <v>      -0.16666667       0.33333333      -0.16666667 </v>
   <v>       0.00000000       0.50000000      -0.16666667 </v>
   <v>       0.16666667       0.50000000      -0.16666667 </v>
   <v>       0.33333333       0.50000000      -0.16666667 </v>
   <v>       0.50000000       0.50000000      -0.16666667 </v>
   <v>      -0.33333333       0.50000000      -0.16666667 </v>
   <v>      -0.16666667       0.50000000      -0.16666667 </v>
   <v>       0.00000000      -0.33333333      -0.16666667 </v>
   <v>       0.16666667      -0.33333333      -0.16666667 </v>
   <v>       0.33333333      -0.33333333      -0.16666667 </v>
   <v>       0.50000000      -0.33333333      -0.16666667 </v>
   <v>      -0.33333333      -0.33333333      -0.16666667 </v>
   <v>      -0.16666667      -0.33333333      -0.16666667 </v>
   <v>       0.00000000      -0.16666667      -0.16666667 </v>
   <v>       0.16666667      -0.16666667      -0.16666667 </v>
   <v>       0.33333333      -0.16666667      -0.16666667 </v>
   <v>       0.50000000      -0.16666667      -0.16666667 </v>
   <v>      -0.33333333      -0.16666667      -0.16666667 </v>
   <v>      -0.16666667      -0.16666667      -0.16666667 </v>
  </varray>
  <varray name="weights" >
   <v>       0.00462963 </v>
   <v>       0.00462963 </v>
   <v>       0.00462963 </v>
   <v>       0.00462963 </v>
   <v>       0.00462963 </v>
   <v>       0.00462963 </v>
   <v>       0.00462963 </v>
   <v>       0.00462963 </v>
   <v>       0.00462963 </v>
   <v>       0.00462963 </v>
   <v>       0.00462963 </v>
   <v>       0.00462963 </v>
   <v>       0.00462963 </v>
   <v>       0.00462963 </v>
   <v>       0.00462963 </v>
   <v>       0.00462963 </v>
   <v>       0.00462963 </v>
   <v>       0.00462963 </v>
   <v>       0.00462963 </v>
   <v>       0.00462963 </v>
   <v>       0.00462963 </v>
   <v>       0.00462963 </v>
   <v>       0.00462963 </v>
   <v>       0.00462963 </v>
   <v>       0.00462963 </v>
   <v>       0.00462963 </v>
   <v>       0.00462963 </v>
   <v>       0.00462963 </v>
   <v>       0.00462963 </v>
   <v>       0.00462963 </v>
   <v>       0.00462963 </v>
   <v>       0.00462963 </v>
   <v>       0.00462963 </v>
   <v>       0.00462963 </v>
   <v>       0.00462963 </v>
   <v>       0.00462963 </v>
   <v>       0.00462963 </v>
   <v>       0.00462963 </v>
   <v>       0.00462963 </v>
   <v>       0.00462963 </v>
   <v>       0.00462963 </v>
   <v>       0.00462963 </v>
   <v>       0.00462963 </v>
   <v>       0.00462963 </v>
   <v>       0.00462963 </v>
   <v>       0.00462963 </v>
   <v>       0.00462963 </v>
   <v>       0.00462963 </v>
   <v>       0.00462963 </v>
   <v>       0.00462963 </v>
   <v>       0.00462963 </v>
   <v>       0.00462963 </v>
   <v>       0.00462963 </v>
   <v>       0.00462963 </v>
   <v>       0.00462963 </v>
   <v>       0.00462963 </v>
   <v>       0.00462963 </v>
   <v>       0.00462963 </v>
   <v>       0.00462963 </v>
   <v>       0.00462963 </v>
   <v>       0.00462963 </v>
   <v>       0.00462963 </v>
   <v>       0.00462963 </v>
   <v>       0.00462963 </v>
   <v>       0.00462963 </v>
   <v>       0.00462963 </v>
   <v>       0.00462963 </v>
   <v>       0.00462963 </v>
   <v>       0.00462963 </v>
   <v>       0.00462963 </v>
   <v>       0.00462963 </v>
   <v>       0.00462963 </v>
   <v>       0.00462963 </v>
   <v>       0.00462963 </v>
   <v>       0.00462963 </v>
   <v>       0.00462963 </v>
   <v>       0.00462963 </v>
   <v>       0.00462963 </v>
   <v>       0.00462963 </v>
   <v>       0.00462963 </v>
   <v>       0.00462963 </v>
   <v>       0.00462963 </v>
   <v>       0.00462963 </v>
   <v>       0.00462963 </v>
   <v>       0.00462963 </v>
   <v>       0.00462963 </v>
   <v>       0.00462963 </v>
   <v>       0.00462963 </v>
   <v>       0.00462963 </v>
   <v>       0.00462963 </v>
   <v>       0.00462963 </v>
   <v>       0.00462963 </v>
   <v>       0.00462963 </v>
   <v>       0.00462963 </v>
   <v>       0.00462963 </v>
   <v>       0.00462963 </v>
   <v>       0.00462963 </v>
   <v>       0.00462963 </v>
   <v>       0.00462963 </v>
   <v>       0.00462963 </v>
   <v>       0.00462963 </v>
   <v>       0.00462963 </v>
   <v>       0.00462963 </v>
   <v>       0.00462963 </v>
   <v>       0.00462963 </v>
   <v>       0.00462963 </v>
   <v>       0.00462963 </v>
   <v>       0.00462963 </v>
   <v>       0.00462963 </v>
   <v>       0.00462963 </v>
   <v>       0.00462963 </v>
   <v>       0.00462963 </v>
   <v>       0.00462963 </v>
   <v>       0.00462963 </v>
   <v>       0.00462963 </v>
   <v>       0.00462963 </v>
   <v>       0.00462963 </v>
   <v>       0.00462963 </v>
   <v>       0.00462963 </v>
   <v>       0.00462963 </v>
   <v>       0.00462963 </v>
   <v>       0.00462963 </v>
   <v>       0.00462963 </v>
   <v>       0.00462963 </v>
   <v>       0.00462963 </v>
   <v>       0.00462963 </v>
   <v>       0.00462963 </v>
   <v>       0.00462963 </v>
   <v>       0.00462963 </v>
   <v>       0.00462963 </v>
   <v>       0.00462963 </v>
   <v>       0.00462963 </v>
   <v>       0.00462963 </v>
   <v>       0.00462963 </v>
   <v>       0.00462963 </v>
   <v>       0.00462963 </v>
   <v>       0.00462963 </v>
   <v>       0.00462963 </v>
   <v>       0.00462963 </v>
   <v>       0.00462963 </v>
   <v>       0.00462963 </v>
   <v>       0.00462963 </v>
   <v>       0.00462963 </v>
   <v>       0.00462963 </v>
   <v>       0.00462963 </v>
   <v>       0.00462963 </v>
   <v>       0.00462963 </v>
   <v>       0.00462963 </v>
   <v>       0.00462963 </v>
   <v>       0.00462963 </v>
   <v>       0.00462963 </v>
   <v>       0.00462963 </v>
   <v>       0.00462963 </v>
   <v>       0.00462963 </v>
   <v>       0.00462963 </v>
   <v>       0.00462963 </v>
   <v>       0.00462963 </v>
   <v>       0.00462963 </v>
   <v>       0.00462963 </v>
   <v>       0.00462963 </v>
   <v>       0.00462963 </v>
   <v>       0.00462963 </v>
   <v>       0.00462963 </v>
   <v>       0.00462963 </v>
   <v>       0.00462963 </v>
   <v>       0.00462963 </v>
   <v>       0.00462963 </v>
   <v>       0.00462963 </v>
   <v>       0.00462963 </v>
   <v>       0.00462963 </v>
   <v>       0.00462963 </v>
   <v>       0.00462963 </v>
   <v>       0.00462963 </v>
   <v>       0.00462963 </v>
   <v>       0.00462963 </v>
   <v>       0.00462963 </v>
   <v>       0.00462963 </v>
   <v>       0.00462963 </v>
   <v>       0.00462963 </v>
   <v>       0.00462963 </v>
   <v>       0.00462963 </v>
   <v>       0.00462963 </v>
   <v>       0.00462963 </v>
   <v>       0.00462963 </v>
   <v>       0.00462963 </v>
   <v>       0.00462963 </v>
   <v>       0.00462963 </v>
   <v>       0.00462963 </v>
   <v>       0.00462963 </v>
   <v>       0.00462963 </v>
   <v>       0.00462963 </v>
   <v>       0.00462963 </v>
   <v>       0.00462963 </v>
   <v>       0.00462963 </v>
   <v>       0.00462963 </v>
   <v>       0.00462963 </v>
   <v>       0.00462963 </v>
   <v>       0.00462963 </v>
   <v>       0.00462963 </v>
   <v>       0.00462963 </v>
   <v>       0.00462963 </v>
   <v>       0.00462963 </v>
   <v>       0.00462963 </v>
   <v>       0.00462963 </v>
   <v>       0.00462963 </v>
   <v>       0.00462963 </v>
   <v>       0.00462963 </v>
   <v>       0.00462963 </v>
   <v>       0.00462963 </v>
   <v>       0.00462963 </v>
   <v>       0.00462963 </v>
   <v>       0.00462963 </v>
   <v>       0.00462963 </v>
   <v>       0.00462963 </v>
   <v>       0.00462963 </v>
   <v>       0.00462963 </v>
  </varray>
 </kpoints>
 <parameters>
  <separator name="general" >
   <i type="string" name="SYSTEM">Og_FCC</i>
   <i type="logical" name="LCOMPAT"> F  </i>
  </separator>
  <separator name="electronic" >
   <i type="string" name="PREC">accura</i>
   <i name="ENMAX">    300.00000000</i>
   <i name="ENAUG">    361.02500000</i>
   <i name="EDIFF">      0.00000001</i>
   <i type="int" name="IALGO">    38</i>
   <i type="int" name="IWAVPR">    10</i>
   <i type="int" name="NBANDS">    64</i>
   <i name="NELECT">     12.00000000</i>
   <i type="int" name="TURBO">     0</i>
   <i type="int" name="IRESTART">     0</i>
   <i type="int" name="NREBOOT">     0</i>
   <i type="int" name="NMIN">     0</i>
   <i name="EREF">      0.00000000</i>
   <separator name="electronic smearing" >
    <i type="int" name="ISMEAR">     0</i>
    <i name="SIGMA">      0.05000000</i>
    <i name="KSPACING">      0.50000000</i>
    <i type="logical" name="KGAMMA"> T  </i>
   </separator>
   <separator name="electronic projectors" >
    <i type="logical" name="LREAL"> F  </i>
    <v name="ROPT">      0.00000000</v>
    <i type="int" name="LMAXPAW">  -100</i>
    <i type="int" name="LMAXMIX">     2</i>
    <i type="logical" name="NLSPLINE"> F  </i>
   </separator>
   <separator name="electronic startup" >
    <i type="int" name="ISTART">     1</i>
    <i type="int" name="ICHARG">     0</i>
    <i type="int" name="INIWAV">     1</i>
   </separator>
   <separator name="electronic spin" >
    <i type="int" name="ISPIN">     1</i>
    <i type="logical" name="LNONCOLLINEAR"> T  </i>
    <v name="MAGMOM">      1.00000000      1.00000000      1.00000000</v>
    <i name="NUPDOWN">     -1.00000000</i>
    <i type="logical" name="LSORBIT"> T  </i>
    <v name="SAXIS">      0.00000000      0.00000000      1.00000000</v>
    <i type="logical" name="LSPIRAL"> F  </i>
    <v name="QSPIRAL">      0.00000000      0.00000000      0.00000000</v>
    <i type="logical" name="LZEROZ"> F  </i>
   </separator>
   <separator name="electronic exchange-correlation" >
    <i type="logical" name="LASPH"> F  </i>
    <i type="logical" name="LMETAGGA"> F  </i>
   </separator>
   <separator name="electronic convergence" >
    <i type="int" name="NELM">    50</i>
    <i type="int" name="NELMDL">    -5</i>
    <i type="int" name="NELMIN">     2</i>
    <i name="ENINI">    300.00000000</i>
    <separator name="electronic convergence detail" >
     <i type="logical" name="LDIAG"> T  </i>
     <i type="logical" name="LSUBROT"> F  </i>
     <i name="WEIMIN">      0.00000000</i>
     <i name="EBREAK">      0.00000000</i>
     <i name="DEPER">      0.30000000</i>
     <i type="int" name="NRMM">     4</i>
     <i name="TIME">      0.40000000</i>
    </separator>
   </separator>
   <separator name="electronic mixer" >
    <i name="AMIX">      0.40000000</i>
    <i name="BMIX">      1.00000000</i>
    <i name="AMIN">      0.10000000</i>
    <i name="AMIX_MAG">      1.60000000</i>
    <i name="BMIX_MAG">      1.00000000</i>
    <separator name="electronic mixer details" >
     <i type="int" name="IMIX">     4</i>
     <i type="logical" name="MIXFIRST"> F  </i>
     <i type="int" name="MAXMIX">    50</i>
     <i name="WC">    100.00000000</i>
     <i type="int" name="INIMIX">     1</i>
     <i type="int" name="MIXPRE">     1</i>
     <i type="int" name="MREMOVE">     5</i>
    </separator>
   </separator>
   <separator name="electronic dipolcorrection" >
    <i type="logical" name="LDIPOL"> F  </i>
    <i type="logical" name="LMONO"> F  </i>
    <i type="int" name="IDIPOL">     0</i>
    <i name="EPSILON">      1.00000000</i>
    <v name="DIPOL">   -100.00000000   -100.00000000   -100.00000000</v>
    <i name="EFIELD">      0.00000000</i>
   </separator>
  </separator>
  <separator name="grids" >
   <i type="int" name="NGX">    18</i>
   <i type="int" name="NGY">    18</i>
   <i type="int" name="NGZ">    18</i>
   <i type="int" name="NGXF">    36</i>
   <i type="int" name="NGYF">    36</i>
   <i type="int" name="NGZF">    36</i>
   <i type="logical" name="ADDGRID"> T  </i>
  </separator>
  <separator name="ionic" >
   <i type="int" name="NSW">     1</i>
   <i type="int" name="IBRION">    -1</i>
   <i type="int" name="MDALGO">     0</i>
   <i type="int" name="ISIF">     3</i>
   <i name="PSTRESS">      0.00000000</i>
   <i name="EDIFFG">      0.00001000</i>
   <i type="int" name="NFREE">     5</i>
   <i name="POTIM">      0.10000000</i>
   <i name="SMASS">     -3.00000000</i>
   <i name="SCALEE">      1.00000000</i>
  </separator>
  <separator name="ionic md" >
   <i name="TEBEG">      0.00010000</i>
   <i name="TEEND">      0.00010000</i>
   <i type="int" name="NBLOCK">     1</i>
   <i type="int" name="KBLOCK">     1</i>
   <i type="int" name="NPACO">   256</i>
   <i name="APACO">     16.00000000</i>
  </separator>
  <separator name="symmetry" >
   <i type="int" name="ISYM">     0</i>
   <i name="SYMPREC">      0.00000010</i>
  </separator>
  <separator name="dos" >
   <i type="int" name="LORBIT">     0</i>
   <v name="RWIGS">     -1.00000000</v>
   <i type="int" name="NEDOS">   301</i>
   <i name="EMIN">     10.00000000</i>
   <i name="EMAX">    -10.00000000</i>
   <i name="EFERMI">      0.00000000</i>
  </separator>
  <separator name="writing" >
   <i type="int" name="NWRITE">     2</i>
   <i type="logical" name="LWAVE"> T  </i>
   <i type="logical" name="LDOWNSAMPLE"> F  </i>
   <i type="logical" name="LCHARG"> T  </i>
   <i type="logical" name="LPARD"> F  </i>
   <i type="logical" name="LVTOT"> F  </i>
   <i type="logical" name="LVHAR"> F  </i>
   <i type="logical" name="LELF"> F  </i>
   <i type="logical" name="LOPTICS"> F  </i>
   <v name="STM">      0.00000000      0.00000000      0.00000000      0.00000000      0.00000000      0.00000000      0.00000000</v>
  </separator>
  <separator name="performance" >
   <i type="int" name="NPAR">     1</i>
   <i type="int" name="NSIM">     4</i>
   <i type="int" name="NBLK">    -1</i>
   <i type="logical" name="LPLANE"> T  </i>
   <i type="logical" name="LSCALAPACK"> T  </i>
   <i type="logical" name="LSCAAWARE"> F  </i>
   <i type="logical" name="LSCALU"> F  </i>
   <i type="logical" name="LASYNC"> F  </i>
   <i type="logical" name="LORBITALREAL"> F  </i>
  </separator>
  <separator name="miscellaneous" >
   <i type="int" name="IDIOT">     3</i>
   <i type="int" name="ISPECIAL">     0</i>
   <i type="logical" name="LMUSIC"> F  </i>
   <v name="POMASS">      0.01000000</v>
   <v name="DARWINR">      0.00000000</v>
   <v name="DARWINV">      1.00000000</v>
   <i type="logical" name="LCORR"> T  </i>
  </separator>
  <i type="logical" name="GGA_COMPAT"> F  </i>
  <i type="logical" name="LBERRY"> F  </i>
  <i type="int" name="ICORELEVEL">     0</i>
  <i type="logical" name="LDAU"> F  </i>
  <i type="int" name="I_CONSTRAINED_M">     0</i>
  <separator name="electronic exchange-correlation" >
   <i type="string" name="GGA">--</i>
   <i type="int" name="VOSKOWN">     0</i>
   <i type="logical" name="LHFCALC"> F  </i>
   <i type="string" name="PRECFOCK"></i>
   <i type="logical" name="LSYMGRAD"> F  </i>
   <i type="logical" name="LHFONE"> F  </i>
   <i type="logical" name="LRHFCALC"> F  </i>
   <i type="logical" name="LTHOMAS"> F  </i>
   <i type="logical" name="LMODELHF"> F  </i>
   <i name="ENCUT4O">     -1.00000000</i>
   <i type="int" name="EXXOEP">     0</i>
   <i type="int" name="FOURORBIT">     0</i>
   <i name="AEXX">      0.00000000</i>
   <i name="HFALPHA">      0.00000000</i>
   <i name="MCALPHA">      0.00000000</i>
   <i name="ALDAX">      1.00000000</i>
   <i name="AGGAX">      1.00000000</i>
   <i name="ALDAC">      1.00000000</i>
   <i name="AGGAC">      1.00000000</i>
   <i type="int" name="NKREDX">     1</i>
   <i type="int" name="NKREDY">     1</i>
   <i type="int" name="NKREDZ">     1</i>
   <i type="logical" name="SHIFTRED"> F  </i>
   <i type="logical" name="ODDONLY"> F  </i>
   <i type="logical" name="EVENONLY"> F  </i>
   <i type="int" name="LMAXFOCK">     0</i>
   <i type="int" name="NMAXFOCKAE">     0</i>
   <i type="logical" name="LFOCKAEDFT"> F  </i>
   <i name="HFSCREEN">      0.00000000</i>
   <i name="HFSCREENC">      0.00000000</i>
   <i type="int" name="NBANDSGWLOW">     0</i>
  </separator>
  <separator name="vdW DFT" >
   <i type="logical" name="LUSE_VDW"> F  </i>
   <i name="Zab_VDW">     -0.84910000</i>
   <i name="PARAM1">      0.12340000</i>
   <i name="PARAM2">      1.00000000</i>
   <i name="PARAM3">      0.00000000</i>
  </separator>
  <separator name="model GW" >
   <i type="int" name="MODEL_GW">     0</i>
   <i name="MODEL_EPS0">     15.74030856</i>
   <i name="MODEL_ALPHA">      1.00000000</i>
  </separator>
  <separator name="linear response parameters" >
   <i type="logical" name="LEPSILON"> F  </i>
   <i type="logical" name="LRPA"> F  </i>
   <i type="logical" name="LNABLA"> F  </i>
   <i type="logical" name="LVEL"> F  </i>
   <i type="int" name="KINTER">     0</i>
   <i name="CSHIFT">      0.10000000</i>
   <i name="OMEGAMAX">     -1.00000000</i>
   <i name="DEG_THRESHOLD">      0.00200000</i>
   <i name="RTIME">     -0.10000000</i>
   <i name="WPLASMAI">      0.00000000</i>
   <v name="DFIELD">      0.00000000      0.00000000      0.00000000</v>
   <v name="WPLASMA">      0.00000000      0.00000000      0.00000000      0.00000000      0.00000000      0.00000000      0.00000000      0.00000000      0.00000000</v>
  </separator>
  <separator name="orbital magnetization" >
   <i type="logical" name="NUCIND"> F  </i>
   <v name="MAGPOS">      0.00000000      0.00000000      0.00000000</v>
   <i type="logical" name="LNICSALL"> T  </i>
   <i type="logical" name="ORBITALMAG"> F  </i>
   <i type="logical" name="LMAGBLOCH"> F  </i>
   <i type="logical" name="LCHIMAG"> F  </i>
   <i type="logical" name="LGAUGE"> T  </i>
   <i type="int" name="MAGATOM">     0</i>
   <v name="MAGDIPOL">      0.00000000      0.00000000      0.00000000</v>
   <v name="AVECCONST">      0.00000000      0.00000000      0.00000000</v>
  </separator>
  <separator name="response functions" >
   <i type="logical" name="LADDER"> F  </i>
   <i type="logical" name="LRPAFORCE"> F  </i>
   <i type="logical" name="LFXC"> F  </i>
   <i type="logical" name="LHARTREE"> T  </i>
   <i type="int" name="IBSE">     0</i>
   <v type="int" name="KPOINT">    -1     0     0     0</v>
   <i type="logical" name="LTCTE"> F  </i>
   <i type="logical" name="LTETE"> F  </i>
   <i type="logical" name="LTRIPLET"> F  </i>
   <i type="logical" name="LFXCEPS"> F  </i>
   <i type="logical" name="LFXHEG"> F  </i>
   <i type="int" name="NATURALO">     2</i>
   <i type="logical" name="L2ORDER"> F  </i>
   <i type="logical" name="LMP2LT"> F  </i>
   <i type="logical" name="LUSEW"> F  </i>
   <i name="ENCUTGW">     -2.00000000</i>
   <i name="ENCUTGWSOFT">     -2.00000000</i>
   <i name="ENCUTLF">     -1.00000000</i>
   <i type="int" name="LMAXMP2">    -1</i>
   <i name="SCISSOR">      0.00000000</i>
   <i type="int" name="NOMEGA">     0</i>
   <i type="int" name="NOMEGAR">     0</i>
   <i type="int" name="NBANDSGW">    -1</i>
   <i type="int" name="NBANDSO">    -1</i>
   <i type="int" name="NBANDSV">    -1</i>
   <i type="int" name="NELM">    50</i>
   <i type="int" name="NELMHF">     1</i>
   <i type="int" name="DIM">     3</i>
   <i type="int" name="ANTIRES">     0</i>
   <i name="OMEGAMAX">    -30.00000000</i>
   <i name="OMEGAMIN">    -30.00000000</i>
   <i name="OMEGATL">   -200.00000000</i>
   <i type="int" name="OMEGAGRID">   140</i>
   <i name="CSHIFT">     -0.10000000</i>
   <i type="logical" name="SELFENERGY"> F  </i>
   <i type="logical" name="LSPECTRAL"> F  </i>
   <i type="logical" name="LSPECTRALGW"> F  </i>
   <i type="logical" name="LSINGLES"> F  </i>
   <i type="logical" name="LFERMIGW"> F  </i>
   <i type="logical" name="ODDONLYGW"> F  </i>
   <i type="logical" name="EVENONLYGW"> F  </i>
   <i type="int" name="NKREDLFX">     1</i>
   <i type="int" name="NKREDLFY">     1</i>
   <i type="int" name="NKREDLFZ">     1</i>
   <i type="int" name="MAXMEM">  2800</i>
   <i type="int" name="TELESCOPE">     0</i>
   <i type="int" name="TAUPAR">     1</i>
   <i type="int" name="OMEGAPAR">    -1</i>
   <i name="LAMBDA">      1.00000000</i>
  </separator>
  <separator name="External order field" >
   <i name="OFIELD_KAPPA">      0.00000000</i>
   <v name="OFIELD_K">      0.00000000      0.00000000      0.00000000</v>
   <i name="OFIELD_Q6_NEAR">      0.00000000</i>
   <i name="OFIELD_Q6_FAR">      0.00000000</i>
   <i name="OFIELD_A">      0.00000000</i>
  </separator>
 </parameters>
 <atominfo>
  <atoms>       1 </atoms>
  <types>       1 </types>
  <array name="atoms" >
   <dimension dim="1">ion</dimension>
   <field type="string">element</field>
   <field type="int">atomtype</field>
   <set>
    <rc><c>Cn</c><c>   1</c></rc>
   </set>
  </array>
  <array name="atomtypes" >
   <dimension dim="1">type</dimension>
   <field type="int">atomspertype</field>
   <field type="string">element</field>
   <field>mass</field>
   <field>valence</field>
   <field type="string">pseudopotential</field>
   <set>
    <rc><c>   1</c><c>Cn</c><c>      0.01000000</c><c>     12.00000000</c><c>  Cn-PAW, fit to 4c-PBE, JanMewes Oct18 </c></rc>
   </set>
  </array>
 </atominfo>
 <structure name="initialpos" >
  <crystal>
   <varray name="basis" >
    <v>       3.24210280       0.00000000       0.00000000 </v>
    <v>      -1.08068920       3.05668799       0.00000000 </v>
    <v>      -1.08068920      -1.52831910       2.64718382 </v>
   </varray>
   <i name="volume">     26.23384760 </i>
   <varray name="rec_basis" >
    <v>       0.30844179       0.10904931       0.18887689 </v>
    <v>       0.00000000       0.32715148       0.18887689 </v>
    <v>       0.00000000       0.00000000       0.37775994 </v>
   </varray>
  </crystal>
  <varray name="positions" >
   <v>       0.00000000       0.00000000       0.00000000 </v>
  </varray>
  <varray name="velocities" >
   <v>       0.00000000       0.00000000       0.00000000 </v>
  </varray>
 </structure>
 <calculation>
  <scstep>
   <time name="dav">   16.36   16.35</time>
   <time name="total">   16.48   16.47</time>
   <energy>
    <i name="alphaZ">     85.78503292 </i>
    <i name="ewald">  -1007.86219743 </i>
    <i name="hartreedc">   -142.37628399 </i>
    <i name="XCdc">   -103.27375838 </i>
    <i name="pawpsdc">    952.54425205 </i>
    <i name="pawaedc">   -953.46044117 </i>
    <i name="eentropy">     -0.00162766 </i>
    <i name="bandstr">     24.39590112 </i>
    <i name="atom">   1021.70593014 </i>
    <i name="e_fr_energy">   -122.54319239 </i>
    <i name="e_wo_entrp">   -122.54156473 </i>
    <i name="e_0_energy">   -122.54237856 </i>
   </energy>
  </scstep>
  <scstep>
   <time name="dav">   12.96   12.96</time>
   <time name="total">   12.97   12.96</time>
   <energy>
    <i name="e_fr_energy">   -133.88989258 </i>
    <i name="e_wo_entrp">   -133.88902089 </i>
    <i name="e_0_energy">   -133.88945673 </i>
   </energy>
  </scstep>
  <scstep>
   <time name="dav">   14.30   14.29</time>
   <time name="total">   14.31   14.30</time>
   <energy>
    <i name="e_fr_energy">   -134.19029293 </i>
    <i name="e_wo_entrp">   -134.18970821 </i>
    <i name="e_0_energy">   -134.19000057 </i>
   </energy>
  </scstep>
  <scstep>
   <time name="dav">   13.29   13.28</time>
   <time name="total">   13.30   13.29</time>
   <energy>
    <i name="e_fr_energy">   -134.19635490 </i>
    <i name="e_wo_entrp">   -134.19577162 </i>
    <i name="e_0_energy">   -134.19606326 </i>
   </energy>
  </scstep>
  <scstep>
   <time name="dav">   14.92   14.91</time>
   <time name="total">   17.99   17.98</time>
   <energy>
    <i name="e_fr_energy">   -134.19658945 </i>
    <i name="e_wo_entrp">   -134.19600615 </i>
    <i name="e_0_energy">   -134.19629780 </i>
   </energy>
  </scstep>
  <scstep>
   <time name="dav">   12.63   12.62</time>
   <time name="total">   15.78   15.77</time>
   <energy>
    <i name="e_fr_energy">   -132.48422764 </i>
    <i name="e_wo_entrp">   -132.48420074 </i>
    <i name="e_0_energy">   -132.48421419 </i>
   </energy>
  </scstep>
  <scstep>
   <time name="dav">   15.11   15.11</time>
   <time name="total">   18.27   18.26</time>
   <energy>
    <i name="e_fr_energy">   -132.68492077 </i>
    <i name="e_wo_entrp">   -132.68491892 </i>
    <i name="e_0_energy">   -132.68491985 </i>
   </energy>
  </scstep>
  <scstep>
   <time name="dav">   12.28   12.27</time>
   <time name="total">   15.42   15.42</time>
   <energy>
    <i name="e_fr_energy">   -132.63625205 </i>
    <i name="e_wo_entrp">   -132.63573517 </i>
    <i name="e_0_energy">   -132.63599361 </i>
   </energy>
  </scstep>
  <scstep>
   <time name="dav">   13.27   13.26</time>
   <time name="total">   16.43   16.43</time>
   <energy>
    <i name="e_fr_energy">   -132.63868945 </i>
    <i name="e_wo_entrp">   -132.63818302 </i>
    <i name="e_0_energy">   -132.63843623 </i>
   </energy>
  </scstep>
  <scstep>
   <time name="dav">   14.71   14.70</time>
   <time name="total">   17.87   17.87</time>
   <energy>
    <i name="e_fr_energy">   -132.63848230 </i>
    <i name="e_wo_entrp">   -132.63797029 </i>
    <i name="e_0_energy">   -132.63822629 </i>
   </energy>
  </scstep>
  <scstep>
   <time name="dav">   12.37   12.36</time>
   <time name="total">   15.54   15.54</time>
   <energy>
    <i name="e_fr_energy">   -132.63373880 </i>
    <i name="e_wo_entrp">   -132.63323949 </i>
    <i name="e_0_energy">   -132.63348915 </i>
   </energy>
  </scstep>
  <scstep>
   <time name="dav">   13.03   13.02</time>
   <time name="total">   16.21   16.20</time>
   <energy>
    <i name="e_fr_energy">   -132.63372876 </i>
    <i name="e_wo_entrp">   -132.63323042 </i>
    <i name="e_0_energy">   -132.63347959 </i>
   </energy>
  </scstep>
  <scstep>
   <time name="dav">   14.64   14.63</time>
   <time name="total">   17.87   17.86</time>
   <energy>
    <i name="e_fr_energy">   -132.63372559 </i>
    <i name="e_wo_entrp">   -132.63322717 </i>
    <i name="e_0_energy">   -132.63347638 </i>
   </energy>
  </scstep>
  <scstep>
   <time name="dav">   12.88   12.87</time>
   <time name="total">   16.12   16.12</time>
   <energy>
    <i name="e_fr_energy">   -132.63371993 </i>
    <i name="e_wo_entrp">   -132.63322176 </i>
    <i name="e_0_energy">   -132.63347085 </i>
   </energy>
  </scstep>
  <scstep>
   <time name="dav">   15.01   15.00</time>
   <time name="total">   18.22   18.21</time>
   <energy>
    <i name="e_fr_energy">   -132.63371898 </i>
    <i name="e_wo_entrp">   -132.63322091 </i>
    <i name="e_0_energy">   -132.63346995 </i>
   </energy>
  </scstep>
  <scstep>
   <time name="dav">   12.85   12.84</time>
   <time name="total">   16.03   16.02</time>
   <energy>
    <i name="e_fr_energy">   -132.63371900 </i>
    <i name="e_wo_entrp">   -132.63322095 </i>
    <i name="e_0_energy">   -132.63346997 </i>
   </energy>
  </scstep>
  <scstep>
   <time name="dav">   13.38   13.38</time>
   <time name="total">   16.58   16.57</time>
   <energy>
    <i name="e_fr_energy">   -132.63371920 </i>
    <i name="e_wo_entrp">   -132.63322114 </i>
    <i name="e_0_energy">   -132.63347017 </i>
   </energy>
  </scstep>
  <scstep>
   <time name="dav">   12.75   12.74</time>
   <time name="total">   15.94   15.93</time>
   <energy>
    <i name="e_fr_energy">   -132.63371934 </i>
    <i name="e_wo_entrp">   -132.63322128 </i>
    <i name="e_0_energy">   -132.63347031 </i>
   </energy>
  </scstep>
  <scstep>
   <time name="dav">    9.89    9.88</time>
   <time name="total">   10.01   10.00</time>
   <energy>
    <i name="alphaZ">     85.78503292 </i>
    <i name="ewald">  -1007.86219743 </i>
    <i name="hartreedc">   -127.83410311 </i>
    <i name="XCdc">   -103.11146776 </i>
    <i name="pawpsdc">   1064.55620877 </i>
    <i name="pawaedc">  -1062.76427262 </i>
    <i name="eentropy">     -0.00049806 </i>
    <i name="bandstr">     -3.10835219 </i>
    <i name="atom">   1021.70593014 </i>
    <i name="e_fr_energy">   -132.63371934 </i>
    <i name="e_wo_entrp">   -132.63322128 </i>
    <i name="e_0_energy">   -132.63347031 </i>
   </energy>
  </scstep>
  <structure>
   <crystal>
    <varray name="basis" >
     <v>       3.24210280       0.00000000       0.00000000 </v>
     <v>      -1.08068920       3.05668799       0.00000000 </v>
     <v>      -1.08068920      -1.52831910       2.64718382 </v>
    </varray>
    <i name="volume">     26.23384760 </i>
    <varray name="rec_basis" >
     <v>       0.30844179       0.10904931       0.18887689 </v>
     <v>       0.00000000       0.32715148       0.18887689 </v>
     <v>       0.00000000       0.00000000       0.37775994 </v>
    </varray>
   </crystal>
   <varray name="positions" >
    <v>       0.00000000       0.00000000       0.00000000 </v>
   </varray>
  </structure>
  <varray name="forces" >
   <v>      -0.00000011       0.00000008      -0.00000005 </v>
  </varray>
  <varray name="stress" >
   <v>      19.39053658      -0.00014368      -0.00032642 </v>
   <v>      -0.00014355      19.39061944      -0.00058007 </v>
   <v>      -0.00032691      -0.00057985      19.39026957 </v>
  </varray>
  <energy>
   <i name="e_fr_energy">   -132.63371934 </i>
   <i name="e_wo_entrp">   -132.63347031 </i>
   <i name="e_0_energy">     -0.00049806 </i>
  </energy>
  <time name="totalsc">  360.07  360.01</time>
  <eigenvalues>
   <array>
    <dimension dim="1">band</dimension>
    <dimension dim="2">kpoint</dimension>
    <dimension dim="3">spin</dimension>
    <field>eigene</field>
    <field>occ</field>
    <set>
     <set comment="spin 1">
      <set comment="kpoint 1">
       <r>   -6.0083    1.0000 </r>
       <r>   -6.0083    1.0000 </r>
       <r>   -2.1177    1.0000 </r>
       <r>   -2.1177    1.0000 </r>
       <r>   -2.1177    1.0000 </r>
       <r>   -2.1177    1.0000 </r>
       <r>    0.5342    1.0000 </r>
       <r>    0.5342    1.0000 </r>
       <r>    1.4807    1.0000 </r>
       <r>    1.4807    1.0000 </r>
       <r>    1.4807    1.0000 </r>
       <r>    1.4807    1.0000 </r>
       <r>   13.8377    0.0000 </r>
       <r>   13.8377    0.0000 </r>
       <r>   18.8343    0.0000 </r>
       <r>   18.8343    0.0000 </r>
       <r>   18.8343    0.0000 </r>
       <r>   18.8343    0.0000 </r>
       <r>   18.8344    0.0000 </r>
       <r>   18.8344    0.0000 </r>
       <r>   23.2570    0.0000 </r>
       <r>   23.2570    0.0000 </r>
       <r>   23.2572    0.0000 </r>
       <r>   23.2572    0.0000 </r>
       <r>   24.2360    0.0000 </r>
       <r>   24.2360    0.0000 </r>
       <r>   25.1738    0.0000 </r>
       <r>   25.1738    0.0000 </r>
       <r>   25.1739    0.0000 </r>
       <r>   25.1739    0.0000 </r>
       <r>   28.7000    0.0000 </r>
       <r>   28.7000    0.0000 </r>
       <r>   28.7000    0.0000 </r>
       <r>   28.7000    0.0000 </r>
       <r>   30.0497    0.0000 </r>
       <r>   30.0497    0.0000 </r>
       <r>   35.5358    0.0000 </r>
       <r>   35.5358    0.0000 </r>
       <r>   37.5025    0.0000 </r>
       <r>   37.5025    0.0000 </r>
       <r>   37.5027    0.0000 </r>
       <r>   37.5027    0.0000 </r>
       <r>   43.3137    0.0000 </r>
       <r>   43.3137    0.0000 </r>
       <r>   44.1132    0.0000 </r>
       <r>   44.1132    0.0000 </r>
       <r>   49.1526    0.0000 </r>
       <r>   49.1526    0.0000 </r>
       <r>   49.1526    0.0000 </r>
       <r>   49.1526    0.0000 </r>
       <r>   53.5034    0.0000 </r>
       <r>   53.5034    0.0000 </r>
       <r>   53.5034    0.0000 </r>
       <r>   53.5034    0.0000 </r>
       <r>   53.5036    0.0000 </r>
       <r>   53.5036    0.0000 </r>
       <r>   56.0975    0.0000 </r>
       <r>   56.0975    0.0000 </r>
       <r>   57.0435    0.0000 </r>
       <r>   57.0435    0.0000 </r>
       <r>   57.0438    0.0000 </r>
       <r>   57.0438    0.0000 </r>
       <r>   58.5099    0.0000 </r>
       <r>   58.5099    0.0000 </r>
      </set>
      <set comment="kpoint 2">
       <r>   -5.2885    1.0000 </r>
       <r>   -5.2885    1.0000 </r>
       <r>   -2.1219    1.0000 </r>
       <r>   -2.1219    1.0000 </r>
       <r>   -2.0075    1.0000 </r>
       <r>   -2.0075    1.0000 </r>
       <r>    0.6939    1.0000 </r>
       <r>    0.6939    1.0000 </r>
       <r>    1.2821    1.0000 </r>
       <r>    1.2821    1.0000 </r>
       <r>    1.6047    1.0000 </r>
       <r>    1.6047    1.0000 </r>
       <r>   11.9768    0.0000 </r>
       <r>   11.9768    0.0000 </r>
       <r>   17.5594    0.0000 </r>
       <r>   17.5594    0.0000 </r>
       <r>   18.8178    0.0000 </r>
       <r>   18.8178    0.0000 </r>
       <r>   19.5114    0.0000 </r>
       <r>   19.5114    0.0000 </r>
       <r>   19.7616    0.0000 </r>
       <r>   19.7616    0.0000 </r>
       <r>   21.4041    0.0000 </r>
       <r>   21.4041    0.0000 </r>
       <r>   26.2108    0.0000 </r>
       <r>   26.2108    0.0000 </r>
       <r>   26.8168    0.0000 </r>
       <r>   26.8168    0.0000 </r>
       <r>   27.5610    0.0000 </r>
       <r>   27.5610    0.0000 </r>
       <r>   29.0323    0.0000 </r>
       <r>   29.0323    0.0000 </r>
       <r>   29.8084    0.0000 </r>
       <r>   29.8084    0.0000 </r>
       <r>   32.1956    0.0000 </r>
       <r>   32.1956    0.0000 </r>
       <r>   35.3454    0.0000 </r>
       <r>   35.3454    0.0000 </r>
       <r>   36.8108    0.0000 </r>
       <r>   36.8108    0.0000 </r>
       <r>   38.8166    0.0000 </r>
       <r>   38.8166    0.0000 </r>
       <r>   44.9348    0.0000 </r>
       <r>   44.9348    0.0000 </r>
       <r>   45.1674    0.0000 </r>
       <r>   45.1674    0.0000 </r>
       <r>   46.1179    0.0000 </r>
       <r>   46.1179    0.0000 </r>
       <r>   47.5647    0.0000 </r>
       <r>   47.5647    0.0000 </r>
       <r>   48.4363    0.0000 </r>
       <r>   48.4363    0.0000 </r>
       <r>   51.1435    0.0000 </r>
       <r>   51.1435    0.0000 </r>
       <r>   52.7528    0.0000 </r>
       <r>   52.7528    0.0000 </r>
       <r>   54.0930    0.0000 </r>
       <r>   54.0930    0.0000 </r>
       <r>   56.7106    0.0000 </r>
       <r>   56.7106    0.0000 </r>
       <r>   56.8316    0.0000 </r>
       <r>   56.8316    0.0000 </r>
       <r>   57.5545    0.0000 </r>
       <r>   57.5545    0.0000 </r>
      </set>
      <set comment="kpoint 3">
       <r>   -3.7370    1.0000 </r>
       <r>   -3.7370    1.0000 </r>
       <r>   -2.1934    1.0000 </r>
       <r>   -2.1934    1.0000 </r>
       <r>   -1.4295    1.0000 </r>
       <r>   -1.4295    1.0000 </r>
       <r>    0.9042    1.0000 </r>
       <r>    0.9042    1.0000 </r>
       <r>    1.4178    1.0000 </r>
       <r>    1.4178    1.0000 </r>
       <r>    2.0615    1.0000 </r>
       <r>    2.0615    1.0000 </r>
       <r>    7.4762    0.0000 </r>
       <r>    7.4762    0.0000 </r>
       <r>   13.9787    0.0000 </r>
       <r>   13.9787    0.0000 </r>
       <r>   16.6699    0.0000 </r>
       <r>   16.6699    0.0000 </r>
       <r>   19.8982    0.0000 </r>
       <r>   19.8982    0.0000 </r>
       <r>   21.6559    0.0000 </r>
       <r>   21.6559    0.0000 </r>
       <r>   22.9184    0.0000 </r>
       <r>   22.9184    0.0000 </r>
       <r>   24.4060    0.0000 </r>
       <r>   24.4060    0.0000 </r>
       <r>   29.0342    0.0000 </r>
       <r>   29.0342    0.0000 </r>
       <r>   29.8139    0.0000 </r>
       <r>   29.8139    0.0000 </r>
       <r>   31.1460    0.0000 </r>
       <r>   31.1460    0.0000 </r>
       <r>   31.9143    0.0000 </r>
       <r>   31.9143    0.0000 </r>
       <r>   33.5164    0.0000 </r>
       <r>   33.5164    0.0000 </r>
       <r>   35.3173    0.0000 </r>
       <r>   35.3173    0.0000 </r>
       <r>   39.2556    0.0000 </r>
       <r>   39.2556    0.0000 </r>
       <r>   40.6950    0.0000 </r>
       <r>   40.6950    0.0000 </r>
       <r>   41.5704    0.0000 </r>
       <r>   41.5704    0.0000 </r>
       <r>   42.1629    0.0000 </r>
       <r>   42.1629    0.0000 </r>
       <r>   43.2975    0.0000 </r>
       <r>   43.2975    0.0000 </r>
       <r>   44.3473    0.0000 </r>
       <r>   44.3473    0.0000 </r>
       <r>   50.1291    0.0000 </r>
       <r>   50.1291    0.0000 </r>
       <r>   50.6046    0.0000 </r>
       <r>   50.6046    0.0000 </r>
       <r>   52.7858    0.0000 </r>
       <r>   52.7858    0.0000 </r>
       <r>   53.2550    0.0000 </r>
       <r>   53.2550    0.0000 </r>
       <r>   56.5739    0.0000 </r>
       <r>   56.5739    0.0000 </r>
       <r>   56.8290    0.0000 </r>
       <r>   56.8290    0.0000 </r>
       <r>   57.8166    0.0000 </r>
       <r>   57.8166    0.0000 </r>
      </set>
      <set comment="kpoint 4">
       <r>   -3.2400    1.0000 </r>
       <r>   -3.2400    1.0000 </r>
       <r>   -2.2580    1.0000 </r>
       <r>   -2.2580    1.0000 </r>
       <r>   -0.1624    1.0000 </r>
       <r>   -0.1624    1.0000 </r>
       <r>    0.8404    1.0000 </r>
       <r>    0.8404    1.0000 </r>
       <r>    2.5160    1.0000 </r>
       <r>    2.5160    1.0000 </r>
       <r>    2.9953    1.0000 </r>
       <r>    2.9953    1.0000 </r>
       <r>    3.2843    0.1644 </r>
       <r>    3.2843    0.1644 </r>
       <r>   12.5257    0.0000 </r>
       <r>   12.5257    0.0000 </r>
       <r>   15.4620    0.0000 </r>
       <r>   15.4620    0.0000 </r>
       <r>   20.3607    0.0000 </r>
       <r>   20.3607    0.0000 </r>
       <r>   22.7390    0.0000 </r>
       <r>   22.7390    0.0000 </r>
       <r>   23.0846    0.0000 </r>
       <r>   23.0846    0.0000 </r>
       <r>   25.3142    0.0000 </r>
       <r>   25.3142    0.0000 </r>
       <r>   29.9254    0.0000 </r>
       <r>   29.9254    0.0000 </r>
       <r>   30.7860    0.0000 </r>
       <r>   30.7860    0.0000 </r>
       <r>   30.7968    0.0000 </r>
       <r>   30.7968    0.0000 </r>
       <r>   33.3069    0.0000 </r>
       <r>   33.3069    0.0000 </r>
       <r>   33.3807    0.0000 </r>
       <r>   33.3807    0.0000 </r>
       <r>   36.3836    0.0000 </r>
       <r>   36.3836    0.0000 </r>
       <r>   38.1378    0.0000 </r>
       <r>   38.1378    0.0000 </r>
       <r>   40.0862    0.0000 </r>
       <r>   40.0862    0.0000 </r>
       <r>   40.8906    0.0000 </r>
       <r>   40.8906    0.0000 </r>
       <r>   42.2531    0.0000 </r>
       <r>   42.2531    0.0000 </r>
       <r>   43.0606    0.0000 </r>
       <r>   43.0606    0.0000 </r>
       <r>   43.7916    0.0000 </r>
       <r>   43.7916    0.0000 </r>
       <r>   47.7858    0.0000 </r>
       <r>   47.7858    0.0000 </r>
       <r>   52.5563    0.0000 </r>
       <r>   52.5563    0.0000 </r>
       <r>   52.9657    0.0000 </r>
       <r>   52.9657    0.0000 </r>
       <r>   53.8073    0.0000 </r>
       <r>   53.8073    0.0000 </r>
       <r>   55.2317    0.0000 </r>
       <r>   55.2317    0.0000 </r>
       <r>   55.4129    0.0000 </r>
       <r>   55.4129    0.0000 </r>
       <r>   57.1030    0.0000 </r>
       <r>   57.1030    0.0000 </r>
      </set>
      <set comment="kpoint 5">
       <r>   -3.7370    1.0000 </r>
       <r>   -3.7370    1.0000 </r>
       <r>   -2.1934    1.0000 </r>
       <r>   -2.1934    1.0000 </r>
       <r>   -1.4295    1.0000 </r>
       <r>   -1.4295    1.0000 </r>
       <r>    0.9042    1.0000 </r>
       <r>    0.9042    1.0000 </r>
       <r>    1.4178    1.0000 </r>
       <r>    1.4178    1.0000 </r>
       <r>    2.0615    1.0000 </r>
       <r>    2.0615    1.0000 </r>
       <r>    7.4762    0.0000 </r>
       <r>    7.4762    0.0000 </r>
       <r>   13.9787    0.0000 </r>
       <r>   13.9787    0.0000 </r>
       <r>   16.6699    0.0000 </r>
       <r>   16.6699    0.0000 </r>
       <r>   19.8982    0.0000 </r>
       <r>   19.8982    0.0000 </r>
       <r>   21.6559    0.0000 </r>
       <r>   21.6559    0.0000 </r>
       <r>   22.9184    0.0000 </r>
       <r>   22.9184    0.0000 </r>
       <r>   24.4060    0.0000 </r>
       <r>   24.4060    0.0000 </r>
       <r>   29.0342    0.0000 </r>
       <r>   29.0342    0.0000 </r>
       <r>   29.8139    0.0000 </r>
       <r>   29.8139    0.0000 </r>
       <r>   31.1460    0.0000 </r>
       <r>   31.1460    0.0000 </r>
       <r>   31.9143    0.0000 </r>
       <r>   31.9143    0.0000 </r>
       <r>   33.5164    0.0000 </r>
       <r>   33.5164    0.0000 </r>
       <r>   35.3173    0.0000 </r>
       <r>   35.3173    0.0000 </r>
       <r>   39.2556    0.0000 </r>
       <r>   39.2556    0.0000 </r>
       <r>   40.6950    0.0000 </r>
       <r>   40.6950    0.0000 </r>
       <r>   41.5704    0.0000 </r>
       <r>   41.5704    0.0000 </r>
       <r>   42.1629    0.0000 </r>
       <r>   42.1629    0.0000 </r>
       <r>   43.2975    0.0000 </r>
       <r>   43.2975    0.0000 </r>
       <r>   44.3473    0.0000 </r>
       <r>   44.3473    0.0000 </r>
       <r>   50.1291    0.0000 </r>
       <r>   50.1291    0.0000 </r>
       <r>   50.6046    0.0000 </r>
       <r>   50.6046    0.0000 </r>
       <r>   52.7858    0.0000 </r>
       <r>   52.7858    0.0000 </r>
       <r>   53.2550    0.0000 </r>
       <r>   53.2550    0.0000 </r>
       <r>   56.5739    0.0000 </r>
       <r>   56.5739    0.0000 </r>
       <r>   56.8290    0.0000 </r>
       <r>   56.8290    0.0000 </r>
       <r>   57.8166    0.0000 </r>
       <r>   57.8166    0.0000 </r>
      </set>
      <set comment="kpoint 6">
       <r>   -5.2885    1.0000 </r>
       <r>   -5.2885    1.0000 </r>
       <r>   -2.1219    1.0000 </r>
       <r>   -2.1219    1.0000 </r>
       <r>   -2.0075    1.0000 </r>
       <r>   -2.0075    1.0000 </r>
       <r>    0.6939    1.0000 </r>
       <r>    0.6939    1.0000 </r>
       <r>    1.2821    1.0000 </r>
       <r>    1.2821    1.0000 </r>
       <r>    1.6047    1.0000 </r>
       <r>    1.6047    1.0000 </r>
       <r>   11.9768    0.0000 </r>
       <r>   11.9768    0.0000 </r>
       <r>   17.5594    0.0000 </r>
       <r>   17.5594    0.0000 </r>
       <r>   18.8178    0.0000 </r>
       <r>   18.8178    0.0000 </r>
       <r>   19.5114    0.0000 </r>
       <r>   19.5114    0.0000 </r>
       <r>   19.7616    0.0000 </r>
       <r>   19.7616    0.0000 </r>
       <r>   21.4041    0.0000 </r>
       <r>   21.4041    0.0000 </r>
       <r>   26.2108    0.0000 </r>
       <r>   26.2108    0.0000 </r>
       <r>   26.8168    0.0000 </r>
       <r>   26.8168    0.0000 </r>
       <r>   27.5610    0.0000 </r>
       <r>   27.5610    0.0000 </r>
       <r>   29.0323    0.0000 </r>
       <r>   29.0323    0.0000 </r>
       <r>   29.8084    0.0000 </r>
       <r>   29.8084    0.0000 </r>
       <r>   32.1956    0.0000 </r>
       <r>   32.1956    0.0000 </r>
       <r>   35.3454    0.0000 </r>
       <r>   35.3454    0.0000 </r>
       <r>   36.8108    0.0000 </r>
       <r>   36.8108    0.0000 </r>
       <r>   38.8166    0.0000 </r>
       <r>   38.8166    0.0000 </r>
       <r>   44.9348    0.0000 </r>
       <r>   44.9348    0.0000 </r>
       <r>   45.1674    0.0000 </r>
       <r>   45.1674    0.0000 </r>
       <r>   46.1179    0.0000 </r>
       <r>   46.1179    0.0000 </r>
       <r>   47.5647    0.0000 </r>
       <r>   47.5647    0.0000 </r>
       <r>   48.4363    0.0000 </r>
       <r>   48.4363    0.0000 </r>
       <r>   51.1435    0.0000 </r>
       <r>   51.1435    0.0000 </r>
       <r>   52.7528    0.0000 </r>
       <r>   52.7528    0.0000 </r>
       <r>   54.0930    0.0000 </r>
       <r>   54.0930    0.0000 </r>
       <r>   56.7106    0.0000 </r>
       <r>   56.7106    0.0000 </r>
       <r>   56.8316    0.0000 </r>
       <r>   56.8316    0.0000 </r>
       <r>   57.5545    0.0000 </r>
       <r>   57.5545    0.0000 </r>
      </set>
      <set comment="kpoint 7">
       <r>   -5.2885    1.0000 </r>
       <r>   -5.2885    1.0000 </r>
       <r>   -2.1219    1.0000 </r>
       <r>   -2.1219    1.0000 </r>
       <r>   -2.0075    1.0000 </r>
       <r>   -2.0075    1.0000 </r>
       <r>    0.6939    1.0000 </r>
       <r>    0.6939    1.0000 </r>
       <r>    1.2821    1.0000 </r>
       <r>    1.2821    1.0000 </r>
       <r>    1.6047    1.0000 </r>
       <r>    1.6047    1.0000 </r>
       <r>   11.9768    0.0000 </r>
       <r>   11.9768    0.0000 </r>
       <r>   17.5594    0.0000 </r>
       <r>   17.5594    0.0000 </r>
       <r>   18.8178    0.0000 </r>
       <r>   18.8178    0.0000 </r>
       <r>   19.5114    0.0000 </r>
       <r>   19.5114    0.0000 </r>
       <r>   19.7616    0.0000 </r>
       <r>   19.7616    0.0000 </r>
       <r>   21.4041    0.0000 </r>
       <r>   21.4041    0.0000 </r>
       <r>   26.2108    0.0000 </r>
       <r>   26.2108    0.0000 </r>
       <r>   26.8168    0.0000 </r>
       <r>   26.8168    0.0000 </r>
       <r>   27.5610    0.0000 </r>
       <r>   27.5610    0.0000 </r>
       <r>   29.0323    0.0000 </r>
       <r>   29.0323    0.0000 </r>
       <r>   29.8084    0.0000 </r>
       <r>   29.8084    0.0000 </r>
       <r>   32.1956    0.0000 </r>
       <r>   32.1956    0.0000 </r>
       <r>   35.3454    0.0000 </r>
       <r>   35.3454    0.0000 </r>
       <r>   36.8108    0.0000 </r>
       <r>   36.8108    0.0000 </r>
       <r>   38.8166    0.0000 </r>
       <r>   38.8166    0.0000 </r>
       <r>   44.9348    0.0000 </r>
       <r>   44.9348    0.0000 </r>
       <r>   45.1674    0.0000 </r>
       <r>   45.1674    0.0000 </r>
       <r>   46.1179    0.0000 </r>
       <r>   46.1179    0.0000 </r>
       <r>   47.5647    0.0000 </r>
       <r>   47.5647    0.0000 </r>
       <r>   48.4363    0.0000 </r>
       <r>   48.4363    0.0000 </r>
       <r>   51.1435    0.0000 </r>
       <r>   51.1435    0.0000 </r>
       <r>   52.7528    0.0000 </r>
       <r>   52.7528    0.0000 </r>
       <r>   54.0930    0.0000 </r>
       <r>   54.0930    0.0000 </r>
       <r>   56.7106    0.0000 </r>
       <r>   56.7106    0.0000 </r>
       <r>   56.8316    0.0000 </r>
       <r>   56.8316    0.0000 </r>
       <r>   57.5545    0.0000 </r>
       <r>   57.5545    0.0000 </r>
      </set>
      <set comment="kpoint 8">
       <r>   -4.0448    1.0000 </r>
       <r>   -4.0448    1.0000 </r>
       <r>   -2.1137    1.0000 </r>
       <r>   -2.1137    1.0000 </r>
       <r>   -1.8623    1.0000 </r>
       <r>   -1.8623    1.0000 </r>
       <r>    0.9740    1.0000 </r>
       <r>    0.9740    1.0000 </r>
       <r>    1.1341    1.0000 </r>
       <r>    1.1341    1.0000 </r>
       <r>    1.9630    1.0000 </r>
       <r>    1.9630    1.0000 </r>
       <r>    9.1054    0.0000 </r>
       <r>    9.1054    0.0000 </r>
       <r>   14.2251    0.0000 </r>
       <r>   14.2251    0.0000 </r>
       <r>   16.8829    0.0000 </r>
       <r>   16.8829    0.0000 </r>
       <r>   19.9936    0.0000 </r>
       <r>   19.9936    0.0000 </r>
       <r>   21.3169    0.0000 </r>
       <r>   21.3169    0.0000 </r>
       <r>   23.0812    0.0000 </r>
       <r>   23.0812    0.0000 </r>
       <r>   26.0296    0.0000 </r>
       <r>   26.0296    0.0000 </r>
       <r>   26.6641    0.0000 </r>
       <r>   26.6641    0.0000 </r>
       <r>   27.7537    0.0000 </r>
       <r>   27.7537    0.0000 </r>
       <r>   30.4331    0.0000 </r>
       <r>   30.4331    0.0000 </r>
       <r>   33.0590    0.0000 </r>
       <r>   33.0590    0.0000 </r>
       <r>   34.2497    0.0000 </r>
       <r>   34.2497    0.0000 </r>
       <r>   35.6091    0.0000 </r>
       <r>   35.6091    0.0000 </r>
       <r>   37.9075    0.0000 </r>
       <r>   37.9075    0.0000 </r>
       <r>   40.1844    0.0000 </r>
       <r>   40.1844    0.0000 </r>
       <r>   41.4014    0.0000 </r>
       <r>   41.4014    0.0000 </r>
       <r>   42.1484    0.0000 </r>
       <r>   42.1484    0.0000 </r>
       <r>   45.3389    0.0000 </r>
       <r>   45.3389    0.0000 </r>
       <r>   47.0598    0.0000 </r>
       <r>   47.0598    0.0000 </r>
       <r>   48.7723    0.0000 </r>
       <r>   48.7723    0.0000 </r>
       <r>   51.5898    0.0000 </r>
       <r>   51.5898    0.0000 </r>
       <r>   51.7903    0.0000 </r>
       <r>   51.7903    0.0000 </r>
       <r>   53.1269    0.0000 </r>
       <r>   53.1269    0.0000 </r>
       <r>   54.9571    0.0000 </r>
       <r>   54.9571    0.0000 </r>
       <r>   57.0435    0.0000 </r>
       <r>   57.0435    0.0000 </r>
       <r>   57.8047    0.0000 </r>
       <r>   57.8047    0.0000 </r>
      </set>
      <set comment="kpoint 9">
       <r>   -2.9337    1.0000 </r>
       <r>   -2.9337    1.0000 </r>
       <r>   -2.1443    1.0000 </r>
       <r>   -2.1443    1.0000 </r>
       <r>   -0.8219    1.0000 </r>
       <r>   -0.8219    1.0000 </r>
       <r>    0.8341    1.0000 </r>
       <r>    0.8341    1.0000 </r>
       <r>    1.5201    1.0000 </r>
       <r>    1.5201    1.0000 </r>
       <r>    2.6708    1.0000 </r>
       <r>    2.6708    1.0000 </r>
       <r>    5.6022    0.0000 </r>
       <r>    5.6022    0.0000 </r>
       <r>   11.4604    0.0000 </r>
       <r>   11.4604    0.0000 </r>
       <r>   15.2917    0.0000 </r>
       <r>   15.2917    0.0000 </r>
       <r>   20.9496    0.0000 </r>
       <r>   20.9496    0.0000 </r>
       <r>   22.3215    0.0000 </r>
       <r>   22.3215    0.0000 </r>
       <r>   23.5230    0.0000 </r>
       <r>   23.5230    0.0000 </r>
       <r>   26.0018    0.0000 </r>
       <r>   26.0018    0.0000 </r>
       <r>   28.0192    0.0000 </r>
       <r>   28.0192    0.0000 </r>
       <r>   30.4611    0.0000 </r>
       <r>   30.4611    0.0000 </r>
       <r>   31.7388    0.0000 </r>
       <r>   31.7388    0.0000 </r>
       <r>   33.4338    0.0000 </r>
       <r>   33.4338    0.0000 </r>
       <r>   34.6250    0.0000 </r>
       <r>   34.6250    0.0000 </r>
       <r>   35.3151    0.0000 </r>
       <r>   35.3151    0.0000 </r>
       <r>   37.2014    0.0000 </r>
       <r>   37.2014    0.0000 </r>
       <r>   39.5983    0.0000 </r>
       <r>   39.5983    0.0000 </r>
       <r>   41.2034    0.0000 </r>
       <r>   41.2034    0.0000 </r>
       <r>   43.1816    0.0000 </r>
       <r>   43.1816    0.0000 </r>
       <r>   44.5892    0.0000 </r>
       <r>   44.5892    0.0000 </r>
       <r>   46.4537    0.0000 </r>
       <r>   46.4537    0.0000 </r>
       <r>   47.7313    0.0000 </r>
       <r>   47.7313    0.0000 </r>
       <r>   49.5325    0.0000 </r>
       <r>   49.5325    0.0000 </r>
       <r>   50.6521    0.0000 </r>
       <r>   50.6521    0.0000 </r>
       <r>   53.1662    0.0000 </r>
       <r>   53.1662    0.0000 </r>
       <r>   54.4197    0.0000 </r>
       <r>   54.4197    0.0000 </r>
       <r>   56.9436    0.0000 </r>
       <r>   56.9436    0.0000 </r>
       <r>   57.3425    0.0000 </r>
       <r>   57.3425    0.0000 </r>
      </set>
      <set comment="kpoint 10">
       <r>   -2.9337    1.0000 </r>
       <r>   -2.9337    1.0000 </r>
       <r>   -2.1443    1.0000 </r>
       <r>   -2.1443    1.0000 </r>
       <r>   -0.8218    1.0000 </r>
       <r>   -0.8218    1.0000 </r>
       <r>    0.8341    1.0000 </r>
       <r>    0.8341    1.0000 </r>
       <r>    1.5201    1.0000 </r>
       <r>    1.5201    1.0000 </r>
       <r>    2.6709    1.0000 </r>
       <r>    2.6709    1.0000 </r>
       <r>    5.6021    0.0000 </r>
       <r>    5.6021    0.0000 </r>
       <r>   11.4604    0.0000 </r>
       <r>   11.4604    0.0000 </r>
       <r>   15.2917    0.0000 </r>
       <r>   15.2917    0.0000 </r>
       <r>   20.9496    0.0000 </r>
       <r>   20.9496    0.0000 </r>
       <r>   22.3215    0.0000 </r>
       <r>   22.3215    0.0000 </r>
       <r>   23.5230    0.0000 </r>
       <r>   23.5230    0.0000 </r>
       <r>   26.0017    0.0000 </r>
       <r>   26.0017    0.0000 </r>
       <r>   28.0190    0.0000 </r>
       <r>   28.0190    0.0000 </r>
       <r>   30.4609    0.0000 </r>
       <r>   30.4609    0.0000 </r>
       <r>   31.7391    0.0000 </r>
       <r>   31.7391    0.0000 </r>
       <r>   33.4337    0.0000 </r>
       <r>   33.4337    0.0000 </r>
       <r>   34.6252    0.0000 </r>
       <r>   34.6252    0.0000 </r>
       <r>   35.3152    0.0000 </r>
       <r>   35.3152    0.0000 </r>
       <r>   37.2015    0.0000 </r>
       <r>   37.2015    0.0000 </r>
       <r>   39.5983    0.0000 </r>
       <r>   39.5983    0.0000 </r>
       <r>   41.2034    0.0000 </r>
       <r>   41.2034    0.0000 </r>
       <r>   43.1815    0.0000 </r>
       <r>   43.1815    0.0000 </r>
       <r>   44.5894    0.0000 </r>
       <r>   44.5894    0.0000 </r>
       <r>   46.4535    0.0000 </r>
       <r>   46.4535    0.0000 </r>
       <r>   47.7312    0.0000 </r>
       <r>   47.7312    0.0000 </r>
       <r>   49.5323    0.0000 </r>
       <r>   49.5323    0.0000 </r>
       <r>   50.6521    0.0000 </r>
       <r>   50.6521    0.0000 </r>
       <r>   53.1662    0.0000 </r>
       <r>   53.1662    0.0000 </r>
       <r>   54.4195    0.0000 </r>
       <r>   54.4195    0.0000 </r>
       <r>   56.9436    0.0000 </r>
       <r>   56.9436    0.0000 </r>
       <r>   57.3426    0.0000 </r>
       <r>   57.3426    0.0000 </r>
      </set>
      <set comment="kpoint 11">
       <r>   -4.0448    1.0000 </r>
       <r>   -4.0448    1.0000 </r>
       <r>   -2.1137    1.0000 </r>
       <r>   -2.1137    1.0000 </r>
       <r>   -1.8623    1.0000 </r>
       <r>   -1.8623    1.0000 </r>
       <r>    0.9740    1.0000 </r>
       <r>    0.9740    1.0000 </r>
       <r>    1.1341    1.0000 </r>
       <r>    1.1341    1.0000 </r>
       <r>    1.9630    1.0000 </r>
       <r>    1.9630    1.0000 </r>
       <r>    9.1054    0.0000 </r>
       <r>    9.1054    0.0000 </r>
       <r>   14.2251    0.0000 </r>
       <r>   14.2251    0.0000 </r>
       <r>   16.8830    0.0000 </r>
       <r>   16.8830    0.0000 </r>
       <r>   19.9936    0.0000 </r>
       <r>   19.9936    0.0000 </r>
       <r>   21.3168    0.0000 </r>
       <r>   21.3168    0.0000 </r>
       <r>   23.0811    0.0000 </r>
       <r>   23.0811    0.0000 </r>
       <r>   26.0293    0.0000 </r>
       <r>   26.0293    0.0000 </r>
       <r>   26.6640    0.0000 </r>
       <r>   26.6640    0.0000 </r>
       <r>   27.7536    0.0000 </r>
       <r>   27.7536    0.0000 </r>
       <r>   30.4334    0.0000 </r>
       <r>   30.4334    0.0000 </r>
       <r>   33.0592    0.0000 </r>
       <r>   33.0592    0.0000 </r>
       <r>   34.2498    0.0000 </r>
       <r>   34.2498    0.0000 </r>
       <r>   35.6091    0.0000 </r>
       <r>   35.6091    0.0000 </r>
       <r>   37.9076    0.0000 </r>
       <r>   37.9076    0.0000 </r>
       <r>   40.1842    0.0000 </r>
       <r>   40.1842    0.0000 </r>
       <r>   41.4018    0.0000 </r>
       <r>   41.4018    0.0000 </r>
       <r>   42.1487    0.0000 </r>
       <r>   42.1487    0.0000 </r>
       <r>   45.3389    0.0000 </r>
       <r>   45.3389    0.0000 </r>
       <r>   47.0595    0.0000 </r>
       <r>   47.0595    0.0000 </r>
       <r>   48.7722    0.0000 </r>
       <r>   48.7722    0.0000 </r>
       <r>   51.5897    0.0000 </r>
       <r>   51.5897    0.0000 </r>
       <r>   51.7901    0.0000 </r>
       <r>   51.7901    0.0000 </r>
       <r>   53.1272    0.0000 </r>
       <r>   53.1272    0.0000 </r>
       <r>   54.9570    0.0000 </r>
       <r>   54.9570    0.0000 </r>
       <r>   57.0435    0.0000 </r>
       <r>   57.0435    0.0000 </r>
       <r>   57.8046    0.0000 </r>
       <r>   57.8050    0.0000 </r>
      </set>
      <set comment="kpoint 12">
       <r>   -5.2885    1.0000 </r>
       <r>   -5.2885    1.0000 </r>
       <r>   -2.1219    1.0000 </r>
       <r>   -2.1219    1.0000 </r>
       <r>   -2.0075    1.0000 </r>
       <r>   -2.0075    1.0000 </r>
       <r>    0.6939    1.0000 </r>
       <r>    0.6939    1.0000 </r>
       <r>    1.2821    1.0000 </r>
       <r>    1.2821    1.0000 </r>
       <r>    1.6046    1.0000 </r>
       <r>    1.6046    1.0000 </r>
       <r>   11.9769    0.0000 </r>
       <r>   11.9769    0.0000 </r>
       <r>   17.5595    0.0000 </r>
       <r>   17.5595    0.0000 </r>
       <r>   18.8177    0.0000 </r>
       <r>   18.8177    0.0000 </r>
       <r>   19.5113    0.0000 </r>
       <r>   19.5113    0.0000 </r>
       <r>   19.7616    0.0000 </r>
       <r>   19.7616    0.0000 </r>
       <r>   21.4039    0.0000 </r>
       <r>   21.4039    0.0000 </r>
       <r>   26.2106    0.0000 </r>
       <r>   26.2106    0.0000 </r>
       <r>   26.8168    0.0000 </r>
       <r>   26.8168    0.0000 </r>
       <r>   27.5611    0.0000 </r>
       <r>   27.5611    0.0000 </r>
       <r>   29.0322    0.0000 </r>
       <r>   29.0322    0.0000 </r>
       <r>   29.8084    0.0000 </r>
       <r>   29.8084    0.0000 </r>
       <r>   32.1958    0.0000 </r>
       <r>   32.1958    0.0000 </r>
       <r>   35.3454    0.0000 </r>
       <r>   35.3454    0.0000 </r>
       <r>   36.8107    0.0000 </r>
       <r>   36.8107    0.0000 </r>
       <r>   38.8166    0.0000 </r>
       <r>   38.8166    0.0000 </r>
       <r>   44.9349    0.0000 </r>
       <r>   44.9349    0.0000 </r>
       <r>   45.1677    0.0000 </r>
       <r>   45.1677    0.0000 </r>
       <r>   46.1180    0.0000 </r>
       <r>   46.1180    0.0000 </r>
       <r>   47.5649    0.0000 </r>
       <r>   47.5649    0.0000 </r>
       <r>   48.4367    0.0000 </r>
       <r>   48.4367    0.0000 </r>
       <r>   51.1436    0.0000 </r>
       <r>   51.1436    0.0000 </r>
       <r>   52.7526    0.0000 </r>
       <r>   52.7526    0.0000 </r>
       <r>   54.0930    0.0000 </r>
       <r>   54.0930    0.0000 </r>
       <r>   56.7104    0.0000 </r>
       <r>   56.7104    0.0000 </r>
       <r>   56.8311    0.0000 </r>
       <r>   56.8311    0.0000 </r>
       <r>   57.5542    0.0000 </r>
       <r>   57.5542    0.0000 </r>
      </set>
      <set comment="kpoint 13">
       <r>   -3.7370    1.0000 </r>
       <r>   -3.7370    1.0000 </r>
       <r>   -2.1934    1.0000 </r>
       <r>   -2.1934    1.0000 </r>
       <r>   -1.4295    1.0000 </r>
       <r>   -1.4295    1.0000 </r>
       <r>    0.9042    1.0000 </r>
       <r>    0.9042    1.0000 </r>
       <r>    1.4178    1.0000 </r>
       <r>    1.4178    1.0000 </r>
       <r>    2.0615    1.0000 </r>
       <r>    2.0615    1.0000 </r>
       <r>    7.4762    0.0000 </r>
       <r>    7.4762    0.0000 </r>
       <r>   13.9787    0.0000 </r>
       <r>   13.9787    0.0000 </r>
       <r>   16.6699    0.0000 </r>
       <r>   16.6699    0.0000 </r>
       <r>   19.8982    0.0000 </r>
       <r>   19.8982    0.0000 </r>
       <r>   21.6559    0.0000 </r>
       <r>   21.6559    0.0000 </r>
       <r>   22.9184    0.0000 </r>
       <r>   22.9184    0.0000 </r>
       <r>   24.4060    0.0000 </r>
       <r>   24.4060    0.0000 </r>
       <r>   29.0342    0.0000 </r>
       <r>   29.0342    0.0000 </r>
       <r>   29.8139    0.0000 </r>
       <r>   29.8139    0.0000 </r>
       <r>   31.1460    0.0000 </r>
       <r>   31.1460    0.0000 </r>
       <r>   31.9143    0.0000 </r>
       <r>   31.9143    0.0000 </r>
       <r>   33.5164    0.0000 </r>
       <r>   33.5164    0.0000 </r>
       <r>   35.3173    0.0000 </r>
       <r>   35.3173    0.0000 </r>
       <r>   39.2556    0.0000 </r>
       <r>   39.2556    0.0000 </r>
       <r>   40.6950    0.0000 </r>
       <r>   40.6950    0.0000 </r>
       <r>   41.5704    0.0000 </r>
       <r>   41.5704    0.0000 </r>
       <r>   42.1629    0.0000 </r>
       <r>   42.1629    0.0000 </r>
       <r>   43.2975    0.0000 </r>
       <r>   43.2975    0.0000 </r>
       <r>   44.3473    0.0000 </r>
       <r>   44.3473    0.0000 </r>
       <r>   50.1291    0.0000 </r>
       <r>   50.1291    0.0000 </r>
       <r>   50.6046    0.0000 </r>
       <r>   50.6046    0.0000 </r>
       <r>   52.7858    0.0000 </r>
       <r>   52.7858    0.0000 </r>
       <r>   53.2550    0.0000 </r>
       <r>   53.2550    0.0000 </r>
       <r>   56.5739    0.0000 </r>
       <r>   56.5739    0.0000 </r>
       <r>   56.8290    0.0000 </r>
       <r>   56.8290    0.0000 </r>
       <r>   57.8166    0.0000 </r>
       <r>   57.8166    0.0000 </r>
      </set>
      <set comment="kpoint 14">
       <r>   -2.9337    1.0000 </r>
       <r>   -2.9337    1.0000 </r>
       <r>   -2.1443    1.0000 </r>
       <r>   -2.1443    1.0000 </r>
       <r>   -0.8219    1.0000 </r>
       <r>   -0.8219    1.0000 </r>
       <r>    0.8341    1.0000 </r>
       <r>    0.8341    1.0000 </r>
       <r>    1.5201    1.0000 </r>
       <r>    1.5201    1.0000 </r>
       <r>    2.6708    1.0000 </r>
       <r>    2.6708    1.0000 </r>
       <r>    5.6022    0.0000 </r>
       <r>    5.6022    0.0000 </r>
       <r>   11.4604    0.0000 </r>
       <r>   11.4604    0.0000 </r>
       <r>   15.2917    0.0000 </r>
       <r>   15.2917    0.0000 </r>
       <r>   20.9496    0.0000 </r>
       <r>   20.9496    0.0000 </r>
       <r>   22.3215    0.0000 </r>
       <r>   22.3215    0.0000 </r>
       <r>   23.5230    0.0000 </r>
       <r>   23.5230    0.0000 </r>
       <r>   26.0018    0.0000 </r>
       <r>   26.0018    0.0000 </r>
       <r>   28.0192    0.0000 </r>
       <r>   28.0192    0.0000 </r>
       <r>   30.4611    0.0000 </r>
       <r>   30.4611    0.0000 </r>
       <r>   31.7388    0.0000 </r>
       <r>   31.7388    0.0000 </r>
       <r>   33.4338    0.0000 </r>
       <r>   33.4338    0.0000 </r>
       <r>   34.6250    0.0000 </r>
       <r>   34.6250    0.0000 </r>
       <r>   35.3151    0.0000 </r>
       <r>   35.3151    0.0000 </r>
       <r>   37.2014    0.0000 </r>
       <r>   37.2014    0.0000 </r>
       <r>   39.5983    0.0000 </r>
       <r>   39.5983    0.0000 </r>
       <r>   41.2034    0.0000 </r>
       <r>   41.2034    0.0000 </r>
       <r>   43.1816    0.0000 </r>
       <r>   43.1816    0.0000 </r>
       <r>   44.5892    0.0000 </r>
       <r>   44.5892    0.0000 </r>
       <r>   46.4537    0.0000 </r>
       <r>   46.4537    0.0000 </r>
       <r>   47.7313    0.0000 </r>
       <r>   47.7313    0.0000 </r>
       <r>   49.5325    0.0000 </r>
       <r>   49.5325    0.0000 </r>
       <r>   50.6521    0.0000 </r>
       <r>   50.6521    0.0000 </r>
       <r>   53.1662    0.0000 </r>
       <r>   53.1662    0.0000 </r>
       <r>   54.4197    0.0000 </r>
       <r>   54.4197    0.0000 </r>
       <r>   56.9436    0.0000 </r>
       <r>   56.9436    0.0000 </r>
       <r>   57.3425    0.0000 </r>
       <r>   57.3425    0.0000 </r>
      </set>
      <set comment="kpoint 15">
       <r>   -2.5535    1.0000 </r>
       <r>   -2.5535    1.0000 </r>
       <r>   -1.9406    1.0000 </r>
       <r>   -1.9406    1.0000 </r>
       <r>   -0.0647    1.0000 </r>
       <r>   -0.0647    1.0000 </r>
       <r>    0.3229    1.0000 </r>
       <r>    0.3229    1.0000 </r>
       <r>    1.8248    1.0000 </r>
       <r>    1.8248    1.0000 </r>
       <r>    1.9082    1.0000 </r>
       <r>    1.9082    1.0000 </r>
       <r>    6.7110    0.0000 </r>
       <r>    6.7110    0.0000 </r>
       <r>    8.7087    0.0000 </r>
       <r>    8.7087    0.0000 </r>
       <r>   15.1484    0.0000 </r>
       <r>   15.1484    0.0000 </r>
       <r>   21.1980    0.0000 </r>
       <r>   21.1980    0.0000 </r>
       <r>   22.0229    0.0000 </r>
       <r>   22.0229    0.0000 </r>
       <r>   23.6240    0.0000 </r>
       <r>   23.6240    0.0000 </r>
       <r>   27.8652    0.0000 </r>
       <r>   27.8652    0.0000 </r>
       <r>   29.2460    0.0000 </r>
       <r>   29.2460    0.0000 </r>
       <r>   29.3832    0.0000 </r>
       <r>   29.3832    0.0000 </r>
       <r>   32.2872    0.0000 </r>
       <r>   32.2872    0.0000 </r>
       <r>   32.8519    0.0000 </r>
       <r>   32.8519    0.0000 </r>
       <r>   34.2749    0.0000 </r>
       <r>   34.2749    0.0000 </r>
       <r>   35.9092    0.0000 </r>
       <r>   35.9092    0.0000 </r>
       <r>   37.9954    0.0000 </r>
       <r>   37.9954    0.0000 </r>
       <r>   38.4397    0.0000 </r>
       <r>   38.4397    0.0000 </r>
       <r>   42.3268    0.0000 </r>
       <r>   42.3268    0.0000 </r>
       <r>   42.3564    0.0000 </r>
       <r>   42.3564    0.0000 </r>
       <r>   45.4111    0.0000 </r>
       <r>   45.4111    0.0000 </r>
       <r>   45.9134    0.0000 </r>
       <r>   45.9134    0.0000 </r>
       <r>   47.1981    0.0000 </r>
       <r>   47.1981    0.0000 </r>
       <r>   48.3103    0.0000 </r>
       <r>   48.3103    0.0000 </r>
       <r>   50.0320    0.0000 </r>
       <r>   50.0320    0.0000 </r>
       <r>   55.0164    0.0000 </r>
       <r>   55.0164    0.0000 </r>
       <r>   55.8957    0.0000 </r>
       <r>   55.8957    0.0000 </r>
       <r>   56.5407    0.0000 </r>
       <r>   56.5407    0.0000 </r>
       <r>   58.6985    0.0000 </r>
       <r>   58.7004    0.0000 </r>
      </set>
      <set comment="kpoint 16">
       <r>   -2.9337    1.0000 </r>
       <r>   -2.9337    1.0000 </r>
       <r>   -2.1443    1.0000 </r>
[...]
       <r>    41.5088     0.0000     0.0000 </r>
       <r>    41.7472     0.0000     0.0000 </r>
       <r>    41.9855     0.0000     0.0000 </r>
       <r>    42.2238     0.0000     0.0000 </r>
       <r>    42.4622     0.0000     0.0000 </r>
       <r>    42.7005     0.0000     0.0000 </r>
       <r>    42.9389     0.0000     0.0000 </r>
       <r>    43.1772     0.0000     0.0000 </r>
       <r>    43.4156     0.0000     0.0000 </r>
       <r>    43.6539     0.0000     0.0000 </r>
       <r>    43.8923     0.0000     0.0000 </r>
       <r>    44.1306     0.0000     0.0000 </r>
       <r>    44.3689     0.0000     0.0000 </r>
       <r>    44.6073     0.0000     0.0000 </r>
       <r>    44.8456     0.0000     0.0000 </r>
       <r>    45.0840     0.0000     0.0000 </r>
       <r>    45.3223     0.0000     0.0000 </r>
       <r>    45.5607     0.0000     0.0000 </r>
       <r>    45.7990     0.0000     0.0000 </r>
       <r>    46.0374     0.0000     0.0000 </r>
       <r>    46.2757     0.0000     0.0000 </r>
       <r>    46.5140     0.0000     0.0000 </r>
       <r>    46.7524     0.0000     0.0000 </r>
       <r>    46.9907     0.0000     0.0000 </r>
       <r>    47.2291     0.0000     0.0000 </r>
       <r>    47.4674     0.0000     0.0000 </r>
       <r>    47.7058     0.0000     0.0000 </r>
       <r>    47.9441     0.0000     0.0000 </r>
       <r>    48.1824     0.0000     0.0000 </r>
       <r>    48.4208     0.0000     0.0000 </r>
       <r>    48.6591     0.0000     0.0000 </r>
       <r>    48.8975     0.0000     0.0000 </r>
       <r>    49.1358     0.0000     0.0000 </r>
       <r>    49.3742     0.0000     0.0000 </r>
       <r>    49.6125     0.0000     0.0000 </r>
       <r>    49.8509     0.0000     0.0000 </r>
       <r>    50.0892     0.0000     0.0000 </r>
       <r>    50.3275     0.0000     0.0000 </r>
       <r>    50.5659     0.0000     0.0000 </r>
       <r>    50.8042     0.0000     0.0000 </r>
       <r>    51.0426     0.0000     0.0000 </r>
       <r>    51.2809     0.0000     0.0000 </r>
       <r>    51.5193     0.0000     0.0000 </r>
       <r>    51.7576     0.0000     0.0000 </r>
       <r>    51.9960     0.0000     0.0000 </r>
       <r>    52.2343     0.0000     0.0000 </r>
       <r>    52.4726     0.0000     0.0000 </r>
       <r>    52.7110     0.0000     0.0000 </r>
       <r>    52.9493     0.0000     0.0000 </r>
       <r>    53.1877     0.0000     0.0000 </r>
       <r>    53.4260     0.0000     0.0000 </r>
       <r>    53.6644     0.0000     0.0000 </r>
       <r>    53.9027     0.0000     0.0000 </r>
       <r>    54.1410     0.0000     0.0000 </r>
       <r>    54.3794     0.0000     0.0000 </r>
       <r>    54.6177     0.0000     0.0000 </r>
       <r>    54.8561     0.0000     0.0000 </r>
       <r>    55.0944     0.0000     0.0000 </r>
       <r>    55.3328     0.0000     0.0000 </r>
       <r>    55.5711     0.0000     0.0000 </r>
       <r>    55.8095     0.0000     0.0000 </r>
       <r>    56.0478     0.0000     0.0000 </r>
       <r>    56.2861     0.0000     0.0000 </r>
       <r>    56.5245     0.0000     0.0000 </r>
       <r>    56.7628     0.0000     0.0000 </r>
       <r>    57.0012     0.0000     0.0000 </r>
       <r>    57.2395     0.0000     0.0000 </r>
       <r>    57.4779     0.0000     0.0000 </r>
       <r>    57.7162     0.0000     0.0000 </r>
       <r>    57.9546     0.0000     0.0000 </r>
       <r>    58.1929     0.0000     0.0000 </r>
       <r>    58.4312     0.0000     0.0000 </r>
       <r>    58.6696     0.0000     0.0000 </r>
       <r>    58.9079     0.0000     0.0000 </r>
       <r>    59.1463     0.0000     0.0000 </r>
       <r>    59.3846     0.0000     0.0000 </r>
       <r>    59.6230     0.0000     0.0000 </r>
       <r>    59.8613     0.0000     0.0000 </r>
       <r>    60.0996     0.0000     0.0000 </r>
       <r>    60.3380     0.0000     0.0000 </r>
       <r>    60.5763     0.0000     0.0000 </r>
       <r>    60.8147     0.0000     0.0000 </r>
       <r>    61.0530     0.0000     0.0000 </r>
       <r>    61.2914     0.0000     0.0000 </r>
       <r>    61.5297     0.0000     0.0000 </r>
       <r>    61.7681     0.0000     0.0000 </r>
       <r>    62.0064     0.0000     0.0000 </r>
       <r>    62.2447     0.0000     0.0000 </r>
      </set>
      <set comment="spin 4">
       <r>    -9.2584     0.0000     0.0000 </r>
       <r>    -9.0201     0.0000     0.0000 </r>
       <r>    -8.7818     0.0000     0.0000 </r>
       <r>    -8.5434     0.0000     0.0000 </r>
       <r>    -8.3051     0.0000     0.0000 </r>
       <r>    -8.0667     0.0000     0.0000 </r>
       <r>    -7.8284     0.0000     0.0000 </r>
       <r>    -7.5900     0.0000     0.0000 </r>
       <r>    -7.3517     0.0000     0.0000 </r>
       <r>    -7.1134     0.0000     0.0000 </r>
       <r>    -6.8750     0.0000     0.0000 </r>
       <r>    -6.6367     0.0000     0.0000 </r>
       <r>    -6.3983     0.0000     0.0000 </r>
       <r>    -6.1600     0.0000     0.0000 </r>
       <r>    -5.9216     0.0000     0.0000 </r>
       <r>    -5.6833     0.0000     0.0000 </r>
       <r>    -5.4449     0.0000     0.0000 </r>
       <r>    -5.2066     0.0000     0.0000 </r>
       <r>    -4.9683     0.0000     0.0000 </r>
       <r>    -4.7299     0.0000     0.0000 </r>
       <r>    -4.4916     0.0000     0.0000 </r>
       <r>    -4.2532     0.0000     0.0000 </r>
       <r>    -4.0149     0.0000     0.0000 </r>
       <r>    -3.7765     0.0000     0.0000 </r>
       <r>    -3.5382     0.0000     0.0000 </r>
       <r>    -3.2998     0.0000     0.0000 </r>
       <r>    -3.0615     0.0000     0.0000 </r>
       <r>    -2.8232     0.0000     0.0000 </r>
       <r>    -2.5848     0.0000     0.0000 </r>
       <r>    -2.3465     0.0000     0.0000 </r>
       <r>    -2.1081     0.0000     0.0000 </r>
       <r>    -1.8698     0.0000     0.0000 </r>
       <r>    -1.6314     0.0000     0.0000 </r>
       <r>    -1.3931     0.0000     0.0000 </r>
       <r>    -1.1548     0.0000     0.0000 </r>
       <r>    -0.9164     0.0000     0.0000 </r>
       <r>    -0.6781     0.0000     0.0000 </r>
       <r>    -0.4397     0.0000     0.0000 </r>
       <r>    -0.2014     0.0000     0.0000 </r>
       <r>     0.0370     0.0000     0.0000 </r>
       <r>     0.2753     0.0000     0.0000 </r>
       <r>     0.5137     0.0000     0.0000 </r>
       <r>     0.7520     0.0000     0.0000 </r>
       <r>     0.9903     0.0000     0.0000 </r>
       <r>     1.2287     0.0000     0.0000 </r>
       <r>     1.4670     0.0000     0.0000 </r>
       <r>     1.7054     0.0000     0.0000 </r>
       <r>     1.9437     0.0000     0.0000 </r>
       <r>     2.1821     0.0000     0.0000 </r>
       <r>     2.4204     0.0000     0.0000 </r>
       <r>     2.6588     0.0000     0.0000 </r>
       <r>     2.8971     0.0000     0.0000 </r>
       <r>     3.1354     0.0000     0.0000 </r>
       <r>     3.3738     0.0000     0.0000 </r>
       <r>     3.6121     0.0000     0.0000 </r>
       <r>     3.8505     0.0000     0.0000 </r>
       <r>     4.0888     0.0000     0.0000 </r>
       <r>     4.3272     0.0000     0.0000 </r>
       <r>     4.5655     0.0000     0.0000 </r>
       <r>     4.8038     0.0000     0.0000 </r>
       <r>     5.0422     0.0000     0.0000 </r>
       <r>     5.2805     0.0000     0.0000 </r>
       <r>     5.5189     0.0000     0.0000 </r>
       <r>     5.7572     0.0000     0.0000 </r>
       <r>     5.9956     0.0000     0.0000 </r>
       <r>     6.2339     0.0000     0.0000 </r>
       <r>     6.4723     0.0000     0.0000 </r>
       <r>     6.7106     0.0000     0.0000 </r>
       <r>     6.9489     0.0000     0.0000 </r>
       <r>     7.1873     0.0000     0.0000 </r>
       <r>     7.4256     0.0000     0.0000 </r>
       <r>     7.6640     0.0000     0.0000 </r>
       <r>     7.9023     0.0000     0.0000 </r>
       <r>     8.1407     0.0000     0.0000 </r>
       <r>     8.3790     0.0000     0.0000 </r>
       <r>     8.6174     0.0000     0.0000 </r>
       <r>     8.8557     0.0000     0.0000 </r>
       <r>     9.0940     0.0000     0.0000 </r>
       <r>     9.3324     0.0000     0.0000 </r>
       <r>     9.5707     0.0000     0.0000 </r>
       <r>     9.8091     0.0000     0.0000 </r>
       <r>    10.0474     0.0000     0.0000 </r>
       <r>    10.2858     0.0000     0.0000 </r>
       <r>    10.5241     0.0000     0.0000 </r>
       <r>    10.7624     0.0000     0.0000 </r>
       <r>    11.0008     0.0000     0.0000 </r>
       <r>    11.2391     0.0000     0.0000 </r>
       <r>    11.4775     0.0000     0.0000 </r>
       <r>    11.7158     0.0000     0.0000 </r>
       <r>    11.9542     0.0000     0.0000 </r>
       <r>    12.1925     0.0000     0.0000 </r>
       <r>    12.4309     0.0000     0.0000 </r>
       <r>    12.6692     0.0000     0.0000 </r>
       <r>    12.9075     0.0000     0.0000 </r>
       <r>    13.1459     0.0000     0.0000 </r>
       <r>    13.3842     0.0000     0.0000 </r>
       <r>    13.6226     0.0000     0.0000 </r>
       <r>    13.8609     0.0000     0.0000 </r>
       <r>    14.0993     0.0000     0.0000 </r>
       <r>    14.3376     0.0000     0.0000 </r>
       <r>    14.5759     0.0000     0.0000 </r>
       <r>    14.8143     0.0000     0.0000 </r>
       <r>    15.0526     0.0000     0.0000 </r>
       <r>    15.2910     0.0000     0.0000 </r>
       <r>    15.5293     0.0000     0.0000 </r>
       <r>    15.7677     0.0000     0.0000 </r>
       <r>    16.0060     0.0000     0.0000 </r>
       <r>    16.2444     0.0000     0.0000 </r>
       <r>    16.4827     0.0000     0.0000 </r>
       <r>    16.7210     0.0000     0.0000 </r>
       <r>    16.9594     0.0000     0.0000 </r>
       <r>    17.1977     0.0000     0.0000 </r>
       <r>    17.4361     0.0000     0.0000 </r>
       <r>    17.6744     0.0000     0.0000 </r>
       <r>    17.9128     0.0000     0.0000 </r>
       <r>    18.1511     0.0000     0.0000 </r>
       <r>    18.3895     0.0000     0.0000 </r>
       <r>    18.6278     0.0000     0.0000 </r>
       <r>    18.8661     0.0000     0.0000 </r>
       <r>    19.1045     0.0000     0.0000 </r>
       <r>    19.3428     0.0000     0.0000 </r>
       <r>    19.5812     0.0000     0.0000 </r>
       <r>    19.8195     0.0000     0.0000 </r>
       <r>    20.0579     0.0000     0.0000 </r>
       <r>    20.2962     0.0000     0.0000 </r>
       <r>    20.5345     0.0000     0.0000 </r>
       <r>    20.7729     0.0000     0.0000 </r>
       <r>    21.0112     0.0000     0.0000 </r>
       <r>    21.2496     0.0000     0.0000 </r>
       <r>    21.4879     0.0000     0.0000 </r>
       <r>    21.7263     0.0000     0.0000 </r>
       <r>    21.9646     0.0000     0.0000 </r>
       <r>    22.2030     0.0000     0.0000 </r>
       <r>    22.4413     0.0000     0.0000 </r>
       <r>    22.6796     0.0000     0.0000 </r>
       <r>    22.9180     0.0000     0.0000 </r>
       <r>    23.1563     0.0000     0.0000 </r>
       <r>    23.3947     0.0000     0.0000 </r>
       <r>    23.6330     0.0000     0.0000 </r>
       <r>    23.8714     0.0000     0.0000 </r>
       <r>    24.1097     0.0000     0.0000 </r>
       <r>    24.3481     0.0000     0.0000 </r>
       <r>    24.5864     0.0000     0.0000 </r>
       <r>    24.8247     0.0000     0.0000 </r>
       <r>    25.0631     0.0000     0.0000 </r>
       <r>    25.3014     0.0000     0.0000 </r>
       <r>    25.5398     0.0000     0.0000 </r>
       <r>    25.7781     0.0000     0.0000 </r>
       <r>    26.0165     0.0000     0.0000 </r>
       <r>    26.2548     0.0000     0.0000 </r>
       <r>    26.4931     0.0000     0.0000 </r>
       <r>    26.7315     0.0000     0.0000 </r>
       <r>    26.9698     0.0000     0.0000 </r>
       <r>    27.2082     0.0000     0.0000 </r>
       <r>    27.4465     0.0000     0.0000 </r>
       <r>    27.6849     0.0000     0.0000 </r>
       <r>    27.9232     0.0000     0.0000 </r>
       <r>    28.1616     0.0000     0.0000 </r>
       <r>    28.3999     0.0000     0.0000 </r>
       <r>    28.6382     0.0000     0.0000 </r>
       <r>    28.8766     0.0000     0.0000 </r>
       <r>    29.1149     0.0000     0.0000 </r>
       <r>    29.3533     0.0000     0.0000 </r>
       <r>    29.5916     0.0000     0.0000 </r>
       <r>    29.8300     0.0000     0.0000 </r>
       <r>    30.0683     0.0000     0.0000 </r>
       <r>    30.3067     0.0000     0.0000 </r>
       <r>    30.5450     0.0000     0.0000 </r>
       <r>    30.7833     0.0000     0.0000 </r>
       <r>    31.0217     0.0000     0.0000 </r>
       <r>    31.2600     0.0000     0.0000 </r>
       <r>    31.4984     0.0000     0.0000 </r>
       <r>    31.7367     0.0000     0.0000 </r>
       <r>    31.9751     0.0000     0.0000 </r>
       <r>    32.2134     0.0000     0.0000 </r>
       <r>    32.4517     0.0000     0.0000 </r>
       <r>    32.6901     0.0000     0.0000 </r>
       <r>    32.9284     0.0000     0.0000 </r>
       <r>    33.1668     0.0000     0.0000 </r>
       <r>    33.4051     0.0000     0.0000 </r>
       <r>    33.6435     0.0000     0.0000 </r>
       <r>    33.8818     0.0000     0.0000 </r>
       <r>    34.1202     0.0000     0.0000 </r>
       <r>    34.3585     0.0000     0.0000 </r>
       <r>    34.5968     0.0000     0.0000 </r>
       <r>    34.8352     0.0000     0.0000 </r>
       <r>    35.0735     0.0000     0.0000 </r>
       <r>    35.3119     0.0000     0.0000 </r>
       <r>    35.5502     0.0000     0.0000 </r>
       <r>    35.7886     0.0000     0.0000 </r>
       <r>    36.0269     0.0000     0.0000 </r>
       <r>    36.2653     0.0000     0.0000 </r>
       <r>    36.5036     0.0000     0.0000 </r>
       <r>    36.7419     0.0000     0.0000 </r>
       <r>    36.9803     0.0000     0.0000 </r>
       <r>    37.2186     0.0000     0.0000 </r>
       <r>    37.4570     0.0000     0.0000 </r>
       <r>    37.6953     0.0000     0.0000 </r>
       <r>    37.9337     0.0000     0.0000 </r>
       <r>    38.1720     0.0000     0.0000 </r>
       <r>    38.4103     0.0000     0.0000 </r>
       <r>    38.6487     0.0000     0.0000 </r>
       <r>    38.8870     0.0000     0.0000 </r>
       <r>    39.1254     0.0000     0.0000 </r>
       <r>    39.3637     0.0000     0.0000 </r>
       <r>    39.6021     0.0000     0.0000 </r>
       <r>    39.8404     0.0000     0.0000 </r>
       <r>    40.0788     0.0000     0.0000 </r>
       <r>    40.3171     0.0000     0.0000 </r>
       <r>    40.5554     0.0000     0.0000 </r>
       <r>    40.7938     0.0000     0.0000 </r>
       <r>    41.0321     0.0000     0.0000 </r>
       <r>    41.2705     0.0000     0.0000 </r>
       <r>    41.5088     0.0000     0.0000 </r>
       <r>    41.7472     0.0000     0.0000 </r>
       <r>    41.9855     0.0000     0.0000 </r>
       <r>    42.2238     0.0000     0.0000 </r>
       <r>    42.4622     0.0000     0.0000 </r>
       <r>    42.7005     0.0000     0.0000 </r>
       <r>    42.9389     0.0000     0.0000 </r>
       <r>    43.1772     0.0000     0.0000 </r>
       <r>    43.4156     0.0000     0.0000 </r>
       <r>    43.6539     0.0000     0.0000 </r>
       <r>    43.8923     0.0000     0.0000 </r>
       <r>    44.1306     0.0000     0.0000 </r>
       <r>    44.3689     0.0000     0.0000 </r>
       <r>    44.6073     0.0000     0.0000 </r>
       <r>    44.8456     0.0000     0.0000 </r>
       <r>    45.0840     0.0000     0.0000 </r>
       <r>    45.3223     0.0000     0.0000 </r>
       <r>    45.5607     0.0000     0.0000 </r>
       <r>    45.7990     0.0000     0.0000 </r>
       <r>    46.0374     0.0000     0.0000 </r>
       <r>    46.2757     0.0000     0.0000 </r>
       <r>    46.5140     0.0000     0.0000 </r>
       <r>    46.7524     0.0000     0.0000 </r>
       <r>    46.9907     0.0000     0.0000 </r>
       <r>    47.2291     0.0000     0.0000 </r>
       <r>    47.4674     0.0000     0.0000 </r>
       <r>    47.7058     0.0000     0.0000 </r>
       <r>    47.9441     0.0000     0.0000 </r>
       <r>    48.1824     0.0000     0.0000 </r>
       <r>    48.4208     0.0000     0.0000 </r>
       <r>    48.6591     0.0000     0.0000 </r>
       <r>    48.8975     0.0000     0.0000 </r>
       <r>    49.1358     0.0000     0.0000 </r>
       <r>    49.3742     0.0000     0.0000 </r>
       <r>    49.6125     0.0000     0.0000 </r>
       <r>    49.8509     0.0000     0.0000 </r>
       <r>    50.0892     0.0000     0.0000 </r>
       <r>    50.3275     0.0000     0.0000 </r>
       <r>    50.5659     0.0000     0.0000 </r>
       <r>    50.8042     0.0000     0.0000 </r>
       <r>    51.0426     0.0000     0.0000 </r>
       <r>    51.2809     0.0000     0.0000 </r>
       <r>    51.5193     0.0000     0.0000 </r>
       <r>    51.7576     0.0000     0.0000 </r>
       <r>    51.9960     0.0000     0.0000 </r>
       <r>    52.2343     0.0000     0.0000 </r>
       <r>    52.4726     0.0000     0.0000 </r>
       <r>    52.7110     0.0000     0.0000 </r>
       <r>    52.9493     0.0000     0.0000 </r>
       <r>    53.1877     0.0000     0.0000 </r>
       <r>    53.4260     0.0000     0.0000 </r>
       <r>    53.6644     0.0000     0.0000 </r>
       <r>    53.9027     0.0000     0.0000 </r>
       <r>    54.1410     0.0000     0.0000 </r>
       <r>    54.3794     0.0000     0.0000 </r>
       <r>    54.6177     0.0000     0.0000 </r>
       <r>    54.8561     0.0000     0.0000 </r>
       <r>    55.0944     0.0000     0.0000 </r>
       <r>    55.3328     0.0000     0.0000 </r>
       <r>    55.5711     0.0000     0.0000 </r>
       <r>    55.8095     0.0000     0.0000 </r>
       <r>    56.0478     0.0000     0.0000 </r>
       <r>    56.2861     0.0000     0.0000 </r>
       <r>    56.5245     0.0000     0.0000 </r>
       <r>    56.7628     0.0000     0.0000 </r>
       <r>    57.0012     0.0000     0.0000 </r>
       <r>    57.2395     0.0000     0.0000 </r>
       <r>    57.4779     0.0000     0.0000 </r>
       <r>    57.7162     0.0000     0.0000 </r>
       <r>    57.9546     0.0000     0.0000 </r>
       <r>    58.1929     0.0000     0.0000 </r>
       <r>    58.4312     0.0000     0.0000 </r>
       <r>    58.6696     0.0000     0.0000 </r>
       <r>    58.9079     0.0000     0.0000 </r>
       <r>    59.1463     0.0000     0.0000 </r>
       <r>    59.3846     0.0000     0.0000 </r>
       <r>    59.6230     0.0000     0.0000 </r>
       <r>    59.8613     0.0000     0.0000 </r>
       <r>    60.0996     0.0000     0.0000 </r>
       <r>    60.3380     0.0000     0.0000 </r>
       <r>    60.5763     0.0000     0.0000 </r>
       <r>    60.8147     0.0000     0.0000 </r>
       <r>    61.0530     0.0000     0.0000 </r>
       <r>    61.2914     0.0000     0.0000 </r>
       <r>    61.5297     0.0000     0.0000 </r>
       <r>    61.7681     0.0000     0.0000 </r>
       <r>    62.0064     0.0000     0.0000 </r>
       <r>    62.2447     0.0000     0.0000 </r>
      </set>
     </set>
    </array>
   </total>
  </dos>
 </calculation>
 <structure name="finalpos" >
  <crystal>
   <varray name="basis" >
    <v>       3.24210280       0.00000000       0.00000000 </v>
    <v>      -1.08068920       3.05668799       0.00000000 </v>
    <v>      -1.08068920      -1.52831910       2.64718382 </v>
   </varray>
   <i name="volume">     26.23384760 </i>
   <varray name="rec_basis" >
    <v>       0.30844179       0.10904931       0.18887689 </v>
    <v>       0.00000000       0.32715148       0.18887689 </v>
    <v>       0.00000000       0.00000000       0.37775994 </v>
   </varray>
  </crystal>
  <varray name="positions" >
   <v>       0.00000000       0.00000000       0.00000000 </v>
  </varray>
  <varray name="velocities" >
   <v>       0.00000000       0.00000000       0.00000000 </v>
  </varray>
 </structure>
</modeling>
