       N       E                     dE             d eps       ncg     rms          rms(c)
DIA:   1     0.693827980354E+00    0.69383E+00    0.00000E+00     0   0.000E+00
DIA:   2     0.693827980354E+00    0.00000E+00    0.00000E+00     0   0.000E+00
DIA:   3     0.693827980346E+00   -0.79581E-11    0.00000E+00     0   0.000E+00
DIA:   4     0.693827980354E+00    0.79581E-11    0.00000E+00     0   0.000E+00
DIA:   5     0.693827980354E+00    0.34106E-12    0.00000E+00     0   0.000E+00    0.949E-06
DIA:   6     0.693827981691E+00    0.13368E-08    0.00000E+00     0   0.000E+00
   1 F= 0.69382798E+00 E0= 0.69382798E+00  d E =0.000000E+00  mag=    -0.0000    -0.0000     0.0000
 imaginary and real dielectric function
