<?xml version="1.0" encoding="ISO-8859-1"?>
<modeling>
 <generator>
  <i name="program" type="string">vasp </i>
  <i name="version" type="string">5.4.4.18Apr17-6-g9f103f2a35  </i>
  <i name="subversion" type="string">(build Jul 09 2018 16:43:14) complex            parallel </i>
  <i name="platform" type="string">LinuxIFC </i>
  <i name="date" type="string">2018 11 29 </i>
  <i name="time" type="string">20:43:28 </i>
 </generator>
 <incar>
  <i type="string" name="SYSTEM">   Og_FCC</i>
  <i type="string" name="PREC">accurate</i>
  <i type="string" name="ALGO">   EXACT</i>
  <i type="logical" name="ADDGRID"> T  </i>
  <i type="logical" name="LSORBIT"> T  </i>
  <i type="int" name="ISPIN">     1</i>
  <i type="int" name="MAXMIX">    50</i>
  <i type="int" name="NELM">    50</i>
  <i type="int" name="NELMDL">    -5</i>
  <i type="int" name="NELMIN">     2</i>
  <i type="int" name="IBRION">    -1</i>
  <i type="int" name="NFREE">     5</i>
  <i name="EDIFF">      0.00000001</i>
  <i name="EDIFFG">      0.00001000</i>
  <i type="int" name="NSW">     1</i>
  <i type="int" name="ISIF">     3</i>
  <i type="int" name="ISYM">     0</i>
  <i name="SYMPREC">      0.00000010</i>
  <i name="ENCUT">    300.00000000</i>
  <i type="int" name="NBANDS">   128</i>
  <i name="POTIM">      0.10000000</i>
  <i type="logical" name="LREAL"> F  </i>
  <i type="int" name="ISMEAR">     0</i>
  <i name="SIGMA">      0.00100000</i>
  <i type="int" name="NWRITE">     2</i>
  <i type="logical" name="LWAVE"> T  </i>
  <i type="logical" name="LCHARG"> F  </i>
  <i type="logical" name="LVTOT"> F  </i>
  <i type="logical" name="LOPTICS"> T  </i>
  <i type="logical" name="GGA_COMPAT"> F  </i>
  <v type="int" name="KPOINT_BSE">    -1     0     0     0</v>
  <i type="int" name="NELM">    50</i>
  <i type="string" name="METAGGA"> SCAN</i>
 </incar>
 <structure name="primitive_cell" >
  <crystal>
   <varray name="basis" >
    <v>       2.97422087       0.00000000       0.00000000 </v>
    <v>       1.48711043       2.57575083       0.00000000 </v>
    <v>       1.48711043       0.85858361       2.42844117 </v>
   </varray>
   <i name="volume">     18.60392805 </i>
   <varray name="rec_basis" >
    <v>       0.33622251      -0.19411816      -0.13726226 </v>
    <v>       0.00000000       0.38823631      -0.13726226 </v>
    <v>       0.00000000       0.00000000       0.41178679 </v>
   </varray>
  </crystal>
  <varray name="positions" >
   <v>       0.00000000       0.00000000       0.00000000 </v>
  </varray>
 </structure>
 <varray name="primitive_index" >
  <v type="int" >        1 </v>
 </varray>
 <kpoints>
  <generation param="Gamma">
   <v type="int" name="divisions">       6        6        6 </v>
   <v name="usershift">      0.00000000       0.00000000       0.00000000 </v>
   <v name="genvec1">      0.16666667       0.00000000      -0.00000000 </v>
   <v name="genvec2">      0.00000000       0.16666667       0.00000000 </v>
   <v name="genvec3">      0.00000000       0.00000000       0.16666667 </v>
   <v name="shift">      0.00000000       0.00000000       0.00000000 </v>
  </generation>
  <varray name="kpointlist" >
   <v>       0.00000000       0.00000000       0.00000000 </v>
   <v>       0.16666667       0.00000000       0.00000000 </v>
   <v>       0.33333333      -0.00000000       0.00000000 </v>
   <v>       0.50000000       0.00000000      -0.00000000 </v>
   <v>      -0.33333333       0.00000000       0.00000000 </v>
   <v>      -0.16666667       0.00000000      -0.00000000 </v>
   <v>       0.00000000       0.16666667       0.00000000 </v>
   <v>       0.16666667       0.16666667       0.00000000 </v>
   <v>       0.33333333       0.16666667       0.00000000 </v>
   <v>       0.50000000       0.16666667       0.00000000 </v>
   <v>      -0.33333333       0.16666667      -0.00000000 </v>
   <v>      -0.16666667       0.16666667      -0.00000000 </v>
   <v>       0.00000000       0.33333333       0.00000000 </v>
   <v>       0.16666667       0.33333333       0.00000000 </v>
   <v>       0.33333333       0.33333333       0.00000000 </v>
   <v>       0.50000000       0.33333333       0.00000000 </v>
   <v>      -0.33333333       0.33333333      -0.00000000 </v>
   <v>      -0.16666667       0.33333333       0.00000000 </v>
   <v>       0.00000000       0.50000000       0.00000000 </v>
   <v>       0.16666667       0.50000000       0.00000000 </v>
   <v>       0.33333333       0.50000000       0.00000000 </v>
   <v>       0.50000000       0.50000000       0.00000000 </v>
   <v>      -0.33333333       0.50000000       0.00000000 </v>
   <v>      -0.16666667       0.50000000       0.00000000 </v>
   <v>       0.00000000      -0.33333333      -0.00000000 </v>
   <v>       0.16666667      -0.33333333      -0.00000000 </v>
   <v>       0.33333333      -0.33333333       0.00000000 </v>
   <v>       0.50000000      -0.33333333       0.00000000 </v>
   <v>      -0.33333333      -0.33333333      -0.00000000 </v>
   <v>      -0.16666667      -0.33333333      -0.00000000 </v>
   <v>       0.00000000      -0.16666667      -0.00000000 </v>
   <v>       0.16666667      -0.16666667       0.00000000 </v>
   <v>       0.33333333      -0.16666667       0.00000000 </v>
   <v>       0.50000000      -0.16666667       0.00000000 </v>
   <v>      -0.33333333      -0.16666667      -0.00000000 </v>
   <v>      -0.16666667      -0.16666667      -0.00000000 </v>
   <v>       0.00000000       0.00000000       0.16666667 </v>
   <v>       0.16666667       0.00000000       0.16666667 </v>
   <v>       0.33333333      -0.00000000       0.16666667 </v>
   <v>       0.50000000       0.00000000       0.16666667 </v>
   <v>      -0.33333333       0.00000000       0.16666667 </v>
   <v>      -0.16666667       0.00000000       0.16666667 </v>
   <v>       0.00000000       0.16666667       0.16666667 </v>
   <v>       0.16666667       0.16666667       0.16666667 </v>
   <v>       0.33333333       0.16666667       0.16666667 </v>
   <v>       0.50000000       0.16666667       0.16666667 </v>
   <v>      -0.33333333       0.16666667       0.16666667 </v>
   <v>      -0.16666667       0.16666667       0.16666667 </v>
   <v>       0.00000000       0.33333333       0.16666667 </v>
   <v>       0.16666667       0.33333333       0.16666667 </v>
   <v>       0.33333333       0.33333333       0.16666667 </v>
   <v>       0.50000000       0.33333333       0.16666667 </v>
   <v>      -0.33333333       0.33333333       0.16666667 </v>
   <v>      -0.16666667       0.33333333       0.16666667 </v>
   <v>       0.00000000       0.50000000       0.16666667 </v>
   <v>       0.16666667       0.50000000       0.16666667 </v>
   <v>       0.33333333       0.50000000       0.16666667 </v>
   <v>       0.50000000       0.50000000       0.16666667 </v>
   <v>      -0.33333333       0.50000000       0.16666667 </v>
   <v>      -0.16666667       0.50000000       0.16666667 </v>
   <v>       0.00000000      -0.33333333       0.16666667 </v>
   <v>       0.16666667      -0.33333333       0.16666667 </v>
   <v>       0.33333333      -0.33333333       0.16666667 </v>
   <v>       0.50000000      -0.33333333       0.16666667 </v>
   <v>      -0.33333333      -0.33333333       0.16666667 </v>
   <v>      -0.16666667      -0.33333333       0.16666667 </v>
   <v>       0.00000000      -0.16666667       0.16666667 </v>
   <v>       0.16666667      -0.16666667       0.16666667 </v>
   <v>       0.33333333      -0.16666667       0.16666667 </v>
   <v>       0.50000000      -0.16666667       0.16666667 </v>
   <v>      -0.33333333      -0.16666667       0.16666667 </v>
   <v>      -0.16666667      -0.16666667       0.16666667 </v>
   <v>       0.00000000       0.00000000       0.33333333 </v>
   <v>       0.16666667       0.00000000       0.33333333 </v>
   <v>       0.33333333      -0.00000000       0.33333333 </v>
   <v>       0.50000000       0.00000000       0.33333333 </v>
   <v>      -0.33333333       0.00000000       0.33333333 </v>
   <v>      -0.16666667       0.00000000       0.33333333 </v>
   <v>       0.00000000       0.16666667       0.33333333 </v>
   <v>       0.16666667       0.16666667       0.33333333 </v>
   <v>       0.33333333       0.16666667       0.33333333 </v>
   <v>       0.50000000       0.16666667       0.33333333 </v>
   <v>      -0.33333333       0.16666667       0.33333333 </v>
   <v>      -0.16666667       0.16666667       0.33333333 </v>
   <v>       0.00000000       0.33333333       0.33333333 </v>
   <v>       0.16666667       0.33333333       0.33333333 </v>
   <v>       0.33333333       0.33333333       0.33333333 </v>
   <v>       0.50000000       0.33333333       0.33333333 </v>
   <v>      -0.33333333       0.33333333       0.33333333 </v>
   <v>      -0.16666667       0.33333333       0.33333333 </v>
   <v>       0.00000000       0.50000000       0.33333333 </v>
   <v>       0.16666667       0.50000000       0.33333333 </v>
   <v>       0.33333333       0.50000000       0.33333333 </v>
   <v>       0.50000000       0.50000000       0.33333333 </v>
   <v>      -0.33333333       0.50000000       0.33333333 </v>
   <v>      -0.16666667       0.50000000       0.33333333 </v>
   <v>       0.00000000      -0.33333333       0.33333333 </v>
   <v>       0.16666667      -0.33333333       0.33333333 </v>
   <v>       0.33333333      -0.33333333       0.33333333 </v>
   <v>       0.50000000      -0.33333333       0.33333333 </v>
   <v>      -0.33333333      -0.33333333       0.33333333 </v>
   <v>      -0.16666667      -0.33333333       0.33333333 </v>
   <v>       0.00000000      -0.16666667       0.33333333 </v>
   <v>       0.16666667      -0.16666667       0.33333333 </v>
   <v>       0.33333333      -0.16666667       0.33333333 </v>
   <v>       0.50000000      -0.16666667       0.33333333 </v>
   <v>      -0.33333333      -0.16666667       0.33333333 </v>
   <v>      -0.16666667      -0.16666667       0.33333333 </v>
   <v>       0.00000000       0.00000000       0.50000000 </v>
   <v>       0.16666667       0.00000000       0.50000000 </v>
   <v>       0.33333333      -0.00000000       0.50000000 </v>
   <v>       0.50000000       0.00000000       0.50000000 </v>
   <v>      -0.33333333       0.00000000       0.50000000 </v>
   <v>      -0.16666667       0.00000000       0.50000000 </v>
   <v>       0.00000000       0.16666667       0.50000000 </v>
   <v>       0.16666667       0.16666667       0.50000000 </v>
   <v>       0.33333333       0.16666667       0.50000000 </v>
   <v>       0.50000000       0.16666667       0.50000000 </v>
   <v>      -0.33333333       0.16666667       0.50000000 </v>
   <v>      -0.16666667       0.16666667       0.50000000 </v>
   <v>       0.00000000       0.33333333       0.50000000 </v>
   <v>       0.16666667       0.33333333       0.50000000 </v>
   <v>       0.33333333       0.33333333       0.50000000 </v>
   <v>       0.50000000       0.33333333       0.50000000 </v>
   <v>      -0.33333333       0.33333333       0.50000000 </v>
   <v>      -0.16666667       0.33333333       0.50000000 </v>
   <v>       0.00000000       0.50000000       0.50000000 </v>
   <v>       0.16666667       0.50000000       0.50000000 </v>
   <v>       0.33333333       0.50000000       0.50000000 </v>
   <v>       0.50000000       0.50000000       0.50000000 </v>
   <v>      -0.33333333       0.50000000       0.50000000 </v>
   <v>      -0.16666667       0.50000000       0.50000000 </v>
   <v>       0.00000000      -0.33333333       0.50000000 </v>
   <v>       0.16666667      -0.33333333       0.50000000 </v>
   <v>       0.33333333      -0.33333333       0.50000000 </v>
   <v>       0.50000000      -0.33333333       0.50000000 </v>
   <v>      -0.33333333      -0.33333333       0.50000000 </v>
   <v>      -0.16666667      -0.33333333       0.50000000 </v>
   <v>       0.00000000      -0.16666667       0.50000000 </v>
   <v>       0.16666667      -0.16666667       0.50000000 </v>
   <v>       0.33333333      -0.16666667       0.50000000 </v>
   <v>       0.50000000      -0.16666667       0.50000000 </v>
   <v>      -0.33333333      -0.16666667       0.50000000 </v>
   <v>      -0.16666667      -0.16666667       0.50000000 </v>
   <v>       0.00000000       0.00000000      -0.33333333 </v>
   <v>       0.16666667       0.00000000      -0.33333333 </v>
   <v>       0.33333333      -0.00000000      -0.33333333 </v>
   <v>       0.50000000       0.00000000      -0.33333333 </v>
   <v>      -0.33333333       0.00000000      -0.33333333 </v>
   <v>      -0.16666667       0.00000000      -0.33333333 </v>
   <v>       0.00000000       0.16666667      -0.33333333 </v>
   <v>       0.16666667       0.16666667      -0.33333333 </v>
   <v>       0.33333333       0.16666667      -0.33333333 </v>
   <v>       0.50000000       0.16666667      -0.33333333 </v>
   <v>      -0.33333333       0.16666667      -0.33333333 </v>
   <v>      -0.16666667       0.16666667      -0.33333333 </v>
   <v>       0.00000000       0.33333333      -0.33333333 </v>
   <v>       0.16666667       0.33333333      -0.33333333 </v>
   <v>       0.33333333       0.33333333      -0.33333333 </v>
   <v>       0.50000000       0.33333333      -0.33333333 </v>
   <v>      -0.33333333       0.33333333      -0.33333333 </v>
   <v>      -0.16666667       0.33333333      -0.33333333 </v>
   <v>       0.00000000       0.50000000      -0.33333333 </v>
   <v>       0.16666667       0.50000000      -0.33333333 </v>
   <v>       0.33333333       0.50000000      -0.33333333 </v>
   <v>       0.50000000       0.50000000      -0.33333333 </v>
   <v>      -0.33333333       0.50000000      -0.33333333 </v>
   <v>      -0.16666667       0.50000000      -0.33333333 </v>
   <v>       0.00000000      -0.33333333      -0.33333333 </v>
   <v>       0.16666667      -0.33333333      -0.33333333 </v>
   <v>       0.33333333      -0.33333333      -0.33333333 </v>
   <v>       0.50000000      -0.33333333      -0.33333333 </v>
   <v>      -0.33333333      -0.33333333      -0.33333333 </v>
   <v>      -0.16666667      -0.33333333      -0.33333333 </v>
   <v>       0.00000000      -0.16666667      -0.33333333 </v>
   <v>       0.16666667      -0.16666667      -0.33333333 </v>
   <v>       0.33333333      -0.16666667      -0.33333333 </v>
   <v>       0.50000000      -0.16666667      -0.33333333 </v>
   <v>      -0.33333333      -0.16666667      -0.33333333 </v>
   <v>      -0.16666667      -0.16666667      -0.33333333 </v>
   <v>       0.00000000       0.00000000      -0.16666667 </v>
   <v>       0.16666667       0.00000000      -0.16666667 </v>
   <v>       0.33333333      -0.00000000      -0.16666667 </v>
   <v>       0.50000000       0.00000000      -0.16666667 </v>
   <v>      -0.33333333       0.00000000      -0.16666667 </v>
   <v>      -0.16666667       0.00000000      -0.16666667 </v>
   <v>       0.00000000       0.16666667      -0.16666667 </v>
   <v>       0.16666667       0.16666667      -0.16666667 </v>
   <v>       0.33333333       0.16666667      -0.16666667 </v>
   <v>       0.50000000       0.16666667      -0.16666667 </v>
   <v>      -0.33333333       0.16666667      -0.16666667 </v>
   <v>      -0.16666667       0.16666667      -0.16666667 </v>
   <v>       0.00000000       0.33333333      -0.16666667 </v>
   <v>       0.16666667       0.33333333      -0.16666667 </v>
   <v>       0.33333333       0.33333333      -0.16666667 </v>
   <v>       0.50000000       0.33333333      -0.16666667 </v>
   <v>      -0.33333333       0.33333333      -0.16666667 </v>
   <v>      -0.16666667       0.33333333      -0.16666667 </v>
   <v>       0.00000000       0.50000000      -0.16666667 </v>
   <v>       0.16666667       0.50000000      -0.16666667 </v>
   <v>       0.33333333       0.50000000      -0.16666667 </v>
   <v>       0.50000000       0.50000000      -0.16666667 </v>
   <v>      -0.33333333       0.50000000      -0.16666667 </v>
   <v>      -0.16666667       0.50000000      -0.16666667 </v>
   <v>       0.00000000      -0.33333333      -0.16666667 </v>
   <v>       0.16666667      -0.33333333      -0.16666667 </v>
   <v>       0.33333333      -0.33333333      -0.16666667 </v>
   <v>       0.50000000      -0.33333333      -0.16666667 </v>
   <v>      -0.33333333      -0.33333333      -0.16666667 </v>
   <v>      -0.16666667      -0.33333333      -0.16666667 </v>
   <v>       0.00000000      -0.16666667      -0.16666667 </v>
   <v>       0.16666667      -0.16666667      -0.16666667 </v>
   <v>       0.33333333      -0.16666667      -0.16666667 </v>
   <v>       0.50000000      -0.16666667      -0.16666667 </v>
   <v>      -0.33333333      -0.16666667      -0.16666667 </v>
   <v>      -0.16666667      -0.16666667      -0.16666667 </v>
  </varray>
  <varray name="weights" >
   <v>       0.00462963 </v>
   <v>       0.00462963 </v>
   <v>       0.00462963 </v>
   <v>       0.00462963 </v>
   <v>       0.00462963 </v>
   <v>       0.00462963 </v>
   <v>       0.00462963 </v>
   <v>       0.00462963 </v>
   <v>       0.00462963 </v>
   <v>       0.00462963 </v>
   <v>       0.00462963 </v>
   <v>       0.00462963 </v>
   <v>       0.00462963 </v>
   <v>       0.00462963 </v>
   <v>       0.00462963 </v>
   <v>       0.00462963 </v>
   <v>       0.00462963 </v>
   <v>       0.00462963 </v>
   <v>       0.00462963 </v>
   <v>       0.00462963 </v>
   <v>       0.00462963 </v>
   <v>       0.00462963 </v>
   <v>       0.00462963 </v>
   <v>       0.00462963 </v>
   <v>       0.00462963 </v>
   <v>       0.00462963 </v>
   <v>       0.00462963 </v>
   <v>       0.00462963 </v>
   <v>       0.00462963 </v>
   <v>       0.00462963 </v>
   <v>       0.00462963 </v>
   <v>       0.00462963 </v>
   <v>       0.00462963 </v>
   <v>       0.00462963 </v>
   <v>       0.00462963 </v>
   <v>       0.00462963 </v>
   <v>       0.00462963 </v>
   <v>       0.00462963 </v>
   <v>       0.00462963 </v>
   <v>       0.00462963 </v>
   <v>       0.00462963 </v>
   <v>       0.00462963 </v>
   <v>       0.00462963 </v>
   <v>       0.00462963 </v>
   <v>       0.00462963 </v>
   <v>       0.00462963 </v>
   <v>       0.00462963 </v>
   <v>       0.00462963 </v>
   <v>       0.00462963 </v>
   <v>       0.00462963 </v>
   <v>       0.00462963 </v>
   <v>       0.00462963 </v>
   <v>       0.00462963 </v>
   <v>       0.00462963 </v>
   <v>       0.00462963 </v>
   <v>       0.00462963 </v>
   <v>       0.00462963 </v>
   <v>       0.00462963 </v>
   <v>       0.00462963 </v>
   <v>       0.00462963 </v>
   <v>       0.00462963 </v>
   <v>       0.00462963 </v>
   <v>       0.00462963 </v>
   <v>       0.00462963 </v>
   <v>       0.00462963 </v>
   <v>       0.00462963 </v>
   <v>       0.00462963 </v>
   <v>       0.00462963 </v>
   <v>       0.00462963 </v>
   <v>       0.00462963 </v>
   <v>       0.00462963 </v>
   <v>       0.00462963 </v>
   <v>       0.00462963 </v>
   <v>       0.00462963 </v>
   <v>       0.00462963 </v>
   <v>       0.00462963 </v>
   <v>       0.00462963 </v>
   <v>       0.00462963 </v>
   <v>       0.00462963 </v>
   <v>       0.00462963 </v>
   <v>       0.00462963 </v>
   <v>       0.00462963 </v>
   <v>       0.00462963 </v>
   <v>       0.00462963 </v>
   <v>       0.00462963 </v>
   <v>       0.00462963 </v>
   <v>       0.00462963 </v>
   <v>       0.00462963 </v>
   <v>       0.00462963 </v>
   <v>       0.00462963 </v>
   <v>       0.00462963 </v>
   <v>       0.00462963 </v>
   <v>       0.00462963 </v>
   <v>       0.00462963 </v>
   <v>       0.00462963 </v>
   <v>       0.00462963 </v>
   <v>       0.00462963 </v>
   <v>       0.00462963 </v>
   <v>       0.00462963 </v>
   <v>       0.00462963 </v>
   <v>       0.00462963 </v>
   <v>       0.00462963 </v>
   <v>       0.00462963 </v>
   <v>       0.00462963 </v>
   <v>       0.00462963 </v>
   <v>       0.00462963 </v>
   <v>       0.00462963 </v>
   <v>       0.00462963 </v>
   <v>       0.00462963 </v>
   <v>       0.00462963 </v>
   <v>       0.00462963 </v>
   <v>       0.00462963 </v>
   <v>       0.00462963 </v>
   <v>       0.00462963 </v>
   <v>       0.00462963 </v>
   <v>       0.00462963 </v>
   <v>       0.00462963 </v>
   <v>       0.00462963 </v>
   <v>       0.00462963 </v>
   <v>       0.00462963 </v>
   <v>       0.00462963 </v>
   <v>       0.00462963 </v>
   <v>       0.00462963 </v>
   <v>       0.00462963 </v>
   <v>       0.00462963 </v>
   <v>       0.00462963 </v>
   <v>       0.00462963 </v>
   <v>       0.00462963 </v>
   <v>       0.00462963 </v>
   <v>       0.00462963 </v>
   <v>       0.00462963 </v>
   <v>       0.00462963 </v>
   <v>       0.00462963 </v>
   <v>       0.00462963 </v>
   <v>       0.00462963 </v>
   <v>       0.00462963 </v>
   <v>       0.00462963 </v>
   <v>       0.00462963 </v>
   <v>       0.00462963 </v>
   <v>       0.00462963 </v>
   <v>       0.00462963 </v>
   <v>       0.00462963 </v>
   <v>       0.00462963 </v>
   <v>       0.00462963 </v>
   <v>       0.00462963 </v>
   <v>       0.00462963 </v>
   <v>       0.00462963 </v>
   <v>       0.00462963 </v>
   <v>       0.00462963 </v>
   <v>       0.00462963 </v>
   <v>       0.00462963 </v>
   <v>       0.00462963 </v>
   <v>       0.00462963 </v>
   <v>       0.00462963 </v>
   <v>       0.00462963 </v>
   <v>       0.00462963 </v>
   <v>       0.00462963 </v>
   <v>       0.00462963 </v>
   <v>       0.00462963 </v>
   <v>       0.00462963 </v>
   <v>       0.00462963 </v>
   <v>       0.00462963 </v>
   <v>       0.00462963 </v>
   <v>       0.00462963 </v>
   <v>       0.00462963 </v>
   <v>       0.00462963 </v>
   <v>       0.00462963 </v>
   <v>       0.00462963 </v>
   <v>       0.00462963 </v>
   <v>       0.00462963 </v>
   <v>       0.00462963 </v>
   <v>       0.00462963 </v>
   <v>       0.00462963 </v>
   <v>       0.00462963 </v>
   <v>       0.00462963 </v>
   <v>       0.00462963 </v>
   <v>       0.00462963 </v>
   <v>       0.00462963 </v>
   <v>       0.00462963 </v>
   <v>       0.00462963 </v>
   <v>       0.00462963 </v>
   <v>       0.00462963 </v>
   <v>       0.00462963 </v>
   <v>       0.00462963 </v>
   <v>       0.00462963 </v>
   <v>       0.00462963 </v>
   <v>       0.00462963 </v>
   <v>       0.00462963 </v>
   <v>       0.00462963 </v>
   <v>       0.00462963 </v>
   <v>       0.00462963 </v>
   <v>       0.00462963 </v>
   <v>       0.00462963 </v>
   <v>       0.00462963 </v>
   <v>       0.00462963 </v>
   <v>       0.00462963 </v>
   <v>       0.00462963 </v>
   <v>       0.00462963 </v>
   <v>       0.00462963 </v>
   <v>       0.00462963 </v>
   <v>       0.00462963 </v>
   <v>       0.00462963 </v>
   <v>       0.00462963 </v>
   <v>       0.00462963 </v>
   <v>       0.00462963 </v>
   <v>       0.00462963 </v>
   <v>       0.00462963 </v>
   <v>       0.00462963 </v>
   <v>       0.00462963 </v>
   <v>       0.00462963 </v>
   <v>       0.00462963 </v>
   <v>       0.00462963 </v>
   <v>       0.00462963 </v>
   <v>       0.00462963 </v>
   <v>       0.00462963 </v>
   <v>       0.00462963 </v>
  </varray>
 </kpoints>
 <parameters>
  <separator name="general" >
   <i type="string" name="SYSTEM">Og_FCC</i>
   <i type="logical" name="LCOMPAT"> F  </i>
  </separator>
  <separator name="electronic" >
   <i type="string" name="PREC">accura</i>
   <i name="ENMAX">    300.00000000</i>
   <i name="ENAUG">    755.75300000</i>
   <i name="EDIFF">      0.00000001</i>
   <i type="int" name="IALGO">    90</i>
   <i type="int" name="IWAVPR">    10</i>
   <i type="int" name="NBANDS">   128</i>
   <i name="NELECT">      8.00000000</i>
   <i type="int" name="TURBO">     0</i>
   <i type="int" name="IRESTART">     0</i>
   <i type="int" name="NREBOOT">     0</i>
   <i type="int" name="NMIN">     0</i>
   <i name="EREF">      0.00000000</i>
   <separator name="electronic smearing" >
    <i type="int" name="ISMEAR">     0</i>
    <i name="SIGMA">      0.00100000</i>
    <i name="KSPACING">      0.50000000</i>
    <i type="logical" name="KGAMMA"> T  </i>
   </separator>
   <separator name="electronic projectors" >
    <i type="logical" name="LREAL"> F  </i>
    <v name="ROPT">      0.00000000</v>
    <i type="int" name="LMAXPAW">  -100</i>
    <i type="int" name="LMAXMIX">     2</i>
    <i type="logical" name="NLSPLINE"> F  </i>
   </separator>
   <separator name="electronic startup" >
    <i type="int" name="ISTART">     1</i>
    <i type="int" name="ICHARG">     0</i>
    <i type="int" name="INIWAV">     1</i>
   </separator>
   <separator name="electronic spin" >
    <i type="int" name="ISPIN">     1</i>
    <i type="logical" name="LNONCOLLINEAR"> T  </i>
    <v name="MAGMOM">      1.00000000      1.00000000      1.00000000</v>
    <i name="NUPDOWN">     -1.00000000</i>
    <i type="logical" name="LSORBIT"> T  </i>
    <v name="SAXIS">      0.00000000      0.00000000      1.00000000</v>
    <i type="logical" name="LSPIRAL"> F  </i>
    <v name="QSPIRAL">      0.00000000      0.00000000      0.00000000</v>
    <i type="logical" name="LZEROZ"> F  </i>
   </separator>
   <separator name="electronic exchange-correlation" >
    <i type="logical" name="LASPH"> F  </i>
    <i type="logical" name="LMETAGGA"> F  </i>
   </separator>
   <separator name="electronic convergence" >
    <i type="int" name="NELM">    50</i>
    <i type="int" name="NELMDL">    -5</i>
    <i type="int" name="NELMIN">     2</i>
    <i name="ENINI">    300.00000000</i>
    <separator name="electronic convergence detail" >
     <i type="logical" name="LDIAG"> T  </i>
     <i type="logical" name="LSUBROT"> F  </i>
     <i name="WEIMIN">      0.00000000</i>
     <i name="EBREAK">      0.00000000</i>
     <i name="DEPER">      0.30000000</i>
     <i type="int" name="NRMM">     4</i>
     <i name="TIME">      0.40000000</i>
    </separator>
   </separator>
   <separator name="electronic mixer" >
    <i name="AMIX">      0.40000000</i>
    <i name="BMIX">      1.00000000</i>
    <i name="AMIN">      0.10000000</i>
    <i name="AMIX_MAG">      1.60000000</i>
    <i name="BMIX_MAG">      1.00000000</i>
    <separator name="electronic mixer details" >
     <i type="int" name="IMIX">     4</i>
     <i type="logical" name="MIXFIRST"> F  </i>
     <i type="int" name="MAXMIX">    50</i>
     <i name="WC">    100.00000000</i>
     <i type="int" name="INIMIX">     1</i>
     <i type="int" name="MIXPRE">     1</i>
     <i type="int" name="MREMOVE">     5</i>
    </separator>
   </separator>
   <separator name="electronic dipolcorrection" >
    <i type="logical" name="LDIPOL"> F  </i>
    <i type="logical" name="LMONO"> F  </i>
    <i type="int" name="IDIPOL">     0</i>
    <i name="EPSILON">      1.00000000</i>
    <v name="DIPOL">   -100.00000000   -100.00000000   -100.00000000</v>
    <i name="EFIELD">      0.00000000</i>
   </separator>
  </separator>
  <separator name="grids" >
   <i type="int" name="NGX">    18</i>
   <i type="int" name="NGY">    18</i>
   <i type="int" name="NGZ">    18</i>
   <i type="int" name="NGXF">    36</i>
   <i type="int" name="NGYF">    36</i>
   <i type="int" name="NGZF">    36</i>
   <i type="logical" name="ADDGRID"> T  </i>
  </separator>
  <separator name="ionic" >
   <i type="int" name="NSW">     1</i>
   <i type="int" name="IBRION">    -1</i>
   <i type="int" name="MDALGO">     0</i>
   <i type="int" name="ISIF">     3</i>
   <i name="PSTRESS">      0.00000000</i>
   <i name="EDIFFG">      0.00001000</i>
   <i type="int" name="NFREE">     5</i>
   <i name="POTIM">      0.10000000</i>
   <i name="SMASS">     -3.00000000</i>
   <i name="SCALEE">      1.00000000</i>
  </separator>
  <separator name="ionic md" >
   <i name="TEBEG">      0.00010000</i>
   <i name="TEEND">      0.00010000</i>
   <i type="int" name="NBLOCK">     1</i>
   <i type="int" name="KBLOCK">     1</i>
   <i type="int" name="NPACO">   256</i>
   <i name="APACO">     16.00000000</i>
  </separator>
  <separator name="symmetry" >
   <i type="int" name="ISYM">     0</i>
   <i name="SYMPREC">      0.00000010</i>
  </separator>
  <separator name="dos" >
   <i type="int" name="LORBIT">     0</i>
   <v name="RWIGS">     -1.00000000</v>
   <i type="int" name="NEDOS">   301</i>
   <i name="EMIN">     10.00000000</i>
   <i name="EMAX">    -10.00000000</i>
   <i name="EFERMI">      0.00000000</i>
  </separator>
  <separator name="writing" >
   <i type="int" name="NWRITE">     2</i>
   <i type="logical" name="LWAVE"> T  </i>
   <i type="logical" name="LDOWNSAMPLE"> F  </i>
   <i type="logical" name="LCHARG"> F  </i>
   <i type="logical" name="LPARD"> F  </i>
   <i type="logical" name="LVTOT"> F  </i>
   <i type="logical" name="LVHAR"> F  </i>
   <i type="logical" name="LELF"> F  </i>
   <i type="logical" name="LOPTICS"> T  </i>
   <v name="STM">      0.00000000      0.00000000      0.00000000      0.00000000      0.00000000      0.00000000      0.00000000</v>
  </separator>
  <separator name="performance" >
   <i type="int" name="NPAR">     4</i>
   <i type="int" name="NSIM">     4</i>
   <i type="int" name="NBLK">    -1</i>
   <i type="logical" name="LPLANE"> T  </i>
   <i type="logical" name="LSCALAPACK"> T  </i>
   <i type="logical" name="LSCAAWARE"> T  </i>
   <i type="logical" name="LSCALU"> F  </i>
   <i type="logical" name="LASYNC"> F  </i>
   <i type="logical" name="LORBITALREAL"> F  </i>
  </separator>
  <separator name="miscellaneous" >
   <i type="int" name="IDIOT">     3</i>
   <i type="int" name="ISPECIAL">     0</i>
   <i type="logical" name="LMUSIC"> F  </i>
   <v name="POMASS">     20.18000000</v>
   <v name="DARWINR">      0.00000000</v>
   <v name="DARWINV">      1.00000000</v>
   <i type="logical" name="LCORR"> T  </i>
  </separator>
  <i type="logical" name="GGA_COMPAT"> F  </i>
  <i type="logical" name="LBERRY"> F  </i>
  <i type="int" name="ICORELEVEL">     0</i>
  <i type="logical" name="LDAU"> F  </i>
  <i type="int" name="I_CONSTRAINED_M">     0</i>
  <separator name="electronic exchange-correlation" >
   <i type="string" name="GGA">--</i>
   <i type="int" name="VOSKOWN">     0</i>
   <i type="logical" name="LHFCALC"> F  </i>
   <i type="string" name="PRECFOCK"></i>
   <i type="logical" name="LSYMGRAD"> F  </i>
   <i type="logical" name="LHFONE"> F  </i>
   <i type="logical" name="LRHFCALC"> F  </i>
   <i type="logical" name="LTHOMAS"> F  </i>
   <i type="logical" name="LMODELHF"> F  </i>
   <i name="ENCUT4O">     -1.00000000</i>
   <i type="int" name="EXXOEP">     0</i>
   <i type="int" name="FOURORBIT">     0</i>
   <i name="AEXX">      0.00000000</i>
   <i name="HFALPHA">      0.00000000</i>
   <i name="MCALPHA">      0.00000000</i>
   <i name="ALDAX">      1.00000000</i>
   <i name="AGGAX">      1.00000000</i>
   <i name="ALDAC">      1.00000000</i>
   <i name="AGGAC">      1.00000000</i>
   <i type="int" name="NKREDX">     1</i>
   <i type="int" name="NKREDY">     1</i>
   <i type="int" name="NKREDZ">     1</i>
   <i type="logical" name="SHIFTRED"> F  </i>
   <i type="logical" name="ODDONLY"> F  </i>
   <i type="logical" name="EVENONLY"> F  </i>
   <i type="int" name="LMAXFOCK">     0</i>
   <i type="int" name="NMAXFOCKAE">     0</i>
   <i type="logical" name="LFOCKAEDFT"> F  </i>
   <i name="HFSCREEN">      0.00000000</i>
   <i name="HFSCREENC">      0.00000000</i>
   <i type="int" name="NBANDSGWLOW">     0</i>
  </separator>
  <separator name="vdW DFT" >
   <i type="logical" name="LUSE_VDW"> F  </i>
   <i name="Zab_VDW">     -0.84910000</i>
   <i name="PARAM1">      0.12340000</i>
   <i name="PARAM2">      1.00000000</i>
   <i name="PARAM3">      0.00000000</i>
  </separator>
  <separator name="model GW" >
   <i type="int" name="MODEL_GW">     0</i>
   <i name="MODEL_EPS0">     11.16235683</i>
   <i name="MODEL_ALPHA">      1.00000000</i>
  </separator>
  <separator name="linear response parameters" >
   <i type="logical" name="LEPSILON"> F  </i>
   <i type="logical" name="LRPA"> F  </i>
   <i type="logical" name="LNABLA"> F  </i>
   <i type="logical" name="LVEL"> F  </i>
   <i type="int" name="KINTER">     0</i>
   <i name="CSHIFT">      0.10000000</i>
   <i name="OMEGAMAX">     -1.00000000</i>
   <i name="DEG_THRESHOLD">      0.00200000</i>
   <i name="RTIME">     -0.10000000</i>
   <i name="WPLASMAI">      0.00000000</i>
   <v name="DFIELD">      0.00000000      0.00000000      0.00000000</v>
   <v name="WPLASMA">      0.00000000      0.00000000      0.00000000      0.00000000      0.00000000      0.00000000      0.00000000      0.00000000      0.00000000</v>
  </separator>
  <separator name="orbital magnetization" >
   <i type="logical" name="NUCIND"> F  </i>
   <v name="MAGPOS">      0.00000000      0.00000000      0.00000000</v>
   <i type="logical" name="LNICSALL"> T  </i>
   <i type="logical" name="ORBITALMAG"> F  </i>
   <i type="logical" name="LMAGBLOCH"> F  </i>
   <i type="logical" name="LCHIMAG"> F  </i>
   <i type="logical" name="LGAUGE"> T  </i>
   <i type="int" name="MAGATOM">     0</i>
   <v name="MAGDIPOL">      0.00000000      0.00000000      0.00000000</v>
   <v name="AVECCONST">      0.00000000      0.00000000      0.00000000</v>
  </separator>
  <separator name="response functions" >
   <i type="logical" name="LADDER"> F  </i>
   <i type="logical" name="LRPAFORCE"> F  </i>
   <i type="logical" name="LFXC"> F  </i>
   <i type="logical" name="LHARTREE"> T  </i>
   <i type="int" name="IBSE">     0</i>
   <v type="int" name="KPOINT">    -1     0     0     0</v>
   <i type="logical" name="LTCTE"> F  </i>
   <i type="logical" name="LTETE"> F  </i>
   <i type="logical" name="LTRIPLET"> F  </i>
   <i type="logical" name="LFXCEPS"> F  </i>
   <i type="logical" name="LFXHEG"> F  </i>
   <i type="int" name="NATURALO">     2</i>
   <i type="logical" name="L2ORDER"> F  </i>
   <i type="logical" name="LMP2LT"> F  </i>
   <i type="logical" name="LUSEW"> F  </i>
   <i name="ENCUTGW">     -2.00000000</i>
   <i name="ENCUTGWSOFT">     -2.00000000</i>
   <i name="ENCUTLF">     -1.00000000</i>
   <i type="int" name="LMAXMP2">    -1</i>
   <i name="SCISSOR">      0.00000000</i>
   <i type="int" name="NOMEGA">     0</i>
   <i type="int" name="NOMEGAR">     0</i>
   <i type="int" name="NBANDSGW">    -1</i>
   <i type="int" name="NBANDSO">    -1</i>
   <i type="int" name="NBANDSV">    -1</i>
   <i type="int" name="NELM">    50</i>
   <i type="int" name="NELMHF">     1</i>
   <i type="int" name="DIM">     3</i>
   <i type="int" name="ANTIRES">     0</i>
   <i name="OMEGAMAX">    -30.00000000</i>
   <i name="OMEGAMIN">    -30.00000000</i>
   <i name="OMEGATL">   -200.00000000</i>
   <i type="int" name="OMEGAGRID">   140</i>
   <i name="CSHIFT">     -0.10000000</i>
   <i type="logical" name="SELFENERGY"> F  </i>
   <i type="logical" name="LSPECTRAL"> F  </i>
   <i type="logical" name="LSPECTRALGW"> F  </i>
   <i type="logical" name="LSINGLES"> F  </i>
   <i type="logical" name="LFERMIGW"> F  </i>
   <i type="logical" name="ODDONLYGW"> F  </i>
   <i type="logical" name="EVENONLYGW"> F  </i>
   <i type="int" name="NKREDLFX">     1</i>
   <i type="int" name="NKREDLFY">     1</i>
   <i type="int" name="NKREDLFZ">     1</i>
   <i type="int" name="MAXMEM">  2800</i>
   <i type="int" name="TELESCOPE">     0</i>
   <i type="int" name="TAUPAR">     1</i>
   <i type="int" name="OMEGAPAR">    -1</i>
   <i name="LAMBDA">      1.00000000</i>
  </separator>
  <separator name="External order field" >
   <i name="OFIELD_KAPPA">      0.00000000</i>
   <v name="OFIELD_K">      0.00000000      0.00000000      0.00000000</v>
   <i name="OFIELD_Q6_NEAR">      0.00000000</i>
   <i name="OFIELD_Q6_FAR">      0.00000000</i>
   <i name="OFIELD_A">      0.00000000</i>
  </separator>
 </parameters>
 <atominfo>
  <atoms>       1 </atoms>
  <types>       1 </types>
  <array name="atoms" >
   <dimension dim="1">ion</dimension>
   <field type="string">element</field>
   <field type="int">atomtype</field>
   <set>
    <rc><c>Ne</c><c>   1</c></rc>
   </set>
  </array>
  <array name="atomtypes" >
   <dimension dim="1">type</dimension>
   <field type="int">atomspertype</field>
   <field type="string">element</field>
   <field>mass</field>
   <field>valence</field>
   <field type="string">pseudopotential</field>
   <set>
    <rc><c>   1</c><c>Ne</c><c>     20.18000000</c><c>      8.00000000</c><c>  PAW_PBE Ne_GW 22Sep2014               </c></rc>
   </set>
  </array>
 </atominfo>
 <structure name="initialpos" >
  <crystal>
   <varray name="basis" >
    <v>       2.97422087       0.00000000       0.00000000 </v>
    <v>       1.48711043       2.57575083       0.00000000 </v>
    <v>       1.48711043       0.85858361       2.42844117 </v>
   </varray>
   <i name="volume">     18.60392805 </i>
   <varray name="rec_basis" >
    <v>       0.33622251      -0.19411816      -0.13726226 </v>
    <v>       0.00000000       0.38823631      -0.13726226 </v>
    <v>       0.00000000       0.00000000       0.41178679 </v>
   </varray>
  </crystal>
  <varray name="positions" >
   <v>       0.00000000       0.00000000       0.00000000 </v>
  </varray>
  <varray name="velocities" >
   <v>       0.00000000       0.00000000       0.00000000 </v>
  </varray>
 </structure>
 <calculation>
  <scstep>
   <time name="diag">   19.02   19.02</time>
   <time name="total">   19.10   19.10</time>
   <energy>
    <i name="alphaZ">     16.68370675 </i>
    <i name="ewald">   -502.27794943 </i>
    <i name="hartreedc">   -334.43136425 </i>
    <i name="XCdc">     54.60792501 </i>
    <i name="pawpsdc">    734.11799156 </i>
    <i name="pawaedc">   -775.31330783 </i>
    <i name="eentropy">      0.00000000 </i>
    <i name="bandstr">   -145.37123501 </i>
    <i name="atom">    952.67806118 </i>
    <i name="e_fr_energy">      0.69382798 </i>
    <i name="e_wo_entrp">      0.69382798 </i>
    <i name="e_0_energy">      0.69382798 </i>
   </energy>
  </scstep>
  <scstep>
   <time name="diag">   18.66   18.66</time>
   <time name="total">   18.67   18.67</time>
   <energy>
    <i name="e_fr_energy">      0.69382798 </i>
    <i name="e_wo_entrp">      0.69382798 </i>
    <i name="e_0_energy">      0.69382798 </i>
   </energy>
  </scstep>
  <scstep>
   <time name="diag">   18.46   18.47</time>
   <time name="total">   18.48   18.48</time>
   <energy>
    <i name="e_fr_energy">      0.69382798 </i>
    <i name="e_wo_entrp">      0.69382798 </i>
    <i name="e_0_energy">      0.69382798 </i>
   </energy>
  </scstep>
  <scstep>
   <time name="diag">   18.98   18.98</time>
   <time name="total">   18.99   18.99</time>
   <energy>
    <i name="e_fr_energy">      0.69382798 </i>
    <i name="e_wo_entrp">      0.69382798 </i>
    <i name="e_0_energy">      0.69382798 </i>
   </energy>
  </scstep>
  <scstep>
   <time name="diag">   18.73   18.74</time>
   <time name="total">   19.88   19.88</time>
   <energy>
    <i name="e_fr_energy">      0.69382798 </i>
    <i name="e_wo_entrp">      0.69382798 </i>
    <i name="e_0_energy">      0.69382798 </i>
   </energy>
  </scstep>
  <scstep>
   <time name="diag">   18.96   18.96</time>
   <time name="total">   19.02   19.02</time>
   <energy>
    <i name="alphaZ">     16.68370675 </i>
    <i name="ewald">   -502.27794943 </i>
    <i name="hartreedc">   -334.43138923 </i>
    <i name="XCdc">     54.60792699 </i>
    <i name="pawpsdc">    734.11801075 </i>
    <i name="pawaedc">   -775.31333316 </i>
    <i name="eentropy">      0.00000000 </i>
    <i name="bandstr">   -145.37120586 </i>
    <i name="atom">    952.67806118 </i>
    <i name="e_fr_energy">      0.69382798 </i>
    <i name="e_wo_entrp">      0.69382798 </i>
    <i name="e_0_energy">      0.69382798 </i>
   </energy>
  </scstep>
  <structure>
   <crystal>
    <varray name="basis" >
     <v>       2.97422087       0.00000000       0.00000000 </v>
     <v>       1.48711043       2.57575083       0.00000000 </v>
     <v>       1.48711043       0.85858361       2.42844117 </v>
    </varray>
    <i name="volume">     18.60392805 </i>
    <varray name="rec_basis" >
     <v>       0.33622251      -0.19411816      -0.13726226 </v>
     <v>       0.00000000       0.38823631      -0.13726226 </v>
     <v>       0.00000000       0.00000000       0.41178679 </v>
    </varray>
   </crystal>
   <varray name="positions" >
    <v>       0.00000000       0.00000000       0.00000000 </v>
   </varray>
  </structure>
  <varray name="forces" >
   <v>       0.00000000      -0.00000000      -0.00000000 </v>
  </varray>
  <varray name="stress" >
   <v>   -2677.23271777       0.01481846       0.01015222 </v>
   <v>       0.01481909   -2677.25200470       0.00397385 </v>
   <v>       0.01015223       0.00397522   -2677.22298714 </v>
  </varray>
  <energy>
   <i name="e_fr_energy">      0.69382798 </i>
   <i name="e_wo_entrp">      0.69382798 </i>
   <i name="e_0_energy">      0.00000000 </i>
  </energy>
  <time name="totalsc">  136.69  136.74</time>
  <eigenvalues>
   <array>
    <dimension dim="1">band</dimension>
    <dimension dim="2">kpoint</dimension>
    <dimension dim="3">spin</dimension>
    <field>eigene</field>
    <field>occ</field>
    <set>
     <set comment="spin 1">
      <set comment="kpoint 1">
       <r>  -37.3238    1.0000 </r>
       <r>  -37.3238    1.0000 </r>
       <r>  -11.6056    1.0000 </r>
       <r>  -11.6056    1.0000 </r>
       <r>  -11.5066    1.0000 </r>
       <r>  -11.5066    1.0000 </r>
       <r>  -11.5066    1.0000 </r>
       <r>  -11.5066    1.0000 </r>
       <r>    1.6833    0.0000 </r>
       <r>    1.6833    0.0000 </r>
       <r>   21.7846    0.0000 </r>
       <r>   21.7846    0.0000 </r>
       <r>   21.7846    0.0000 </r>
       <r>   21.7846    0.0000 </r>
       <r>   21.7848    0.0000 </r>
       <r>   21.7848    0.0000 </r>
       <r>   23.5496    0.0000 </r>
       <r>   23.5496    0.0000 </r>
       <r>   27.0044    0.0000 </r>
       <r>   27.0044    0.0000 </r>
       <r>   27.0137    0.0000 </r>
       <r>   27.0137    0.0000 </r>
       <r>   27.0138    0.0000 </r>
       <r>   27.0138    0.0000 </r>
       <r>   29.1083    0.0000 </r>
       <r>   29.1083    0.0000 </r>
       <r>   29.1083    0.0000 </r>
       <r>   29.1083    0.0000 </r>
       <r>   29.2668    0.0000 </r>
       <r>   29.2668    0.0000 </r>
       <r>   37.6996    0.0000 </r>
       <r>   37.6996    0.0000 </r>
       <r>   37.7342    0.0000 </r>
       <r>   37.7342    0.0000 </r>
       <r>   37.7345    0.0000 </r>
       <r>   37.7345    0.0000 </r>
       <r>   52.9641    0.0000 </r>
       <r>   52.9641    0.0000 </r>
       <r>   60.6719    0.0000 </r>
       <r>   60.6719    0.0000 </r>
       <r>   60.6721    0.0000 </r>
       <r>   60.6721    0.0000 </r>
       <r>   60.6736    0.0000 </r>
       <r>   60.6736    0.0000 </r>
       <r>   63.0862    0.0000 </r>
       <r>   63.0862    0.0000 </r>
       <r>   63.0862    0.0000 </r>
       <r>   63.0862    0.0000 </r>
       <r>   64.0522    0.0000 </r>
       <r>   64.0522    0.0000 </r>
       <r>   64.0522    0.0000 </r>
       <r>   64.0522    0.0000 </r>
       <r>   64.0522    0.0000 </r>
       <r>   64.0522    0.0000 </r>
       <r>   71.9971    0.0000 </r>
       <r>   71.9971    0.0000 </r>
       <r>   72.0147    0.0000 </r>
       <r>   72.0147    0.0000 </r>
       <r>   72.0147    0.0000 </r>
       <r>   72.0147    0.0000 </r>
       <r>   80.6540    0.0000 </r>
       <r>   80.6540    0.0000 </r>
       <r>   82.2181    0.0000 </r>
       <r>   82.2181    0.0000 </r>
       <r>   82.2181    0.0000 </r>
       <r>   82.2181    0.0000 </r>
       <r>   85.1338    0.0000 </r>
       <r>   85.1338    0.0000 </r>
       <r>   85.1339    0.0000 </r>
       <r>   85.1339    0.0000 </r>
       <r>   85.1359    0.0000 </r>
       <r>   85.1359    0.0000 </r>
       <r>   88.4961    0.0000 </r>
       <r>   88.4961    0.0000 </r>
       <r>   88.4963    0.0000 </r>
       <r>   88.4963    0.0000 </r>
       <r>   88.4963    0.0000 </r>
       <r>   88.4963    0.0000 </r>
       <r>   89.3024    0.0000 </r>
       <r>   89.3024    0.0000 </r>
       <r>   90.0344    0.0000 </r>
       <r>   90.0344    0.0000 </r>
       <r>   90.0344    0.0000 </r>
       <r>   90.0344    0.0000 </r>
       <r>   90.0345    0.0000 </r>
       <r>   90.0345    0.0000 </r>
       <r>   90.9458    0.0000 </r>
       <r>   90.9458    0.0000 </r>
       <r>   90.9458    0.0000 </r>
       <r>   90.9458    0.0000 </r>
       <r>   90.9459    0.0000 </r>
       <r>   90.9459    0.0000 </r>
       <r>   91.8138    0.0000 </r>
       <r>   91.8138    0.0000 </r>
       <r>   91.8138    0.0000 </r>
       <r>   91.8138    0.0000 </r>
       <r>   91.8142    0.0000 </r>
       <r>   91.8142    0.0000 </r>
       <r>   92.2841    0.0000 </r>
       <r>   92.2841    0.0000 </r>
       <r>   92.2841    0.0000 </r>
       <r>   92.2841    0.0000 </r>
       <r>   97.5677    0.0000 </r>
       <r>   97.5677    0.0000 </r>
       <r>   97.5718    0.0000 </r>
       <r>   97.5718    0.0000 </r>
       <r>   97.5721    0.0000 </r>
       <r>   97.5721    0.0000 </r>
       <r>   98.0856    0.0000 </r>
       <r>   98.0856    0.0000 </r>
       <r>   98.1728    0.0000 </r>
       <r>   98.1728    0.0000 </r>
       <r>   98.1729    0.0000 </r>
       <r>   98.1729    0.0000 </r>
       <r>   98.1732    0.0000 </r>
       <r>   98.1732    0.0000 </r>
       <r>   98.7442    0.0000 </r>
       <r>   98.7442    0.0000 </r>
       <r>  113.4106    0.0000 </r>
       <r>  113.4106    0.0000 </r>
       <r>  113.4732    0.0000 </r>
       <r>  113.4732    0.0000 </r>
       <r>  113.4733    0.0000 </r>
       <r>  113.4733    0.0000 </r>
       <r>  128.4306    0.0000 </r>
       <r>  128.4306    0.0000 </r>
       <r>  128.4306    0.0000 </r>
       <r>  128.4306    0.0000 </r>
      </set>
      <set comment="kpoint 2">
       <r>  -37.2752    1.0000 </r>
       <r>  -37.2752    1.0000 </r>
       <r>  -11.6708    1.0000 </r>
       <r>  -11.6708    1.0000 </r>
       <r>  -11.2192    1.0000 </r>
       <r>  -11.2192    1.0000 </r>
       <r>  -11.1609    1.0000 </r>
       <r>  -11.1609    1.0000 </r>
       <r>    2.6204    0.0000 </r>
       <r>    2.6204    0.0000 </r>
       <r>   17.1991    0.0000 </r>
       <r>   17.1991    0.0000 </r>
       <r>   21.5920    0.0000 </r>
       <r>   21.5920    0.0000 </r>
       <r>   21.5932    0.0000 </r>
       <r>   21.5932    0.0000 </r>
       <r>   23.8091    0.0000 </r>
       <r>   23.8091    0.0000 </r>
       <r>   25.7942    0.0000 </r>
       <r>   25.7942    0.0000 </r>
       <r>   25.7943    0.0000 </r>
       <r>   25.7943    0.0000 </r>
       <r>   28.6144    0.0000 </r>
       <r>   28.6144    0.0000 </r>
       <r>   31.3350    0.0000 </r>
       <r>   31.3350    0.0000 </r>
       <r>   31.3470    0.0000 </r>
       <r>   31.3470    0.0000 </r>
       <r>   33.8320    0.0000 </r>
       <r>   33.8320    0.0000 </r>
       <r>   37.2183    0.0000 </r>
       <r>   37.2183    0.0000 </r>
       <r>   39.4789    0.0000 </r>
       <r>   39.4789    0.0000 </r>
       <r>   39.4918    0.0000 </r>
       <r>   39.4918    0.0000 </r>
       <r>   53.7814    0.0000 </r>
       <r>   53.7814    0.0000 </r>
       <r>   53.7839    0.0000 </r>
       <r>   53.7839    0.0000 </r>
       <r>   54.1862    0.0000 </r>
       <r>   54.1862    0.0000 </r>
       <r>   59.6320    0.0000 </r>
       <r>   59.6320    0.0000 </r>
       <r>   62.5730    0.0000 </r>
       <r>   62.5730    0.0000 </r>
       <r>   62.5747    0.0000 </r>
       <r>   62.5747    0.0000 </r>
       <r>   64.7568    0.0000 </r>
       <r>   64.7568    0.0000 </r>
       <r>   69.8978    0.0000 </r>
       <r>   69.8978    0.0000 </r>
       <r>   69.9023    0.0000 </r>
       <r>   69.9023    0.0000 </r>
       <r>   69.9082    0.0000 </r>
       <r>   69.9082    0.0000 </r>
       <r>   73.6583    0.0000 </r>
       <r>   73.6583    0.0000 </r>
       <r>   73.6596    0.0000 </r>
       <r>   73.6596    0.0000 </r>
       <r>   77.5142    0.0000 </r>
       <r>   77.5142    0.0000 </r>
       <r>   77.5159    0.0000 </r>
       <r>   77.5159    0.0000 </r>
       <r>   78.2166    0.0000 </r>
       <r>   78.2166    0.0000 </r>
       <r>   80.5214    0.0000 </r>
       <r>   80.5214    0.0000 </r>
       <r>   80.5223    0.0000 </r>
       <r>   80.5223    0.0000 </r>
       <r>   82.0427    0.0000 </r>
       <r>   82.0427    0.0000 </r>
       <r>   82.5736    0.0000 </r>
       <r>   82.5736    0.0000 </r>
       <r>   84.4007    0.0000 </r>
       <r>   84.4007    0.0000 </r>
       <r>   84.4047    0.0000 </r>
       <r>   84.4047    0.0000 </r>
       <r>   85.3987    0.0000 </r>
       <r>   85.3987    0.0000 </r>
       <r>   87.3889    0.0000 </r>
       <r>   87.3889    0.0000 </r>
       <r>   87.4988    0.0000 </r>
       <r>   87.4988    0.0000 </r>
       <r>   87.4993    0.0000 </r>
       <r>   87.4993    0.0000 </r>
       <r>   90.8587    0.0000 </r>
       <r>   90.8587    0.0000 </r>
       <r>   93.3339    0.0000 </r>
       <r>   93.3339    0.0000 </r>
       <r>   93.3343    0.0000 </r>
       <r>   93.3343    0.0000 </r>
       <r>   95.2487    0.0000 </r>
       <r>   95.2487    0.0000 </r>
       <r>   95.2501    0.0000 </r>
       <r>   95.2501    0.0000 </r>
       <r>   95.5076    0.0000 </r>
       <r>   95.5076    0.0000 </r>
       <r>   98.5826    0.0000 </r>
       <r>   98.5826    0.0000 </r>
       <r>   98.5829    0.0000 </r>
       <r>   98.5829    0.0000 </r>
       <r>   99.9155    0.0000 </r>
       <r>   99.9155    0.0000 </r>
       <r>  100.7827    0.0000 </r>
       <r>  100.7827    0.0000 </r>
       <r>  104.2884    0.0000 </r>
       <r>  104.2884    0.0000 </r>
       <r>  104.2916    0.0000 </r>
       <r>  104.2916    0.0000 </r>
       <r>  104.7215    0.0000 </r>
       <r>  104.7215    0.0000 </r>
       <r>  105.3503    0.0000 </r>
       <r>  105.3503    0.0000 </r>
       <r>  105.3504    0.0000 </r>
       <r>  105.3504    0.0000 </r>
       <r>  110.3024    0.0000 </r>
       <r>  110.3024    0.0000 </r>
       <r>  111.3988    0.0000 </r>
       <r>  111.3988    0.0000 </r>
       <r>  111.4231    0.0000 </r>
       <r>  111.4231    0.0000 </r>
       <r>  116.3618    0.0000 </r>
       <r>  116.3618    0.0000 </r>
       <r>  123.5337    0.0000 </r>
       <r>  123.5337    0.0000 </r>
       <r>  124.4214    0.0000 </r>
       <r>  124.4214    0.0000 </r>
      </set>
      <set comment="kpoint 3">
       <r>  -37.2385    1.0000 </r>
       <r>  -37.2385    1.0000 </r>
       <r>  -12.2302    1.0000 </r>
       <r>  -12.2302    1.0000 </r>
       <r>  -11.6251    1.0000 </r>
       <r>  -11.6251    1.0000 </r>
       <r>  -11.5633    1.0000 </r>
       <r>  -11.5633    1.0000 </r>
       <r>    4.9824    0.0000 </r>
       <r>    4.9824    0.0000 </r>
       <r>   12.3403    0.0000 </r>
       <r>   12.3403    0.0000 </r>
       <r>   20.6568    0.0000 </r>
       <r>   20.6568    0.0000 </r>
       <r>   20.6574    0.0000 </r>
       <r>   20.6574    0.0000 </r>
       <r>   22.3370    0.0000 </r>
       <r>   22.3370    0.0000 </r>
       <r>   25.9979    0.0000 </r>
       <r>   25.9979    0.0000 </r>
       <r>   26.0055    0.0000 </r>
       <r>   26.0055    0.0000 </r>
       <r>   30.2086    0.0000 </r>
       <r>   30.2086    0.0000 </r>
       <r>   33.3592    0.0000 </r>
       <r>   33.3592    0.0000 </r>
       <r>   33.3716    0.0000 </r>
       <r>   33.3716    0.0000 </r>
       <r>   37.2068    0.0000 </r>
       <r>   37.2068    0.0000 </r>
       <r>   42.9913    0.0000 </r>
       <r>   42.9913    0.0000 </r>
       <r>   42.9917    0.0000 </r>
       <r>   42.9917    0.0000 </r>
       <r>   44.2615    0.0000 </r>
       <r>   44.2615    0.0000 </r>
       <r>   48.0530    0.0000 </r>
       <r>   48.0530    0.0000 </r>
       <r>   48.0622    0.0000 </r>
       <r>   48.0622    0.0000 </r>
       <r>   52.1210    0.0000 </r>
       <r>   52.1210    0.0000 </r>
       <r>   58.5011    0.0000 </r>
       <r>   58.5011    0.0000 </r>
       <r>   62.8514    0.0000 </r>
       <r>   62.8514    0.0000 </r>
       <r>   62.8518    0.0000 </r>
       <r>   62.8518    0.0000 </r>
       <r>   64.6830    0.0000 </r>
       <r>   64.6830    0.0000 </r>
       <r>   64.6841    0.0000 </r>
       <r>   64.6841    0.0000 </r>
       <r>   66.7608    0.0000 </r>
       <r>   66.7608    0.0000 </r>
       <r>   67.5695    0.0000 </r>
       <r>   67.5695    0.0000 </r>
       <r>   68.1070    0.0000 </r>
       <r>   68.1070    0.0000 </r>
       <r>   71.5109    0.0000 </r>
       <r>   71.5109    0.0000 </r>
       <r>   71.5144    0.0000 </r>
       <r>   71.5144    0.0000 </r>
       <r>   74.7764    0.0000 </r>
       <r>   74.7764    0.0000 </r>
       <r>   74.7770    0.0000 </r>
       <r>   74.7770    0.0000 </r>
       <r>   75.2552    0.0000 </r>
       <r>   75.2552    0.0000 </r>
       <r>   76.2309    0.0000 </r>
       <r>   76.2309    0.0000 </r>
       <r>   80.3376    0.0000 </r>
       <r>   80.3376    0.0000 </r>
       <r>   80.3476    0.0000 </r>
       <r>   80.3476    0.0000 </r>
       <r>   85.8010    0.0000 </r>
       <r>   85.8010    0.0000 </r>
       <r>   86.6897    0.0000 </r>
       <r>   86.6897    0.0000 </r>
       <r>   86.6902    0.0000 </r>
       <r>   86.6902    0.0000 </r>
       <r>   88.1662    0.0000 </r>
       <r>   88.1662    0.0000 </r>
       <r>   88.1666    0.0000 </r>
       <r>   88.1666    0.0000 </r>
       <r>   88.3240    0.0000 </r>
       <r>   88.3240    0.0000 </r>
       <r>   93.0077    0.0000 </r>
       <r>   93.0077    0.0000 </r>
       <r>   94.7070    0.0000 </r>
       <r>   94.7070    0.0000 </r>
       <r>   94.7113    0.0000 </r>
       <r>   94.7113    0.0000 </r>
       <r>   99.2680    0.0000 </r>
       <r>   99.2680    0.0000 </r>
       <r>  101.0095    0.0000 </r>
       <r>  101.0095    0.0000 </r>
       <r>  101.0195    0.0000 </r>
       <r>  101.0195    0.0000 </r>
       <r>  106.5917    0.0000 </r>
       <r>  106.5917    0.0000 </r>
       <r>  106.5960    0.0000 </r>
       <r>  106.5960    0.0000 </r>
       <r>  107.4982    0.0000 </r>
       <r>  107.4982    0.0000 </r>
       <r>  108.7450    0.0000 </r>
       <r>  108.7450    0.0000 </r>
       <r>  108.7454    0.0000 </r>
       <r>  108.7454    0.0000 </r>
       <r>  110.7497    0.0000 </r>
       <r>  110.7497    0.0000 </r>
       <r>  112.5118    0.0000 </r>
       <r>  112.5118    0.0000 </r>
       <r>  113.4729    0.0000 </r>
       <r>  113.4729    0.0000 </r>
       <r>  113.6315    0.0000 </r>
       <r>  113.6315    0.0000 </r>
       <r>  113.6316    0.0000 </r>
       <r>  113.6316    0.0000 </r>
       <r>  116.0705    0.0000 </r>
       <r>  116.0705    0.0000 </r>
       <r>  116.0758    0.0000 </r>
       <r>  116.0758    0.0000 </r>
       <r>  116.1201    0.0000 </r>
       <r>  116.1201    0.0000 </r>
       <r>  121.1934    0.0000 </r>
       <r>  121.1934    0.0000 </r>
       <r>  121.1946    0.0000 </r>
       <r>  121.1946    0.0000 </r>
      </set>
      <set comment="kpoint 4">
       <r>  -37.2192    1.0000 </r>
       <r>  -37.2192    1.0000 </r>
       <r>  -12.6750    1.0000 </r>
       <r>  -12.6750    1.0000 </r>
       <r>  -11.7123    1.0000 </r>
       <r>  -11.7123    1.0000 </r>
       <r>  -11.6490    1.0000 </r>
       <r>  -11.6490    1.0000 </r>
       <r>    8.0317    0.0000 </r>
       <r>    8.0317    0.0000 </r>
       <r>    8.4429    0.0000 </r>
       <r>    8.4429    0.0000 </r>
       <r>   20.1541    0.0000 </r>
       <r>   20.1541    0.0000 </r>
       <r>   20.1544    0.0000 </r>
       <r>   20.1544    0.0000 </r>
       <r>   22.0098    0.0000 </r>
       <r>   22.0098    0.0000 </r>
       <r>   26.4100    0.0000 </r>
       <r>   26.4100    0.0000 </r>
       <r>   26.4249    0.0000 </r>
       <r>   26.4249    0.0000 </r>
       <r>   29.2643    0.0000 </r>
       <r>   29.2643    0.0000 </r>
       <r>   34.8465    0.0000 </r>
       <r>   34.8465    0.0000 </r>
       <r>   34.8467    0.0000 </r>
       <r>   34.8467    0.0000 </r>
       <r>   41.5968    0.0000 </r>
       <r>   41.5968    0.0000 </r>
       <r>   41.6089    0.0000 </r>
       <r>   41.6089    0.0000 </r>
       <r>   41.8584    0.0000 </r>
       <r>   41.8584    0.0000 </r>
       <r>   46.8709    0.0000 </r>
       <r>   46.8709    0.0000 </r>
       <r>   51.7521    0.0000 </r>
       <r>   51.7521    0.0000 </r>
       <r>   51.7522    0.0000 </r>
       <r>   51.7522    0.0000 </r>
       <r>   54.6307    0.0000 </r>
       <r>   54.6307    0.0000 </r>
       <r>   55.3492    0.0000 </r>
       <r>   55.3492    0.0000 </r>
       <r>   55.9268    0.0000 </r>
       <r>   55.9268    0.0000 </r>
       <r>   55.9310    0.0000 </r>
       <r>   55.9310    0.0000 </r>
       <r>   60.7460    0.0000 </r>
       <r>   60.7460    0.0000 </r>
       <r>   64.9675    0.0000 </r>
       <r>   64.9675    0.0000 </r>
       <r>   65.7558    0.0000 </r>
       <r>   65.7558    0.0000 </r>
       <r>   65.7582    0.0000 </r>
       <r>   65.7582    0.0000 </r>
       <r>   68.9151    0.0000 </r>
       <r>   68.9151    0.0000 </r>
       <r>   70.6778    0.0000 </r>
       <r>   70.6778    0.0000 </r>
       <r>   70.6783    0.0000 </r>
       <r>   70.6783    0.0000 </r>
       <r>   71.9713    0.0000 </r>
       <r>   71.9713    0.0000 </r>
       <r>   71.9715    0.0000 </r>
       <r>   71.9715    0.0000 </r>
       <r>   72.6331    0.0000 </r>
       <r>   72.6331    0.0000 </r>
       <r>   75.9064    0.0000 </r>
       <r>   75.9064    0.0000 </r>
       <r>   80.3591    0.0000 </r>
       <r>   80.3591    0.0000 </r>
       <r>   80.3727    0.0000 </r>
       <r>   80.3727    0.0000 </r>
       <r>   86.0369    0.0000 </r>
       <r>   86.0369    0.0000 </r>
       <r>   86.1307    0.0000 </r>
       <r>   86.1307    0.0000 </r>
       <r>   86.1319    0.0000 </r>
       <r>   86.1319    0.0000 </r>
       <r>   86.8240    0.0000 </r>
       <r>   86.8240    0.0000 </r>
       <r>   93.8619    0.0000 </r>
       <r>   93.8619    0.0000 </r>
       <r>   93.8747    0.0000 </r>
       <r>   93.8747    0.0000 </r>
       <r>   96.7621    0.0000 </r>
       <r>   96.7621    0.0000 </r>
       <r>   99.1844    0.0000 </r>
       <r>   99.1844    0.0000 </r>
       <r>   99.1865    0.0000 </r>
       <r>   99.1865    0.0000 </r>
       <r>  103.7259    0.0000 </r>
       <r>  103.7259    0.0000 </r>
       <r>  103.7270    0.0000 </r>
       <r>  103.7270    0.0000 </r>
       <r>  103.8403    0.0000 </r>
       <r>  103.8403    0.0000 </r>
       <r>  103.8920    0.0000 </r>
       <r>  103.8920    0.0000 </r>
       <r>  104.3218    0.0000 </r>
       <r>  104.3218    0.0000 </r>
       <r>  104.3222    0.0000 </r>
       <r>  104.3222    0.0000 </r>
       <r>  111.2715    0.0000 </r>
       <r>  111.2715    0.0000 </r>
       <r>  111.2815    0.0000 </r>
       <r>  111.2815    0.0000 </r>
       <r>  111.9025    0.0000 </r>
       <r>  111.9025    0.0000 </r>
       <r>  115.0587    0.0000 </r>
       <r>  115.0587    0.0000 </r>
       <r>  115.0593    0.0000 </r>
       <r>  115.0593    0.0000 </r>
       <r>  117.6328    0.0000 </r>
       <r>  117.6328    0.0000 </r>
       <r>  120.0290    0.0000 </r>
       <r>  120.0290    0.0000 </r>
       <r>  120.0301    0.0000 </r>
       <r>  120.0301    0.0000 </r>
       <r>  120.9156    0.0000 </r>
       <r>  120.9156    0.0000 </r>
       <r>  120.9160    0.0000 </r>
       <r>  120.9160    0.0000 </r>
       <r>  122.8855    0.0000 </r>
       <r>  122.8855    0.0000 </r>
       <r>  123.0200    0.0000 </r>
       <r>  123.0200    0.0000 </r>
      </set>
      <set comment="kpoint 5">
       <r>  -37.2385    1.0000 </r>
       <r>  -37.2385    1.0000 </r>
       <r>  -12.2302    1.0000 </r>
       <r>  -12.2302    1.0000 </r>
       <r>  -11.6251    1.0000 </r>
       <r>  -11.6251    1.0000 </r>
       <r>  -11.5633    1.0000 </r>
       <r>  -11.5633    1.0000 </r>
       <r>    4.9824    0.0000 </r>
       <r>    4.9824    0.0000 </r>
       <r>   12.3403    0.0000 </r>
       <r>   12.3403    0.0000 </r>
       <r>   20.6568    0.0000 </r>
       <r>   20.6568    0.0000 </r>
       <r>   20.6574    0.0000 </r>
       <r>   20.6574    0.0000 </r>
       <r>   22.3370    0.0000 </r>
       <r>   22.3370    0.0000 </r>
       <r>   25.9979    0.0000 </r>
       <r>   25.9979    0.0000 </r>
       <r>   26.0055    0.0000 </r>
       <r>   26.0055    0.0000 </r>
       <r>   30.2086    0.0000 </r>
       <r>   30.2086    0.0000 </r>
       <r>   33.3592    0.0000 </r>
       <r>   33.3592    0.0000 </r>
       <r>   33.3716    0.0000 </r>
       <r>   33.3716    0.0000 </r>
       <r>   37.2068    0.0000 </r>
       <r>   37.2068    0.0000 </r>
       <r>   42.9913    0.0000 </r>
       <r>   42.9913    0.0000 </r>
       <r>   42.9917    0.0000 </r>
       <r>   42.9917    0.0000 </r>
       <r>   44.2615    0.0000 </r>
       <r>   44.2615    0.0000 </r>
       <r>   48.0530    0.0000 </r>
       <r>   48.0530    0.0000 </r>
       <r>   48.0622    0.0000 </r>
       <r>   48.0622    0.0000 </r>
       <r>   52.1210    0.0000 </r>
       <r>   52.1210    0.0000 </r>
       <r>   58.5011    0.0000 </r>
       <r>   58.5011    0.0000 </r>
       <r>   62.8514    0.0000 </r>
       <r>   62.8514    0.0000 </r>
       <r>   62.8518    0.0000 </r>
       <r>   62.8518    0.0000 </r>
       <r>   64.6830    0.0000 </r>
       <r>   64.6830    0.0000 </r>
       <r>   64.6841    0.0000 </r>
       <r>   64.6841    0.0000 </r>
       <r>   66.7608    0.0000 </r>
       <r>   66.7608    0.0000 </r>
       <r>   67.5695    0.0000 </r>
       <r>   67.5695    0.0000 </r>
       <r>   68.1070    0.0000 </r>
       <r>   68.1070    0.0000 </r>
       <r>   71.5109    0.0000 </r>
       <r>   71.5109    0.0000 </r>
       <r>   71.5144    0.0000 </r>
       <r>   71.5144    0.0000 </r>
       <r>   74.7764    0.0000 </r>
       <r>   74.7764    0.0000 </r>
       <r>   74.7770    0.0000 </r>
       <r>   74.7770    0.0000 </r>
       <r>   75.2552    0.0000 </r>
       <r>   75.2552    0.0000 </r>
       <r>   76.2309    0.0000 </r>
       <r>   76.2309    0.0000 </r>
       <r>   80.3376    0.0000 </r>
       <r>   80.3376    0.0000 </r>
       <r>   80.3476    0.0000 </r>
       <r>   80.3476    0.0000 </r>
       <r>   85.8010    0.0000 </r>
       <r>   85.8010    0.0000 </r>
       <r>   86.6897    0.0000 </r>
       <r>   86.6897    0.0000 </r>
       <r>   86.6902    0.0000 </r>
       <r>   86.6902    0.0000 </r>
       <r>   88.1662    0.0000 </r>
       <r>   88.1662    0.0000 </r>
       <r>   88.1666    0.0000 </r>
       <r>   88.1666    0.0000 </r>
       <r>   88.3240    0.0000 </r>
       <r>   88.3240    0.0000 </r>
       <r>   93.0077    0.0000 </r>
       <r>   93.0077    0.0000 </r>
       <r>   94.7070    0.0000 </r>
       <r>   94.7070    0.0000 </r>
       <r>   94.7113    0.0000 </r>
       <r>   94.7113    0.0000 </r>
       <r>   99.2680    0.0000 </r>
       <r>   99.2680    0.0000 </r>
       <r>  101.0095    0.0000 </r>
       <r>  101.0095    0.0000 </r>
       <r>  101.0195    0.0000 </r>
       <r>  101.0195    0.0000 </r>
       <r>  106.5917    0.0000 </r>
       <r>  106.5917    0.0000 </r>
       <r>  106.5960    0.0000 </r>
       <r>  106.5960    0.0000 </r>
       <r>  107.4982    0.0000 </r>
       <r>  107.4982    0.0000 </r>
       <r>  108.7450    0.0000 </r>
       <r>  108.7450    0.0000 </r>
       <r>  108.7454    0.0000 </r>
       <r>  108.7454    0.0000 </r>
       <r>  110.7497    0.0000 </r>
       <r>  110.7497    0.0000 </r>
       <r>  112.5118    0.0000 </r>
       <r>  112.5118    0.0000 </r>
       <r>  113.4729    0.0000 </r>
       <r>  113.4729    0.0000 </r>
       <r>  113.6315    0.0000 </r>
       <r>  113.6315    0.0000 </r>
       <r>  113.6316    0.0000 </r>
       <r>  113.6316    0.0000 </r>
       <r>  116.0705    0.0000 </r>
       <r>  116.0705    0.0000 </r>
       <r>  116.0758    0.0000 </r>
       <r>  116.0758    0.0000 </r>
       <r>  116.1201    0.0000 </r>
       <r>  116.1201    0.0000 </r>
       <r>  121.1934    0.0000 </r>
       <r>  121.1934    0.0000 </r>
       <r>  121.1946    0.0000 </r>
       <r>  121.1946    0.0000 </r>
      </set>
      <set comment="kpoint 6">
       <r>  -37.2752    1.0000 </r>
       <r>  -37.2752    1.0000 </r>
       <r>  -11.6708    1.0000 </r>
       <r>  -11.6708    1.0000 </r>
       <r>  -11.2192    1.0000 </r>
       <r>  -11.2192    1.0000 </r>
       <r>  -11.1609    1.0000 </r>
       <r>  -11.1609    1.0000 </r>
       <r>    2.6204    0.0000 </r>
       <r>    2.6204    0.0000 </r>
       <r>   17.1991    0.0000 </r>
       <r>   17.1991    0.0000 </r>
       <r>   21.5920    0.0000 </r>
       <r>   21.5920    0.0000 </r>
       <r>   21.5932    0.0000 </r>
       <r>   21.5932    0.0000 </r>
       <r>   23.8091    0.0000 </r>
       <r>   23.8091    0.0000 </r>
       <r>   25.7942    0.0000 </r>
       <r>   25.7942    0.0000 </r>
       <r>   25.7943    0.0000 </r>
       <r>   25.7943    0.0000 </r>
       <r>   28.6144    0.0000 </r>
       <r>   28.6144    0.0000 </r>
       <r>   31.3350    0.0000 </r>
       <r>   31.3350    0.0000 </r>
       <r>   31.3470    0.0000 </r>
       <r>   31.3470    0.0000 </r>
       <r>   33.8320    0.0000 </r>
       <r>   33.8320    0.0000 </r>
       <r>   37.2183    0.0000 </r>
       <r>   37.2183    0.0000 </r>
       <r>   39.4789    0.0000 </r>
       <r>   39.4789    0.0000 </r>
       <r>   39.4918    0.0000 </r>
       <r>   39.4918    0.0000 </r>
       <r>   53.7814    0.0000 </r>
       <r>   53.7814    0.0000 </r>
       <r>   53.7839    0.0000 </r>
       <r>   53.7839    0.0000 </r>
       <r>   54.1862    0.0000 </r>
       <r>   54.1862    0.0000 </r>
       <r>   59.6320    0.0000 </r>
       <r>   59.6320    0.0000 </r>
       <r>   62.5730    0.0000 </r>
       <r>   62.5730    0.0000 </r>
       <r>   62.5747    0.0000 </r>
       <r>   62.5747    0.0000 </r>
       <r>   64.7568    0.0000 </r>
       <r>   64.7568    0.0000 </r>
       <r>   69.8978    0.0000 </r>
       <r>   69.8978    0.0000 </r>
       <r>   69.9023    0.0000 </r>
       <r>   69.9023    0.0000 </r>
       <r>   69.9082    0.0000 </r>
       <r>   69.9082    0.0000 </r>
       <r>   73.6583    0.0000 </r>
       <r>   73.6583    0.0000 </r>
       <r>   73.6596    0.0000 </r>
       <r>   73.6596    0.0000 </r>
       <r>   77.5142    0.0000 </r>
       <r>   77.5142    0.0000 </r>
       <r>   77.5159    0.0000 </r>
       <r>   77.5159    0.0000 </r>
       <r>   78.2166    0.0000 </r>
       <r>   78.2166    0.0000 </r>
       <r>   80.5214    0.0000 </r>
       <r>   80.5214    0.0000 </r>
       <r>   80.5223    0.0000 </r>
       <r>   80.5223    0.0000 </r>
       <r>   82.0427    0.0000 </r>
       <r>   82.0427    0.0000 </r>
       <r>   82.5736    0.0000 </r>
       <r>   82.5736    0.0000 </r>
       <r>   84.4007    0.0000 </r>
       <r>   84.4007    0.0000 </r>
       <r>   84.4047    0.0000 </r>
       <r>   84.4047    0.0000 </r>
       <r>   85.3987    0.0000 </r>
       <r>   85.3987    0.0000 </r>
       <r>   87.3889    0.0000 </r>
       <r>   87.3889    0.0000 </r>
       <r>   87.4988    0.0000 </r>
       <r>   87.4988    0.0000 </r>
       <r>   87.4993    0.0000 </r>
       <r>   87.4993    0.0000 </r>
       <r>   90.8587    0.0000 </r>
       <r>   90.8587    0.0000 </r>
       <r>   93.3339    0.0000 </r>
       <r>   93.3339    0.0000 </r>
       <r>   93.3343    0.0000 </r>
       <r>   93.3343    0.0000 </r>
       <r>   95.2487    0.0000 </r>
       <r>   95.2487    0.0000 </r>
       <r>   95.2501    0.0000 </r>
       <r>   95.2501    0.0000 </r>
       <r>   95.5076    0.0000 </r>
       <r>   95.5076    0.0000 </r>
       <r>   98.5826    0.0000 </r>
       <r>   98.5826    0.0000 </r>
       <r>   98.5829    0.0000 </r>
       <r>   98.5829    0.0000 </r>
       <r>   99.9155    0.0000 </r>
       <r>   99.9155    0.0000 </r>
       <r>  100.7827    0.0000 </r>
       <r>  100.7827    0.0000 </r>
       <r>  104.2884    0.0000 </r>
       <r>  104.2884    0.0000 </r>
       <r>  104.2916    0.0000 </r>
       <r>  104.2916    0.0000 </r>
       <r>  104.7215    0.0000 </r>
       <r>  104.7215    0.0000 </r>
       <r>  105.3503    0.0000 </r>
       <r>  105.3503    0.0000 </r>
       <r>  105.3504    0.0000 </r>
       <r>  105.3504    0.0000 </r>
       <r>  110.3024    0.0000 </r>
       <r>  110.3024    0.0000 </r>
       <r>  111.3988    0.0000 </r>
       <r>  111.3988    0.0000 </r>
       <r>  111.4231    0.0000 </r>
       <r>  111.4231    0.0000 </r>
       <r>  116.3618    0.0000 </r>
       <r>  116.3618    0.0000 </r>
       <r>  123.5337    0.0000 </r>
       <r>  123.5337    0.0000 </r>
       <r>  124.4214    0.0000 </r>
       <r>  124.4214    0.0000 </r>
      </set>
      <set comment="kpoint 7">
       <r>  -37.2752    1.0000 </r>
       <r>  -37.2752    1.0000 </r>
       <r>  -11.6708    1.0000 </r>
       <r>  -11.6708    1.0000 </r>
       <r>  -11.2192    1.0000 </r>
       <r>  -11.2192    1.0000 </r>
       <r>  -11.1609    1.0000 </r>
       <r>  -11.1609    1.0000 </r>
       <r>    2.6204    0.0000 </r>
       <r>    2.6204    0.0000 </r>
       <r>   17.1991    0.0000 </r>
       <r>   17.1991    0.0000 </r>
       <r>   21.5920    0.0000 </r>
       <r>   21.5920    0.0000 </r>
       <r>   21.5932    0.0000 </r>
       <r>   21.5932    0.0000 </r>
       <r>   23.8091    0.0000 </r>
       <r>   23.8091    0.0000 </r>
       <r>   25.7942    0.0000 </r>
       <r>   25.7942    0.0000 </r>
       <r>   25.7943    0.0000 </r>
       <r>   25.7943    0.0000 </r>
       <r>   28.6144    0.0000 </r>
       <r>   28.6144    0.0000 </r>
       <r>   31.3350    0.0000 </r>
       <r>   31.3350    0.0000 </r>
       <r>   31.3470    0.0000 </r>
       <r>   31.3470    0.0000 </r>
       <r>   33.8320    0.0000 </r>
       <r>   33.8320    0.0000 </r>
       <r>   37.2183    0.0000 </r>
       <r>   37.2183    0.0000 </r>
       <r>   39.4789    0.0000 </r>
       <r>   39.4789    0.0000 </r>
       <r>   39.4918    0.0000 </r>
       <r>   39.4918    0.0000 </r>
       <r>   53.7814    0.0000 </r>
       <r>   53.7814    0.0000 </r>
       <r>   53.7839    0.0000 </r>
       <r>   53.7839    0.0000 </r>
       <r>   54.1862    0.0000 </r>
       <r>   54.1862    0.0000 </r>
       <r>   59.6320    0.0000 </r>
       <r>   59.6320    0.0000 </r>
       <r>   62.5731    0.0000 </r>
       <r>   62.5731    0.0000 </r>
       <r>   62.5747    0.0000 </r>
       <r>   62.5747    0.0000 </r>
       <r>   64.7568    0.0000 </r>
       <r>   64.7568    0.0000 </r>
       <r>   69.8978    0.0000 </r>
       <r>   69.8978    0.0000 </r>
       <r>   69.9023    0.0000 </r>
       <r>   69.9023    0.0000 </r>
       <r>   69.9082    0.0000 </r>
       <r>   69.9082    0.0000 </r>
       <r>   73.6583    0.0000 </r>
       <r>   73.6583    0.0000 </r>
       <r>   73.6596    0.0000 </r>
       <r>   73.6596    0.0000 </r>
       <r>   77.5142    0.0000 </r>
       <r>   77.5142    0.0000 </r>
       <r>   77.5159    0.0000 </r>
       <r>   77.5159    0.0000 </r>
       <r>   78.2166    0.0000 </r>
       <r>   78.2166    0.0000 </r>
       <r>   80.5214    0.0000 </r>
       <r>   80.5214    0.0000 </r>
       <r>   80.5223    0.0000 </r>
       <r>   80.5223    0.0000 </r>
       <r>   82.0427    0.0000 </r>
       <r>   82.0427    0.0000 </r>
       <r>   82.5736    0.0000 </r>
       <r>   82.5736    0.0000 </r>
       <r>   84.4007    0.0000 </r>
       <r>   84.4007    0.0000 </r>
       <r>   84.4047    0.0000 </r>
       <r>   84.4047    0.0000 </r>
       <r>   85.3987    0.0000 </r>
       <r>   85.3988    0.0000 </r>
       <r>   87.3889    0.0000 </r>
       <r>   87.3889    0.0000 </r>
       <r>   87.4988    0.0000 </r>
       <r>   87.4988    0.0000 </r>
       <r>   87.4993    0.0000 </r>
       <r>   87.4993    0.0000 </r>
       <r>   90.8587    0.0000 </r>
       <r>   90.8587    0.0000 </r>
       <r>   93.3339    0.0000 </r>
       <r>   93.3339    0.0000 </r>
       <r>   93.3343    0.0000 </r>
       <r>   93.3343    0.0000 </r>
       <r>   95.2487    0.0000 </r>
       <r>   95.2487    0.0000 </r>
       <r>   95.2501    0.0000 </r>
       <r>   95.2501    0.0000 </r>
       <r>   95.5076    0.0000 </r>
       <r>   95.5076    0.0000 </r>
       <r>   98.5826    0.0000 </r>
       <r>   98.5826    0.0000 </r>
       <r>   98.5829    0.0000 </r>
       <r>   98.5829    0.0000 </r>
       <r>   99.9155    0.0000 </r>
       <r>   99.9155    0.0000 </r>
       <r>  100.7827    0.0000 </r>
       <r>  100.7827    0.0000 </r>
       <r>  104.2884    0.0000 </r>
       <r>  104.2884    0.0000 </r>
       <r>  104.2916    0.0000 </r>
       <r>  104.2916    0.0000 </r>
       <r>  104.7215    0.0000 </r>
       <r>  104.7215    0.0000 </r>
       <r>  105.3503    0.0000 </r>
       <r>  105.3503    0.0000 </r>
       <r>  105.3504    0.0000 </r>
       <r>  105.3504    0.0000 </r>
       <r>  110.3024    0.0000 </r>
       <r>  110.3024    0.0000 </r>
       <r>  111.3988    0.0000 </r>
       <r>  111.3988    0.0000 </r>
       <r>  111.4231    0.0000 </r>
       <r>  111.4231    0.0000 </r>
       <r>  116.3618    0.0000 </r>
       <r>  116.3618    0.0000 </r>
       <r>  123.5337    0.0000 </r>
       <r>  123.5337    0.0000 </r>
       <r>  124.4214    0.0000 </r>
       <r>  124.4214    0.0000 </r>
      </set>
      <set comment="kpoint 8">
       <r>  -37.2759    1.0000 </r>
       <r>  -37.2759    1.0000 </r>
       <r>  -11.6625    1.0000 </r>
       <r>  -11.6625    1.0000 </r>
       <r>  -11.4489    1.0000 </r>
       <r>  -11.4489    1.0000 </r>
       <r>  -11.3950    1.0000 </r>
       <r>  -11.3950    1.0000 </r>
       <r>    2.9087    0.0000 </r>
       <r>    2.9087    0.0000 </r>
       <r>   17.8443    0.0000 </r>
       <r>   17.8443    0.0000 </r>
       <r>   20.4907    0.0000 </r>
       <r>   20.4907    0.0000 </r>
       <r>   20.5562    0.0000 </r>
       <r>   20.5562    0.0000 </r>
       <r>   20.5615    0.0000 </r>
       <r>   20.5615    0.0000 </r>
       <r>   28.8179    0.0000 </r>
       <r>   28.8179    0.0000 </r>
       <r>   29.3932    0.0000 </r>
       <r>   29.3932    0.0000 </r>
       <r>   30.0535    0.0000 </r>
       <r>   30.0535    0.0000 </r>
       <r>   30.3324    0.0000 </r>
       <r>   30.3324    0.0000 </r>
       <r>   30.3348    0.0000 </r>
       <r>   30.3348    0.0000 </r>
       <r>   33.1577    0.0000 </r>
       <r>   33.1577    0.0000 </r>
       <r>   37.6907    0.0000 </r>
       <r>   37.6907    0.0000 </r>
       <r>   37.7091    0.0000 </r>
       <r>   37.7091    0.0000 </r>
       <r>   41.7217    0.0000 </r>
       <r>   41.7217    0.0000 </r>
       <r>   53.2088    0.0000 </r>
       <r>   53.2088    0.0000 </r>
       <r>   54.4181    0.0000 </r>
       <r>   54.4181    0.0000 </r>
       <r>   54.9537    0.0000 </r>
       <r>   54.9537    0.0000 </r>
       <r>   54.9588    0.0000 </r>
       <r>   54.9588    0.0000 </r>
       <r>   61.4682    0.0000 </r>
       <r>   61.4682    0.0000 </r>
       <r>   62.1244    0.0000 </r>
       <r>   62.1244    0.0000 </r>
       <r>   68.3215    0.0000 </r>
       <r>   68.3215    0.0000 </r>
       <r>   68.8001    0.0000 </r>
       <r>   68.8001    0.0000 </r>
       <r>   68.8053    0.0000 </r>
       <r>   68.8053    0.0000 </r>
       <r>   72.2191    0.0000 </r>
       <r>   72.2191    0.0000 </r>
       <r>   72.2200    0.0000 </r>
       <r>   72.2200    0.0000 </r>
       <r>   74.9202    0.0000 </r>
       <r>   74.9202    0.0000 </r>
       <r>   75.3697    0.0000 </r>
       <r>   75.3697    0.0000 </r>
       <r>   76.6737    0.0000 </r>
       <r>   76.6737    0.0000 </r>
       <r>   76.6764    0.0000 </r>
       <r>   76.6764    0.0000 </r>
       <r>   78.0220    0.0000 </r>
       <r>   78.0220    0.0000 </r>
       <r>   80.6827    0.0000 </r>
       <r>   80.6827    0.0000 </r>
       <r>   82.0897    0.0000 </r>
       <r>   82.0897    0.0000 </r>
       <r>   85.2468    0.0000 </r>
       <r>   85.2468    0.0000 </r>
       <r>   85.2469    0.0000 </r>
       <r>   85.2469    0.0000 </r>
       <r>   85.3718    0.0000 </r>
       <r>   85.3718    0.0000 </r>
       <r>   86.7689    0.0000 </r>
       <r>   86.7689    0.0000 </r>
       <r>   88.4997    0.0000 </r>
       <r>   88.4997    0.0000 </r>
       <r>   88.5000    0.0000 </r>
       <r>   88.5000    0.0000 </r>
       <r>   88.7777    0.0000 </r>
       <r>   88.7777    0.0000 </r>
       <r>   89.6157    0.0000 </r>
       <r>   89.6157    0.0000 </r>
       <r>   89.6208    0.0000 </r>
       <r>   89.6208    0.0000 </r>
       <r>   89.8696    0.0000 </r>
       <r>   89.8696    0.0000 </r>
       <r>   94.0811    0.0000 </r>
       <r>   94.0811    0.0000 </r>
       <r>   95.1878    0.0000 </r>
       <r>   95.1878    0.0000 </r>
       <r>   96.2084    0.0000 </r>
       <r>   96.2084    0.0000 </r>
       <r>   97.3967    0.0000 </r>
       <r>   97.3967    0.0000 </r>
       <r>   97.3969    0.0000 </r>
       <r>   97.3969    0.0000 </r>
       <r>   98.3930    0.0000 </r>
       <r>   98.3930    0.0000 </r>
       <r>  104.9997    0.0000 </r>
       <r>  104.9997    0.0000 </r>
       <r>  105.0062    0.0000 </r>
       <r>  105.0062    0.0000 </r>
       <r>  105.5008    0.0000 </r>
       <r>  105.5008    0.0000 </r>
       <r>  108.5761    0.0000 </r>
       <r>  108.5761    0.0000 </r>
       <r>  110.0104    0.0000 </r>
       <r>  110.0104    0.0000 </r>
       <r>  110.0214    0.0000 </r>
       <r>  110.0214    0.0000 </r>
       <r>  111.0025    0.0000 </r>
       <r>  111.0025    0.0000 </r>
       <r>  111.1085    0.0000 </r>
       <r>  111.1085    0.0000 </r>
       <r>  113.6678    0.0000 </r>
       <r>  113.6678    0.0000 </r>
       <r>  113.6882    0.0000 </r>
       <r>  113.6882    0.0000 </r>
       <r>  119.3509    0.0000 </r>
       <r>  119.3509    0.0000 </r>
       <r>  128.6705    0.0000 </r>
       <r>  128.6705    0.0000 </r>
      </set>
      <set comment="kpoint 9">
       <r>  -37.2366    1.0000 </r>
       <r>  -37.2366    1.0000 </r>
       <r>  -12.1077    1.0000 </r>
       <r>  -12.1077    1.0000 </r>
       <r>  -11.6286    1.0000 </r>
       <r>  -11.6286    1.0000 </r>
       <r>  -11.5654    1.0000 </r>
       <r>  -11.5654    1.0000 </r>
       <r>    4.7287    0.0000 </r>
       <r>    4.7287    0.0000 </r>
       <r>   14.1899    0.0000 </r>
       <r>   14.1899    0.0000 </r>
       <r>   17.4338    0.0000 </r>
       <r>   17.4338    0.0000 </r>
       <r>   19.9192    0.0000 </r>
       <r>   19.9192    0.0000 </r>
       <r>   21.8179    0.0000 </r>
       <r>   21.8179    0.0000 </r>
       <r>   27.9072    0.0000 </r>
       <r>   27.9072    0.0000 </r>
       <r>   29.1633    0.0000 </r>
       <r>   29.1633    0.0000 </r>
       <r>   30.1726    0.0000 </r>
       <r>   30.1726    0.0000 </r>
       <r>   32.8561    0.0000 </r>
       <r>   32.8561    0.0000 </r>
       <r>   34.5797    0.0000 </r>
       <r>   34.5797    0.0000 </r>
       <r>   37.4430    0.0000 </r>
       <r>   37.4430    0.0000 </r>
       <r>   39.2511    0.0000 </r>
       <r>   39.2511    0.0000 </r>
       <r>   40.3290    0.0000 </r>
       <r>   40.3290    0.0000 </r>
       <r>   46.9019    0.0000 </r>
       <r>   46.9019    0.0000 </r>
       <r>   46.9237    0.0000 </r>
       <r>   46.9237    0.0000 </r>
       <r>   49.6779    0.0000 </r>
       <r>   49.6779    0.0000 </r>
       <r>   53.9602    0.0000 </r>
       <r>   53.9602    0.0000 </r>
       <r>   55.6536    0.0000 </r>
       <r>   55.6536    0.0000 </r>
       <r>   59.9801    0.0000 </r>
       <r>   59.9801    0.0000 </r>
       <r>   62.0642    0.0000 </r>
[...]
       <r>    84.0180     0.0000     0.0000 </r>
       <r>    84.6267     0.0000     0.0000 </r>
       <r>    85.2353     0.0000     0.0000 </r>
       <r>    85.8440     0.0000     0.0000 </r>
       <r>    86.4526     0.0000     0.0000 </r>
       <r>    87.0613     0.0000     0.0000 </r>
       <r>    87.6699     0.0000     0.0000 </r>
       <r>    88.2786     0.0000     0.0000 </r>
       <r>    88.8872     0.0000     0.0000 </r>
       <r>    89.4958     0.0000     0.0000 </r>
       <r>    90.1045     0.0000     0.0000 </r>
       <r>    90.7131     0.0000     0.0000 </r>
       <r>    91.3218     0.0000     0.0000 </r>
       <r>    91.9304     0.0000     0.0000 </r>
       <r>    92.5391     0.0000     0.0000 </r>
       <r>    93.1477     0.0000     0.0000 </r>
       <r>    93.7564     0.0000     0.0000 </r>
       <r>    94.3650     0.0000     0.0000 </r>
       <r>    94.9737     0.0000     0.0000 </r>
       <r>    95.5823     0.0000     0.0000 </r>
       <r>    96.1909     0.0000     0.0000 </r>
       <r>    96.7996     0.0000     0.0000 </r>
       <r>    97.4082     0.0000     0.0000 </r>
       <r>    98.0169     0.0000     0.0000 </r>
       <r>    98.6255     0.0000     0.0000 </r>
       <r>    99.2342     0.0000     0.0000 </r>
       <r>    99.8428     0.0000     0.0000 </r>
       <r>   100.4515     0.0000     0.0000 </r>
       <r>   101.0601     0.0000     0.0000 </r>
       <r>   101.6688     0.0000     0.0000 </r>
       <r>   102.2774     0.0000     0.0000 </r>
       <r>   102.8860     0.0000     0.0000 </r>
       <r>   103.4947     0.0000     0.0000 </r>
       <r>   104.1033     0.0000     0.0000 </r>
       <r>   104.7120     0.0000     0.0000 </r>
       <r>   105.3206     0.0000     0.0000 </r>
       <r>   105.9293     0.0000     0.0000 </r>
       <r>   106.5379     0.0000     0.0000 </r>
       <r>   107.1466     0.0000     0.0000 </r>
       <r>   107.7552     0.0000     0.0000 </r>
       <r>   108.3639     0.0000     0.0000 </r>
       <r>   108.9725     0.0000     0.0000 </r>
       <r>   109.5811     0.0000     0.0000 </r>
       <r>   110.1898     0.0000     0.0000 </r>
       <r>   110.7984     0.0000     0.0000 </r>
       <r>   111.4071     0.0000     0.0000 </r>
       <r>   112.0157     0.0000     0.0000 </r>
       <r>   112.6244     0.0000     0.0000 </r>
       <r>   113.2330     0.0000     0.0000 </r>
       <r>   113.8417     0.0000     0.0000 </r>
       <r>   114.4503     0.0000     0.0000 </r>
       <r>   115.0590     0.0000     0.0000 </r>
       <r>   115.6676     0.0000     0.0000 </r>
       <r>   116.2763     0.0000     0.0000 </r>
       <r>   116.8849     0.0000     0.0000 </r>
       <r>   117.4935     0.0000     0.0000 </r>
       <r>   118.1022     0.0000     0.0000 </r>
       <r>   118.7108     0.0000     0.0000 </r>
       <r>   119.3195     0.0000     0.0000 </r>
       <r>   119.9281     0.0000     0.0000 </r>
       <r>   120.5368     0.0000     0.0000 </r>
       <r>   121.1454     0.0000     0.0000 </r>
       <r>   121.7541     0.0000     0.0000 </r>
       <r>   122.3627     0.0000     0.0000 </r>
       <r>   122.9714     0.0000     0.0000 </r>
       <r>   123.5800     0.0000     0.0000 </r>
       <r>   124.1886     0.0000     0.0000 </r>
       <r>   124.7973     0.0000     0.0000 </r>
       <r>   125.4059     0.0000     0.0000 </r>
       <r>   126.0146     0.0000     0.0000 </r>
       <r>   126.6232     0.0000     0.0000 </r>
       <r>   127.2319     0.0000     0.0000 </r>
       <r>   127.8405     0.0000     0.0000 </r>
       <r>   128.4492     0.0000     0.0000 </r>
       <r>   129.0578     0.0000     0.0000 </r>
       <r>   129.6665     0.0000     0.0000 </r>
       <r>   130.2751     0.0000     0.0000 </r>
       <r>   130.8837     0.0000     0.0000 </r>
       <r>   131.4924     0.0000     0.0000 </r>
       <r>   132.1010     0.0000     0.0000 </r>
       <r>   132.7097     0.0000     0.0000 </r>
       <r>   133.3183     0.0000     0.0000 </r>
       <r>   133.9270     0.0000     0.0000 </r>
       <r>   134.5356     0.0000     0.0000 </r>
       <r>   135.1443     0.0000     0.0000 </r>
       <r>   135.7529     0.0000     0.0000 </r>
       <r>   136.3616     0.0000     0.0000 </r>
       <r>   136.9702     0.0000     0.0000 </r>
      </set>
      <set comment="spin 4">
       <r>   -45.6235     0.0000     0.0000 </r>
       <r>   -45.0148     0.0000     0.0000 </r>
       <r>   -44.4062     0.0000     0.0000 </r>
       <r>   -43.7976     0.0000     0.0000 </r>
       <r>   -43.1889     0.0000     0.0000 </r>
       <r>   -42.5803     0.0000     0.0000 </r>
       <r>   -41.9716     0.0000     0.0000 </r>
       <r>   -41.3630     0.0000     0.0000 </r>
       <r>   -40.7543     0.0000     0.0000 </r>
       <r>   -40.1457     0.0000     0.0000 </r>
       <r>   -39.5370     0.0000     0.0000 </r>
       <r>   -38.9284     0.0000     0.0000 </r>
       <r>   -38.3197     0.0000     0.0000 </r>
       <r>   -37.7111     0.0000     0.0000 </r>
       <r>   -37.1025     0.0000     0.0000 </r>
       <r>   -36.4938     0.0000     0.0000 </r>
       <r>   -35.8852     0.0000     0.0000 </r>
       <r>   -35.2765     0.0000     0.0000 </r>
       <r>   -34.6679     0.0000     0.0000 </r>
       <r>   -34.0592     0.0000     0.0000 </r>
       <r>   -33.4506     0.0000     0.0000 </r>
       <r>   -32.8419     0.0000     0.0000 </r>
       <r>   -32.2333     0.0000     0.0000 </r>
       <r>   -31.6246     0.0000     0.0000 </r>
       <r>   -31.0160     0.0000     0.0000 </r>
       <r>   -30.4074     0.0000     0.0000 </r>
       <r>   -29.7987     0.0000     0.0000 </r>
       <r>   -29.1901     0.0000     0.0000 </r>
       <r>   -28.5814     0.0000     0.0000 </r>
       <r>   -27.9728     0.0000     0.0000 </r>
       <r>   -27.3641     0.0000     0.0000 </r>
       <r>   -26.7555     0.0000     0.0000 </r>
       <r>   -26.1468     0.0000     0.0000 </r>
       <r>   -25.5382     0.0000     0.0000 </r>
       <r>   -24.9295     0.0000     0.0000 </r>
       <r>   -24.3209     0.0000     0.0000 </r>
       <r>   -23.7122     0.0000     0.0000 </r>
       <r>   -23.1036     0.0000     0.0000 </r>
       <r>   -22.4950     0.0000     0.0000 </r>
       <r>   -21.8863     0.0000     0.0000 </r>
       <r>   -21.2777     0.0000     0.0000 </r>
       <r>   -20.6690     0.0000     0.0000 </r>
       <r>   -20.0604     0.0000     0.0000 </r>
       <r>   -19.4517     0.0000     0.0000 </r>
       <r>   -18.8431     0.0000     0.0000 </r>
       <r>   -18.2344     0.0000     0.0000 </r>
       <r>   -17.6258     0.0000     0.0000 </r>
       <r>   -17.0171     0.0000     0.0000 </r>
       <r>   -16.4085     0.0000     0.0000 </r>
       <r>   -15.7999     0.0000     0.0000 </r>
       <r>   -15.1912     0.0000     0.0000 </r>
       <r>   -14.5826     0.0000     0.0000 </r>
       <r>   -13.9739     0.0000     0.0000 </r>
       <r>   -13.3653     0.0000     0.0000 </r>
       <r>   -12.7566     0.0000     0.0000 </r>
       <r>   -12.1480     0.0000     0.0000 </r>
       <r>   -11.5393     0.0000     0.0000 </r>
       <r>   -10.9307     0.0000     0.0000 </r>
       <r>   -10.3220     0.0000     0.0000 </r>
       <r>    -9.7134     0.0000     0.0000 </r>
       <r>    -9.1048     0.0000     0.0000 </r>
       <r>    -8.4961     0.0000     0.0000 </r>
       <r>    -7.8875     0.0000     0.0000 </r>
       <r>    -7.2788     0.0000     0.0000 </r>
       <r>    -6.6702     0.0000     0.0000 </r>
       <r>    -6.0615     0.0000     0.0000 </r>
       <r>    -5.4529     0.0000     0.0000 </r>
       <r>    -4.8442     0.0000     0.0000 </r>
       <r>    -4.2356     0.0000     0.0000 </r>
       <r>    -3.6269     0.0000     0.0000 </r>
       <r>    -3.0183     0.0000     0.0000 </r>
       <r>    -2.4097     0.0000     0.0000 </r>
       <r>    -1.8010     0.0000     0.0000 </r>
       <r>    -1.1924     0.0000     0.0000 </r>
       <r>    -0.5837     0.0000     0.0000 </r>
       <r>     0.0249     0.0000     0.0000 </r>
       <r>     0.6336     0.0000     0.0000 </r>
       <r>     1.2422     0.0000     0.0000 </r>
       <r>     1.8509     0.0000     0.0000 </r>
       <r>     2.4595     0.0000     0.0000 </r>
       <r>     3.0682     0.0000     0.0000 </r>
       <r>     3.6768     0.0000     0.0000 </r>
       <r>     4.2855     0.0000     0.0000 </r>
       <r>     4.8941     0.0000     0.0000 </r>
       <r>     5.5027     0.0000     0.0000 </r>
       <r>     6.1114     0.0000     0.0000 </r>
       <r>     6.7200     0.0000     0.0000 </r>
       <r>     7.3287     0.0000     0.0000 </r>
       <r>     7.9373     0.0000     0.0000 </r>
       <r>     8.5460     0.0000     0.0000 </r>
       <r>     9.1546     0.0000     0.0000 </r>
       <r>     9.7633     0.0000     0.0000 </r>
       <r>    10.3719     0.0000     0.0000 </r>
       <r>    10.9806     0.0000     0.0000 </r>
       <r>    11.5892     0.0000     0.0000 </r>
       <r>    12.1978     0.0000     0.0000 </r>
       <r>    12.8065     0.0000     0.0000 </r>
       <r>    13.4151     0.0000     0.0000 </r>
       <r>    14.0238     0.0000     0.0000 </r>
       <r>    14.6324     0.0000     0.0000 </r>
       <r>    15.2411     0.0000     0.0000 </r>
       <r>    15.8497     0.0000     0.0000 </r>
       <r>    16.4584     0.0000     0.0000 </r>
       <r>    17.0670     0.0000     0.0000 </r>
       <r>    17.6757     0.0000     0.0000 </r>
       <r>    18.2843     0.0000     0.0000 </r>
       <r>    18.8929     0.0000     0.0000 </r>
       <r>    19.5016     0.0000     0.0000 </r>
       <r>    20.1102     0.0000     0.0000 </r>
       <r>    20.7189     0.0000     0.0000 </r>
       <r>    21.3275     0.0000     0.0000 </r>
       <r>    21.9362     0.0000     0.0000 </r>
       <r>    22.5448     0.0000     0.0000 </r>
       <r>    23.1535     0.0000     0.0000 </r>
       <r>    23.7621     0.0000     0.0000 </r>
       <r>    24.3708     0.0000     0.0000 </r>
       <r>    24.9794     0.0000     0.0000 </r>
       <r>    25.5880     0.0000     0.0000 </r>
       <r>    26.1967     0.0000     0.0000 </r>
       <r>    26.8053     0.0000     0.0000 </r>
       <r>    27.4140     0.0000     0.0000 </r>
       <r>    28.0226     0.0000     0.0000 </r>
       <r>    28.6313     0.0000     0.0000 </r>
       <r>    29.2399     0.0000     0.0000 </r>
       <r>    29.8486     0.0000     0.0000 </r>
       <r>    30.4572     0.0000     0.0000 </r>
       <r>    31.0659     0.0000     0.0000 </r>
       <r>    31.6745     0.0000     0.0000 </r>
       <r>    32.2832     0.0000     0.0000 </r>
       <r>    32.8918     0.0000     0.0000 </r>
       <r>    33.5004     0.0000     0.0000 </r>
       <r>    34.1091     0.0000     0.0000 </r>
       <r>    34.7177     0.0000     0.0000 </r>
       <r>    35.3264     0.0000     0.0000 </r>
       <r>    35.9350     0.0000     0.0000 </r>
       <r>    36.5437     0.0000     0.0000 </r>
       <r>    37.1523     0.0000     0.0000 </r>
       <r>    37.7610     0.0000     0.0000 </r>
       <r>    38.3696     0.0000     0.0000 </r>
       <r>    38.9783     0.0000     0.0000 </r>
       <r>    39.5869     0.0000     0.0000 </r>
       <r>    40.1955     0.0000     0.0000 </r>
       <r>    40.8042     0.0000     0.0000 </r>
       <r>    41.4128     0.0000     0.0000 </r>
       <r>    42.0215     0.0000     0.0000 </r>
       <r>    42.6301     0.0000     0.0000 </r>
       <r>    43.2388     0.0000     0.0000 </r>
       <r>    43.8474     0.0000     0.0000 </r>
       <r>    44.4561     0.0000     0.0000 </r>
       <r>    45.0647     0.0000     0.0000 </r>
       <r>    45.6734     0.0000     0.0000 </r>
       <r>    46.2820     0.0000     0.0000 </r>
       <r>    46.8906     0.0000     0.0000 </r>
       <r>    47.4993     0.0000     0.0000 </r>
       <r>    48.1079     0.0000     0.0000 </r>
       <r>    48.7166     0.0000     0.0000 </r>
       <r>    49.3252     0.0000     0.0000 </r>
       <r>    49.9339     0.0000     0.0000 </r>
       <r>    50.5425     0.0000     0.0000 </r>
       <r>    51.1512     0.0000     0.0000 </r>
       <r>    51.7598     0.0000     0.0000 </r>
       <r>    52.3685     0.0000     0.0000 </r>
       <r>    52.9771     0.0000     0.0000 </r>
       <r>    53.5857     0.0000     0.0000 </r>
       <r>    54.1944     0.0000     0.0000 </r>
       <r>    54.8030     0.0000     0.0000 </r>
       <r>    55.4117     0.0000     0.0000 </r>
       <r>    56.0203     0.0000     0.0000 </r>
       <r>    56.6290     0.0000     0.0000 </r>
       <r>    57.2376     0.0000     0.0000 </r>
       <r>    57.8463     0.0000     0.0000 </r>
       <r>    58.4549     0.0000     0.0000 </r>
       <r>    59.0636     0.0000     0.0000 </r>
       <r>    59.6722     0.0000     0.0000 </r>
       <r>    60.2809     0.0000     0.0000 </r>
       <r>    60.8895     0.0000     0.0000 </r>
       <r>    61.4981     0.0000     0.0000 </r>
       <r>    62.1068     0.0000     0.0000 </r>
       <r>    62.7154     0.0000     0.0000 </r>
       <r>    63.3241     0.0000     0.0000 </r>
       <r>    63.9327     0.0000     0.0000 </r>
       <r>    64.5414     0.0000     0.0000 </r>
       <r>    65.1500     0.0000     0.0000 </r>
       <r>    65.7587     0.0000     0.0000 </r>
       <r>    66.3673     0.0000     0.0000 </r>
       <r>    66.9760     0.0000     0.0000 </r>
       <r>    67.5846     0.0000     0.0000 </r>
       <r>    68.1932     0.0000     0.0000 </r>
       <r>    68.8019     0.0000     0.0000 </r>
       <r>    69.4105     0.0000     0.0000 </r>
       <r>    70.0192     0.0000     0.0000 </r>
       <r>    70.6278     0.0000     0.0000 </r>
       <r>    71.2365     0.0000     0.0000 </r>
       <r>    71.8451     0.0000     0.0000 </r>
       <r>    72.4538     0.0000     0.0000 </r>
       <r>    73.0624     0.0000     0.0000 </r>
       <r>    73.6711     0.0000     0.0000 </r>
       <r>    74.2797     0.0000     0.0000 </r>
       <r>    74.8883     0.0000     0.0000 </r>
       <r>    75.4970     0.0000     0.0000 </r>
       <r>    76.1056     0.0000     0.0000 </r>
       <r>    76.7143     0.0000     0.0000 </r>
       <r>    77.3229     0.0000     0.0000 </r>
       <r>    77.9316     0.0000     0.0000 </r>
       <r>    78.5402     0.0000     0.0000 </r>
       <r>    79.1489     0.0000     0.0000 </r>
       <r>    79.7575     0.0000     0.0000 </r>
       <r>    80.3662     0.0000     0.0000 </r>
       <r>    80.9748     0.0000     0.0000 </r>
       <r>    81.5834     0.0000     0.0000 </r>
       <r>    82.1921     0.0000     0.0000 </r>
       <r>    82.8007     0.0000     0.0000 </r>
       <r>    83.4094     0.0000     0.0000 </r>
       <r>    84.0180     0.0000     0.0000 </r>
       <r>    84.6267     0.0000     0.0000 </r>
       <r>    85.2353     0.0000     0.0000 </r>
       <r>    85.8440     0.0000     0.0000 </r>
       <r>    86.4526     0.0000     0.0000 </r>
       <r>    87.0613     0.0000     0.0000 </r>
       <r>    87.6699     0.0000     0.0000 </r>
       <r>    88.2786     0.0000     0.0000 </r>
       <r>    88.8872     0.0000     0.0000 </r>
       <r>    89.4958     0.0000     0.0000 </r>
       <r>    90.1045     0.0000     0.0000 </r>
       <r>    90.7131     0.0000     0.0000 </r>
       <r>    91.3218     0.0000     0.0000 </r>
       <r>    91.9304     0.0000     0.0000 </r>
       <r>    92.5391     0.0000     0.0000 </r>
       <r>    93.1477     0.0000     0.0000 </r>
       <r>    93.7564     0.0000     0.0000 </r>
       <r>    94.3650     0.0000     0.0000 </r>
       <r>    94.9737     0.0000     0.0000 </r>
       <r>    95.5823     0.0000     0.0000 </r>
       <r>    96.1909     0.0000     0.0000 </r>
       <r>    96.7996     0.0000     0.0000 </r>
       <r>    97.4082     0.0000     0.0000 </r>
       <r>    98.0169     0.0000     0.0000 </r>
       <r>    98.6255     0.0000     0.0000 </r>
       <r>    99.2342     0.0000     0.0000 </r>
       <r>    99.8428     0.0000     0.0000 </r>
       <r>   100.4515     0.0000     0.0000 </r>
       <r>   101.0601     0.0000     0.0000 </r>
       <r>   101.6688     0.0000     0.0000 </r>
       <r>   102.2774     0.0000     0.0000 </r>
       <r>   102.8860     0.0000     0.0000 </r>
       <r>   103.4947     0.0000     0.0000 </r>
       <r>   104.1033     0.0000     0.0000 </r>
       <r>   104.7120     0.0000     0.0000 </r>
       <r>   105.3206     0.0000     0.0000 </r>
       <r>   105.9293     0.0000     0.0000 </r>
       <r>   106.5379     0.0000     0.0000 </r>
       <r>   107.1466     0.0000     0.0000 </r>
       <r>   107.7552     0.0000     0.0000 </r>
       <r>   108.3639     0.0000     0.0000 </r>
       <r>   108.9725     0.0000     0.0000 </r>
       <r>   109.5811     0.0000     0.0000 </r>
       <r>   110.1898     0.0000     0.0000 </r>
       <r>   110.7984     0.0000     0.0000 </r>
       <r>   111.4071     0.0000     0.0000 </r>
       <r>   112.0157     0.0000     0.0000 </r>
       <r>   112.6244     0.0000     0.0000 </r>
       <r>   113.2330     0.0000     0.0000 </r>
       <r>   113.8417     0.0000     0.0000 </r>
       <r>   114.4503     0.0000     0.0000 </r>
       <r>   115.0590     0.0000     0.0000 </r>
       <r>   115.6676     0.0000     0.0000 </r>
       <r>   116.2763     0.0000     0.0000 </r>
       <r>   116.8849     0.0000     0.0000 </r>
       <r>   117.4935     0.0000     0.0000 </r>
       <r>   118.1022     0.0000     0.0000 </r>
       <r>   118.7108     0.0000     0.0000 </r>
       <r>   119.3195     0.0000     0.0000 </r>
       <r>   119.9281     0.0000     0.0000 </r>
       <r>   120.5368     0.0000     0.0000 </r>
       <r>   121.1454     0.0000     0.0000 </r>
       <r>   121.7541     0.0000     0.0000 </r>
       <r>   122.3627     0.0000     0.0000 </r>
       <r>   122.9714     0.0000     0.0000 </r>
       <r>   123.5800     0.0000     0.0000 </r>
       <r>   124.1886     0.0000     0.0000 </r>
       <r>   124.7973     0.0000     0.0000 </r>
       <r>   125.4059     0.0000     0.0000 </r>
       <r>   126.0146     0.0000     0.0000 </r>
       <r>   126.6232     0.0000     0.0000 </r>
       <r>   127.2319     0.0000     0.0000 </r>
       <r>   127.8405     0.0000     0.0000 </r>
       <r>   128.4492     0.0000     0.0000 </r>
       <r>   129.0578     0.0000     0.0000 </r>
       <r>   129.6665     0.0000     0.0000 </r>
       <r>   130.2751     0.0000     0.0000 </r>
       <r>   130.8837     0.0000     0.0000 </r>
       <r>   131.4924     0.0000     0.0000 </r>
       <r>   132.1010     0.0000     0.0000 </r>
       <r>   132.7097     0.0000     0.0000 </r>
       <r>   133.3183     0.0000     0.0000 </r>
       <r>   133.9270     0.0000     0.0000 </r>
       <r>   134.5356     0.0000     0.0000 </r>
       <r>   135.1443     0.0000     0.0000 </r>
       <r>   135.7529     0.0000     0.0000 </r>
       <r>   136.3616     0.0000     0.0000 </r>
       <r>   136.9702     0.0000     0.0000 </r>
      </set>
     </set>
    </array>
   </total>
  </dos>
 </calculation>
 <structure name="finalpos" >
  <crystal>
   <varray name="basis" >
    <v>       2.97422087       0.00000000       0.00000000 </v>
    <v>       1.48711043       2.57575083       0.00000000 </v>
    <v>       1.48711043       0.85858361       2.42844117 </v>
   </varray>
   <i name="volume">     18.60392805 </i>
   <varray name="rec_basis" >
    <v>       0.33622251      -0.19411816      -0.13726226 </v>
    <v>       0.00000000       0.38823631      -0.13726226 </v>
    <v>       0.00000000       0.00000000       0.41178679 </v>
   </varray>
  </crystal>
  <varray name="positions" >
   <v>       0.00000000       0.00000000       0.00000000 </v>
  </varray>
  <varray name="velocities" >
   <v>       0.00000000       0.00000000       0.00000000 </v>
  </varray>
 </structure>
</modeling>
