Rn_FCC                                  
  0.976554000000000     
     4.520565    0.000000    0.000000
     2.260282    3.914924   -0.000000
     2.260282    1.304975    3.691026
   Rn
     1
Direct
  0.000000  0.000000  0.000000
 
   56   56   56
  829.50      812.31      763.08      688.25      596.64      497.51      399.13      308.05      228.97      164.80    
  116.56      83.269      61.946      48.160      37.538      28.907      22.184      17.007      13.046      10.009    
  7.6838      5.9106      4.5660      3.5629      2.8255      2.3064      1.9594      1.7644      1.6986      1.7644    
  1.9594      2.3064      2.8255      3.5629      4.5660      5.9106      7.6838      10.009      13.046      17.007    
  22.184      28.907      37.538      48.160      61.946      83.269      116.56      164.80      228.97      308.05    
  399.13      497.51      596.64      688.25      763.08      812.31      812.31      779.10      717.16      634.17    
  539.23      441.10      347.12      262.85      192.11      136.82      97.027      70.672      54.033      42.311    
  32.742      25.173      19.303      14.814      11.363      8.7260      6.7021      5.1677      4.0079      3.1516    
  2.5311      2.1052      1.8376      1.7092      1.7095      1.8373      2.1054      2.5307      3.1517      4.0074    
  5.1677      6.7013      8.7255      11.362      14.813      19.301      25.171      32.738      42.307      54.028    
  70.667      97.020      136.81      192.11      262.86      347.12      441.11      539.25      634.18      717.17    
  779.11      812.31      763.08      717.16      647.25      561.45      468.43      375.93      290.23      215.90    
  155.74      110.72      79.765      59.932      46.836      36.520      28.159      21.639      16.616      12.760    
  9.8019      7.5303      5.7988      4.4822      3.5016      2.7783      2.2709      1.9296      1.7395      1.6738    
  1.7395      1.9295      2.2708      2.7780      3.5014      4.4816      5.7981      7.5289      9.8003      12.757    
  16.612      21.634      28.154      36.512      46.827      59.919      79.753      110.71      155.73      215.89    
  290.24      375.94      468.44      561.48      647.26      717.17      763.09      779.11      688.25      634.17    
  561.45      477.92      391.24      308.05      233.52      171.20      122.86      88.375      65.638      50.970    
  40.037      31.026      23.923      18.397      14.157      10.884      8.3753      6.4440      4.9776      3.8667    
  3.0462      2.4505      2.0417      1.7844      1.6610      1.6611      1.7842      2.0417      2.4501      3.0459    
  3.8660      4.9767      6.4425      8.3734      10.881      14.153      18.391      23.915      31.016      40.026    
  50.955      65.621      88.357      122.84      171.18      233.52      308.06      391.25      477.95      561.48    
  634.20      688.27      717.17      717.17      596.64      539.23      468.43      391.24      314.24      242.90    
  181.31      131.95      95.498      70.678      54.574      43.099      33.639      26.048      20.095      15.502    
  11.943      9.2082      7.0904      5.4773      4.2419      3.3249      2.6430      2.1679      1.8444      1.6671    
  1.6032      1.6670      1.8442      2.1676      2.6426      3.3242      4.2409      5.4758      7.0883      9.2051    
  11.939      15.497      20.088      26.038      33.626      43.083      54.554      70.656      95.476      131.93    
  181.30      242.89      314.25      391.26      468.45      539.26      596.67      634.20      647.26      634.18    
  497.51      441.10      375.93      308.05      242.90      184.84      136.83      100.21      74.473      57.432    
  45.552      35.853      27.912      21.635      16.741      12.943      9.9994      7.7201      5.9643      4.6197    
  3.6034      2.8469      2.2999      1.9215      1.6843      1.5699      1.5699      1.6842      1.9213      2.2995    
  2.8464      3.6026      4.6184      5.9623      7.7173      9.9954      12.937      16.733      21.624      27.899    
  35.837      45.531      57.407      74.445      100.18      136.81      184.82      242.90      308.06      375.95    
  441.13      497.54      539.26      561.48      561.48      539.25      399.13      347.12      290.23      233.52    
  181.31      136.83      101.86      76.516      59.282      47.275      37.532      29.420      22.930      17.823    
  13.834      10.726      8.3041      6.4295      4.9813      3.8805      3.0486      2.4406      2.0043      1.7181    
  1.5504      1.4992      1.5504      1.7179      2.0041      2.4401      3.0480      3.8793      4.9797      6.4269    
  8.3007      10.721      13.827      17.814      22.918      29.404      37.513      47.251      59.256      76.486    
  101.83      136.81      181.30      233.52      290.24      347.13      399.15      441.13      468.45      477.95    
  468.44      441.11      308.05      262.85      215.90      171.20      131.95      100.21      76.516      59.930    
  48.165      38.584      30.478      23.916      18.690      14.582      11.352      8.8255      6.8497      5.3198    
  4.1404      3.2470      2.5786      2.0949      1.7585      1.5481      1.4458      1.4461      1.5477      1.7587    
  2.0943      2.5784      3.2459      4.1395      5.3176      6.8472      8.8211      11.346      14.574      18.680    
  23.902      30.460      38.561      48.138      59.897      76.485      100.18      131.93      171.18      215.89    
  262.86      308.06      347.13      375.95      391.26      391.25      375.94      347.12      228.97      192.11    
  155.74      122.86      95.498      74.473      59.282      48.165      38.938      31.025      24.530      19.300    
  15.145      11.853      9.2563      7.2139      5.6168      4.3790      3.4293      2.7135      2.1837      1.8072    
  1.5547      1.4112      1.3635      1.4112      1.5547      1.8071      2.1835      2.7130      3.4285      4.3776    
  5.6147      7.2107      9.2518      11.847      15.136      19.288      24.515      31.008      38.915      48.139    
  59.250      74.444      95.461      122.83      155.72      192.09      228.97      262.86      290.24      308.06    
  314.25      308.06      290.24      262.86      164.80      136.82      110.72      88.375      70.678      57.432    
  47.275      38.584      31.025      24.742      19.612      15.496      12.201      9.5820      7.5011      5.8648    
  4.5820      3.5927      2.8352      2.2702      1.8563      1.5706      1.3887      1.3024      1.3014      1.3897    
  1.5697      1.8572      2.2691      2.8357      3.5910      4.5817      5.8616      7.4988      9.5761      12.195    
  15.486      19.602      24.724      31.008      38.557      47.251      57.394      70.652      88.340      110.69    
  136.80      164.79      192.09      215.89      233.52      242.90      242.89      233.52      215.89      192.11    
  116.56      97.027      79.765      65.638      54.574      45.552      37.532      30.478      24.530      19.612    
  15.615      12.381      9.7826      7.7023      6.0490      4.7446      3.7264      2.9419      2.3465      1.9055    
  1.5892      1.3782      1.2562      1.2172      1.2562      1.3784      1.5892      1.9059      2.3463      2.9420    
  3.7254      4.7440      6.0464      7.6998      9.7770      12.375      15.604      19.603      24.513      30.464    
  37.506      45.533      54.539      65.609      79.739      96.995      116.54      136.80      155.72      171.18    
  181.30      184.82      181.30      171.18      155.73      136.81      83.269      70.672      59.932      50.970    
  43.099      35.853      29.420      23.916      19.300      15.496      12.381      9.8510      7.8047      6.1639    
  4.8566      3.8275      3.0257      2.4115      1.9485      1.6102      1.3736      1.2245      1.1519      1.1524    
  1.2244      1.3743      1.6102      1.9494      2.4113      3.0263      3.8267      4.8564      6.1615      7.8029    
  9.8457      12.376      15.486      19.291      23.898      29.406      35.828      43.077      50.947      59.895    
  70.656      83.239      96.995      110.69      122.83      131.93      136.81      136.81      131.93      122.84    
  110.71      97.020      61.946      54.033      46.836      40.037      33.639      27.912      22.930      18.690    
  15.145      12.201      9.7826      7.8047      6.2029      4.9139      3.8900      3.0840      2.4602      1.9838    
  1.6294      1.3738      1.2027      1.1038      1.0719      1.1040      1.2030      1.3745      1.6300      1.9848    
  2.4608      3.0849      3.8900      4.9141      6.2013      7.8032      9.7786      12.197      15.136      18.683    
  22.916      27.899      33.624      40.008      46.826      54.000      61.921      70.656      79.739      88.340    
  95.461      100.18      101.83      100.18      95.476      88.357      79.753      70.667      48.160      42.311    
  36.520      31.026      26.048      21.635      17.823      14.582      11.853      9.5820      7.7023      6.1639    
  4.9139      3.9110      3.1140      2.4904      2.0088      1.6446      1.3763      1.1884      1.0693      1.0116    
  1.0118      1.0697      1.1892      1.3772      1.6458      2.0101      2.4917      3.1154      3.9120      4.9147    
  6.1636      7.7012      9.5787      11.849      14.575      17.815      21.625      26.031      31.020      36.496    
  42.293      48.154      54.000      59.895      65.609      70.652      74.444      76.485      76.486      74.445    
  70.656      65.621      59.919      54.028      37.538      32.742      28.159      23.923      20.095      16.741    
  13.834      11.352      9.2563      7.5011      6.0490      4.8566      3.8900      3.1140      2.5007      2.0217    
  1.6545      1.3789      1.1799      1.0457     0.96835     0.94323     0.96870      1.0465      1.1809      1.3804    
  1.6560      2.0238      2.5025      3.1164      3.8915      4.8586      6.0498      7.5025      9.2552      11.351    
  13.830      16.735      20.091      23.908      28.150      32.735      37.515      42.293      46.826      50.947    
  54.539      57.394      59.250      59.897      59.256      57.407      54.554      50.955      46.827      42.307    
  28.907      25.173      21.639      18.397      15.502      12.943      10.726      8.8255      7.2139      5.8648    
  4.7446      3.8275      3.0840      2.4904      2.0217      1.6579      1.3805      1.1755      1.0311     0.93939    
 0.89497     0.89518     0.94009      1.0322      1.1770      1.3825      1.6602      2.0244      2.4933      3.0873    
  3.8303      4.7473      5.8663      7.2154      8.8253      10.725      12.941      15.495      18.396      21.632    
  25.161      28.903      32.735      36.496      40.008      43.077      45.533      47.251      48.139      48.138    
  47.251      45.531      43.083      40.026      36.512      32.738      22.184      19.303      16.616      14.157    
  11.943      9.9994      8.3041      6.8497      5.6168      4.5820      3.7264      3.0257      2.4602      2.0088    
  1.6545      1.3805      1.1741      1.0241     0.92280     0.86430     0.84535     0.86486     0.92385      1.0258    
  1.1762      1.3833      1.6575      2.0125      2.4638      3.0301      3.7306      4.5871      5.6207      6.8541    
  8.3077      10.001      11.947      14.154      16.613      19.304      22.178      25.161      28.150      31.020    
  33.624      35.828      37.506      38.557      38.915      38.561      37.513      35.837      33.626      31.016    
  28.154      25.171      17.007      14.814      12.760      10.884      9.2082      7.7201      6.4295      5.3198    
  4.3790      3.5927      2.9419      2.4115      1.9838      1.6446      1.3789      1.1755      1.0241     0.91740    
 0.84943     0.81653     0.81686     0.85034     0.91898      1.0263      1.1783      1.3823      1.6485      1.9884    
  2.4163      2.9469      3.5975      4.3843      5.3245      6.4334      7.7251      9.2089      10.890      12.762    
  14.812      17.008      19.304      21.632      23.908      26.031      27.899      29.406      30.464      31.008    
  31.008      30.460      29.404      27.899      26.038      23.915      21.634      19.301      13.046      11.363    
  9.8019      8.3753      7.0904      5.9643      4.9813      4.1404      3.4293      2.8352      2.3465      1.9485    
  1.6294      1.3763      1.1799      1.0311     0.92280     0.84943     0.80710     0.79349     0.80779     0.85087    
 0.92488      1.0340      1.1834      1.3806      1.6340      1.9543      2.3527      2.8424      3.4364      4.1481    
  4.9893      5.9709      7.0996      8.3792      9.8060      11.370      13.049      14.812      16.613      18.396    
  20.091      21.625      22.916      23.898      24.513      24.724      24.515      23.902      22.918      21.624    
  20.088      18.391      16.612      14.813      10.009      8.7260      7.5303      6.4440      5.4773      4.6197    
  3.8805      3.2470      2.7135      2.2702      1.9055      1.6102      1.3738      1.1884      1.0457     0.93939    
 0.86430     0.81653     0.79349     0.79385     0.81774     0.86625     0.94220      1.0492      1.1928      1.3791    
  1.6160      1.9119      2.2768      2.7208      3.2546      3.8876      4.6285      5.4829      6.4539      7.5390    
  8.7313      10.015      11.370      12.762      14.154      15.495      16.735      17.815      18.683      19.291    
  19.603      19.602      19.288      18.680      17.814      16.733      15.497      14.153      12.757      11.362    
  7.6838      6.7021      5.7988      4.9776      4.2419      3.6034      3.0486      2.5786      2.1837      1.8563    
  1.5892      1.3736      1.2027      1.0693     0.96835     0.89497     0.84535     0.81686     0.80779     0.81774    
 0.84708     0.89763     0.97183      1.0737      1.2077      1.3799      1.5963      1.8646      2.1923      2.5880    
  3.0591      3.6130      4.2543      4.9861      5.8071      6.7129      7.6927      8.7313      9.8060      10.890    
  11.947      12.941      13.830      14.575      15.136      15.486      15.604      15.486      15.136      14.574    
  13.827      12.937      11.939      10.881      9.8003      8.7255      5.9106      5.1677      4.4822      3.8667    
  3.3249      2.8469      2.4406      2.0949      1.8072      1.5706      1.3782      1.2245      1.1038      1.0116    
 0.94323     0.89518     0.86486     0.85034     0.85087     0.86625     0.89763     0.94654      1.0160      1.1091    
  1.2306      1.3850      1.5781      1.8155      2.1040      2.4494      2.8577      3.3331      3.8789      4.4944    
  5.1774      5.9203      6.7129      7.5390      8.3792      9.2089      10.001      10.725      11.351      11.849    
  12.197      12.376      12.375      12.195      11.847      11.346      10.721      9.9954      9.2051      8.3734    
  7.5289      6.7013      4.5660      4.0079      3.5016      3.0462      2.6430      2.2999      2.0043      1.7585    
  1.5547      1.3887      1.2562      1.1519      1.0719      1.0118     0.96870     0.94009     0.92385     0.91898    
 0.92488     0.94220     0.97183      1.0160      1.0770      1.1584      1.2636      1.3974      1.5640      1.7687    
  2.0160      2.3109      2.6569      3.0573      3.5122      4.0208      4.5782      5.1774      5.8071      6.4539    
  7.0996      7.7251      8.3077      8.8253      9.2552      9.5786      9.7786      9.8457      9.7770      9.5761    
  9.2518      8.8211      8.3007      7.7173      7.0883      6.4425      5.7981      5.1677      3.5629      3.1516    
  2.7783      2.4505      2.1679      1.9215      1.7181      1.5481      1.4112      1.3024      1.2172      1.1523    
  1.1040      1.0697      1.0465      1.0322      1.0258      1.0263      1.0340      1.0492      1.0737      1.1091    
  1.1584      1.2240      1.3101      1.4199      1.5578      1.7275      1.9331      2.1774      2.4636      2.7923    
  3.1636      3.5745      4.0208      4.4944      4.9861      5.4829      5.9709      6.4334      6.8541      7.2154    
  7.5025      7.7012      7.8032      7.8029      7.6998      7.4988      7.2107      6.8472      6.4269      5.9623    
  5.4758      4.9767      4.4816      4.0074      2.8255      2.5311      2.2709      2.0417      1.8444      1.6843    
  1.5504      1.4458      1.3635      1.3014      1.2562      1.2244      1.2030      1.1892      1.1809      1.1770    
  1.1762      1.1783      1.1834      1.1928      1.2077      1.2306      1.2636      1.3101      1.3730      1.4561    
  1.5625      1.6960      1.8589      2.0541      2.2825      2.5448      2.8393      3.1636      3.5122      3.8789    
  4.2543      4.6285      4.9893      5.3245      5.6207      5.8663      6.0498      6.1636      6.2013      6.1615    
  6.0464      5.8616      5.6147      5.3176      4.9797      4.6184      4.2409      3.8660      3.5014      3.1517    
  2.3064      2.1052      1.9296      1.7844      1.6671      1.5699      1.4992      1.4461      1.4112      1.3897    
  1.3784      1.3743      1.3745      1.3772      1.3804      1.3825      1.3833      1.3823      1.3806      1.3791    
  1.3799      1.3850      1.3974      1.4199      1.4561      1.5089      1.5817      1.6771      1.7975      1.9443    
  2.1184      2.3190      2.5448      2.7923      3.0573      3.3331      3.6130      3.8876      4.1481      4.3843    
  4.5871      4.7473      4.8586      4.9147      4.9141      4.8564      4.7440      4.5817      4.3776      4.1395    
  3.8793      3.6026      3.3242      3.0459      2.7780      2.5307      1.9594      1.8376      1.7395      1.6610    
  1.6032      1.5699      1.5504      1.5477      1.5547      1.5697      1.5892      1.6102      1.6300      1.6458    
  1.6560      1.6602      1.6575      1.6485      1.6340      1.6160      1.5963      1.5781      1.5640      1.5578    
  1.5625      1.5817      1.6179      1.6740      1.7514      1.8514      1.9739      2.1184      2.2825      2.4636    
  2.6569      2.8577      3.0591      3.2546      3.4364      3.5975      3.7306      3.8303      3.8915      3.9120    
  3.8900      3.8267      3.7254      3.5910      3.4285      3.2459      3.0480      2.8464      2.6426      2.4501    
  2.2708      2.1054      1.7644      1.7092      1.6738      1.6611      1.6670      1.6842      1.7179      1.7587    
  1.8071      1.8572      1.9059      1.9494      1.9848      2.0101      2.0238      2.0244      2.0125      1.9884    
  1.9543      1.9119      1.8646      1.8155      1.7687      1.7275      1.6960      1.6771      1.6740      1.6887    
  1.7230      1.7771      1.8514      1.9443      2.0541      2.1774      2.3109      2.4494      2.5880      2.7208    
  2.8424      2.9469      3.0300      3.0873      3.1164      3.1154      3.0849      3.0263      2.9420      2.8357    
  2.7130      2.5784      2.4401      2.2995      2.1676      2.0417      1.9295      1.8373      1.6986      1.7095    
  1.7395      1.7842      1.8442      1.9213      2.0041      2.0943      2.1835      2.2691      2.3463      2.4113    
  2.4608      2.4917      2.5025      2.4933      2.4638      2.4163      2.3527      2.2768      2.1923      2.1040    
  2.0160      1.9331      1.8589      1.7975      1.7514      1.7230      1.7132      1.7230      1.7514      1.7975    
  1.8589      1.9331      2.0160      2.1040      2.1923      2.2768      2.3527      2.4163      2.4638      2.4933    
  2.5025      2.4917      2.4608      2.4113      2.3463      2.2691      2.1835      2.0943      2.0041      1.9213    
  1.8442      1.7842      1.7395      1.7095      1.7644      1.8373      1.9295      2.0417      2.1676      2.2995    
  2.4401      2.5784      2.7130      2.8357      2.9420      3.0263      3.0849      3.1154      3.1164      3.0873    
  3.0300      2.9469      2.8424      2.7208      2.5880      2.4494      2.3109      2.1774      2.0541      1.9443    
  1.8514      1.7771      1.7230      1.6887      1.6740      1.6771      1.6960      1.7275      1.7687      1.8155    
  1.8646      1.9119      1.9543      1.9884      2.0125      2.0244      2.0238      2.0101      1.9848      1.9494    
  1.9059      1.8572      1.8071      1.7587      1.7179      1.6842      1.6670      1.6611      1.6738      1.7092    
  1.9594      2.1054      2.2708      2.4501      2.6426      2.8464      3.0480      3.2459      3.4285      3.5910    
  3.7254      3.8267      3.8900      3.9120      3.8915      3.8303      3.7306      3.5975      3.4364      3.2546    
  3.0591      2.8577      2.6569      2.4636      2.2825      2.1184      1.9739      1.8514      1.7514      1.6740    
  1.6179      1.5817      1.5625      1.5578      1.5640      1.5781      1.5963      1.6160      1.6340      1.6485    
  1.6575      1.6602      1.6560      1.6458      1.6300      1.6102      1.5892      1.5697      1.5547      1.5477    
  1.5504      1.5699      1.6032      1.6610      1.7395      1.8376      2.3064      2.5307      2.7780      3.0459    
  3.3242      3.6026      3.8793      4.1395      4.3776      4.5817      4.7440      4.8564      4.9141      4.9147    
  4.8586      4.7473      4.5871      4.3843      4.1481      3.8876      3.6130      3.3331      3.0573      2.7923    
  2.5448      2.3190      2.1184      1.9443      1.7975      1.6771      1.5817      1.5089      1.4561      1.4199    
  1.3974      1.3850      1.3799      1.3791      1.3806      1.3823      1.3833      1.3825      1.3804      1.3772    
  1.3745      1.3743      1.3784      1.3897      1.4112      1.4461      1.4992      1.5699      1.6671      1.7844    
  1.9296      2.1052      2.8255      3.1517      3.5014      3.8660      4.2409      4.6184      4.9797      5.3176    
  5.6147      5.8616      6.0464      6.1615      6.2013      6.1636      6.0498      5.8663      5.6207      5.3245    
  4.9893      4.6285      4.2543      3.8789      3.5122      3.1636      2.8393      2.5448      2.2825      2.0541    
  1.8589      1.6960      1.5625      1.4561      1.3730      1.3101      1.2636      1.2306      1.2077      1.1928    
  1.1834      1.1783      1.1762      1.1770      1.1809      1.1892      1.2030      1.2244      1.2562      1.3014    
  1.3635      1.4458      1.5504      1.6843      1.8444      2.0417      2.2709      2.5311      3.5629      4.0074    
  4.4816      4.9767      5.4758      5.9623      6.4269      6.8472      7.2107      7.4988      7.6998      7.8029    
  7.8032      7.7012      7.5025      7.2154      6.8541      6.4334      5.9709      5.4829      4.9861      4.4944    
  4.0208      3.5745      3.1636      2.7923      2.4636      2.1774      1.9331      1.7275      1.5578      1.4199    
  1.3101      1.2240      1.1584      1.1091      1.0737      1.0492      1.0340      1.0263      1.0258      1.0322    
  1.0465      1.0697      1.1040      1.1523      1.2172      1.3024      1.4112      1.5481      1.7181      1.9215    
  2.1679      2.4505      2.7783      3.1516      4.5660      5.1677      5.7981      6.4425      7.0883      7.7173    
  8.3007      8.8211      9.2518      9.5761      9.7770      9.8457      9.7786      9.5786      9.2552      8.8253    
  8.3077      7.7251      7.0996      6.4539      5.8071      5.1774      4.5782      4.0208      3.5122      3.0573    
  2.6569      2.3109      2.0160      1.7687      1.5640      1.3974      1.2636      1.1584      1.0770      1.0160    
 0.97183     0.94220     0.92488     0.91898     0.92385     0.94009     0.96870      1.0118      1.0719      1.1519    
  1.2562      1.3887      1.5547      1.7585      2.0043      2.2999      2.6430      3.0462      3.5016      4.0079    
  5.9106      6.7013      7.5289      8.3734      9.2051      9.9954      10.721      11.346      11.847      12.195    
  12.375      12.376      12.197      11.849      11.351      10.725      10.001      9.2089      8.3792      7.5390    
  6.7129      5.9203      5.1774      4.4944      3.8789      3.3331      2.8577      2.4494      2.1040      1.8155    
  1.5781      1.3850      1.2306      1.1091      1.0160     0.94654     0.89763     0.86625     0.85087     0.85034    
 0.86486     0.89518     0.94323      1.0116      1.1038      1.2245      1.3782      1.5706      1.8072      2.0949    
  2.4406      2.8469      3.3249      3.8667      4.4822      5.1677      7.6838      8.7255      9.8003      10.881    
  11.939      12.937      13.827      14.574      15.136      15.486      15.604      15.486      15.136      14.575    
  13.830      12.941      11.947      10.890      9.8060      8.7313      7.6927      6.7129      5.8071      4.9861    
  4.2543      3.6130      3.0591      2.5880      2.1923      1.8646      1.5963      1.3799      1.2077      1.0737    
 0.97183     0.89763     0.84708     0.81774     0.80779     0.81686     0.84535     0.89497     0.96835      1.0693    
  1.2027      1.3736      1.5892      1.8563      2.1837      2.5786      3.0486      3.6034      4.2419      4.9776    
  5.7988      6.7021      10.009      11.362      12.757      14.153      15.497      16.733      17.814      18.680    
  19.288      19.602      19.603      19.291      18.683      17.815      16.735      15.495      14.154      12.762    
  11.370      10.015      8.7313      7.5390      6.4539      5.4829      4.6285      3.8876      3.2546      2.7208    
  2.2768      1.9119      1.6160      1.3791      1.1928      1.0492     0.94220     0.86625     0.81774     0.79385    
 0.79349     0.81653     0.86430     0.93939      1.0457      1.1884      1.3738      1.6102      1.9055      2.2702    
  2.7135      3.2470      3.8805      4.6197      5.4773      6.4440      7.5303      8.7260      13.046      14.813    
  16.612      18.391      20.088      21.624      22.918      23.902      24.515      24.724      24.513      23.898    
  22.916      21.625      20.091      18.396      16.613      14.812      13.049      11.370      9.8060      8.3792    
  7.0996      5.9709      4.9893      4.1481      3.4364      2.8424      2.3527      1.9543      1.6340      1.3806    
  1.1834      1.0340     0.92488     0.85087     0.80779     0.79349     0.80710     0.84943     0.92280      1.0311    
  1.1799      1.3763      1.6294      1.9485      2.3465      2.8352      3.4293      4.1404      4.9813      5.9643    
  7.0904      8.3753      9.8019      11.363      17.007      19.301      21.634      23.915      26.038      27.899    
  29.404      30.460      31.008      31.008      30.464      29.406      27.899      26.031      23.908      21.632    
  19.304      17.008      14.812      12.762      10.890      9.2089      7.7251      6.4334      5.3245      4.3843    
  3.5975      2.9469      2.4163      1.9884      1.6485      1.3823      1.1783      1.0263     0.91898     0.85034    
 0.81686     0.81653     0.84943     0.91740      1.0241      1.1755      1.3789      1.6446      1.9838      2.4115    
  2.9419      3.5927      4.3790      5.3198      6.4295      7.7201      9.2082      10.884      12.760      14.814    
  22.184      25.171      28.154      31.016      33.626      35.837      37.513      38.561      38.915      38.557    
  37.506      35.828      33.624      31.020      28.150      25.161      22.178      19.304      16.613      14.154    
  11.947      10.001      8.3077      6.8541      5.6207      4.5871      3.7306      3.0301      2.4638      2.0125    
  1.6575      1.3833      1.1762      1.0258     0.92385     0.86486     0.84535     0.86430     0.92280      1.0241    
  1.1741      1.3805      1.6545      2.0088      2.4602      3.0257      3.7264      4.5820      5.6168      6.8497    
  8.3041      9.9994      11.943      14.157      16.616      19.303      28.907      32.738      36.512      40.026    
  43.083      45.531      47.251      48.138      48.139      47.251      45.533      43.077      40.008      36.496    
  32.735      28.903      25.161      21.632      18.396      15.495      12.941      10.725      8.8253      7.2154    
  5.8663      4.7473      3.8303      3.0873      2.4933      2.0244      1.6602      1.3825      1.1770      1.0322    
 0.94009     0.89518     0.89497     0.93939      1.0311      1.1755      1.3805      1.6579      2.0217      2.4904    
  3.0840      3.8275      4.7446      5.8648      7.2139      8.8255      10.726      12.943      15.502      18.397    
  21.639      25.173      37.538      42.307      46.827      50.955      54.554      57.407      59.256      59.897    
  59.250      57.394      54.539      50.947      46.826      42.293      37.515      32.735      28.150      23.908    
  20.091      16.735      13.830      11.351      9.2552      7.5025      6.0498      4.8586      3.8915      3.1164    
  2.5025      2.0238      1.6560      1.3804      1.1809      1.0465     0.96870     0.94323     0.96835      1.0457    
  1.1799      1.3789      1.6545      2.0217      2.5007      3.1140      3.8900      4.8566      6.0490      7.5011    
  9.2563      11.352      13.834      16.741      20.095      23.923      28.159      32.742      48.160      54.028    
  59.919      65.621      70.656      74.445      76.486      76.485      74.444      70.652      65.609      59.895    
  54.000      48.154      42.293      36.496      31.020      26.031      21.625      17.815      14.575      11.849    
  9.5787      7.7012      6.1636      4.9147      3.9120      3.1154      2.4917      2.0101      1.6458      1.3772    
  1.1892      1.0697      1.0118      1.0116      1.0693      1.1884      1.3763      1.6446      2.0088      2.4904    