Rn_FCC                                  
  0.976554000000000     
     4.520565    0.000000    0.000000
     2.260282    3.914924   -0.000000
     2.260282    1.304975    3.691026
   Rn
     1
Direct
  0.000000  0.000000  0.000000
 
   56   56   56
 0.82949897094E+03 0.81230801230E+03 0.76307940177E+03 0.68825321953E+03 0.59664092974E+03
 0.49751442264E+03 0.39913133261E+03 0.30805321851E+03 0.22896797041E+03 0.16480324830E+03
 0.11656288138E+03 0.83269412195E+02 0.61946215813E+02 0.48159918379E+02 0.37538217188E+02
 0.28907113392E+02 0.22184091398E+02 0.17007455438E+02 0.13046005174E+02 0.10009407011E+02
 0.76838284485E+01 0.59106178002E+01 0.45659514029E+01 0.35628626707E+01 0.28254861725E+01
 0.23064497548E+01 0.19594004840E+01 0.17643720568E+01 0.16985880211E+01 0.17643720478E+01
 0.19594004685E+01 0.23064497370E+01 0.28254861561E+01 0.35628626580E+01 0.45659513946E+01
 0.59106177966E+01 0.76838284522E+01 0.10009407030E+02 0.13046005222E+02 0.17007455534E+02
 0.22184091555E+02 0.28907113605E+02 0.37538217420E+02 0.48159918565E+02 0.61946215872E+02
 0.83269412073E+02 0.11656288107E+03 0.16480324781E+03 0.22896796978E+03 0.30805321775E+03
 0.39913133172E+03 0.49751442161E+03 0.59664092864E+03 0.68825321845E+03 0.76307940090E+03
 0.81230801181E+03 0.81230801164E+03 0.77910359264E+03 0.71715695765E+03 0.63417437975E+03
 0.53923440508E+03 0.44109777303E+03 0.34711971127E+03 0.26285425653E+03 0.19210895752E+03
 0.13681696214E+03 0.97026964408E+02 0.70672274058E+02 0.54033425953E+02 0.42310906440E+02
 0.32742291283E+02 0.25172959812E+02 0.19303449745E+02 0.14813809630E+02 0.11363137857E+02
 0.87259687684E+01 0.67021429247E+01 0.51677452739E+01 0.40078757515E+01 0.31515881970E+01
 0.25310666052E+01 0.21051967219E+01 0.18376195558E+01 0.17092144513E+01 0.17094589001E+01
 0.18373324846E+01 0.21053964085E+01 0.25307087822E+01 0.31517064617E+01 0.40073721984E+01
 0.51676842614E+01 0.67013342359E+01 0.87255320256E+01 0.11361743990E+02 0.14812680134E+02
 0.19301052461E+02 0.25170721449E+02 0.32738349287E+02 0.42307065341E+02 0.54027535640E+02
 0.70666643875E+02 0.97019529213E+02 0.13681306503E+03 0.19210547063E+03 0.26285723104E+03
 0.34712476957E+03 0.44110771936E+03 0.53925005936E+03 0.63418244586E+03 0.71716975913E+03
 0.77910918532E+03 0.81230934387E+03 0.76307940004E+03 0.71715695664E+03 0.64724702422E+03
 0.56145435539E+03 0.46842663087E+03 0.37592758867E+03 0.29023111688E+03 0.21589677032E+03
 0.15574092989E+03 0.11071754075E+03 0.79765053731E+02 0.59931640005E+02 0.46835580518E+02
 0.36520078713E+02 0.28159286621E+02 0.21638798977E+02 0.16615583413E+02 0.12759666027E+02
 0.98019029576E+01 0.75302817190E+01 0.57988058436E+01 0.44822196028E+01 0.35016337996E+01
 0.27783264713E+01 0.22709232673E+01 0.19296217423E+01 0.17394934345E+01 0.16738487824E+01
 0.17394699169E+01 0.19295065140E+01 0.22708243667E+01 0.27780319955E+01 0.35013554665E+01
 0.44815765614E+01 0.57981071255E+01 0.75289414958E+01 0.98003359621E+01 0.12757041147E+02
 0.16612458306E+02 0.21634050143E+02 0.28153691814E+02 0.36512301719E+02 0.46826578253E+02
 0.59919224015E+02 0.79753435319E+02 0.11070609346E+03 0.15573454044E+03 0.21589320506E+03
 0.29023773872E+03 0.37593938040E+03 0.46844422503E+03 0.56147744235E+03 0.64726468433E+03
 0.71717443336E+03 0.76309313956E+03 0.77910918459E+03 0.68825321663E+03 0.63417437769E+03
 0.56145435441E+03 0.47791762561E+03 0.39123518883E+03 0.30805175985E+03 0.23351930288E+03
 0.17119527584E+03 0.12285556682E+03 0.88375200556E+02 0.65638262961E+02 0.50969855677E+02
 0.40037406288E+02 0.31025568358E+02 0.23922712823E+02 0.18396810462E+02 0.14157341773E+02
 0.10883917991E+02 0.83753465366E+01 0.64439625790E+01 0.49775522888E+01 0.38666832663E+01
 0.30461671163E+01 0.24505095009E+01 0.20417158793E+01 0.17843500543E+01 0.16610156455E+01
 0.16610993394E+01 0.17841568649E+01 0.20416664303E+01 0.24501443200E+01 0.30458617286E+01
 0.38659573749E+01 0.49766977640E+01 0.64424669715E+01 0.83733765861E+01 0.10880932454E+02
 0.14153346656E+02 0.18391269557E+02 0.23915460105E+02 0.31016074225E+02 0.40025511421E+02
 0.50955325665E+02 0.65620929244E+02 0.88356780338E+02 0.12283720859E+03 0.17118432901E+03
 0.23351580415E+03 0.30806143440E+03 0.39125414618E+03 0.47794545639E+03 0.56148318123E+03
 0.63419739989E+03 0.68827158195E+03 0.71717443215E+03 0.71716975729E+03 0.59664092594E+03
 0.53923440230E+03 0.46842662926E+03 0.39123518823E+03 0.31423757444E+03 0.24289513113E+03
 0.18131327612E+03 0.13195118717E+03 0.95497777581E+02 0.70677876775E+02 0.54573549614E+02
 0.43099268216E+02 0.33639033365E+02 0.26048439381E+02 0.20095299207E+02 0.15502385444E+02
 0.11943388091E+02 0.92081567941E+01 0.70904201911E+01 0.54772644367E+01 0.42418853150E+01
 0.33248547016E+01 0.26430082538E+01 0.21678929149E+01 0.18443571834E+01 0.16670602630E+01
 0.16032112756E+01 0.16669956018E+01 0.18442193449E+01 0.21676444946E+01 0.26426175335E+01
 0.33242288399E+01 0.42409467858E+01 0.54758292464E+01 0.70883404175E+01 0.92051230047E+01
 0.11939176051E+02 0.15496533788E+02 0.20087535582E+02 0.26038210988E+02 0.33626005414E+02
 0.43082510820E+02 0.54553958988E+02 0.70655889274E+02 0.95476047945E+02 0.13193295856E+03
 0.18130123747E+03 0.24289488574E+03 0.31424547143E+03 0.39125733771E+03 0.46845371990E+03
 0.53926289195E+03 0.59666806268E+03 0.63419739837E+03 0.64726468177E+03 0.63418244290E+03
 0.49751441848E+03 0.44109777008E+03 0.37592758700E+03 0.30805175920E+03 0.24289513105E+03
 0.18483770774E+03 0.13682834774E+03 0.10021071015E+03 0.74473054699E+02 0.57431743191E+02
 0.45551987859E+02 0.35853167776E+02 0.27912243177E+02 0.21634509014E+02 0.16740771889E+02
 0.12942716277E+02 0.99994442547E+01 0.77201134510E+01 0.59643105498E+01 0.46197271964E+01
 0.36034400962E+01 0.28469422974E+01 0.22998875623E+01 0.19214676467E+01 0.16843422478E+01
 0.15699212473E+01 0.15698890242E+01 0.16842379893E+01 0.19212706372E+01 0.22995450894E+01
 0.28464069769E+01 0.36025773089E+01 0.46184476731E+01 0.59623457058E+01 0.77173204498E+01
 0.99953724140E+01 0.12937180796E+02 0.16733114486E+02 0.21624482685E+02 0.27899194376E+02
 0.35836963372E+02 0.45531087675E+02 0.57407009391E+02 0.74444952077E+02 0.10018317505E+03
 0.13680560133E+03 0.18482308800E+03 0.24289759190E+03 0.30806371268E+03 0.37595235999E+03
 0.44112760544E+03 0.49753869076E+03 0.53926289033E+03 0.56148317829E+03 0.56147743869E+03
 0.53925005566E+03 0.39913132883E+03 0.34711970885E+03 0.29023111574E+03 0.23351930271E+03
 0.18131327645E+03 0.13682834809E+03 0.10185511460E+03 0.76515853948E+02 0.59282234972E+02
 0.47274691014E+02 0.37532364108E+02 0.29420125090E+02 0.22929999868E+02 0.17823233463E+02
 0.13833992800E+02 0.10726033388E+02 0.83041223710E+01 0.64294833297E+01 0.49812669019E+01
 0.38804828295E+01 0.30485741772E+01 0.24406161147E+01 0.20042722013E+01 0.17180536068E+01
 0.15504101244E+01 0.14992133196E+01 0.15503655184E+01 0.17178887417E+01 0.20040676870E+01
 0.24401346606E+01 0.30479659673E+01 0.38793131528E+01 0.49797346087E+01 0.64269049983E+01
 0.83007360815E+01 0.10720855709E+02 0.13827317468E+02 0.17813808523E+02 0.22918060323E+02
 0.29404120682E+02 0.37513434317E+02 0.47251005880E+02 0.59255641431E+02 0.76485987244E+02
 0.10182528692E+03 0.13680717993E+03 0.18129563685E+03 0.23351795392E+03 0.29023780686E+03
 0.34713387989E+03 0.39914965361E+03 0.44112760391E+03 0.46845371698E+03 0.47794545253E+03
 0.46844422090E+03 0.44110771560E+03 0.30805321581E+03 0.26285425522E+03 0.21589677020E+03
 0.17119527654E+03 0.13195118821E+03 0.10021071109E+03 0.76515854476E+02 0.59929659043E+02
 0.48164626608E+02 0.38584012963E+02 0.30477823316E+02 0.23916079141E+02 0.18689886534E+02
 0.14582247378E+02 0.11351561206E+02 0.88255210202E+01 0.68497408101E+01 0.53198316063E+01
 0.41404090717E+01 0.32470199551E+01 0.25785636072E+01 0.20949276276E+01 0.17585151240E+01
 0.15480893420E+01 0.14457602218E+01 0.14461018756E+01 0.15476607879E+01 0.17587284527E+01
 0.20943001994E+01 0.25784385815E+01 0.32458820218E+01 0.41394851902E+01 0.53175603429E+01
 0.68471780253E+01 0.88210563510E+01 0.11346036657E+02 0.14573967035E+02 0.18679663842E+02
 0.23902207735E+02 0.30460367341E+02 0.38561292689E+02 0.48138354586E+02 0.59897459195E+02
 0.76484655495E+02 0.10017555580E+03 0.13192843282E+03 0.17117535431E+03 0.21589161117E+03
 0.26286164014E+03 0.30806234622E+03 0.34713387861E+03 0.37595235742E+03 0.39125733417E+03
 0.39125414221E+03 0.37593937664E+03 0.34712476654E+03 0.22896796928E+03 0.19210895766E+03
 0.15574093102E+03 0.12285556852E+03 0.95497779387E+02 0.74473056231E+02 0.59282235990E+02
 0.48164627060E+02 0.38937792974E+02 0.31025450624E+02 0.24530025044E+02 0.19299969673E+02
 0.15144521999E+02 0.11853145057E+02 0.92563064198E+01 0.72139018071E+01 0.56168001837E+01
 0.43790411034E+01 0.34293341096E+01 0.27134683701E+01 0.21836935433E+01 0.18072089069E+01
 0.15546842431E+01 0.14112333785E+01 0.13634740665E+01 0.14112143619E+01 0.15546538028E+01
 0.18070745350E+01 0.21834717662E+01 0.27129587249E+01 0.34285404260E+01 0.43776248420E+01
 0.56147200764E+01 0.72106513715E+01 0.92517653148E+01 0.11846695618E+02 0.15135742520E+02
 0.19288257200E+02 0.24515370949E+02 0.31007545674E+02 0.38914839700E+02 0.48139325314E+02
 0.59249698150E+02 0.74444053364E+02 0.95461236210E+02 0.12283275893E+03 0.15572213686E+03
 0.19209474850E+03 0.22896710184E+03 0.26286163919E+03 0.29023780487E+03 0.30806370982E+03
 0.31424546812E+03 0.30806143118E+03 0.29023773609E+03 0.26285722940E+03 0.16480324889E+03
 0.13681696374E+03 0.11071754303E+03 0.88375203090E+02 0.70677879159E+02 0.57431745112E+02
 0.47274692316E+02 0.38584013660E+02 0.31025450862E+02 0.24741504059E+02 0.19612472408E+02
 0.15496405284E+02 0.12200759255E+02 0.95819779817E+01 0.75011239068E+01 0.58647976683E+01
 0.45820422897E+01 0.35927165605E+01 0.28351566491E+01 0.22702377241E+01 0.18562944860E+01
 0.15706261593E+01 0.13887255959E+01 0.13023512669E+01 0.13014476088E+01 0.13896837268E+01
 0.15697343238E+01 0.18571979328E+01 0.22691491527E+01 0.28357066790E+01 0.35909878442E+01
 0.45816610824E+01 0.58616375550E+01 0.74988473921E+01 0.95760831621E+01 0.12195276286E+02
 0.15486190990E+02 0.19601610826E+02 0.24723868588E+02 0.31007936948E+02 0.38556701495E+02
 0.47251175872E+02 0.57394128121E+02 0.70651792029E+02 0.88340032247E+02 0.11068859492E+03
 0.13679979985E+03 0.16478685269E+03 0.19209474787E+03 0.21589160980E+03 0.23351795191E+03
 0.24289758953E+03 0.24289488342E+03 0.23351580232E+03 0.21589320405E+03 0.19210547066E+03
 0.11656288346E+03 0.97026967161E+02 0.79765056805E+02 0.65638265976E+02 0.54573552234E+02
 0.45551989863E+02 0.37532365421E+02 0.30477824004E+02 0.24530025283E+02 0.19612472425E+02
 0.15614584423E+02 0.12381015484E+02 0.97826426657E+01 0.77022745750E+01 0.60489655352E+01
 0.47446421441E+01 0.37264113089E+01 0.29418615169E+01 0.23465077568E+01 0.19055399652E+01
 0.15892017714E+01 0.13781732150E+01 0.12561854689E+01 0.12172375092E+01 0.12562174131E+01
 0.13784194937E+01 0.15892241259E+01 0.19058928355E+01 0.23462751206E+01 0.29419952356E+01
 0.37254293219E+01 0.47439545455E+01 0.60463713535E+01 0.76998389479E+01 0.97769888313E+01
 0.12375339091E+02 0.15604482025E+02 0.19603004232E+02 0.24513040040E+02 0.30463523407E+02
 0.37505894308E+02 0.45532664792E+02 0.54539401539E+02 0.65608753997E+02 0.79738570894E+02
 0.96994639487E+02 0.11654425549E+03 0.13679979945E+03 0.15572213600E+03 0.17117535307E+03
 0.18129563543E+03 0.18482308668E+03 0.18130123658E+03 0.17118432882E+03 0.15573454113E+03
 0.13681306664E+03 0.83269415284E+02 0.70672277458E+02 0.59931643394E+02 0.50969858742E+02
 0.43099270712E+02 0.35853169564E+02 0.29420126155E+02 0.23916079599E+02 0.19299969729E+02
 0.15496405163E+02 0.12381015372E+02 0.98509747894E+01 0.78046588435E+01 0.61638797729E+01
 0.48565551006E+01 0.38274728139E+01 0.30256744527E+01 0.24114573079E+01 0.19485273040E+01
 0.16102240893E+01 0.13735768337E+01 0.12245328358E+01 0.11519238093E+01 0.11523500657E+01
 0.12243862999E+01 0.13742749873E+01 0.16102377803E+01 0.19493554083E+01 0.24113455344E+01
 0.30263060739E+01 0.38266997977E+01 0.48563964120E+01 0.61614970005E+01 0.78028878065E+01
 0.98457223334E+01 0.12375945202E+02 0.15485584985E+02 0.19290641077E+02 0.23897890437E+02
 0.29406075038E+02 0.35827594824E+02 0.43077255399E+02 0.50947169096E+02 0.59895315054E+02
 0.70656071197E+02 0.83239112040E+02 0.96994639224E+02 0.11068859440E+03 0.12283275823E+03
 0.13192843211E+03 0.13680717943E+03 0.13680560126E+03 0.13193295912E+03 0.12283720989E+03
 0.11070609552E+03 0.97019531939E+02 0.61946219324E+02 0.54033429470E+02 0.46835583776E+02
 0.40037409050E+02 0.33639035453E+02 0.27912244517E+02 0.22930000512E+02 0.18689886643E+02
 0.15144521792E+02 0.12200758945E+02 0.97826424082E+01 0.78046587137E+01 0.62029408081E+01
 0.49138528940E+01 0.38899798941E+01 0.30840184466E+01 0.24602414503E+01 0.19837878729E+01
 0.16293618854E+01 0.13738220665E+01 0.12026857976E+01 0.11037770763E+01 0.10719179290E+01
 0.11040253277E+01 0.12030390420E+01 0.13745172994E+01 0.16299522710E+01 0.19847609770E+01
 0.24607906743E+01 0.30849166552E+01 0.38899572853E+01 0.49140936050E+01 0.62013379713E+01
 0.78032022363E+01 0.97786218639E+01 0.12197194770E+02 0.15136272811E+02 0.18682635295E+02
 0.22916469327E+02 0.27898500926E+02 0.33624336635E+02 0.40008079959E+02 0.46826025552E+02
 0.54000338978E+02 0.61921207129E+02 0.70656070998E+02 0.79738570528E+02 0.88340031822E+02
 0.95461235888E+02 0.10017555576E+03 0.10182528735E+03 0.10018317606E+03 0.95476049612E+02
 0.88356782643E+02 0.79753438177E+02 0.70666647133E+02 0.48159921825E+02 0.42310909686E+02
 0.36520081540E+02 0.31025570578E+02 0.26048440882E+02 0.21634509799E+02 0.17823233642E+02
 0.14582247142E+02 0.11853144619E+02 0.95819775246E+01 0.77022742165E+01 0.61638795571E+01
 0.49138528074E+01 0.39110416829E+01 0.31140412257E+01 0.24904221566E+01 0.20087839726E+01
 0.16445992151E+01 0.13762744367E+01 0.11884487063E+01 0.10692721070E+01 0.10116190484E+01
 0.10117804961E+01 0.10696958100E+01 0.11891684039E+01 0.13772276429E+01 0.16457551405E+01
 0.20100992763E+01 0.24917435516E+01 0.31153685722E+01 0.39119764045E+01 0.49146953454E+01
 0.61636411187E+01 0.77012208321E+01 0.95786509239E+01 0.11849215085E+02 0.14575032096E+02
 0.17814681777E+02 0.21624638926E+02 0.26030850222E+02 0.31019544342E+02 0.36495827825E+02
 0.42292906959E+02 0.48154031675E+02 0.54000338823E+02 0.59895314756E+02 0.65608753656E+02
 0.70651791805E+02 0.74444053436E+02 0.76484656023E+02 0.76485988334E+02 0.74444953768E+02
 0.70655891535E+02 0.65620931987E+02 0.59919227105E+02 0.54027538909E+02 0.37538220279E+02
 0.32742294028E+02 0.28159288836E+02 0.23922714385E+02 0.20095300085E+02 0.16740772151E+02
 0.13833992598E+02 0.11351560733E+02 0.92563058623E+01 0.75011234031E+01 0.60489651595E+01
 0.48565548666E+01 0.38899797758E+01 0.31140411830E+01 0.25006766068E+01 0.20216631803E+01
 0.16544812451E+01 0.13789030540E+01 0.11799271176E+01 0.10456691724E+01 0.96835484195E+00
 0.94323061219E+00 0.96870341198E+00 0.10464611166E+01 0.11809418938E+01 0.13804288516E+01
 0.16560470970E+01 0.20237621079E+01 0.25025296156E+01 0.31164088040E+01 0.38914849213E+01
 0.48585567960E+01 0.60497896901E+01 0.75025467372E+01 0.92551809417E+01 0.11350794498E+02
 0.13830481090E+02 0.16735007440E+02 0.20091429159E+02 0.23907851769E+02 0.28150046265E+02
 0.32735346214E+02 0.37514663350E+02 0.42292906881E+02 0.46826025344E+02 0.50947168804E+02
 0.54539401288E+02 0.57394128080E+02 0.59249698481E+02 0.59897460020E+02 0.59255642806E+02
 0.57407011305E+02 0.54553961369E+02 0.50955328398E+02 0.46826581195E+02 0.42307068331E+02
 0.28907115960E+02 0.25172961930E+02 0.21638800524E+02 0.18396811389E+02 0.15502385791E+02
 0.12942716160E+02 0.10726032971E+02 0.88255204735E+01 0.72139012699E+01 0.58647972279E+01
 0.47446418323E+01 0.38274726195E+01 0.30840183366E+01 0.24904220976E+01 0.20216631524E+01
 0.16578925950E+01 0.13805333006E+01 0.11754700622E+01 0.10310781912E+01 0.93939285521E+00
 0.89496883799E+00 0.89517882779E+00 0.94009305006E+00 0.10321980978E+01 0.11770453015E+01
 0.13825187430E+01 0.16602403589E+01 0.20243704349E+01 0.24932628911E+01 0.30872566744E+01
 0.38303374743E+01 0.47473446363E+01 0.58663294012E+01 0.72154248891E+01 0.88253439634E+01
 0.10724708103E+02 0.12941498725E+02 0.15495407115E+02 0.18396434069E+02 0.21631788845E+02
 0.25161304483E+02 0.28902698421E+02 0.32735346252E+02 0.36495827794E+02 0.40008079819E+02
 0.43077255196E+02 0.45532664641E+02 0.47251175925E+02 0.48139325717E+02 0.48138355442E+02
 0.47251007235E+02 0.45531089509E+02 0.43082513056E+02 0.40025513939E+02 0.36512304362E+02
 0.32738351879E+02 0.22184093362E+02 0.19303451224E+02 0.16615584353E+02 0.14157342196E+02
 0.11943388087E+02 0.99994439581E+01 0.83041219278E+01 0.68497403465E+01 0.56167997845E+01
 0.45820419918E+01 0.37264111091E+01 0.30256743240E+01 0.24602413612E+01 0.20087839017E+01
 0.16544811875E+01 0.13805332652E+01 0.11740985678E+01 0.10241325263E+01 0.92280290314E+00
 0.86430415311E+00 0.84535459760E+00 0.86486130492E+00 0.92384547630E+00 0.10257999964E+01
 0.11761619570E+01 0.13832721285E+01 0.16574791851E+01 0.20124885184E+01 0.24638071928E+01
 0.30300503031E+01 0.37305982776E+01 0.45870892292E+01 0.56207292265E+01 0.68541071555E+01
 0.83076632367E+01 0.10000929441E+02 0.11947214158E+02 0.14153650292E+02 0.16613387700E+02
 0.19304042499E+02 0.22177721240E+02 0.25161304645E+02 0.28150046460E+02 0.31019544461E+02
 0.33624336629E+02 0.35827594722E+02 0.37505894206E+02 0.38556701534E+02 0.38914840024E+02
 0.38561293415E+02 0.37513435503E+02 0.35836965005E+02 0.33626007413E+02 0.31016076447E+02
 0.28153694080E+02 0.25170723571E+02 0.17007456815E+02 0.14813810553E+02 0.12759666506E+02
 0.10883918098E+02 0.92081566415E+01 0.77201131627E+01 0.64294830129E+01 0.53198313332E+01
 0.43790409049E+01 0.35927164322E+01 0.29418614326E+01 0.24114572368E+01 0.19837877932E+01
 0.16445991218E+01 0.13789029585E+01 0.11754699848E+01 0.10241324846E+01 0.91740297494E+00
 0.84942860318E+00 0.81652746293E+00 0.81685865854E+00 0.85034430760E+00 0.91897599056E+00
 0.10263058255E+01 0.11782744067E+01 0.13823085965E+01 0.16485314356E+01 0.19884382321E+01
 0.24162567731E+01 0.29469484910E+01 0.35974854229E+01 0.43842578485E+01 0.53245329279E+01
 0.64333986352E+01 0.77251023113E+01 0.92088665881E+01 0.10889569305E+02 0.12762197373E+02
 0.14812068237E+02 0.17008183446E+02 0.19304042756E+02 0.21631789245E+02 0.23907852170E+02
 0.26030850497E+02 0.27898501007E+02 0.29406074936E+02 0.30463523216E+02 0.31007936818E+02
 0.31007545776E+02 0.30460367817E+02 0.29404121609E+02 0.27899195738E+02 0.26038212686E+02
 0.23915461972E+02 0.21634051984E+02 0.19301054092E+02 0.13046006052E+02 0.11363138364E+02
 0.98019031509E+01 0.83753465145E+01 0.70904200617E+01 0.59643104038E+01 0.49812667964E+01
 0.41404090259E+01 0.34293341106E+01 0.28351566655E+01 0.23465077545E+01 0.19485272594E+01
 0.16293617931E+01 0.13762743101E+01 0.11799269826E+01 0.10310780762E+01 0.92280282828E+00
 0.84942857253E+00 0.80709569967E+00 0.79349465537E+00 0.80778632733E+00 0.85087012972E+00
 0.92488289003E+00 0.10339723757E+01 0.11834000969E+01 0.13806198151E+01 0.16340156609E+01
 0.19542632914E+01 0.23526511198E+01 0.28424115151E+01 0.34363564317E+01 0.41481189279E+01
 0.49893191565E+01 0.59708873617E+01 0.70996232866E+01 0.83792423588E+01 0.98060378183E+01
 0.11369790710E+02 0.13048936445E+02 0.14812068538E+02 0.16613388232E+02 0.18396434694E+02
 0.20091429707E+02 0.21624639245E+02 0.22916469335E+02 0.23897890147E+02 0.24513039568E+02
 0.24723868125E+02 0.24515370705E+02 0.23902207880E+02 0.22918060939E+02 0.21624483742E+02
 0.20087536950E+02 0.18391271046E+02 0.16612459715E+02 0.14812681300E+02 0.10009407513E+02
 0.87259690111E+01 0.75302817882E+01 0.64439625729E+01 0.54772644370E+01 0.46197272498E+01
 0.38804829434E+01 0.32470201058E+01 0.27134685170E+01 0.22702378259E+01 0.19055399937E+01
 0.16102240366E+01 0.13738219459E+01 0.11884485473E+01 0.10456690107E+01 0.93939272263E+00
 0.86430406828E+00 0.81652742658E+00 0.79349465096E+00 0.79385498807E+00 0.81774182498E+00
 0.86625254757E+00 0.94219727389E+00 0.10492213677E+01 0.11928230606E+01 0.13790907599E+01
 0.16159918654E+01 0.19118592681E+01 0.22768278903E+01 0.27207860958E+01 0.32546249352E+01
 0.38875954362E+01 0.46285441629E+01 0.54828856964E+01 0.64538544014E+01 0.75389649166E+01
 0.87312648936E+01 0.10015481559E+02 0.11369790995E+02 0.12762197931E+02 0.14153651022E+02
 0.15495407846E+02 0.16735007970E+02 0.17814681940E+02 0.18682635013E+02 0.19290640397E+02
 0.19603003321E+02 0.19601609927E+02 0.19288256563E+02 0.18679663649E+02 0.17813808839E+02
 0.16733115247E+02 0.15496534832E+02 0.14153347776E+02 0.12757042153E+02 0.11361744757E+02
 0.76838287001E+01 0.67021430355E+01 0.57988059048E+01 0.49775523793E+01 0.42418854782E+01
 0.36034403336E+01 0.30485744564E+01 0.25785638781E+01 0.21836937559E+01 0.18562946052E+01
 0.15892017846E+01 0.13735767520E+01 0.12026856505E+01 0.10692719333E+01 0.96835468042E+00
 0.89496871801E+00 0.84535453316E+00 0.81685864587E+00 0.80778634713E+00 0.81774184888E+00
 0.84707760550E+00 0.89762642263E+00 0.97182517316E+00 0.10737265559E+01 0.12077494431E+01
 0.13798998826E+01 0.15962942264E+01 0.18646177316E+01 0.21923260605E+01 0.25880273720E+01
 0.30591120897E+01 0.36129824191E+01 0.42542660225E+01 0.49861107256E+01 0.58071385877E+01
 0.67129007118E+01 0.76926640682E+01 0.87312651092E+01 0.98060382955E+01 0.10889570000E+02
 0.11947214932E+02 0.12941499370E+02 0.13830481388E+02 0.14575031885E+02 0.15136272054E+02
 0.15485583786E+02 0.15604480616E+02 0.15486189664E+02 0.15135741543E+02 0.14573966573E+02
 0.13827317547E+02 0.12937181308E+02 0.11939176804E+02 0.10880933242E+02 0.98003366211E+01
 0.87255324763E+01 0.59106179072E+01 0.51677453452E+01 0.44822197172E+01 0.38666834702E+01
 0.33248549981E+01 0.28469426515E+01 0.24406164700E+01 0.20949279266E+01 0.18072091072E+01
 0.15706262427E+01 0.13781731886E+01 0.12245327264E+01 0.11037769219E+01 0.10116188888E+01
 0.94323048148E+00 0.89517874852E+00 0.86486128490E+00 0.85034433923E+00 0.85087019239E+00
 0.86625261328E+00 0.89762646416E+00 0.94654139949E+00 0.10159819452E+01 0.11091389816E+01
 0.12306176083E+01 0.13849616363E+01 0.15780715231E+01 0.18155159717E+01 0.21040160537E+01
 0.24493538784E+01 0.28577161085E+01 0.33331481754E+01 0.38788568073E+01 0.44944393085E+01
 0.51773990213E+01 0.59203490441E+01 0.67129008238E+01 0.75389652292E+01 0.83792428897E+01
 0.92088672560E+01 0.10000930069E+02 0.10724708461E+02 0.11350794370E+02 0.11849214349E+02
 0.12197193452E+02 0.12375943478E+02 0.12375337253E+02 0.12195274649E+02 0.11846694435E+02
 0.11346036047E+02 0.10720855641E+02 0.99953727382E+01 0.92051235142E+01 0.83733770913E+01
 0.75289418764E+01 0.67013344603E+01 0.45659514406E+01 0.40078758327E+01 0.35016339773E+01
 0.30461674014E+01 0.26430086157E+01 0.22998879438E+01 0.20042725406E+01 0.17585153729E+01
 0.15546843783E+01 0.13887256203E+01 0.12561854055E+01 0.11519236921E+01 0.10719177943E+01
 0.10117803759E+01 0.96870333054E+00 0.94009302165E+00 0.92384550411E+00 0.91897606609E+00
 0.92488299406E+00 0.94219738028E+00 0.97182525572E+00 0.10159819866E+01 0.10769582302E+01
 0.11583528535E+01 0.12636102349E+01 0.13974112554E+01 0.15640028109E+01 0.17686983813E+01
 0.20159627004E+01 0.23108916715E+01 0.26569304361E+01 0.30572541215E+01 0.35122050305E+01
 0.40207987891E+01 0.45781631203E+01 0.51773990193E+01 0.58071386929E+01 0.64538546823E+01
 0.70996237274E+01 0.77251027924E+01 0.83076635536E+01 0.88253438840E+01 0.92551802845E+01
 0.95786496302E+01 0.97786200346E+01 0.98457202124E+01 0.97769867395E+01 0.95760814038E+01
 0.92517640929E+01 0.88210557197E+01 0.83007359520E+01 0.77173206410E+01 0.70883407290E+01
 0.64424672489E+01 0.57981072969E+01 0.51676843378E+01 0.35628626839E+01 0.31515883007E+01
 0.27783266877E+01 0.24505098091E+01 0.21678932629E+01 0.19214679727E+01 0.17180538598E+01
 0.15480894951E+01 0.14112334311E+01 0.13023512387E+01 0.12172374296E+01 0.11523499644E+01
 0.11040252294E+01 0.10696957330E+01 0.10464610742E+01 0.10321980991E+01 0.10258000450E+01
 0.10263059168E+01 0.10339724950E+01 0.10492214914E+01 0.10737266580E+01 0.11091390432E+01
 0.11583528733E+01 0.12240483621E+01 0.13100988309E+01 0.14198988185E+01 0.15578458657E+01
 0.17274840619E+01 0.19330540700E+01 0.21774175374E+01 0.24635630762E+01 0.27922609591E+01
 0.31635929706E+01 0.35745447534E+01 0.40207986865E+01 0.44944392093E+01 0.49861107288E+01
 0.54828858443E+01 0.59708876024E+01 0.64333988185E+01 0.68541070684E+01 0.72154243240E+01
 0.75025455699E+01 0.77012190793E+01 0.78032000684E+01 0.78028855066E+01 0.76998368314E+01
 0.74988457157E+01 0.72106502656E+01 0.68471774731E+01 0.64269048650E+01 0.59623458021E+01
 0.54758293988E+01 0.49766978651E+01 0.44815765869E+01 0.40073721893E+01 0.28254861822E+01
 0.25310667210E+01 0.22709234813E+01 0.20417161492E+01 0.18443574515E+01 0.16843424630E+01
 0.15504102580E+01 0.14457602715E+01 0.13634740501E+01 0.13014475522E+01 0.12562173391E+01
 0.12243862225E+01 0.12030389675E+01 0.11891683365E+01 0.11809418408E+01 0.11770452748E+01
 0.11761619682E+01 0.11782744604E+01 0.11834001846E+01 0.11928231601E+01 0.12077495255E+01
 0.12306176507E+01 0.12636102333E+01 0.13100988075E+01 0.13729686742E+01 0.14561036045E+01
 0.15625301919E+01 0.16959771539E+01 0.18588989676E+01 0.20540761756E+01 0.22824626845E+01
 0.25447925338E+01 0.28393242207E+01 0.31635927994E+01 0.35122047701E+01 0.38788565636E+01
 0.42542658771E+01 0.46285441272E+01 0.49893191473E+01 0.53245327793E+01 0.56207287391E+01
 0.58663284139E+01 0.60497881477E+01 0.61636391077E+01 0.62013357076E+01 0.61614947709E+01
 0.60463694318E+01 0.58616361251E+01 0.56147191896E+01 0.53175599225E+01 0.49797344967E+01
 0.46184476957E+01 0.42409468120E+01 0.38659573474E+01 0.35013553994E+01 0.31517064113E+01
 0.23064497674E+01 0.21051968294E+01 0.19296219141E+01 0.17843502393E+01 0.16670604125E+01
 0.15699213324E+01 0.14992133376E+01 0.14461018444E+01 0.14112143063E+01 0.13896836642E+01
 0.13784194271E+01 0.13742749072E+01 0.13745171935E+01 0.13772275082E+01 0.13804287002E+01
 0.13825186007E+01 0.13832720237E+01 0.13823085465E+01 0.13806198161E+01 0.13790907868E+01
 0.13798998989E+01 0.13849616116E+01 0.13974111820E+01 0.14198987194E+01 0.14561035277E+01
 0.15088641561E+01 0.15817398720E+01 0.16770535603E+01 0.17975298030E+01 0.19442569192E+01
 0.21183728782E+01 0.23189559836E+01 0.25447923362E+01 0.27922606082E+01 0.30572537075E+01
 0.33331477961E+01 0.36129821327E+01 0.38875952245E+01 0.41481186868E+01 0.43842574145E+01
 0.45870884361E+01 0.47473433809E+01 0.48585550885E+01 0.49146933216E+01 0.49140914938E+01
 0.48563944690E+01 0.47439529777E+01 0.45816599925E+01 0.43776242119E+01 0.41394849061E+01
 0.38793130594E+01 0.36025772675E+01 0.33242287694E+01 0.30458616168E+01 0.27780318811E+01
 0.25307087207E+01 0.19594005003E+01 0.18376196363E+01 0.17394935363E+01 0.16610157229E+01
 0.16032113000E+01 0.15698889933E+01 0.15503654516E+01 0.15476607119E+01 0.15546537333E+01
 0.15697342551E+01 0.15892240318E+01 0.16102376270E+01 0.16299520357E+01 0.16457548263E+01
 0.16560467367E+01 0.16602400044E+01 0.16574788873E+01 0.16485312239E+01 0.16340155305E+01
 0.16159917806E+01 0.15962941374E+01 0.15780713895E+01 0.15640026220E+01 0.15578456476E+01
 0.15625299976E+01 0.15817397582E+01 0.16179414360E+01 0.16740368195E+01 0.17513631418E+01
 0.18514251592E+01 0.19738854315E+01 0.21183726981E+01 0.22824623253E+01 0.24635625954E+01
 0.26569299241E+01 0.28577156480E+01 0.30591117140E+01 0.32546246031E+01 0.34363560324E+01
 0.35974848120E+01 0.37305973329E+01 0.38303361494E+01 0.38914832756E+01 0.39119745946E+01
 0.38899555212E+01 0.38266982791E+01 0.37254281795E+01 0.35909871080E+01 0.34285400306E+01
 0.32458818438E+01 0.30479658765E+01 0.28464068810E+01 0.26426173994E+01 0.24501441677E+01
 0.22708242434E+01 0.21053963560E+01 0.17643720761E+01 0.17092144933E+01 0.16738488042E+01
 0.16610993116E+01 0.16669955218E+01 0.16842378789E+01 0.17178886318E+01 0.17587283621E+01
 0.18070744541E+01 0.18571978215E+01 0.19058926365E+01 0.19493550721E+01 0.19847604864E+01
 0.20100986600E+01 0.20237614354E+01 0.20243697930E+01 0.20124879809E+01 0.19884378330E+01
 0.19542630146E+01 0.19118590583E+01 0.18646175207E+01 0.18155157094E+01 0.17686980574E+01
 0.17274837100E+01 0.16959768352E+01 0.16770533347E+01 0.16740367161E+01 0.16886936304E+01
 0.17229937446E+01 0.17771427117E+01 0.18514250340E+01 0.19442566289E+01 0.20540757359E+01
 0.21774170122E+01 0.23108911443E+01 0.24493534136E+01 0.25880269811E+01 0.27207857252E+01
 0.28424110608E+01 0.29469478383E+01 0.30300493750E+01 0.30872554693E+01 0.31164074068E+01
 0.31153671327E+01 0.30849153415E+01 0.30263050199E+01 0.29419945023E+01 0.28357062443E+01
 0.27129585036E+01 0.25784384649E+01 0.24401345583E+01 0.22995449564E+01 0.21676443355E+01
 0.20416662814E+01 0.19295064155E+01 0.18373324556E+01 0.16985880437E+01 0.17094589013E+01
 0.17394698651E+01 0.17841567551E+01 0.18442191999E+01 0.19212704932E+01 0.20040675702E+01
 0.20943001034E+01 0.21834716433E+01 0.22691489249E+01 0.23462747077E+01 0.24113448887E+01
 0.24607898068E+01 0.24917425368E+01 0.25025285713E+01 0.24932619408E+01 0.24638064243E+01
 0.24162562114E+01 0.23526507246E+01 0.22768275784E+01 0.21923257439E+01 0.21040156762E+01
 0.20159622587E+01 0.19330536105E+01 0.18588985619E+01 0.17975295136E+01 0.17513629922E+01
 0.17229937059E+01 0.17132347308E+01 0.17229936993E+01 0.17513629798E+01 0.17975294970E+01
 0.18588985428E+01 0.19330535904E+01 0.20159622389E+01 0.21040156574E+01 0.21923257266E+01
 0.22768275631E+01 0.23526507120E+01 0.24162562023E+01 0.24638064192E+01 0.24932619400E+01
 0.25025285745E+01 0.24917425429E+01 0.24607898145E+01 0.24113448963E+01 0.23462747141E+01
 0.22691489297E+01 0.21834716468E+01 0.20943001066E+01 0.20040675741E+01 0.19212704984E+01
 0.18442192063E+01 0.17841567619E+01 0.17394698708E+01 0.17094589046E+01 0.17643720736E+01
 0.18373324506E+01 0.19295064093E+01 0.20416662754E+01 0.21676443305E+01 0.22995449528E+01