   1   1   0   0
  0.6083477E+02  0.4414576E-09  0.4414576E-09  0.4414576E-09  0.1000000E-15
  1.000000000000000E-004
  CAR 
 Rn_FCC                                  
     32.44010783    -45.69707625  301     -2.13559612      1.00000000
    -45.697  0.0000E+00  0.0000E+00
    -45.437  0.0000E+00  0.0000E+00
    -45.176  0.0000E+00  0.0000E+00
    -44.916  0.0000E+00  0.0000E+00
    -44.655  0.0000E+00  0.0000E+00
    -44.395  0.0000E+00  0.0000E+00
    -44.134  0.0000E+00  0.0000E+00
    -43.874  0.0000E+00  0.0000E+00
    -43.613  0.0000E+00  0.0000E+00
    -43.353  0.0000E+00  0.0000E+00
    -43.093  0.0000E+00  0.0000E+00
    -42.832  0.0000E+00  0.0000E+00
    -42.572  0.0000E+00  0.0000E+00
    -42.311  0.4217E-04  0.1098E-04
    -42.051  0.3823E+02  0.9957E+01
    -41.790  0.1637E+00  0.1000E+02
    -41.530  0.0000E+00  0.1000E+02
    -41.269  0.0000E+00  0.1000E+02
    -41.009  0.0000E+00  0.1000E+02
    -40.748  0.0000E+00  0.1000E+02
    -40.488  0.0000E+00  0.1000E+02
    -40.227  0.0000E+00  0.1000E+02
    -39.967  0.0000E+00  0.1000E+02
    -39.707  0.0000E+00  0.1000E+02
    -39.446  0.0000E+00  0.1000E+02
    -39.186  0.0000E+00  0.1000E+02
    -38.925  0.0000E+00  0.1000E+02
    -38.665  0.0000E+00  0.1000E+02
    -38.404  0.0000E+00  0.1000E+02
    -38.144  0.0000E+00  0.1000E+02
    -37.883  0.0000E+00  0.1000E+02
    -37.623  0.0000E+00  0.1000E+02
    -37.362  0.0000E+00  0.1000E+02
    -37.102  0.0000E+00  0.1000E+02
    -36.842  0.0000E+00  0.1000E+02
    -36.581  0.0000E+00  0.1000E+02
    -36.321  0.0000E+00  0.1000E+02
    -36.060  0.0000E+00  0.1000E+02
    -35.800  0.0000E+00  0.1000E+02
    -35.539  0.0000E+00  0.1000E+02
    -35.279  0.0000E+00  0.1000E+02
    -35.018  0.0000E+00  0.1000E+02
    -34.758  0.0000E+00  0.1000E+02
    -34.497  0.0000E+00  0.1000E+02
    -34.237  0.0000E+00  0.1000E+02
    -33.976  0.0000E+00  0.1000E+02
    -33.716  0.0000E+00  0.1000E+02
    -33.456  0.0000E+00  0.1000E+02
    -33.195  0.0000E+00  0.1000E+02
    -32.935  0.0000E+00  0.1000E+02
    -32.674  0.0000E+00  0.1000E+02
    -32.414  0.0000E+00  0.1000E+02
    -32.153  0.0000E+00  0.1000E+02
    -31.893  0.0000E+00  0.1000E+02
    -31.632  0.0000E+00  0.1000E+02
    -31.372  0.0000E+00  0.1000E+02
    -31.111  0.0000E+00  0.1000E+02
    -30.851  0.0000E+00  0.1000E+02
    -30.591  0.0000E+00  0.1000E+02
    -30.330  0.0000E+00  0.1000E+02
    -30.070  0.0000E+00  0.1000E+02
    -29.809  0.0000E+00  0.1000E+02
    -29.549  0.0000E+00  0.1000E+02
    -29.288  0.0000E+00  0.1000E+02
    -29.028  0.0000E+00  0.1000E+02
    -28.767  0.0000E+00  0.1000E+02
    -28.507  0.0000E+00  0.1000E+02
    -28.246  0.0000E+00  0.1000E+02
    -27.986  0.0000E+00  0.1000E+02
    -27.726  0.0000E+00  0.1000E+02
    -27.465  0.0000E+00  0.1000E+02
    -27.205  0.0000E+00  0.1000E+02
    -26.944  0.0000E+00  0.1000E+02
    -26.684  0.0000E+00  0.1000E+02
    -26.423  0.0000E+00  0.1000E+02
    -26.163  0.0000E+00  0.1000E+02
    -25.902  0.0000E+00  0.1000E+02
    -25.642  0.0000E+00  0.1000E+02
    -25.381  0.0000E+00  0.1000E+02
    -25.121  0.0000E+00  0.1000E+02
    -24.860  0.0000E+00  0.1000E+02
    -24.600  0.0000E+00  0.1000E+02
    -24.340  0.0000E+00  0.1000E+02
    -24.079  0.0000E+00  0.1000E+02
    -23.819  0.0000E+00  0.1000E+02
    -23.558  0.0000E+00  0.1000E+02
    -23.298  0.0000E+00  0.1000E+02
    -23.037  0.0000E+00  0.1000E+02
    -22.777  0.0000E+00  0.1000E+02
    -22.516  0.0000E+00  0.1000E+02
    -22.256  0.0000E+00  0.1000E+02
    -21.995  0.0000E+00  0.1000E+02
    -21.735  0.0000E+00  0.1000E+02
    -21.475  0.0000E+00  0.1000E+02
    -21.214  0.0000E+00  0.1000E+02
    -20.954  0.0000E+00  0.1000E+02
    -20.693  0.0000E+00  0.1000E+02
    -20.433  0.0000E+00  0.1000E+02
    -20.172  0.0000E+00  0.1000E+02
    -19.912  0.0000E+00  0.1000E+02
    -19.651  0.0000E+00  0.1000E+02
    -19.391  0.0000E+00  0.1000E+02
    -19.130  0.0000E+00  0.1000E+02
    -18.870  0.0000E+00  0.1000E+02
    -18.610  0.0000E+00  0.1000E+02
    -18.349  0.0000E+00  0.1000E+02
    -18.089  0.1747E-07  0.1000E+02
    -17.828  0.6675E+00  0.1017E+02
    -17.568  0.7009E+01  0.1200E+02
    -17.307  0.2501E-02  0.1200E+02
    -17.047  0.0000E+00  0.1200E+02
    -16.786  0.0000E+00  0.1200E+02
    -16.526  0.0000E+00  0.1200E+02
    -16.265  0.0000E+00  0.1200E+02
    -16.005  0.0000E+00  0.1200E+02
    -15.744  0.0000E+00  0.1200E+02
    -15.484  0.0000E+00  0.1200E+02
    -15.224  0.0000E+00  0.1200E+02
    -14.963  0.0000E+00  0.1200E+02
    -14.703  0.0000E+00  0.1200E+02
    -14.442  0.0000E+00  0.1200E+02
    -14.182  0.0000E+00  0.1200E+02
    -13.921  0.0000E+00  0.1200E+02
    -13.661  0.0000E+00  0.1200E+02
    -13.400  0.0000E+00  0.1200E+02
    -13.140  0.0000E+00  0.1200E+02
    -12.879  0.0000E+00  0.1200E+02
    -12.619  0.0000E+00  0.1200E+02
    -12.359  0.0000E+00  0.1200E+02
    -12.098  0.0000E+00  0.1200E+02
    -11.838  0.0000E+00  0.1200E+02
    -11.577  0.0000E+00  0.1200E+02
    -11.317  0.0000E+00  0.1200E+02
    -11.056  0.0000E+00  0.1200E+02
    -10.796  0.0000E+00  0.1200E+02
    -10.535  0.0000E+00  0.1200E+02
    -10.275  0.0000E+00  0.1200E+02
    -10.014  0.0000E+00  0.1200E+02
     -9.754  0.0000E+00  0.1200E+02
     -9.494  0.0000E+00  0.1200E+02
     -9.233  0.0000E+00  0.1200E+02
     -8.973  0.0000E+00  0.1200E+02
     -8.712  0.0000E+00  0.1200E+02
     -8.452  0.0000E+00  0.1200E+02
     -8.191  0.0000E+00  0.1200E+02
     -7.931  0.0000E+00  0.1200E+02
     -7.670  0.0000E+00  0.1200E+02
     -7.410  0.0000E+00  0.1200E+02
     -7.149  0.0000E+00  0.1200E+02
     -6.889  0.0000E+00  0.1200E+02
     -6.628  0.0000E+00  0.1200E+02
     -6.368  0.0000E+00  0.1200E+02
     -6.108  0.0000E+00  0.1200E+02
     -5.847  0.0000E+00  0.1200E+02
     -5.587  0.0000E+00  0.1200E+02
     -5.326  0.0000E+00  0.1200E+02
     -5.066  0.0000E+00  0.1200E+02
     -4.805  0.0000E+00  0.1200E+02
     -4.545  0.6141E-04  0.1200E+02
     -4.284  0.2690E+00  0.1207E+02
     -4.024  0.3235E+01  0.1291E+02
     -3.763  0.3061E+01  0.1371E+02
     -3.503  0.1566E+01  0.1412E+02
     -3.243  0.2248E+01  0.1470E+02
     -2.982  0.4144E+01  0.1578E+02
     -2.722  0.5087E+01  0.1711E+02
     -2.461  0.2979E+01  0.1788E+02
     -2.201  0.4471E+00  0.1800E+02
     -1.940  0.0000E+00  0.1800E+02
     -1.680  0.0000E+00  0.1800E+02
     -1.419  0.0000E+00  0.1800E+02
     -1.159  0.0000E+00  0.1800E+02
     -0.898  0.0000E+00  0.1800E+02
     -0.638  0.0000E+00  0.1800E+02
     -0.378  0.0000E+00  0.1800E+02
     -0.117  0.0000E+00  0.1800E+02
      0.143  0.0000E+00  0.1800E+02
      0.404  0.0000E+00  0.1800E+02
      0.664  0.0000E+00  0.1800E+02
      0.925  0.0000E+00  0.1800E+02
      1.185  0.0000E+00  0.1800E+02
      1.446  0.0000E+00  0.1800E+02
      1.706  0.0000E+00  0.1800E+02
      1.967  0.0000E+00  0.1800E+02
      2.227  0.0000E+00  0.1800E+02
      2.488  0.0000E+00  0.1800E+02
      2.748  0.0000E+00  0.1800E+02
      3.008  0.9840E-05  0.1800E+02
      3.269  0.3570E-01  0.1801E+02
      3.529  0.1633E-05  0.1801E+02
      3.790  0.2000E-08  0.1801E+02
      4.050  0.2728E+00  0.1808E+02
      4.311  0.1491E+00  0.1812E+02
      4.571  0.1717E+00  0.1816E+02
      4.832  0.5251E-01  0.1818E+02
      5.092  0.1560E+01  0.1858E+02
      5.353  0.1157E+01  0.1889E+02
      5.613  0.1224E+01  0.1920E+02
      5.873  0.1476E+01  0.1959E+02
      6.134  0.1523E+01  0.1999E+02
      6.394  0.1236E+01  0.2031E+02
      6.655  0.4096E+00  0.2041E+02
      6.915  0.2692E+01  0.2111E+02
      7.176  0.2295E+01  0.2171E+02
      7.436  0.1247E+01  0.2204E+02
      7.697  0.9403E+00  0.2228E+02
      7.957  0.3169E+00  0.2236E+02
      8.218  0.2390E+01  0.2299E+02
      8.478  0.1179E+01  0.2329E+02
      8.738  0.3319E+01  0.2416E+02
      8.999  0.1599E+01  0.2458E+02
      9.259  0.2880E+01  0.2533E+02
      9.520  0.6618E+00  0.2550E+02
      9.780  0.4293E+00  0.2561E+02
     10.041  0.8562E+00  0.2583E+02
     10.301  0.8166E+00  0.2605E+02
     10.562  0.2187E+01  0.2661E+02
     10.822  0.2052E+01  0.2715E+02
     11.083  0.1105E+01  0.2744E+02
     11.343  0.1905E+01  0.2793E+02
     11.604  0.1168E+01  0.2824E+02
     11.864  0.8615E+00  0.2846E+02
     12.124  0.2227E+01  0.2904E+02
     12.385  0.1716E+01  0.2949E+02
     12.645  0.8566E+00  0.2971E+02
     12.906  0.2706E+01  0.3042E+02
     13.166  0.1105E+01  0.3070E+02
     13.427  0.1516E+01  0.3110E+02
     13.687  0.1386E+01  0.3146E+02
     13.948  0.5340E-01  0.3147E+02
     14.208  0.6035E+01  0.3305E+02
     14.469  0.3825E+01  0.3404E+02
     14.729  0.1742E+01  0.3450E+02
     14.989  0.1475E+01  0.3488E+02
     15.250  0.1941E+01  0.3539E+02
     15.510  0.5040E+00  0.3552E+02
     15.771  0.8538E+00  0.3574E+02
     16.031  0.2885E+00  0.3581E+02
     16.292  0.2564E+01  0.3648E+02
     16.552  0.1406E+01  0.3685E+02
     16.813  0.5136E+01  0.3819E+02
     17.073  0.4449E+01  0.3935E+02
     17.334  0.5929E+01  0.4089E+02
     17.594  0.4746E+01  0.4213E+02
     17.855  0.1528E+01  0.4252E+02
     18.115  0.2995E+01  0.4330E+02
     18.375  0.2842E+01  0.4404E+02
     18.636  0.5973E+00  0.4420E+02
     18.896  0.1445E+01  0.4458E+02
     19.157  0.1778E+01  0.4504E+02
     19.417  0.1724E+01  0.4549E+02
     19.678  0.1107E+01  0.4578E+02
     19.938  0.2562E+01  0.4644E+02
     20.199  0.1264E+01  0.4677E+02
     20.459  0.2049E+01  0.4731E+02
     20.720  0.2372E+01  0.4792E+02
     20.980  0.3108E+01  0.4873E+02
     21.240  0.1162E+01  0.4904E+02
     21.501  0.1906E+01  0.4953E+02
     21.761  0.2973E+01  0.5031E+02
     22.022  0.3577E+01  0.5124E+02
     22.282  0.1404E+01  0.5161E+02
     22.543  0.3980E+01  0.5264E+02
     22.803  0.2051E+01  0.5318E+02
     23.064  0.2791E+01  0.5390E+02
     23.324  0.4885E+01  0.5517E+02
     23.585  0.1860E+01  0.5566E+02
     23.845  0.3576E+01  0.5659E+02
     24.105  0.2013E+01  0.5712E+02
     24.366  0.2142E+01  0.5767E+02
     24.626  0.6512E+00  0.5784E+02
     24.887  0.7120E+00  0.5803E+02
     25.147  0.2201E+01  0.5860E+02
     25.408  0.3076E+01  0.5940E+02
     25.668  0.1142E+01  0.5970E+02
     25.929  0.1803E+01  0.6017E+02
     26.189  0.2790E+01  0.6090E+02
     26.450  0.1702E+01  0.6134E+02
     26.710  0.5392E+00  0.6148E+02
     26.971  0.3494E+01  0.6239E+02
     27.231  0.1859E+01  0.6287E+02
     27.491  0.1814E+00  0.6292E+02
     27.752  0.1673E+01  0.6336E+02
     28.012  0.1061E+01  0.6363E+02
     28.273  0.5048E+00  0.6377E+02
     28.533  0.6875E+00  0.6394E+02
     28.794  0.1218E-01  0.6395E+02
     29.054  0.2021E+00  0.6400E+02
     29.315  0.0000E+00  0.6400E+02
     29.575  0.0000E+00  0.6400E+02
     29.836  0.0000E+00  0.6400E+02
     30.096  0.0000E+00  0.6400E+02
     30.356  0.0000E+00  0.6400E+02
     30.617  0.0000E+00  0.6400E+02
     30.877  0.0000E+00  0.6400E+02
     31.138  0.0000E+00  0.6400E+02
     31.398  0.0000E+00  0.6400E+02
     31.659  0.0000E+00  0.6400E+02
     31.919  0.0000E+00  0.6400E+02
     32.180  0.0000E+00  0.6400E+02
     32.440  0.0000E+00  0.6400E+02
