    1    1    1    1
  0.6083477E+02  0.4414576E-09  0.4414576E-09  0.4414576E-09  0.1000000E-15
  1.000000000000000E-004
  CAR 
 Rn_FCC                                  
     18    152     32
 
  0.5000000E+00  0.5000000E+00  0.5000000E+00  0.0000000E+00
    1      -42.145119   1.000000
    2      -42.145118   1.000000
    3      -42.143158   1.000000
    4      -42.142636   1.000000
    5      -42.142636   1.000000
    6      -17.728794   1.000000
    7       -4.429242   1.000000
    8       -2.648750   1.000000
    9       -2.648746   1.000000
   10        4.910862   0.000000
   11        8.054614   0.000000
   12        8.054632   0.000000
   13        8.616755   0.000000
   14       10.674983   0.000000
   15       13.321257   0.000000
   16       13.321272   0.000000
   17       13.540766   0.000000
   18       13.540784   0.000000
   19       14.463368   0.000000
   20       17.892149   0.000000
   21       18.269825   0.000000
   22       18.269834   0.000000
   23       19.950571   0.000000
   24       21.261778   0.000000
   25       22.158273   0.000000
   26       22.720234   0.000000
   27       22.720262   0.000000
   28       23.840561   0.000000
   29       23.840576   0.000000
   30       25.820245   0.000000
   31       26.294373   0.000000
   32       27.761674   0.000000
 
  0.4750000E+00  0.4750000E+00  0.4750000E+00  0.0000000E+00
    1      -42.145121   1.000000
    2      -42.145120   1.000000
    3      -42.143169   1.000000
    4      -42.142650   1.000000
    5      -42.142650   1.000000
    6      -17.729986   1.000000
    7       -4.419784   1.000000
    8       -2.647297   1.000000
    9       -2.647293   1.000000
   10        4.911723   0.000000
   11        8.061385   0.000000
   12        8.061404   0.000000
   13        8.607100   0.000000
   14       10.636484   0.000000
   15       13.029522   0.000000
   16       13.029525   0.000000
   17       13.844526   0.000000
   18       13.844532   0.000000
   19       14.539942   0.000000
   20       17.797358   0.000000
   21       18.223787   0.000000
   22       18.223796   0.000000
   23       19.948872   0.000000
   24       21.296685   0.000000
   25       22.140816   0.000000
   26       22.728852   0.000000
   27       22.728879   0.000000
   28       23.862063   0.000000
   29       23.862076   0.000000
   30       25.755869   0.000000
   31       26.374988   0.000000
   32       27.766252   0.000000
 
  0.4500000E+00  0.4500000E+00  0.4500000E+00  0.0000000E+00
    1      -42.145153   1.000000
    2      -42.145153   1.000000
    3      -42.143225   1.000000
    4      -42.142779   1.000000
    5      -42.142779   1.000000
    6      -17.733826   1.000000
    7       -4.391530   1.000000
    8       -2.642973   1.000000
    9       -2.642969   1.000000
   10        4.913849   0.000000
   11        8.081585   0.000000
   12        8.081603   0.000000
   13        8.575860   0.000000
   14       10.535690   0.000000
   15       12.664123   0.000000
   16       12.664125   0.000000
   17       14.245821   0.000000
   18       14.245825   0.000000
   19       14.757564   0.000000
   20       17.537714   0.000000
   21       18.090285   0.000000
   22       18.090293   0.000000
   23       19.943798   0.000000
   24       21.327259   0.000000
   25       22.142448   0.000000
   26       22.750607   0.000000
   27       22.750631   0.000000
   28       23.925657   0.000000
   29       23.925669   0.000000
   30       25.634140   0.000000
   31       26.551041   0.000000
   32       27.778065   0.000000
 
  0.4250000E+00  0.4250000E+00  0.4250000E+00  0.0000000E+00
    1      -42.145152   1.000000
    2      -42.145151   1.000000
    3      -42.143268   1.000000
    4      -42.142820   1.000000
    5      -42.142819   1.000000
    6      -17.739623   1.000000
    7       -4.344783   1.000000
    8       -2.635865   1.000000
    9       -2.635861   1.000000
   10        4.915909   0.000000
   11        8.114928   0.000000
   12        8.114946   0.000000
   13        8.517128   0.000000
   14       10.407454   0.000000
   15       12.309191   0.000000
   16       12.309193   0.000000
   17       14.660282   0.000000
   18       14.660285   0.000000
   19       15.088381   0.000000
   20       17.164373   0.000000
   21       17.881745   0.000000
   22       17.881751   0.000000
   23       19.935542   0.000000
   24       21.206811   0.000000
   25       22.271784   0.000000
   26       22.777071   0.000000
   27       22.777091   0.000000
   28       24.028565   0.000000
   29       24.028575   0.000000
   30       25.518987   0.000000
   31       26.770454   0.000000
   32       27.793922   0.000000
 
  0.4000000E+00  0.4000000E+00  0.4000000E+00  0.0000000E+00
    1      -42.145105   1.000000
    2      -42.145105   1.000000
    3      -42.143313   1.000000
    4      -42.142850   1.000000
    5      -42.142849   1.000000
    6      -17.747357   1.000000
    7       -4.280080   1.000000
    8       -2.626128   1.000000
    9       -2.626124   1.000000
   10        4.915481   0.000000
   11        8.160856   0.000000
   12        8.160874   0.000000
   13        8.424344   0.000000
   14       10.289405   0.000000
   15       11.970058   0.000000
   16       11.970059   0.000000
   17       15.081902   0.000000
   18       15.081905   0.000000
   19       15.502466   0.000000
   20       16.723650   0.000000
   21       17.613850   0.000000
   22       17.613854   0.000000
   23       19.924318   0.000000
   24       20.923538   0.000000
   25       22.513316   0.000000
   26       22.800782   0.000000
   27       22.800797   0.000000
   28       24.163463   0.000000
   29       24.163471   0.000000
   30       25.428148   0.000000
   31       27.023527   0.000000
   32       27.808119   0.000000
 
  0.3750000E+00  0.3750000E+00  0.3750000E+00  0.0000000E+00
    1      -42.145194   1.000000
    2      -42.145194   1.000000
    3      -42.143510   1.000000
    4      -42.142968   1.000000
    5      -42.142968   1.000000
    6      -17.757580   1.000000
    7       -4.198160   1.000000
    8       -2.613957   1.000000
    9       -2.613952   1.000000
   10        4.908912   0.000000
   11        8.218373   0.000000
   12        8.218392   0.000000
   13        8.295926   0.000000
   14       10.209090   0.000000
   15       11.649343   0.000000
   16       11.649345   0.000000
   17       15.506638   0.000000
   18       15.506641   0.000000
   19       15.959919   0.000000
   20       16.263355   0.000000
   21       17.302655   0.000000
   22       17.302658   0.000000
   23       19.909924   0.000000
   24       20.543138   0.000000
   25       22.789576   0.000000
   26       22.818485   0.000000
   27       22.818497   0.000000
   28       24.319623   0.000000
   29       24.319629   0.000000
   30       25.361160   0.000000
   31       27.304757   0.000000
   32       27.814377   0.000000
 
  0.3500000E+00  0.3500000E+00  0.3500000E+00  0.0000000E+00
    1      -42.145191   1.000000
    2      -42.145190   1.000000
    3      -42.143579   1.000000
    4      -42.143049   1.000000
    5      -42.143049   1.000000
    6      -17.768970   1.000000
    7       -4.099988   1.000000
    8       -2.599609   1.000000
    9       -2.599605   1.000000
   10        4.891273   0.000000
   11        8.140260   0.000000
   12        8.286204   0.000000
   13        8.286223   0.000000
   14       10.178834   0.000000
   15       11.349707   0.000000
   16       11.349709   0.000000
   17       15.724812   0.000000
   18       15.927561   0.000000
   19       15.927564   0.000000
   20       16.522710   0.000000
   21       16.965214   0.000000
   22       16.965216   0.000000
   23       19.893743   0.000000
   24       20.108439   0.000000
   25       22.831762   0.000000
   26       22.831771   0.000000
   27       23.059083   0.000000
   28       24.486962   0.000000
   29       24.486967   0.000000
   30       25.315109   0.000000
   31       27.599950   0.000000
   32       27.810366   0.000000
 
  0.3250000E+00  0.3250000E+00  0.3250000E+00  0.0000000E+00
    1      -42.145284   1.000000
    2      -42.145283   1.000000
    3      -42.143701   1.000000
    4      -42.143161   1.000000
    5      -42.143160   1.000000
    6      -17.782004   1.000000
    7       -3.986789   1.000000
    8       -2.583402   1.000000
    9       -2.583398   1.000000
   10        4.856333   0.000000
   11        7.974649   0.000000
   12        8.362195   0.000000
   13        8.362214   0.000000
   14       10.198053   0.000000
   15       11.074027   0.000000
   16       11.074029   0.000000
   17       15.222632   0.000000
   18       16.298278   0.000000
   19       16.298280   0.000000
   20       16.655034   0.000000
   21       16.655037   0.000000
   22       17.077291   0.000000
   23       19.643483   0.000000
   24       19.875309   0.000000
   25       22.843306   0.000000
   26       22.843312   0.000000
   27       23.304463   0.000000
   28       24.656595   0.000000
   29       24.656600   0.000000
   30       25.284912   0.000000
   31       27.794549   0.000000
   32       27.836152   0.000000
 
  0.3000000E+00  0.3000000E+00  0.3000000E+00  0.0000000E+00
    1      -42.145054   1.000000
    2      -42.145054   1.000000
    3      -42.143682   1.000000
    4      -42.143047   1.000000
    5      -42.143047   1.000000
    6      -17.794759   1.000000
    7       -3.860058   1.000000
    8       -2.565695   1.000000
    9       -2.565691   1.000000
   10        4.797161   0.000000
   11        7.819830   0.000000
   12        8.443406   0.000000
   13        8.443426   0.000000
   14       10.260092   0.000000
   15       10.826398   0.000000
   16       10.826400   0.000000
   17       14.718117   0.000000
   18       16.158766   0.000000
   19       16.158770   0.000000
   20       16.836531   0.000000
   21       16.836535   0.000000
   22       17.661345   0.000000
   23       19.165109   0.000000
   24       19.856325   0.000000
   25       22.858064   0.000000
   26       22.858068   0.000000
   27       23.522155   0.000000
   28       24.824129   0.000000
   29       24.824134   0.000000
   30       25.269744   0.000000
   31       27.767926   0.000000
   32       27.769796   0.000000
 
  0.2750000E+00  0.2750000E+00  0.2750000E+00  0.0000000E+00
    1      -42.145033   1.000000
    2      -42.145033   1.000000
    3      -42.143735   1.000000
    4      -42.143111   1.000000
    5      -42.143111   1.000000
    6      -17.809085   1.000000
    7       -3.721629   1.000000
    8       -2.546895   1.000000
    9       -2.546891   1.000000
   10        4.707782   0.000000
   11        7.694325   0.000000
   12        8.524834   0.000000
   13        8.524854   0.000000
   14       10.356700   0.000000
   15       10.611969   0.000000
   16       10.611971   0.000000
   17       14.220732   0.000000
   18       15.788748   0.000000
   19       15.788753   0.000000
   20       17.231704   0.000000
   21       17.231707   0.000000
   22       18.247393   0.000000
   23       18.701536   0.000000
   24       19.836014   0.000000
   25       22.879629   0.000000
   26       22.879632   0.000000
   27       23.711104   0.000000
   28       24.984184   0.000000
   29       24.984190   0.000000
   30       25.262542   0.000000
   31       27.731631   0.000000
   32       27.731635   0.000000
 
  0.2500000E+00  0.2500000E+00  0.2500000E+00  0.0000000E+00
    1      -42.145055   1.000000
    2      -42.145054   1.000000
    3      -42.143809   1.000000
    4      -42.143208   1.000000
    5      -42.143207   1.000000
    6      -17.823826   1.000000
    7       -3.573625   1.000000
    8       -2.527441   1.000000
    9       -2.527437   1.000000
   10        4.585175   0.000000
   11        7.611440   0.000000
   12        8.599810   0.000000
   13        8.599830   0.000000
   14       10.438078   0.000000
   15       10.438080   0.000000
   16       10.480593   0.000000
   17       13.736285   0.000000
   18       15.403245   0.000000
   19       15.403250   0.000000
   20       17.625360   0.000000
   21       17.625363   0.000000
   22       18.160419   0.000000
   23       18.929743   0.000000
   24       19.815381   0.000000
   25       22.912456   0.000000
   26       22.912459   0.000000
   27       23.874914   0.000000
   28       25.137704   0.000000
   29       25.137710   0.000000
   30       25.263910   0.000000
   31       27.688309   0.000000
   32       27.688324   0.000000
 
  0.2250000E+00  0.2250000E+00  0.2250000E+00  0.0000000E+00
    1      -42.145032   1.000000
    2      -42.145031   1.000000
    3      -42.143832   1.000000
    4      -42.143236   1.000000
    5      -42.143236   1.000000
    6      -17.838227   1.000000
    7       -3.418610   1.000000
    8       -2.507798   1.000000
    9       -2.507795   1.000000
   10        4.431025   0.000000
   11        7.577442   0.000000
   12        8.659423   0.000000
   13        8.659443   0.000000
   14       10.313995   0.000000
   15       10.313998   0.000000
   16       10.624831   0.000000
   17       13.270338   0.000000
   18       15.016764   0.000000
   19       15.016769   0.000000
   20       17.691715   0.000000
   21       18.001045   0.000000
   22       18.001047   0.000000
   23       19.559115   0.000000
   24       19.794939   0.000000
   25       22.960739   0.000000
   26       22.960742   0.000000
   27       24.018945   0.000000
   28       25.274650   0.000000
   29       25.286436   0.000000
   30       25.286442   0.000000
   31       27.640265   0.000000
   32       27.640280   0.000000
 
  0.2000000E+00  0.2000000E+00  0.2000000E+00  0.0000000E+00
    1      -42.145026   1.000000
    2      -42.145025   1.000000
    3      -42.143878   1.000000
    4      -42.143277   1.000000
    5      -42.143277   1.000000
    6      -17.852301   1.000000
    7       -3.259677   1.000000
    8       -2.488466   1.000000
    9       -2.488462   1.000000
   10        4.251595   0.000000
   11        7.592243   0.000000
   12        8.694271   0.000000
   13        8.694291   0.000000
   14       10.249220   0.000000
   15       10.249223   0.000000
   16       10.780900   0.000000
   17       12.830386   0.000000
   18       14.634571   0.000000
   19       14.634578   0.000000
   20       17.225723   0.000000
   21       18.350535   0.000000
   22       18.350537   0.000000
   23       19.775167   0.000000
   24       20.203985   0.000000
   25       23.026727   0.000000
   26       23.026730   0.000000
   27       24.145293   0.000000
   28       25.295257   0.000000
   29       25.432705   0.000000
   30       25.432713   0.000000
   31       27.589716   0.000000
   32       27.589731   0.000000
 
  0.1750000E+00  0.1750000E+00  0.1750000E+00  0.0000000E+00
    1      -42.145023   1.000000
    2      -42.145022   1.000000
    3      -42.143716   1.000000
    4      -42.143275   1.000000
    5      -42.143275   1.000000
    6      -17.865328   1.000000
    7       -3.100435   1.000000
    8       -2.469928   1.000000
    9       -2.469925   1.000000
   10        4.056631   0.000000
   11        7.651457   0.000000
   12        8.699059   0.000000
   13        8.699078   0.000000
   14       10.248816   0.000000
   15       10.248819   0.000000
   16       10.934097   0.000000
   17       12.430331   0.000000
   18       14.260365   0.000000
   19       14.260372   0.000000
   20       16.773593   0.000000
   21       18.666881   0.000000
   22       18.666882   0.000000
   23       19.756536   0.000000
   24       20.850406   0.000000
   25       23.112667   0.000000
   26       23.112670   0.000000
   27       24.258229   0.000000
   28       25.329675   0.000000
   29       25.579909   0.000000
   30       25.579918   0.000000
   31       27.538958   0.000000
   32       27.538973   0.000000
 
  0.1500000E+00  0.1500000E+00  0.1500000E+00  0.0000000E+00
    1      -42.145029   1.000000
    2      -42.145028   1.000000
    3      -42.143730   1.000000
    4      -42.143311   1.000000
    5      -42.143311   1.000000
    6      -17.877537   1.000000
    7       -2.945131   1.000000
    8       -2.452666   1.000000
    9       -2.452663   1.000000
   10        3.857118   0.000000
   11        7.747959   0.000000
   12        8.676446   0.000000
   13        8.676464   0.000000
   14       10.309260   0.000000
   15       10.309263   0.000000
   16       11.048914   0.000000
   17       12.104913   0.000000
   18       13.897521   0.000000
   19       13.897529   0.000000
   20       16.340662   0.000000
   21       18.944111   0.000000
   22       18.944113   0.000000
   23       19.739472   0.000000
   24       21.486962   0.000000
   25       23.216737   0.000000
   26       23.216740   0.000000
   27       24.355898   0.000000
   28       25.382871   0.000000
   29       25.731806   0.000000
   30       25.731816   0.000000
   31       27.490234   0.000000
   32       27.490249   0.000000
 
  0.1250000E+00  0.1250000E+00  0.1250000E+00  0.0000000E+00
    1      -42.145040   1.000000
    2      -42.145039   1.000000
    3      -42.143758   1.000000
    4      -42.143350   1.000000
    5      -42.143350   1.000000
    6      -17.888376   1.000000
    7       -2.798713   1.000000
    8       -2.437143   1.000000
    9       -2.437139   1.000000
   10        3.664201   0.000000
   11        7.874038   0.000000
   12        8.635902   0.000000
   13        8.635919   0.000000
   14       10.419384   0.000000
   15       10.419388   0.000000
   16       11.043304   0.000000
   17       11.935222   0.000000
   18       13.549806   0.000000
   19       13.549814   0.000000
   20       15.932506   0.000000
   21       19.178109   0.000000
   22       19.178110   0.000000
   23       19.724358   0.000000
   24       22.097466   0.000000
   25       23.334537   0.000000
   26       23.334541   0.000000
   27       24.440769   0.000000
   28       25.466282   0.000000
   29       25.892385   0.000000
   30       25.892397   0.000000
   31       27.446072   0.000000
   32       27.446087   0.000000
 
  0.1000000E+00  0.1000000E+00  0.1000000E+00  0.0000000E+00
    1      -42.145112   1.000000
    2      -42.145111   1.000000
    3      -42.143934   1.000000
    4      -42.143540   1.000000
    5      -42.143539   1.000000
    6      -17.898218   1.000000
    7       -2.666775   1.000000
    8       -2.423788   1.000000
    9       -2.423785   1.000000
   10        3.488426   0.000000
   11        8.020523   0.000000
   12        8.588469   0.000000
   13        8.588485   0.000000
   14       10.564451   0.000000
   15       10.564456   0.000000
   16       10.871185   0.000000
   17       11.965932   0.000000
   18       13.222206   0.000000
   19       13.222215   0.000000
   20       15.556564   0.000000
   21       19.366288   0.000000
   22       19.366290   0.000000
   23       19.711511   0.000000
   24       22.656793   0.000000
   25       23.456808   0.000000
   26       23.456812   0.000000
   27       24.512278   0.000000
   28       25.597552   0.000000
   29       26.063614   0.000000
   30       26.063627   0.000000
   31       27.409201   0.000000
   32       27.409216   0.000000
 
  0.7500000E-01  0.7500000E-01  0.7500000E-01  0.0000000E+00
    1      -42.145127   1.000000
    2      -42.145126   1.000000
    3      -42.143936   1.000000
    4      -42.143467   1.000000
    5      -42.143467   1.000000
    6      -17.905521   1.000000
    7       -2.555290   1.000000
    8       -2.412987   1.000000
    9       -2.412984   1.000000
   10        3.339514   0.000000
   11        8.175881   0.000000
   12        8.543634   0.000000
   13        8.543649   0.000000
   14       10.627485   0.000000
   15       10.728643   0.000000
   16       10.728648   0.000000
   17       12.100367   0.000000
   18       12.922951   0.000000
   19       12.922961   0.000000
   20       15.224137   0.000000
   21       19.509800   0.000000
   22       19.509801   0.000000
   23       19.701256   0.000000
   24       23.129517   0.000000
   25       23.572768   0.000000
   26       23.572774   0.000000
   27       24.569659   0.000000
   28       25.801011   0.000000
   29       26.246523   0.000000
   30       26.246537   0.000000
   31       27.383911   0.000000
   32       27.383926   0.000000
 
  0.5000000E-01  0.5000000E-01  0.5000000E-01  0.0000000E+00
    1      -42.145137   1.000000
    2      -42.145136   1.000000
    3      -42.144009   1.000000
    4      -42.143477   1.000000
    5      -42.143477   1.000000
    6      -17.911080   1.000000
    7       -2.470192   1.000000
    8       -2.405038   1.000000
    9       -2.405034   1.000000
   10        3.226009   0.000000
   11        8.322604   0.000000
   12        8.507742   0.000000
   13        8.507756   0.000000
   14       10.397610   0.000000
   15       10.891494   0.000000
   16       10.891499   0.000000
   17       12.251032   0.000000
   18       12.666766   0.000000
   19       12.666776   0.000000
   20       14.953059   0.000000
   21       19.609729   0.000000
   22       19.609731   0.000000
   23       19.693754   0.000000
   24       23.478570   0.000000
   25       23.667554   0.000000
   26       23.667560   0.000000
   27       24.612245   0.000000
   28       26.091981   0.000000
   29       26.429302   0.000000
   30       26.429317   0.000000
   31       27.376197   0.000000
   32       27.376210   0.000000
 
  0.2500000E-01  0.2500000E-01  0.2500000E-01  0.0000000E+00
    1      -42.145142   1.000000
    2      -42.145142   1.000000
    3      -42.144001   1.000000
    4      -42.143472   1.000000
    5      -42.143472   1.000000
    6      -17.914368   1.000000
    7       -2.416714   1.000000
    8       -2.400176   1.000000
    9       -2.400173   1.000000
   10        3.154837   0.000000
   11        8.433912   0.000000
   12        8.484798   0.000000
   13        8.484813   0.000000
   14       10.231740   0.000000
   15       11.021541   0.000000
   16       11.021546   0.000000
   17       12.367223   0.000000
   18       12.481879   0.000000
   19       12.481890   0.000000
   20       14.769730   0.000000
   21       19.668565   0.000000
   22       19.668566   0.000000
   23       19.689189   0.000000
   24       23.684974   0.000000
   25       23.729836   0.000000
   26       23.729843   0.000000
   27       24.638828   0.000000
   28       26.436535   0.000000
   29       26.580326   0.000000
   30       26.580340   0.000000
   31       27.392869   0.000000
   32       27.394360   0.000000
 
  0.0000000E+00  0.0000000E+00  0.0000000E+00  0.0000000E+00
    1      -42.145145   1.000000
    2      -42.145145   1.000000
    3      -42.144003   1.000000
    4      -42.143472   1.000000
    5      -42.143472   1.000000
    6      -17.915470   1.000000
    7       -2.398539   1.000000
    8       -2.398536   1.000000
    9       -2.398457   1.000000
   10        3.130575   0.000000
   11        8.476740   0.000000
   12        8.476926   0.000000
   13        8.476941   0.000000
   14       10.170150   0.000000
   15       11.073777   0.000000
   16       11.073781   0.000000
   17       12.411374   0.000000
   18       12.411544   0.000000
   19       12.411555   0.000000
   20       14.703835   0.000000
   21       19.687657   0.000000
   22       19.687957   0.000000
   23       19.687959   0.000000
   24       23.751537   0.000000
   25       23.751545   0.000000
   26       23.751966   0.000000
   27       24.647816   0.000000
   28       26.642572   0.000000
   29       26.642586   0.000000
   30       26.642745   0.000000
   31       27.413532   0.000000
   32       27.415087   0.000000
 
  0.0000000E+00  0.2500000E-01  0.2500000E-01  0.0000000E+00
    1      -42.145144   1.000000
    2      -42.145136   1.000000
    3      -42.143997   1.000000
    4      -42.143482   1.000000
    5      -42.143468   1.000000
    6      -17.914000   1.000000
    7       -2.417058   1.000000
    8       -2.403620   1.000000
    9       -2.403563   1.000000
   10        3.162949   0.000000
   11        8.412156   0.000000
   12        8.491575   0.000000
   13        8.491697   0.000000
   14       10.251629   0.000000
   15       10.931484   0.000000
   16       11.081417   0.000000
   17       12.428297   0.000000
   18       12.428404   0.000000
   19       12.500285   0.000000
   20       14.792900   0.000000
   21       19.660752   0.000000
   22       19.676495   0.000000
   23       19.676691   0.000000
   24       23.688863   0.000000
   25       23.709653   0.000000
   26       23.709943   0.000000
   27       24.635858   0.000000
   28       26.439190   0.000000
   29       26.439436   0.000000
   30       26.654873   0.000000
   31       27.139270   0.000000
   32       27.666081   0.000000
 
  0.0000000E+00  0.5000000E-01  0.5000000E-01  0.0000000E+00
    1      -42.145148   1.000000
    2      -42.145124   1.000000
    3      -42.143991   1.000000
    4      -42.143513   1.000000
    5      -42.143457   1.000000
    6      -17.909615   1.000000
    7       -2.471131   1.000000
    8       -2.418683   1.000000
    9       -2.418627   1.000000
   10        3.258083   0.000000
   11        8.246671   0.000000
   12        8.535670   0.000000
   13        8.535792   0.000000
   14       10.467356   0.000000
   15       10.597176   0.000000
   16       11.104324   0.000000
   17       12.478821   0.000000
   18       12.478927   0.000000
   19       12.682934   0.000000
   20       15.051204   0.000000
   21       19.580517   0.000000
   22       19.641462   0.000000
   23       19.641647   0.000000
   24       23.500591   0.000000
   25       23.586941   0.000000
   26       23.587232   0.000000
   27       24.600721   0.000000
   28       26.104254   0.000000
   29       26.104593   0.000000
   30       26.690640   0.000000
   31       26.731284   0.000000
   32       27.875318   0.000000
 
  0.0000000E+00  0.7500000E-01  0.7500000E-01  0.0000000E+00
    1      -42.145126   1.000000
    2      -42.145022   1.000000
    3      -42.143918   1.000000
    4      -42.143627   1.000000
    5      -42.143396   1.000000
    6      -17.902198   1.000000
    7       -2.556401   1.000000
    8       -2.443210   1.000000
    9       -2.443155   1.000000
   10        3.410363   0.000000
   11        8.028975   0.000000
   12        8.608598   0.000000
   13        8.608720   0.000000
   14       10.187024   0.000000
   15       10.768698   0.000000
   16       11.142529   0.000000
   17       12.562856   0.000000
   18       12.562960   0.000000
   19       12.870176   0.000000
   20       15.451614   0.000000
   21       19.450429   0.000000
   22       19.579034   0.000000
   23       19.579199   0.000000
   24       23.191463   0.000000
   25       23.394278   0.000000
   26       23.394578   0.000000
   27       24.545446   0.000000
   28       25.792797   0.000000
   29       25.793179   0.000000
   30       26.364012   0.000000
   31       26.747412   0.000000
   32       27.919520   0.000000
 
  0.0000000E+00  0.1000000E+00  0.1000000E+00  0.0000000E+00
    1      -42.145095   1.000000
    2      -42.144853   1.000000
    3      -42.143800   1.000000
    4      -42.143572   1.000000
    5      -42.143333   1.000000
    6      -17.891943   1.000000
    7       -2.666795   1.000000
    8       -2.476377   1.000000
    9       -2.476324   1.000000
   10        3.611378   0.000000
   11        7.791442   0.000000
   12        8.709282   0.000000
   13        8.709405   0.000000
   14        9.758005   0.000000
   15       11.122870   0.000000
   16       11.195880   0.000000
   17       12.680127   0.000000
   18       12.680229   0.000000
   19       13.042974   0.000000
   20       15.956085   0.000000
   21       19.274852   0.000000
   22       19.483282   0.000000
   23       19.483419   0.000000
   24       22.778783   0.000000
   25       23.152774   0.000000
   26       23.153092   0.000000
   27       24.470401   0.000000
   28       25.524818   0.000000
   29       25.525222   0.000000
   30       26.060493   0.000000
   31       26.821473   0.000000
   32       27.978543   0.000000
 
  0.0000000E+00  0.1250000E+00  0.1250000E+00  0.0000000E+00
    1      -42.145108   1.000000
    2      -42.144781   1.000000
    3      -42.143767   1.000000
    4      -42.143597   1.000000
    5      -42.143298   1.000000
    6      -17.879660   1.000000
    7       -2.795623   1.000000
    8       -2.517069   1.000000
    9       -2.517016   1.000000
   10        3.850547   0.000000
   11        7.550882   0.000000
   12        8.836328   0.000000
   13        8.836450   0.000000
   14        9.338283   0.000000
   15       11.264260   0.000000
   16       11.512725   0.000000
   17       12.830090   0.000000
   18       12.830189   0.000000
   19       13.208753   0.000000
   20       16.528177   0.000000
   21       19.059332   0.000000
   22       19.346243   0.000000
   23       19.346345   0.000000
   24       22.288922   0.000000
   25       22.890761   0.000000
   26       22.891105   0.000000
   27       24.378695   0.000000
   28       25.290384   0.000000
   29       25.290799   0.000000
   30       25.810382   0.000000
   31       26.908920   0.000000
   32       28.048885   0.000000
 
  0.0000000E+00  0.1500000E+00  0.1500000E+00  0.0000000E+00
    1      -42.145078   1.000000
    2      -42.144541   1.000000
    3      -42.143884   1.000000
    4      -42.143486   1.000000
    5      -42.143209   1.000000
    6      -17.865026   1.000000
    7       -2.936429   1.000000
    8       -2.563984   1.000000
    9       -2.563933   1.000000
   10        4.115242   0.000000
   11        7.315881   0.000000
   12        8.946158   0.000000
   13        8.988616   0.000000
   14        8.988732   0.000000
   15       11.347685   0.000000
   16       11.929236   0.000000
   17       13.012047   0.000000
   18       13.012144   0.000000
   19       13.377876   0.000000