 vasp.5.4.4.18Apr17-6-g9f103f2a35 (build Nov 03 2018 10:20:43) complex          
  
 executed on             LinuxIFC date 2018.12.21  15:41:18
 running on   16 total cores
 distrk:  each k-point on    4 cores,    4 groups
 distr:  one band on NCORES_PER_BAND=   4 cores,    1 groups


--------------------------------------------------------------------------------------------------------


 INCAR:
 POTCAR:    PAW_PBE Rn_d_GW 14Apr2014             

 ----------------------------------------------------------------------------- 
|                                                                             |
|           W    W    AA    RRRRR   N    N  II  N    N   GGGG   !!!           |
|           W    W   A  A   R    R  NN   N  II  NN   N  G    G  !!!           |
|           W    W  A    A  R    R  N N  N  II  N N  N  G       !!!           |
|           W WW W  AAAAAA  RRRRR   N  N N  II  N  N N  G  GGG   !            |
|           WW  WW  A    A  R   R   N   NN  II  N   NN  G    G                |
|           W    W  A    A  R    R  N    N  II  N    N   GGGG   !!!           |
|                                                                             |
|      You have enabled k-point parallelism (KPAR>1).                         |
|      This developmental code was originally  written by Paul Kent at ORNL,  |
|      and carefully double checked in Vienna.                                |
|      GW as well as linear response parallelism added by Martijn Marsman     |
|      and Georg Kresse.                                                      |
|      Carefully verify results versus KPAR=1.                                |
|      Report problems to Paul Kent and Vienna.                               |
|                                                                             |
 ----------------------------------------------------------------------------- 

 POTCAR:    PAW_PBE Rn_d_GW 14Apr2014             
   VRHFIN =Rn:                                                                  
   LEXCH  = PE                                                                  
   EATOM  =  3030.7130 eV,  222.7511 Ry                                         
                                                                                
   TITEL  = PAW_PBE Rn_d_GW 14Apr2014                                           
   LULTRA =        F    use ultrasoft PP ?                                      
   IUNSCR =        1    unscreen: 0-lin 1-nonlin 2-no                           
   RPACOR =    1.800    partial core radius                                     
   POMASS =  220.170; ZVAL   =   18.000    mass and valenz                      
   RCORE  =    2.500    outmost cutoff radius                                   
   RWIGS  =    2.500; RWIGS  =    1.323    wigner-seitz radius (au A)           
   ENMAX  =  268.495; ENMIN  =  201.371 eV                                      
   RCLOC  =    1.808    cutoff for local pot                                    
   LCOR   =        T    correct aug charges                                     
   LPAW   =        T    paw PP                                                  
   EAUG   =  715.607                                                            
   DEXC   =    0.000                                                            
   RMAX   =    2.556    core radius for proj-oper                               
   RAUG   =    1.300    factor for augmentation sphere                          
   RDEP   =    2.531    radius for radial grids                                 
   RDEPT  =    1.947    core radius for aug-charge                              
                                                                                
   Atomic configuration                                                         
   16 entries                                                                   
     n  l   j            E        occ.                                          
     1  0  0.50    -98595.8050   2.0000                                         
     2  0  0.50    -17950.5082   2.0000                                         
     2  1  1.50    -15211.8638   6.0000                                         
     3  0  0.50     -4402.4302   2.0000                                         
     3  1  1.50     -3628.5852   6.0000                                         
     3  2  2.50     -2889.7488  10.0000                                         
     4  0  0.50     -1049.6607   2.0000                                         
     4  1  1.50      -796.4440   6.0000                                         
     4  2  2.50      -519.0207  10.0000                                         
     4  3  3.50      -216.6456  14.0000                                         
     5  0  0.50      -201.5459   2.0000                                         
     5  1  1.50      -127.7069   6.0000                                         
     5  2  2.50       -46.2584  10.0000                                         
     6  0  0.50       -21.8730   2.0000                                         
     6  1  0.50        -7.7135   6.0000                                         
     5  3  2.50        -2.7212   0.0000                                         
   Description                                                                  
     l       E           TYP  RCUT    TYP  RCUT                                 
     2    -46.2583946     23  2.400                                             
     2    -47.6189772     23  2.400                                             
     2     40.8174780     23  2.400                                             
     0    -21.8730472     23  1.700                                             
     0     81.6349560     23  1.700                                             
     1     -7.7135306     23  2.300                                             
     1     68.0291300     23  2.300                                             
     3      6.8029130     23  2.500                                             
     3     27.2116520     23  2.500                                             
  local pseudopotential read in
  partial core-charges read in
  partial kinetic energy density read in
  kinetic energy density of atom read in
  atomic valenz-charges read in
  non local Contribution for L=           2  read in
    real space projection operators read in
  non local Contribution for L=           2  read in
    real space projection operators read in
  non local Contribution for L=           2  read in
    real space projection operators read in
  non local Contribution for L=           0  read in
    real space projection operators read in
  non local Contribution for L=           0  read in
    real space projection operators read in
  non local Contribution for L=           1  read in
    real space projection operators read in
  non local Contribution for L=           1  read in
    real space projection operators read in
  non local Contribution for L=           3  read in
    real space projection operators read in
  non local Contribution for L=           3  read in
    real space projection operators read in
    PAW grid and wavefunctions read in
 
   number of l-projection  operators is LMAX  =           9
   number of lm-projection operators is LMMAX =          37
 
  PAW_PBE Rn_d_GW 14Apr2014             :
 energy of atom  1       EATOM=-3030.7130
 kinetic energy error for atom=    0.0889 (will be added to EATOM!!)
 
 
 POSCAR: Rn_FCC                                  
  positions in direct lattice
  velocities in cartesian coordinates

 METAGGA = SCAN     LMAXTAU =  0    LMIXTAU =  F

 exchange correlation table for  LEXCH =        8
   RHO(1)=    0.500       N(1)  =     2000
   RHO(2)=  100.500       N(2)  =     4000
 


--------------------------------------------------------------------------------------------------------


 ion  position               nearest neighbor table
   1  0.000  0.000  0.000-
 

IMPORTANT INFORMATION: All symmetrisations will be switched off!
NOSYMM: (Re-)initialisation of all symmetry stuff for point group C_1.

 
 
 KPOINTS: Automatically generated mesh + R-points 
  k-points in reciprocal lattice
Space group operators:
 irot       det(A)        alpha          n_x          n_y          n_z        tau_x        tau_y        tau_z
    1     1.000000     0.000000     1.000000     0.000000     0.000000     0.000000     0.000000     0.000000


--------------------------------------------------------------------------------------------------------




 Dimension of arrays:
   k-points           NKPTS =    152   k-points in BZ     NKDIM =    152   number of bands    NBANDS=     32
   number of dos      NEDOS =    301   number of ions     NIONS =      1
   non local maximal  LDIM  =      9   non local SUM 2l+1 LMDIM =     37
   total plane-waves  NPLWV =  21952
   max r-space proj   IRMAX =      1   max aug-charges    IRDMAX= 111272
   dimension x,y,z NGX =    28 NGY =   28 NGZ =   28
   dimension x,y,z NGXF=    56 NGYF=   56 NGZF=   56
   support grid    NGXF=   112 NGYF=  112 NGZF=  112
   ions per type =               1
   NGX,Y,Z   is equivalent  to a cutoff of  10.54, 10.54, 10.54 a.u.
   NGXF,Y,Z  is equivalent  to a cutoff of  21.09, 21.09, 21.09 a.u.

 SYSTEM =  Rn_FCC                                  
 POSCAR =  Rn_FCC                                  

 Startparameter for this run:
   NWRITE =      2    write-flag & timer
   PREC   = accura    normal or accurate (medium, high low for compatibility)
   ISTART =      1    job   : 0-new  1-cont  2-samecut
   ICHARG =      0    charge: 1-file 2-atom 10-const
   ISPIN  =      1    spin polarized calculation?
   LNONCOLLINEAR =      F non collinear calculations
   LSORBIT =      F    spin-orbit coupling
   INIWAV =      1    electr: 0-lowe 1-rand  2-diag
   LASPH  =      F    aspherical Exc in radial PAW
   METAGGA=      F    non-selfconsistent MetaGGA calc.

 Electronic Relaxation 1
   ENCUT  =  300.0 eV  22.05 Ry    4.70 a.u.   6.23  6.23  6.23*2*pi/ulx,y,z
   ENINI  =  300.0     initial cutoff
   ENAUG  =  715.6 eV  augmentation charge cutoff
   NELM   =     50;   NELMIN=  2; NELMDL= -5     # of ELM steps 
   EDIFF  = 0.1E-07   stopping-criterion for ELM
   LREAL  =      F    real-space projection
   NLSPLINE    = F    spline interpolate recip. space projectors
   LCOMPAT=      F    compatible to vasp.4.4
   GGA_COMPAT  = F    GGA compatible to vasp.4.4-vasp.4.6
   LMAXPAW     = -100 max onsite density
   LMAXMIX     =    2 max onsite mixed and CHGCAR
   VOSKOWN=      0    Vosko Wilk Nusair interpolation
   ROPT   =    0.00000
 Ionic relaxation
   EDIFFG = 0.1E-04   stopping-criterion for IOM
   NSW    =      1    number of steps for IOM
   NBLOCK =      1;   KBLOCK =      1    inner block; outer block 
   IBRION =     -1    ionic relax: 0-MD 1-quasi-New 2-CG
   NFREE  =      5    steps in history (QN), initial steepest desc. (CG)
   ISIF   =      3    stress and relaxation
   IWAVPR =     10    prediction:  0-non 1-charg 2-wave 3-comb
   ISYM   =      0    0-nonsym 1-usesym 2-fastsym
   LCORR  =      T    Harris-Foulkes like correction to forces

   POTIM  = 0.1000    time-step for ionic-motion
   TEIN   =    0.0    initial temperature
   TEBEG  =    0.0;   TEEND  =   0.0 temperature during run
   SMASS  =  -3.00    Nose mass-parameter (am)
   estimated Nose-frequenzy (Omega)   =  0.10E-29 period in steps =****** mass=  -0.445E-27a.u.
   SCALEE = 1.0000    scale energy and forces
   NPACO  =    256;   APACO  = 16.0  distance and # of slots for P.C.
   PSTRESS=    0.0 pullay stress

  Mass of Ions in am
   POMASS = 220.17
  Ionic Valenz
   ZVAL   =  18.00
  Atomic Wigner-Seitz radii
   RWIGS  =  -1.00
  virtual crystal weights 
   VCA    =   1.00
   NELECT =      18.0000    total number of electrons
   NUPDOWN=      -1.0000    fix difference up-down

 DOS related values:
   EMIN   =  10.00;   EMAX   =-10.00  energy-range for DOS
   EFERMI =   0.00
   ISMEAR =     0;   SIGMA  =   0.05  broadening in eV -4-tet -1-fermi 0-gaus

 Electronic relaxation 2 (details)
   IALGO  =     38    algorithm
   LDIAG  =      T    sub-space diagonalisation (order eigenvalues)
   LSUBROT=      F    optimize rotation matrix (better conditioning)
   TURBO    =      0    0=normal 1=particle mesh
   IRESTART =      0    0=no restart 2=restart with 2 vectors
   NREBOOT  =      0    no. of reboots
   NMIN     =      0    reboot dimension
   EREF     =   0.00    reference energy to select bands
   IMIX   =      4    mixing-type and parameters
     AMIX     =   0.40;   BMIX     =  1.00
     AMIX_MAG =   1.60;   BMIX_MAG =  1.00
     AMIN     =   0.10
     WC   =   100.;   INIMIX=   1;  MIXPRE=   1;  MAXMIX=  50

 Intra band minimization:
   WEIMIN = 0.0000     energy-eigenvalue tresh-hold
   EBREAK =  0.78E-10  absolut break condition
   DEPER  =   0.30     relativ break condition  

   TIME   =   0.40     timestep for ELM

  volume/ion in A,a.u.               =      60.83       410.53
  Fermi-wavevector in a.u.,A,eV,Ry     =   1.090892  2.061487 16.191546  1.190045
  Thomas-Fermi vector in A             =   2.227126
 
 Write flags
   LWAVE        =      T    write WAVECAR
   LDOWNSAMPLE  =      F    k-point downsampling of WAVECAR
   LCHARG       =      T    write CHGCAR
   LVTOT        =      F    write LOCPOT, total local potential
   LVHAR        =      F    write LOCPOT, Hartree potential only
   LELF         =      F    write electronic localiz. function (ELF)
   LORBIT       =      0    0 simple, 1 ext, 2 COOP (PROOUT), +10 PAW based schemes


 Dipole corrections
   LMONO  =      F    monopole corrections only (constant potential shift)
   LDIPOL =      F    correct potential (dipole corrections)
   IDIPOL =      0    1-x, 2-y, 3-z, 4-all directions 
   EPSILON=  1.0000000 bulk dielectric constant

 Exchange correlation treatment:
   GGA     =    --    GGA type
   LEXCH   =     8    internal setting for exchange type
   VOSKOWN=      0    Vosko Wilk Nusair interpolation
   LHFCALC =     F    Hartree Fock is set to
   LHFONE  =     F    Hartree Fock one center treatment
   AEXX    =    0.0000 exact exchange contribution

 Linear response parameters
   LEPSILON=     F    determine dielectric tensor
   LRPA    =     F    only Hartree local field effects (RPA)
   LNABLA  =     F    use nabla operator in PAW spheres
   LVEL    =     F    velocity operator in full k-point grid
   LINTERFAST=   F  fast interpolation
   KINTER  =     0    interpolate to denser k-point grid
   CSHIFT  =0.1000    complex shift for real part using Kramers Kronig
   OMEGAMAX=  -1.0    maximum frequency
   DEG_THRESHOLD= 0.2000000E-02 threshold for treating states as degnerate
   RTIME   =   -0.100 relaxation time in fs
  (WPLASMAI=    0.000 imaginary part of plasma frequency in eV, 0.658/RTIME)
   DFIELD  = 0.0000000 0.0000000 0.0000000 field for delta impulse in time
 
 Orbital magnetization related:
   ORBITALMAG=     F  switch on orbital magnetization
   LCHIMAG   =     F  perturbation theory with respect to B field
   DQ        =  0.001000  dq finite difference perturbation B field
   LLRAUG    =     F  two centre corrections for induced B field



--------------------------------------------------------------------------------------------------------


 Static calculation
 charge density and potential will be updated during run
 non-spin polarized calculation
 Variant of blocked Davidson
 Davidson routine will perform the subspace rotation
 perform sub-space diagonalisation
    after iterative eigenvector-optimisation
 modified Broyden-mixing scheme, WC =      100.0
 initial mixing is a Kerker type mixing with AMIX =  0.4000 and BMIX =      1.0000
 Hartree-type preconditioning will be used
 using additional bands           23
 reciprocal scheme for non local part
 use partial core corrections
 calculate Harris-corrections to forces 
   (improved forces if not selfconsistent)
 use gradient corrections 
 use of overlap-Matrix (Vanderbilt PP)
 Gauss-broadening in eV      SIGMA  =   0.05


--------------------------------------------------------------------------------------------------------


  energy-cutoff  :      300.00
  volume of cell :       60.83
      direct lattice vectors                 reciprocal lattice vectors
     4.414575608  0.000000000  0.000000000     0.226522341 -0.130782734 -0.092477358
     2.207287804  3.823134623 -0.000000000     0.000000000  0.261565469 -0.092477358
     2.207287804  1.274378208  3.604485890    -0.000000000  0.000000000  0.277432075

  length of vectors
     4.414575608  4.414575608  4.414575608     0.277432075  0.277432075  0.277432075


 
 old parameters found on file WAVECAR:
  energy-cutoff  :      300.00
  volume of cell :       65.32
      direct lattice vectors                 reciprocal lattice vectors
     4.520564769  0.000000000  0.000000000     0.221211298 -0.127716402 -0.090309134
     2.260282385  3.914923930 -0.000000000     0.000000000  0.255432805 -0.090309134
     2.260282385  1.304974643  3.691025678    -0.000000000  0.000000000  0.270927403

  length of vectors

 
 k-points in units of 2pi/SCALE and weight: Automatically generated mesh + R-points 
   0.11060565  0.06385820  0.04515457       0.000
   0.10507537  0.06066529  0.04289684       0.000
   0.09954508  0.05747238  0.04063911       0.000
   0.09401480  0.05427947  0.03838138       0.000
   0.08848452  0.05108656  0.03612365       0.000
   0.08295424  0.04789365  0.03386593       0.000
   0.07742395  0.04470074  0.03160820       0.000
   0.07189367  0.04150783  0.02935047       0.000
   0.06636339  0.03831492  0.02709274       0.000
   0.06083311  0.03512201  0.02483501       0.000
   0.05530282  0.03192910  0.02257728       0.000
   0.04977254  0.02873619  0.02031956       0.000
   0.04424226  0.02554328  0.01806183       0.000
   0.03871198  0.02235037  0.01580410       0.000
   0.03318169  0.01915746  0.01354637       0.000
   0.02765141  0.01596455  0.01128864       0.000
   0.02212113  0.01277164  0.00903091       0.000
   0.01659085  0.00957873  0.00677319       0.000
   0.01106056  0.00638582  0.00451546       0.000
   0.00553028  0.00319291  0.00225773       0.000
   0.00000000  0.00000000  0.00000000       0.000
  -0.00000000  0.00638582  0.00451546       0.000
  -0.00000000  0.01277164  0.00903091       0.000
  -0.00000000  0.01915746  0.01354637       0.000
  -0.00000000  0.02554328  0.01806183       0.000
  -0.00000000  0.03192910  0.02257728       0.000
  -0.00000000  0.03831492  0.02709274       0.000
  -0.00000000  0.04470074  0.03160820       0.000
  -0.00000000  0.05108656  0.03612365       0.000
  -0.00000000  0.05747238  0.04063911       0.000
  -0.00000000  0.06385820  0.04515457       0.000
  -0.00000000  0.07024402  0.04967002       0.000
  -0.00000000  0.07662984  0.05418548       0.000
  -0.00000000  0.08301566  0.05870094       0.000
  -0.00000000  0.08940148  0.06321639       0.000
  -0.00000000  0.09578730  0.06773185       0.000
  -0.00000000  0.10217312  0.07224731       0.000
  -0.00000000  0.10855894  0.07676276       0.000
  -0.00000000  0.11494476  0.08127822       0.000
  -0.00000000  0.12133058  0.08579368       0.000
  -0.00000000  0.12771640  0.09030913       0.000
   0.00000000  0.00000000  0.00000000       0.005
   0.03686855 -0.02128607 -0.01505152       0.009
   0.07373710 -0.04257213 -0.03010304       0.009
   0.11060565 -0.06385820 -0.04515457       0.005
   0.00000000  0.04257213 -0.01505152       0.009
   0.03686855  0.02128607 -0.03010304       0.009
   0.07373710  0.00000000 -0.04515457       0.009
   0.11060565 -0.02128607 -0.06020609       0.009
  -0.07373710  0.08514427  0.01505152       0.009
  -0.03686855  0.06385820  0.00000000       0.009
   0.00000000  0.08514427 -0.03010304       0.009
   0.03686855  0.06385820 -0.04515457       0.009
   0.07373710  0.04257213 -0.06020609       0.009
   0.11060565  0.02128607 -0.07525761       0.009
  -0.07373710  0.12771640  0.00000000       0.009
  -0.03686855  0.10643034 -0.01505152       0.009
   0.00000000  0.12771640 -0.04515457       0.005
   0.03686855  0.10643034 -0.06020609       0.009
   0.07373710  0.08514427 -0.07525761       0.009
   0.11060565  0.06385820 -0.09030913       0.005
  -0.00000000  0.00000000  0.04515457       0.009
   0.03686855 -0.02128607  0.03010304       0.009
   0.07373710 -0.04257213  0.01505152       0.009
   0.11060565 -0.06385820  0.00000000       0.009
  -0.07373710  0.04257213  0.07525761       0.009
  -0.03686855  0.02128607  0.06020609       0.009
  -0.00000000  0.04257213  0.03010304       0.009
   0.03686855  0.02128607  0.01505152       0.009
   0.07373710  0.00000000  0.00000000       0.009
   0.11060565 -0.02128607 -0.01505152       0.009
  -0.07373710  0.08514427  0.06020609       0.009
  -0.03686855  0.06385820  0.04515457       0.009
  -0.00000000  0.08514427  0.01505152       0.009
   0.03686855  0.06385820  0.00000000       0.009
   0.07373710  0.04257213 -0.01505152       0.009
   0.11060565  0.02128607 -0.03010304       0.009
  -0.07373710  0.12771640  0.04515457       0.009
  -0.03686855  0.10643034  0.03010304       0.009
  -0.00000000  0.12771640  0.00000000       0.009
   0.03686855  0.10643034 -0.01505152       0.009
   0.07373710  0.08514427 -0.03010304       0.009
   0.11060565  0.06385820 -0.04515457       0.009
  -0.07373710  0.17028854  0.03010304       0.009
  -0.03686855  0.14900247  0.01505152       0.009
  -0.00000000 -0.08514427  0.07525761       0.009
   0.03686855 -0.10643034  0.06020609       0.009
   0.07373710 -0.12771640  0.04515457       0.009
   0.11060565 -0.14900247  0.03010304       0.009
  -0.07373710 -0.04257213  0.10536066       0.009
  -0.03686855 -0.06385820  0.09030913       0.009
  -0.00000000 -0.04257213  0.06020609       0.009
   0.03686855 -0.06385820  0.04515457       0.009
   0.07373710 -0.08514427  0.03010304       0.009
   0.11060565 -0.10643034  0.01505152       0.009
  -0.07373710 -0.00000000  0.09030913       0.009
  -0.03686855 -0.02128607  0.07525761       0.009
  -0.00000000  0.00000000  0.09030913       0.009
   0.03686855 -0.02128607  0.07525761       0.009
   0.07373710 -0.04257213  0.06020609       0.009
   0.11060565 -0.06385820  0.04515457       0.009
  -0.07373710  0.04257213  0.12041218       0.009
  -0.03686855  0.02128607  0.10536066       0.009
  -0.00000000  0.04257213  0.07525761       0.009
   0.03686855  0.02128607  0.06020609       0.009
   0.07373710  0.00000000  0.04515457       0.009
   0.11060565 -0.02128607  0.03010304       0.009
  -0.07373710  0.08514427  0.10536066       0.009
  -0.03686855  0.06385820  0.09030913       0.009
  -0.00000000  0.08514427  0.06020609       0.009
   0.03686855  0.06385820  0.04515457       0.009
   0.07373710  0.04257213  0.03010304       0.009
   0.11060565  0.02128607  0.01505152       0.009
  -0.07373710  0.12771640  0.09030913       0.009
  -0.03686855  0.10643034  0.07525761       0.009
  -0.00000000  0.12771640  0.04515457       0.009
   0.03686855  0.10643034  0.03010304       0.009
   0.07373710  0.08514427  0.01505152       0.009
   0.11060565  0.06385820 -0.00000000       0.009
  -0.07373710  0.17028854  0.07525761       0.009
  -0.03686855  0.14900247  0.06020609       0.009
  -0.00000000 -0.08514427  0.12041218       0.009
   0.03686855 -0.10643034  0.10536066       0.009
   0.07373710 -0.12771640  0.09030913       0.009
   0.11060565 -0.14900247  0.07525761       0.009
  -0.07373710 -0.04257213  0.15051522       0.009
  -0.03686855 -0.06385820  0.13546370       0.009
  -0.00000000 -0.04257213  0.10536066       0.009
   0.03686855 -0.06385820  0.09030913       0.009
   0.07373710 -0.08514427  0.07525761       0.009
   0.11060565 -0.10643034  0.06020609       0.009
  -0.07373710 -0.00000000  0.13546370       0.009
  -0.03686855 -0.02128607  0.12041218       0.009
  -0.00000000  0.00000000  0.13546370       0.005
   0.03686855 -0.02128607  0.12041218       0.009
   0.07373710 -0.04257213  0.10536066       0.009
   0.11060565 -0.06385820  0.09030913       0.005
  -0.00000000  0.04257213  0.12041218       0.009
   0.03686855  0.02128607  0.10536066       0.009
   0.07373710  0.00000000  0.09030913       0.009
   0.11060565 -0.02128607  0.07525761       0.009
  -0.07373710  0.08514427  0.15051522       0.009
  -0.03686855  0.06385820  0.13546370       0.009
  -0.00000000  0.08514427  0.10536066       0.009
   0.03686855  0.06385820  0.09030913       0.009
   0.07373710  0.04257213  0.07525761       0.009
   0.11060565  0.02128607  0.06020609       0.009
  -0.07373710  0.12771640  0.13546370       0.009
  -0.03686855  0.10643034  0.12041218       0.009
  -0.00000000  0.12771640  0.09030913       0.005
   0.03686855  0.10643034  0.07525761       0.009
   0.07373710  0.08514427  0.06020609       0.009
 
 k-points in reciprocal lattice and weights: Automatically generated mesh + R-points 
   0.50000000  0.50000000  0.50000000       0.000
   0.47500000  0.47500000  0.47500000       0.000
   0.45000000  0.45000000  0.45000000       0.000
   0.42500000  0.42500000  0.42500000       0.000
   0.40000000  0.40000000  0.40000000       0.000
   0.37500000  0.37500000  0.37500000       0.000
   0.35000000  0.35000000  0.35000000       0.000
   0.32500000  0.32500000  0.32500000       0.000
   0.30000000  0.30000000  0.30000000       0.000
   0.27500000  0.27500000  0.27500000       0.000
   0.25000000  0.25000000  0.25000000       0.000
   0.22500000  0.22500000  0.22500000       0.000
   0.20000000  0.20000000  0.20000000       0.000
   0.17500000  0.17500000  0.17500000       0.000
   0.15000000  0.15000000  0.15000000       0.000
   0.12500000  0.12500000  0.12500000       0.000
   0.10000000  0.10000000  0.10000000       0.000
   0.07500000  0.07500000  0.07500000       0.000
   0.05000000  0.05000000  0.05000000       0.000
   0.02500000  0.02500000  0.02500000       0.000
   0.00000000  0.00000000  0.00000000       0.000
   0.00000000  0.02500000  0.02500000       0.000
   0.00000000  0.05000000  0.05000000       0.000
   0.00000000  0.07500000  0.07500000       0.000
   0.00000000  0.10000000  0.10000000       0.000
   0.00000000  0.12500000  0.12500000       0.000
   0.00000000  0.15000000  0.15000000       0.000
   0.00000000  0.17500000  0.17500000       0.000
   0.00000000  0.20000000  0.20000000       0.000
   0.00000000  0.22500000  0.22500000       0.000
   0.00000000  0.25000000  0.25000000       0.000
   0.00000000  0.27500000  0.27500000       0.000
   0.00000000  0.30000000  0.30000000       0.000
   0.00000000  0.32500000  0.32500000       0.000
   0.00000000  0.35000000  0.35000000       0.000
   0.00000000  0.37500000  0.37500000       0.000
   0.00000000  0.40000000  0.40000000       0.000
   0.00000000  0.42500000  0.42500000       0.000
   0.00000000  0.45000000  0.45000000       0.000
   0.00000000  0.47500000  0.47500000       0.000
   0.00000000  0.50000000  0.50000000       0.000
   0.00000000  0.00000000  0.00000000       0.005
   0.16666667  0.00000000  0.00000000       0.009
   0.33333333  0.00000000  0.00000000       0.009
   0.50000000  0.00000000  0.00000000       0.005
   0.00000000  0.16666667  0.00000000       0.009
   0.16666667  0.16666667  0.00000000       0.009
   0.33333333  0.16666667  0.00000000       0.009
   0.50000000  0.16666667  0.00000000       0.009
  -0.33333333  0.16666667  0.00000000       0.009
  -0.16666667  0.16666667  0.00000000       0.009
   0.00000000  0.33333333  0.00000000       0.009
   0.16666667  0.33333333  0.00000000       0.009
   0.33333333  0.33333333  0.00000000       0.009
   0.50000000  0.33333333  0.00000000       0.009
  -0.33333333  0.33333333  0.00000000       0.009
  -0.16666667  0.33333333  0.00000000       0.009
   0.00000000  0.50000000  0.00000000       0.005
   0.16666667  0.50000000  0.00000000       0.009
   0.33333333  0.50000000  0.00000000       0.009
   0.50000000  0.50000000  0.00000000       0.005
   0.00000000  0.00000000  0.16666667       0.009
   0.16666667  0.00000000  0.16666667       0.009
   0.33333333  0.00000000  0.16666667       0.009
   0.50000000  0.00000000  0.16666667       0.009
  -0.33333333  0.00000000  0.16666667       0.009
  -0.16666667  0.00000000  0.16666667       0.009
   0.00000000  0.16666667  0.16666667       0.009
   0.16666667  0.16666667  0.16666667       0.009
   0.33333333  0.16666667  0.16666667       0.009
   0.50000000  0.16666667  0.16666667       0.009
  -0.33333333  0.16666667  0.16666667       0.009
  -0.16666667  0.16666667  0.16666667       0.009
   0.00000000  0.33333333  0.16666667       0.009
   0.16666667  0.33333333  0.16666667       0.009
   0.33333333  0.33333333  0.16666667       0.009
   0.50000000  0.33333333  0.16666667       0.009
  -0.33333333  0.33333333  0.16666667       0.009
  -0.16666667  0.33333333  0.16666667       0.009
   0.00000000  0.50000000  0.16666667       0.009
   0.16666667  0.50000000  0.16666667       0.009
   0.33333333  0.50000000  0.16666667       0.009
   0.50000000  0.50000000  0.16666667       0.009
  -0.33333333  0.50000000  0.16666667       0.009
  -0.16666667  0.50000000  0.16666667       0.009
   0.00000000 -0.33333333  0.16666667       0.009
   0.16666667 -0.33333333  0.16666667       0.009
   0.33333333 -0.33333333  0.16666667       0.009
   0.50000000 -0.33333333  0.16666667       0.009
  -0.33333333 -0.33333333  0.16666667       0.009
  -0.16666667 -0.33333333  0.16666667       0.009
   0.00000000 -0.16666667  0.16666667       0.009
   0.16666667 -0.16666667  0.16666667       0.009
   0.33333333 -0.16666667  0.16666667       0.009
   0.50000000 -0.16666667  0.16666667       0.009
  -0.33333333 -0.16666667  0.16666667       0.009
  -0.16666667 -0.16666667  0.16666667       0.009
   0.00000000  0.00000000  0.33333333       0.009
   0.16666667  0.00000000  0.33333333       0.009
   0.33333333  0.00000000  0.33333333       0.009
   0.50000000  0.00000000  0.33333333       0.009
  -0.33333333  0.00000000  0.33333333       0.009
  -0.16666667  0.00000000  0.33333333       0.009
   0.00000000  0.16666667  0.33333333       0.009
   0.16666667  0.16666667  0.33333333       0.009
   0.33333333  0.16666667  0.33333333       0.009
   0.50000000  0.16666667  0.33333333       0.009
  -0.33333333  0.16666667  0.33333333       0.009
  -0.16666667  0.16666667  0.33333333       0.009
   0.00000000  0.33333333  0.33333333       0.009
   0.16666667  0.33333333  0.33333333       0.009
   0.33333333  0.33333333  0.33333333       0.009
   0.50000000  0.33333333  0.33333333       0.009
  -0.33333333  0.33333333  0.33333333       0.009
  -0.16666667  0.33333333  0.33333333       0.009
   0.00000000  0.50000000  0.33333333       0.009
   0.16666667  0.50000000  0.33333333       0.009
   0.33333333  0.50000000  0.33333333       0.009
   0.50000000  0.50000000  0.33333333       0.009
  -0.33333333  0.50000000  0.33333333       0.009
  -0.16666667  0.50000000  0.33333333       0.009
   0.00000000 -0.33333333  0.33333333       0.009
   0.16666667 -0.33333333  0.33333333       0.009
   0.33333333 -0.33333333  0.33333333       0.009
   0.50000000 -0.33333333  0.33333333       0.009
  -0.33333333 -0.33333333  0.33333333       0.009
  -0.16666667 -0.33333333  0.33333333       0.009
   0.00000000 -0.16666667  0.33333333       0.009
   0.16666667 -0.16666667  0.33333333       0.009
   0.33333333 -0.16666667  0.33333333       0.009
   0.50000000 -0.16666667  0.33333333       0.009
  -0.33333333 -0.16666667  0.33333333       0.009
  -0.16666667 -0.16666667  0.33333333       0.009
   0.00000000  0.00000000  0.50000000       0.005
   0.16666667  0.00000000  0.50000000       0.009
   0.33333333  0.00000000  0.50000000       0.009
   0.50000000  0.00000000  0.50000000       0.005
   0.00000000  0.16666667  0.50000000       0.009
   0.16666667  0.16666667  0.50000000       0.009
   0.33333333  0.16666667  0.50000000       0.009
   0.50000000  0.16666667  0.50000000       0.009
  -0.33333333  0.16666667  0.50000000       0.009
  -0.16666667  0.16666667  0.50000000       0.009
   0.00000000  0.33333333  0.50000000       0.009
   0.16666667  0.33333333  0.50000000       0.009
   0.33333333  0.33333333  0.50000000       0.009
   0.50000000  0.33333333  0.50000000       0.009
  -0.33333333  0.33333333  0.50000000       0.009
  -0.16666667  0.33333333  0.50000000       0.009
   0.00000000  0.50000000  0.50000000       0.005
   0.16666667  0.50000000  0.50000000       0.009
   0.33333333  0.50000000  0.50000000       0.009
 
 position of ions in fractional coordinates (direct lattice) 
   0.00000000  0.00000000  0.00000000
 
 position of ions in cartesian coordinates  (Angst):
   0.00000000  0.00000000  0.00000000
 


--------------------------------------------------------------------------------------------------------


 k-point  1 :   0.5000 0.5000 0.5000  plane waves:     718
 k-point  2 :   0.4750 0.4750 0.4750  plane waves:     718
 k-point  3 :   0.4500 0.4500 0.4500  plane waves:     724
 k-point  4 :   0.4250 0.4250 0.4250  plane waves:     724
 k-point  5 :   0.4000 0.4000 0.4000  plane waves:     721
 k-point  6 :   0.3750 0.3750 0.3750  plane waves:     730
 k-point  7 :   0.3500 0.3500 0.3500  plane waves:     730
 k-point  8 :   0.3250 0.3250 0.3250  plane waves:     736
 k-point  9 :   0.3000 0.3000 0.3000  plane waves:     718
 k-point 10 :   0.2750 0.2750 0.2750  plane waves:     718
 k-point 11 :   0.2500 0.2500 0.2500  plane waves:     721
 k-point 12 :   0.2250 0.2250 0.2250  plane waves:     718
 k-point 13 :   0.2000 0.2000 0.2000  plane waves:     718
 k-point 14 :   0.1750 0.1750 0.1750  plane waves:     712
 k-point 15 :   0.1500 0.1500 0.1500  plane waves:     712
 k-point 16 :   0.1250 0.1250 0.1250  plane waves:     712
 k-point 17 :   0.1000 0.1000 0.1000  plane waves:     724
 k-point 18 :   0.0750 0.0750 0.0750  plane waves:     722
 k-point 19 :   0.0500 0.0500 0.0500  plane waves:     725
 k-point 20 :   0.0250 0.0250 0.0250  plane waves:     725
 k-point 21 :   0.0000 0.0000 0.0000  plane waves:     725
 k-point 22 :   0.0000 0.0250 0.0250  plane waves:     725
 k-point 23 :   0.0000 0.0500 0.0500  plane waves:     725
 k-point 24 :   0.0000 0.0750 0.0750  plane waves:     721
 k-point 25 :   0.0000 0.1000 0.1000  plane waves:     713
 k-point 26 :   0.0000 0.1250 0.1250  plane waves:     713
 k-point 27 :   0.0000 0.1500 0.1500  plane waves:     709
 k-point 28 :   0.0000 0.1750 0.1750  plane waves:     709
 k-point 29 :   0.0000 0.2000 0.2000  plane waves:     709
 k-point 30 :   0.0000 0.2250 0.2250  plane waves:     717
 k-point 31 :   0.0000 0.2500 0.2500  plane waves:     713
 k-point 32 :   0.0000 0.2750 0.2750  plane waves:     713
 k-point 33 :   0.0000 0.3000 0.3000  plane waves:     717
 k-point 34 :   0.0000 0.3250 0.3250  plane waves:     717
 k-point 35 :   0.0000 0.3500 0.3500  plane waves:     717
 k-point 36 :   0.0000 0.3750 0.3750  plane waves:     713
 k-point 37 :   0.0000 0.4000 0.4000  plane waves:     717
 k-point 38 :   0.0000 0.4250 0.4250  plane waves:     716
 k-point 39 :   0.0000 0.4500 0.4500  plane waves:     724
 k-point 40 :   0.0000 0.4750 0.4750  plane waves:     724
 k-point 41 :   0.0000 0.5000 0.5000  plane waves:     724
 k-point 42 :   0.0000 0.0000 0.0000  plane waves:     725
 k-point 43 :   0.1667 0.0000 0.0000  plane waves:     712
 k-point 44 :   0.3333 0.0000 0.0000  plane waves:     745
 k-point 45 :   0.5000 0.0000 0.0000  plane waves:     718
 k-point 46 :   0.0000 0.1667 0.0000  plane waves:     712
 k-point 47 :   0.1667 0.1667 0.0000  plane waves:     709
 k-point 48 :   0.3333 0.1667 0.0000  plane waves:     718
 k-point 49 :   0.5000 0.1667 0.0000  plane waves:     714
 k-point 50 :  -0.3333 0.1667 0.0000  plane waves:     717
 k-point 51 :  -0.1667 0.1667 0.0000  plane waves:     720
 k-point 52 :   0.0000 0.3333 0.0000  plane waves:     745
 k-point 53 :   0.1667 0.3333 0.0000  plane waves:     718
 k-point 54 :   0.3333 0.3333 0.0000  plane waves:     717
 k-point 55 :   0.5000 0.3333 0.0000  plane waves:     715
 k-point 56 :  -0.3333 0.3333 0.0000  plane waves:     716
 k-point 57 :  -0.1667 0.3333 0.0000  plane waves:     717
 k-point 58 :   0.0000 0.5000 0.0000  plane waves:     718
 k-point 59 :   0.1667 0.5000 0.0000  plane waves:     714
 k-point 60 :   0.3333 0.5000 0.0000  plane waves:     715
 k-point 61 :   0.5000 0.5000 0.0000  plane waves:     724
 k-point 62 :   0.0000 0.0000 0.1667  plane waves:     712
 k-point 63 :   0.1667 0.0000 0.1667  plane waves:     709
 k-point 64 :   0.3333 0.0000 0.1667  plane waves:     718
 k-point 65 :   0.5000 0.0000 0.1667  plane waves:     714
 k-point 66 :  -0.3333 0.0000 0.1667  plane waves:     717
 k-point 67 :  -0.1667 0.0000 0.1667  plane waves:     720
 k-point 68 :   0.0000 0.1667 0.1667  plane waves:     709
 k-point 69 :   0.1667 0.1667 0.1667  plane waves:     712
 k-point 70 :   0.3333 0.1667 0.1667  plane waves:     720
 k-point 71 :   0.5000 0.1667 0.1667  plane waves:     717
 k-point 72 :  -0.3333 0.1667 0.1667  plane waves:     714
 k-point 73 :  -0.1667 0.1667 0.1667  plane waves:     718
 k-point 74 :   0.0000 0.3333 0.1667  plane waves:     718
 k-point 75 :   0.1667 0.3333 0.1667  plane waves:     720
 k-point 76 :   0.3333 0.3333 0.1667  plane waves:     718
 k-point 77 :   0.5000 0.3333 0.1667  plane waves:     717
 k-point 78 :  -0.3333 0.3333 0.1667  plane waves:     722
 k-point 79 :  -0.1667 0.3333 0.1667  plane waves:     717
 k-point 80 :   0.0000 0.5000 0.1667  plane waves:     714
 k-point 81 :   0.1667 0.5000 0.1667  plane waves:     717
 k-point 82 :   0.3333 0.5000 0.1667  plane waves:     717
 k-point 83 :   0.5000 0.5000 0.1667  plane waves:     715
 k-point 84 :  -0.3333 0.5000 0.1667  plane waves:     718
 k-point 85 :  -0.1667 0.5000 0.1667  plane waves:     722
 k-point 86 :   0.0000-0.3333 0.1667  plane waves:     717
 k-point 87 :   0.1667-0.3333 0.1667  plane waves:     714
 k-point 88 :   0.3333-0.3333 0.1667  plane waves:     722
 k-point 89 :   0.5000-0.3333 0.1667  plane waves:     718
 k-point 90 :  -0.3333-0.3333 0.1667  plane waves:     715
 k-point 91 :  -0.1667-0.3333 0.1667  plane waves:     717
 k-point 92 :   0.0000-0.1667 0.1667  plane waves:     720
 k-point 93 :   0.1667-0.1667 0.1667  plane waves:     718
 k-point 94 :   0.3333-0.1667 0.1667  plane waves:     717
 k-point 95 :   0.5000-0.1667 0.1667  plane waves:     722
 k-point 96 :  -0.3333-0.1667 0.1667  plane waves:     717
 k-point 97 :  -0.1667-0.1667 0.1667  plane waves:     718
 k-point 98 :   0.0000 0.0000 0.3333  plane waves:     745
 k-point 99 :   0.1667 0.0000 0.3333  plane waves:     718
 k-point ** :   0.3333 0.0000 0.3333  plane waves:     717
 k-point ** :   0.5000 0.0000 0.3333  plane waves:     715
 k-point ** :  -0.3333 0.0000 0.3333  plane waves:     716
 k-point ** :  -0.1667 0.0000 0.3333  plane waves:     717
 k-point ** :   0.0000 0.1667 0.3333  plane waves:     718
 k-point ** :   0.1667 0.1667 0.3333  plane waves:     720
 k-point ** :   0.3333 0.1667 0.3333  plane waves:     718
 k-point ** :   0.5000 0.1667 0.3333  plane waves:     717
 k-point ** :  -0.3333 0.1667 0.3333  plane waves:     722
 k-point ** :  -0.1667 0.1667 0.3333  plane waves:     717
 k-point ** :   0.0000 0.3333 0.3333  plane waves:     717
 k-point ** :   0.1667 0.3333 0.3333  plane waves:     718
 k-point ** :   0.3333 0.3333 0.3333  plane waves:     745
 k-point ** :   0.5000 0.3333 0.3333  plane waves:     717
 k-point ** :  -0.3333 0.3333 0.3333  plane waves:     716
 k-point ** :  -0.1667 0.3333 0.3333  plane waves:     715
 k-point ** :   0.0000 0.5000 0.3333  plane waves:     715
 k-point ** :   0.1667 0.5000 0.3333  plane waves:     717
 k-point ** :   0.3333 0.5000 0.3333  plane waves:     717
 k-point ** :   0.5000 0.5000 0.3333  plane waves:     714
 k-point ** :  -0.3333 0.5000 0.3333  plane waves:     722
 k-point ** :  -0.1667 0.5000 0.3333  plane waves:     718
 k-point ** :   0.0000-0.3333 0.3333  plane waves:     716
 k-point ** :   0.1667-0.3333 0.3333  plane waves:     722
 k-point ** :   0.3333-0.3333 0.3333  plane waves:     716
 k-point ** :   0.5000-0.3333 0.3333  plane waves:     722
 k-point ** :  -0.3333-0.3333 0.3333  plane waves:     716
 k-point ** :  -0.1667-0.3333 0.3333  plane waves:     722
 k-point ** :   0.0000-0.1667 0.3333  plane waves:     717
 k-point ** :   0.1667-0.1667 0.3333  plane waves:     717
 k-point ** :   0.3333-0.1667 0.3333  plane waves:     715
 k-point ** :   0.5000-0.1667 0.3333  plane waves:     718
 k-point ** :  -0.3333-0.1667 0.3333  plane waves:     722
 k-point ** :  -0.1667-0.1667 0.3333  plane waves:     714
 k-point ** :   0.0000 0.0000 0.5000  plane waves:     718
 k-point ** :   0.1667 0.0000 0.5000  plane waves:     714
 k-point ** :   0.3333 0.0000 0.5000  plane waves:     715
 k-point ** :   0.5000 0.0000 0.5000  plane waves:     724
 k-point ** :   0.0000 0.1667 0.5000  plane waves:     714
 k-point ** :   0.1667 0.1667 0.5000  plane waves:     717
 k-point ** :   0.3333 0.1667 0.5000  plane waves:     717
 k-point ** :   0.5000 0.1667 0.5000  plane waves:     715
 k-point ** :  -0.3333 0.1667 0.5000  plane waves:     718
 k-point ** :  -0.1667 0.1667 0.5000  plane waves:     722
 k-point ** :   0.0000 0.3333 0.5000  plane waves:     715
 k-point ** :   0.1667 0.3333 0.5000  plane waves:     717
 k-point ** :   0.3333 0.3333 0.5000  plane waves:     717
 k-point ** :   0.5000 0.3333 0.5000  plane waves:     714
 k-point ** :  -0.3333 0.3333 0.5000  plane waves:     722
 k-point ** :  -0.1667 0.3333 0.5000  plane waves:     718
 k-point ** :   0.0000 0.5000 0.5000  plane waves:     724
 k-point ** :   0.1667 0.5000 0.5000  plane waves:     715
 k-point ** :   0.3333 0.5000 0.5000  plane waves:     714

 maximum and minimum number of plane-waves per node :       200      167

 maximum number of plane-waves:       745
 maximum index in each direction: 
   IXMAX=    6   IYMAX=    6   IZMAX=    6
   IXMIN=   -6   IYMIN=   -6   IZMIN=   -6


 parallel 3D FFT for wavefunctions:
    minimum data exchange during FFTs selected (reduces bandwidth)
 parallel 3D FFT for charge:
    minimum data exchange during FFTs selected (reduces bandwidth)


 total amount of memory used by VASP MPI-rank0    65264. kBytes
=======================================================================

   base      :      30000. kBytes
   nonl-proj :       8326. kBytes
   fftplans  :       6678. kBytes
   grid      :       2919. kBytes
   one-center:         65. kBytes
   wavefun   :      17276. kBytes
 
     INWAV:  cpu time    0.3795: real time    0.3901
 Broyden mixing: mesh for mixing (old mesh)
   NGX = 13   NGY = 13   NGZ = 13
  (NGX  = 56   NGY  = 56   NGZ  = 56)
  gives a total of   2197 points

 charge density for first step will be calculated from the start-wavefunctions


--------------------------------------------------------------------------------------------------------


 Maximum index for augmentation-charges        26897 (set IRDMAX)


--------------------------------------------------------------------------------------------------------


 initial charge from wavefunction
 First call to EWALD:  gamma=   0.451
 Maximum number of real-space cells 3x 3x 3
 Maximum number of reciprocal cells 3x 3x 3

    FEWALD:  cpu time    0.0022: real time    0.0022


--------------------------------------- Iteration      1(   1)  ---------------------------------------


    POTLOK:  cpu time    0.1295: real time    0.1304
    SETDIJ:  cpu time    0.1024: real time    0.1025
     EDDAV:  cpu time    4.9143: real time    4.9224
       DOS:  cpu time    0.0014: real time    0.0014
    --------------------------------------------
      LOOP:  cpu time    5.1485: real time    5.1568

 eigenvalue-minimisations  : 13768
 total energy-change (2. order) :-0.8366781E+02  (-0.3903951E+01)
 number of electron      18.0000001 magnetization 
 augmentation part        7.5132094 magnetization 

 Free energy of the ion-electron system (eV)
  ---------------------------------------------------
  alpha Z        PSCENC =        69.69972675
  Ewald energy   TEWEN  =     -1713.14217088
  -Hartree energ DENC   =     -1048.54917198
  -exchange      EXHF   =         0.00000000
  -V(xc)+E(xc)   XCENC  =        60.09302930
  PAW double counting   =      2453.32741460    -2522.98816239
  entropy T*S    EENTRO =        -0.00000000
  eigenvalues    EBANDS =      -412.73258113
  atomic energy  EATOM  =      3030.62410580
  Solvation  Ediel_sol  =         0.00000000
  ---------------------------------------------------
  free energy    TOTEN  =       -83.66780993 eV

  energy without entropy =      -83.66780993  energy(sigma->0) =      -83.66780993


--------------------------------------------------------------------------------------------------------




--------------------------------------- Iteration      1(   2)  ---------------------------------------


     EDDAV:  cpu time    4.5787: real time    4.5874
       DOS:  cpu time    0.0012: real time    0.0012
    --------------------------------------------
      LOOP:  cpu time    4.5790: real time    4.5886

 eigenvalue-minimisations  : 11992
 total energy-change (2. order) :-0.9385978E-01  (-0.9385260E-01)
 number of electron      18.0000001 magnetization 
 augmentation part        7.5132094 magnetization 

 Free energy of the ion-electron system (eV)
  ---------------------------------------------------
  alpha Z        PSCENC =        69.69972675
  Ewald energy   TEWEN  =     -1713.14217088
  -Hartree energ DENC   =     -1048.54917198
  -exchange      EXHF   =         0.00000000
  -V(xc)+E(xc)   XCENC  =        60.09302930
  PAW double counting   =      2453.32741460    -2522.98816239
  entropy T*S    EENTRO =        -0.00000000
  eigenvalues    EBANDS =      -412.82644092
  atomic energy  EATOM  =      3030.62410580
  Solvation  Ediel_sol  =         0.00000000
  ---------------------------------------------------
  free energy    TOTEN  =       -83.76166971 eV

  energy without entropy =      -83.76166971  energy(sigma->0) =      -83.76166971


--------------------------------------------------------------------------------------------------------




--------------------------------------- Iteration      1(   3)  ---------------------------------------


     EDDAV:  cpu time    5.2411: real time    5.2499
       DOS:  cpu time    0.0012: real time    0.0012
    --------------------------------------------
      LOOP:  cpu time    5.2424: real time    5.2511

 eigenvalue-minimisations  : 15120
 total energy-change (2. order) :-0.9754317E-03  (-0.9754268E-03)
 number of electron      18.0000001 magnetization 
 augmentation part        7.5132094 magnetization 

 Free energy of the ion-electron system (eV)
  ---------------------------------------------------
  alpha Z        PSCENC =        69.69972675
  Ewald energy   TEWEN  =     -1713.14217088
  -Hartree energ DENC   =     -1048.54917198
  -exchange      EXHF   =         0.00000000
  -V(xc)+E(xc)   XCENC  =        60.09302930
  PAW double counting   =      2453.32741460    -2522.98816239
  entropy T*S    EENTRO =        -0.00000000
  eigenvalues    EBANDS =      -412.82741635
  atomic energy  EATOM  =      3030.62410580
  Solvation  Ediel_sol  =         0.00000000
  ---------------------------------------------------
  free energy    TOTEN  =       -83.76264515 eV

  energy without entropy =      -83.76264515  energy(sigma->0) =      -83.76264515


--------------------------------------------------------------------------------------------------------




--------------------------------------- Iteration      1(   4)  ---------------------------------------


     EDDAV:  cpu time    4.7153: real time    4.7227
       DOS:  cpu time    0.0012: real time    0.0012
    --------------------------------------------
      LOOP:  cpu time    4.7165: real time    4.7239

 eigenvalue-minimisations  : 12928
 total energy-change (2. order) :-0.3708659E-04  (-0.3708656E-04)
 number of electron      18.0000001 magnetization 
 augmentation part        7.5132094 magnetization 

 Free energy of the ion-electron system (eV)
  ---------------------------------------------------
  alpha Z        PSCENC =        69.69972675
  Ewald energy   TEWEN  =     -1713.14217088
  -Hartree energ DENC   =     -1048.54917198
  -exchange      EXHF   =         0.00000000
  -V(xc)+E(xc)   XCENC  =        60.09302930
  PAW double counting   =      2453.32741460    -2522.98816239
  entropy T*S    EENTRO =        -0.00000000
  eigenvalues    EBANDS =      -412.82745343
  atomic energy  EATOM  =      3030.62410580
  Solvation  Ediel_sol  =         0.00000000
  ---------------------------------------------------
  free energy    TOTEN  =       -83.76268223 eV

  energy without entropy =      -83.76268223  energy(sigma->0) =      -83.76268223


--------------------------------------------------------------------------------------------------------




--------------------------------------- Iteration      1(   5)  ---------------------------------------


     EDDAV:  cpu time    5.0889: real time    5.0975
       DOS:  cpu time    0.0014: real time    0.0014
    CHARGE:  cpu time    0.8572: real time    0.8580
    MIXING:  cpu time    0.0017: real time    0.0016
    --------------------------------------------
      LOOP:  cpu time    5.9491: real time    5.9585

 eigenvalue-minimisations  : 14512
 total energy-change (2. order) :-0.5477291E-06  (-0.5477589E-06)
 number of electron      18.0000001 magnetization 
 augmentation part        6.9940180 magnetization 

 Broyden mixing:
  rms(total) = 0.59672E+00    rms(broyden)= 0.59657E+00
  rms(prec ) = 0.16200E+01
  weight for this iteration     100.00

 Free energy of the ion-electron system (eV)
  ---------------------------------------------------
  alpha Z        PSCENC =        69.69972675
  Ewald energy   TEWEN  =     -1713.14217088
  -Hartree energ DENC   =     -1048.54917198
  -exchange      EXHF   =         0.00000000
  -V(xc)+E(xc)   XCENC  =        60.09302930
  PAW double counting   =      2453.32741460    -2522.98816239
  entropy T*S    EENTRO =        -0.00000000
  eigenvalues    EBANDS =      -412.82745398
  atomic energy  EATOM  =      3030.62410580
  Solvation  Ediel_sol  =         0.00000000
  ---------------------------------------------------
  free energy    TOTEN  =       -83.76268278 eV

  energy without entropy =      -83.76268278  energy(sigma->0) =      -83.76268278


--------------------------------------------------------------------------------------------------------




--------------------------------------- Iteration      1(   6)  ---------------------------------------


    POTLOK:  cpu time    0.1249: real time    0.1252
    SETDIJ:  cpu time    0.0973: real time    0.0974
     EDDAV:  cpu time    5.2558: real time    5.2638
       DOS:  cpu time    0.0012: real time    0.0012
    CHARGE:  cpu time    0.8533: real time    0.8541
    MIXING:  cpu time    0.0017: real time    0.0017
    --------------------------------------------
      LOOP:  cpu time    6.3342: real time    6.3433

 eigenvalue-minimisations  : 15360
 total energy-change (2. order) : 0.2479425E+01  (-0.2858137E+00)
 number of electron      18.0000001 magnetization 
 augmentation part        7.0933018 magnetization 

 Broyden mixing:
  rms(total) = 0.22678E+00    rms(broyden)= 0.22678E+00
  rms(prec ) = 0.57323E+00
  weight for this iteration     100.00

 eigenvalues of (default mixing * dielectric matrix)
  average eigenvalue GAMMA=   1.6013
  1.6013

 Free energy of the ion-electron system (eV)
  ---------------------------------------------------
  alpha Z        PSCENC =        69.69972675
  Ewald energy   TEWEN  =     -1713.14217088
  -Hartree energ DENC   =     -1010.55608615
  -exchange      EXHF   =         0.00000000
  -V(xc)+E(xc)   XCENC  =        59.63960346
  PAW double counting   =      2416.09653446    -2478.39358918
  entropy T*S    EENTRO =        -0.00000000
  eigenvalues    EBANDS =      -455.25138195
  atomic energy  EATOM  =      3030.62410580
  Solvation  Ediel_sol  =         0.00000000
  ---------------------------------------------------
  free energy    TOTEN  =       -81.28325769 eV

  energy without entropy =      -81.28325769  energy(sigma->0) =      -81.28325769


--------------------------------------------------------------------------------------------------------




--------------------------------------- Iteration      1(   7)  ---------------------------------------


    POTLOK:  cpu time    0.1266: real time    0.1289
    SETDIJ:  cpu time    0.0984: real time    0.0984
     EDDAV:  cpu time    5.6683: real time    5.6775
       DOS:  cpu time    0.0012: real time    0.0012
    CHARGE:  cpu time    0.8448: real time    0.8454
    MIXING:  cpu time    0.0019: real time    0.0019
    --------------------------------------------
      LOOP:  cpu time    6.7411: real time    6.7533

 eigenvalue-minimisations  : 17176
 total energy-change (2. order) : 0.3049707E+00  (-0.7269978E-01)
 number of electron      18.0000001 magnetization 
 augmentation part        7.1363948 magnetization 

 Broyden mixing:
  rms(total) = 0.39536E-01    rms(broyden)= 0.39508E-01
  rms(prec ) = 0.71912E-01
  weight for this iteration     100.00

 eigenvalues of (default mixing * dielectric matrix)
  average eigenvalue GAMMA=   2.1552
  1.4640  2.8463

 Free energy of the ion-electron system (eV)
  ---------------------------------------------------
  alpha Z        PSCENC =        69.69972675
  Ewald energy   TEWEN  =     -1713.14217088
  -Hartree energ DENC   =      -991.05606272
  -exchange      EXHF   =         0.00000000
  -V(xc)+E(xc)   XCENC  =        59.23560321
  PAW double counting   =      2390.05785853    -2449.50907695
  entropy T*S    EENTRO =        -0.00000000
  eigenvalues    EBANDS =      -476.88827073
  atomic energy  EATOM  =      3030.62410580
  Solvation  Ediel_sol  =         0.00000000
  ---------------------------------------------------
  free energy    TOTEN  =       -80.97828699 eV

  energy without entropy =      -80.97828699  energy(sigma->0) =      -80.97828699


--------------------------------------------------------------------------------------------------------




--------------------------------------- Iteration      1(   8)  ---------------------------------------


    POTLOK:  cpu time    0.1299: real time    0.1302
    SETDIJ:  cpu time    0.1011: real time    0.1012
     EDDAV:  cpu time    4.9526: real time    4.9608
       DOS:  cpu time    0.0013: real time    0.0013
    CHARGE:  cpu time    0.8572: real time    0.8580
    MIXING:  cpu time    0.0019: real time    0.0019
    --------------------------------------------
      LOOP:  cpu time    6.0440: real time    6.0534

 eigenvalue-minimisations  : 13936
 total energy-change (2. order) : 0.8924873E-03  (-0.3287121E-02)
 number of electron      18.0000001 magnetization 
 augmentation part        7.1402059 magnetization 

 Broyden mixing:
  rms(total) = 0.81764E-02    rms(broyden)= 0.81736E-02
  rms(prec ) = 0.18493E-01
  weight for this iteration     100.00

 eigenvalues of (default mixing * dielectric matrix)
  average eigenvalue GAMMA=   1.6761
  2.6796  0.8501  1.4985

 Free energy of the ion-electron system (eV)
  ---------------------------------------------------
  alpha Z        PSCENC =        69.69972675
  Ewald energy   TEWEN  =     -1713.14217088
  -Hartree energ DENC   =      -989.66047027
  -exchange      EXHF   =         0.00000000
  -V(xc)+E(xc)   XCENC  =        59.22231490
  PAW double counting   =      2385.81368078    -2446.41101576
  entropy T*S    EENTRO =        -0.00000000
  eigenvalues    EBANDS =      -477.12356582
  atomic energy  EATOM  =      3030.62410580
  Solvation  Ediel_sol  =         0.00000000
  ---------------------------------------------------
  free energy    TOTEN  =       -80.97739450 eV

  energy without entropy =      -80.97739450  energy(sigma->0) =      -80.97739450


--------------------------------------------------------------------------------------------------------




--------------------------------------- Iteration      1(   9)  ---------------------------------------


    POTLOK:  cpu time    0.1234: real time    0.1237
    SETDIJ:  cpu time    0.0979: real time    0.0979
     EDDAV:  cpu time    4.6420: real time    4.6492
       DOS:  cpu time    0.0012: real time    0.0012
    CHARGE:  cpu time    0.8570: real time    0.8579
    MIXING:  cpu time    0.0018: real time    0.0018
    --------------------------------------------
      LOOP:  cpu time    5.7234: real time    5.7317

 eigenvalue-minimisations  : 12664
 total energy-change (2. order) : 0.8360414E-03  (-0.5960785E-03)
 number of electron      18.0000001 magnetization 
 augmentation part        7.1396581 magnetization 

 Broyden mixing:
  rms(total) = 0.37474E-02    rms(broyden)= 0.37471E-02
  rms(prec ) = 0.53891E-02
  weight for this iteration     100.00

 eigenvalues of (default mixing * dielectric matrix)
  average eigenvalue GAMMA=   1.5408
  2.6605  1.4830  1.0099  1.0099

 Free energy of the ion-electron system (eV)
  ---------------------------------------------------
  alpha Z        PSCENC =        69.69972675
  Ewald energy   TEWEN  =     -1713.14217088
  -Hartree energ DENC   =      -990.25884305
  -exchange      EXHF   =         0.00000000
  -V(xc)+E(xc)   XCENC  =        59.23563077
  PAW double counting   =      2390.76182985    -2451.38070371
  entropy T*S    EENTRO =        -0.00000000
  eigenvalues    EBANDS =      -476.51613399
  atomic energy  EATOM  =      3030.62410580
  Solvation  Ediel_sol  =         0.00000000
  ---------------------------------------------------
  free energy    TOTEN  =       -80.97655846 eV

  energy without entropy =      -80.97655846  energy(sigma->0) =      -80.97655846


--------------------------------------------------------------------------------------------------------




--------------------------------------- Iteration      1(  10)  ---------------------------------------


    POTLOK:  cpu time    0.1238: real time    0.1240
    SETDIJ:  cpu time    0.0982: real time    0.0983
     EDDAV:  cpu time    5.3233: real time    5.3322
       DOS:  cpu time    0.0015: real time    0.0015
    CHARGE:  cpu time    0.8604: real time    0.8612
    MIXING:  cpu time    0.0018: real time    0.0018
    --------------------------------------------
      LOOP:  cpu time    6.4090: real time    6.4190

 eigenvalue-minimisations  : 15472
 total energy-change (2. order) : 0.1923473E-05  (-0.1757004E-04)
 number of electron      18.0000001 magnetization 
 augmentation part        7.1393373 magnetization 

 Broyden mixing:
  rms(total) = 0.26203E-02    rms(broyden)= 0.26199E-02
  rms(prec ) = 0.31196E-02
  weight for this iteration     100.00

 eigenvalues of (default mixing * dielectric matrix)
  average eigenvalue GAMMA=   1.9551
  3.9812  2.3057  1.5266  1.0791  0.8830

 Free energy of the ion-electron system (eV)
  ---------------------------------------------------
  alpha Z        PSCENC =        69.69972675
  Ewald energy   TEWEN  =     -1713.14217088
  -Hartree energ DENC   =      -990.25567895
  -exchange      EXHF   =         0.00000000
  -V(xc)+E(xc)   XCENC  =        59.23107638
  PAW double counting   =      2390.56832656    -2451.13607176
  entropy T*S    EENTRO =        -0.00000000
  eigenvalues    EBANDS =      -476.56587043
  atomic energy  EATOM  =      3030.62410580
  Solvation  Ediel_sol  =         0.00000000
  ---------------------------------------------------
  free energy    TOTEN  =       -80.97655653 eV

  energy without entropy =      -80.97655653  energy(sigma->0) =      -80.97655653


--------------------------------------------------------------------------------------------------------




--------------------------------------- Iteration      1(  11)  ---------------------------------------


    POTLOK:  cpu time    0.1226: real time    0.1238
    SETDIJ:  cpu time    0.0981: real time    0.0982
     EDDAV:  cpu time    4.9504: real time    4.9581
       DOS:  cpu time    0.0013: real time    0.0013
    CHARGE:  cpu time    0.8615: real time    0.8624
    MIXING:  cpu time    0.0020: real time    0.0020
    --------------------------------------------
      LOOP:  cpu time    6.0359: real time    6.0458

 eigenvalue-minimisations  : 14088
 total energy-change (2. order) : 0.4636817E-05  (-0.4238267E-05)
 number of electron      18.0000001 magnetization 
 augmentation part        7.1393892 magnetization 

 Broyden mixing:
  rms(total) = 0.14718E-02    rms(broyden)= 0.14711E-02
  rms(prec ) = 0.16893E-02
  weight for this iteration     100.00

 eigenvalues of (default mixing * dielectric matrix)
  average eigenvalue GAMMA=   1.5946
  3.2137  2.3697  1.5187  1.0284  0.8962  0.5407

 Free energy of the ion-electron system (eV)
  ---------------------------------------------------
  alpha Z        PSCENC =        69.69972675
  Ewald energy   TEWEN  =     -1713.14217088
  -Hartree energ DENC   =      -990.15526867
  -exchange      EXHF   =         0.00000000
  -V(xc)+E(xc)   XCENC  =        59.22681204
  PAW double counting   =      2390.82766598    -2451.40363983
  entropy T*S    EENTRO =        -0.00000000
  eigenvalues    EBANDS =      -476.65378308
  atomic energy  EATOM  =      3030.62410580
  Solvation  Ediel_sol  =         0.00000000
  ---------------------------------------------------
  free energy    TOTEN  =       -80.97655190 eV

  energy without entropy =      -80.97655190  energy(sigma->0) =      -80.97655190


--------------------------------------------------------------------------------------------------------




--------------------------------------- Iteration      1(  12)  ---------------------------------------


    POTLOK:  cpu time    0.1225: real time    0.1227
    SETDIJ:  cpu time    0.0978: real time    0.0978
     EDDAV:  cpu time    4.6274: real time    4.6343
       DOS:  cpu time    0.0013: real time    0.0012
    CHARGE:  cpu time    0.8647: real time    0.8655
    MIXING:  cpu time    0.0018: real time    0.0018
    --------------------------------------------
      LOOP:  cpu time    5.7155: real time    5.7235

 eigenvalue-minimisations  : 11872
 total energy-change (2. order) : 0.3536637E-05  (-0.1247752E-05)
 number of electron      18.0000001 magnetization 
 augmentation part        7.1393597 magnetization 

 Broyden mixing:
  rms(total) = 0.66103E-03    rms(broyden)= 0.65957E-03
  rms(prec ) = 0.69245E-03
  weight for this iteration     100.00

 eigenvalues of (default mixing * dielectric matrix)
  average eigenvalue GAMMA=   1.7398
  3.3304  2.1822  2.1822  1.5163  0.9823  0.9924  0.9924

 Free energy of the ion-electron system (eV)
  ---------------------------------------------------
  alpha Z        PSCENC =        69.69972675
  Ewald energy   TEWEN  =     -1713.14217088
  -Hartree energ DENC   =      -990.18493232
  -exchange      EXHF   =         0.00000000
  -V(xc)+E(xc)   XCENC  =        59.22789276
  PAW double counting   =      2390.93259227    -2451.50495968
  entropy T*S    EENTRO =        -0.00000000
  eigenvalues    EBANDS =      -476.62880307
  atomic energy  EATOM  =      3030.62410580
  Solvation  Ediel_sol  =         0.00000000
  ---------------------------------------------------
  free energy    TOTEN  =       -80.97654836 eV

  energy without entropy =      -80.97654836  energy(sigma->0) =      -80.97654836


--------------------------------------------------------------------------------------------------------




--------------------------------------- Iteration      1(  13)  ---------------------------------------


    POTLOK:  cpu time    0.1176: real time    0.1178
    SETDIJ:  cpu time    0.0920: real time    0.0921
     EDDAV:  cpu time    4.6729: real time    4.6795
       DOS:  cpu time    0.0012: real time    0.0012
    CHARGE:  cpu time    0.8626: real time    0.8635
    MIXING:  cpu time    0.0020: real time    0.0020
    --------------------------------------------
      LOOP:  cpu time    5.7483: real time    5.7561

 eigenvalue-minimisations  : 12232
 total energy-change (2. order) :-0.2263927E-05  (-0.1839347E-06)
 number of electron      18.0000001 magnetization 
 augmentation part        7.1393414 magnetization 

 Broyden mixing:
  rms(total) = 0.18765E-03    rms(broyden)= 0.18246E-03
  rms(prec ) = 0.19509E-03
  weight for this iteration     100.00

 eigenvalues of (default mixing * dielectric matrix)
  average eigenvalue GAMMA=   1.6031
  3.2428  2.1979  2.1979  1.5086  0.9462  1.0459  1.0459  0.6395

 Free energy of the ion-electron system (eV)
  ---------------------------------------------------
  alpha Z        PSCENC =        69.69972675
  Ewald energy   TEWEN  =     -1713.14217088
  -Hartree energ DENC   =      -990.18961636
  -exchange      EXHF   =         0.00000000
  -V(xc)+E(xc)   XCENC  =        59.22770014
  PAW double counting   =      2390.93727634    -2451.51229139
  entropy T*S    EENTRO =        -0.00000000
  eigenvalues    EBANDS =      -476.62128102
  atomic energy  EATOM  =      3030.62410580
  Solvation  Ediel_sol  =         0.00000000
  ---------------------------------------------------
  free energy    TOTEN  =       -80.97655062 eV

  energy without entropy =      -80.97655062  energy(sigma->0) =      -80.97655062


--------------------------------------------------------------------------------------------------------




--------------------------------------- Iteration      1(  14)  ---------------------------------------


    POTLOK:  cpu time    0.1225: real time    0.1228
    SETDIJ:  cpu time    0.0984: real time    0.0985
     EDDAV:  cpu time    4.4993: real time    4.5068
       DOS:  cpu time    0.0012: real time    0.0012
    CHARGE:  cpu time    0.8612: real time    0.8621
    MIXING:  cpu time    0.0021: real time    0.0021
    --------------------------------------------
      LOOP:  cpu time    5.5847: real time    5.5936

 eigenvalue-minimisations  : 11848
 total energy-change (2. order) :-0.7654317E-06  (-0.1641313E-07)
 number of electron      18.0000001 magnetization 
 augmentation part        7.1393375 magnetization 

 Broyden mixing:
  rms(total) = 0.46843E-04    rms(broyden)= 0.16507E-04
  rms(prec ) = 0.30230E-04
  weight for this iteration     100.00
  WARNING: grid for Broyden might be to small

 eigenvalues of (default mixing * dielectric matrix)
  average eigenvalue GAMMA=   1.7924
  2.9970  2.9970  2.3685  2.3685  1.5110  0.9821  0.9821  0.9628  0.9628

 Free energy of the ion-electron system (eV)
  ---------------------------------------------------
  alpha Z        PSCENC =        69.69972675
  Ewald energy   TEWEN  =     -1713.14217088
  -Hartree energ DENC   =      -990.19138438
  -exchange      EXHF   =         0.00000000
  -V(xc)+E(xc)   XCENC  =        59.22774131
  PAW double counting   =      2390.93486737    -2451.50993335
  entropy T*S    EENTRO =        -0.00000000
  eigenvalues    EBANDS =      -476.61950401
  atomic energy  EATOM  =      3030.62410580
  Solvation  Ediel_sol  =         0.00000000
  ---------------------------------------------------
  free energy    TOTEN  =       -80.97655139 eV

  energy without entropy =      -80.97655139  energy(sigma->0) =      -80.97655139


--------------------------------------------------------------------------------------------------------




--------------------------------------- Iteration      1(  15)  ---------------------------------------


    POTLOK:  cpu time    0.1149: real time    0.1151
    SETDIJ:  cpu time    0.0901: real time    0.0902
     EDDAV:  cpu time    4.7725: real time    4.7799
       DOS:  cpu time    0.0011: real time    0.0011
    CHARGE:  cpu time    0.8634: real time    0.8643
    MIXING:  cpu time    0.0022: real time    0.0022
    --------------------------------------------
      LOOP:  cpu time    5.8442: real time    5.8528

 eigenvalue-minimisations  : 13056
 total energy-change (2. order) : 0.1277549E-06  (-0.6645422E-09)
 number of electron      18.0000001 magnetization 
 augmentation part        7.1393354 magnetization 

 Broyden mixing:
  rms(total) = 0.44785E-04    rms(broyden)= 0.91663E-05
  rms(prec ) = 0.10980E-04
  weight for this iteration     100.00
  WARNING: grid for Broyden might be to small

 eigenvalues of (default mixing * dielectric matrix)
  average eigenvalue GAMMA=   1.7146
  3.3077  2.9098  2.3147  2.3147  1.5098  1.0161  1.0161  0.9300  0.9300  0.8970

 Free energy of the ion-electron system (eV)
  ---------------------------------------------------
  alpha Z        PSCENC =        69.69972675
  Ewald energy   TEWEN  =     -1713.14217088
  -Hartree energ DENC   =      -990.19246608
  -exchange      EXHF   =         0.00000000
  -V(xc)+E(xc)   XCENC  =        59.22777172
  PAW double counting   =      2390.94648973    -2451.52118037
  entropy T*S    EENTRO =        -0.00000000
  eigenvalues    EBANDS =      -476.61882794
  atomic energy  EATOM  =      3030.62410580
  Solvation  Ediel_sol  =         0.00000000
  ---------------------------------------------------
  free energy    TOTEN  =       -80.97655126 eV

  energy without entropy =      -80.97655126  energy(sigma->0) =      -80.97655126


--------------------------------------------------------------------------------------------------------




--------------------------------------- Iteration      1(  16)  ---------------------------------------


    POTLOK:  cpu time    0.1228: real time    0.1231
    SETDIJ:  cpu time    0.0981: real time    0.0983
     EDDAV:  cpu time    3.6385: real time    3.6443
       DOS:  cpu time    0.0012: real time    0.0012
    CHARGE:  cpu time    0.8559: real time    0.8568
    MIXING:  cpu time    0.0023: real time    0.0023
    --------------------------------------------
      LOOP:  cpu time    4.7187: real time    4.7258

 eigenvalue-minimisations  :  7944
 total energy-change (2. order) : 0.2252091E-07  (-0.3593604E-10)
 number of electron      18.0000001 magnetization 
 augmentation part        7.1393363 magnetization 

 Broyden mixing:
  rms(total) = 0.44038E-04    rms(broyden)= 0.41971E-05
  rms(prec ) = 0.43450E-05
  weight for this iteration     100.00
  WARNING: grid for Broyden might be to small

 eigenvalues of (default mixing * dielectric matrix)
  average eigenvalue GAMMA=   1.7869
  3.2488  3.2488  2.2896  2.2896  2.2030  1.5106  0.9586  0.9586  1.0088  1.0088
  0.9306

 Free energy of the ion-electron system (eV)
  ---------------------------------------------------
  alpha Z        PSCENC =        69.69972675
  Ewald energy   TEWEN  =     -1713.14217088
  -Hartree energ DENC   =      -990.19246381
  -exchange      EXHF   =         0.00000000
  -V(xc)+E(xc)   XCENC  =        59.22777687
  PAW double counting   =      2390.94733828    -2451.52203372
  entropy T*S    EENTRO =        -0.00000000
  eigenvalues    EBANDS =      -476.61883053
  atomic energy  EATOM  =      3030.62410580
  Solvation  Ediel_sol  =         0.00000000
  ---------------------------------------------------
  free energy    TOTEN  =       -80.97655124 eV

  energy without entropy =      -80.97655124  energy(sigma->0) =      -80.97655124


--------------------------------------------------------------------------------------------------------




--------------------------------------- Iteration      1(  17)  ---------------------------------------


    POTLOK:  cpu time    0.1253: real time    0.1256
    SETDIJ:  cpu time    0.0985: real time    0.0987
     EDDAV:  cpu time    3.5882: real time    3.5935
       DOS:  cpu time    0.0011: real time    0.0012
    CHARGE:  cpu time    0.8551: real time    0.8559
    MIXING:  cpu time    0.0023: real time    0.0022
    --------------------------------------------
      LOOP:  cpu time    4.6706: real time    4.6771

 eigenvalue-minimisations  :  7784
 total energy-change (2. order) : 0.1765829E-07  (-0.2156272E-10)
 number of electron      18.0000001 magnetization 
 augmentation part        7.1393358 magnetization 

 Broyden mixing:
  rms(total) = 0.43920E-04    rms(broyden)= 0.26947E-05
  rms(prec ) = 0.31744E-05
  weight for this iteration     100.00
  WARNING: grid for Broyden might be to small

 eigenvalues of (default mixing * dielectric matrix)
  average eigenvalue GAMMA=   1.7422
  3.1775  3.1775  2.5064  2.3979  2.3979  1.5105  0.9684  0.9684  1.0060  1.0060
  0.8951  0.8951

 Free energy of the ion-electron system (eV)
  ---------------------------------------------------
  alpha Z        PSCENC =        69.69972675
  Ewald energy   TEWEN  =     -1713.14217088
  -Hartree energ DENC   =      -990.19251930
  -exchange      EXHF   =         0.00000000
  -V(xc)+E(xc)   XCENC  =        59.22777839
  PAW double counting   =      2390.94574430    -2451.52039563
  entropy T*S    EENTRO =        -0.00000000
  eigenvalues    EBANDS =      -476.61882065
  atomic energy  EATOM  =      3030.62410580
  Solvation  Ediel_sol  =         0.00000000
  ---------------------------------------------------
  free energy    TOTEN  =       -80.97655122 eV

  energy without entropy =      -80.97655122  energy(sigma->0) =      -80.97655122


--------------------------------------------------------------------------------------------------------




--------------------------------------- Iteration      1(  18)  ---------------------------------------


    POTLOK:  cpu time    0.1249: real time    0.1256
    SETDIJ:  cpu time    0.0970: real time    0.0971
     EDDAV:  cpu time    3.5041: real time    3.5098
       DOS:  cpu time    0.0012: real time    0.0012
    --------------------------------------------
      LOOP:  cpu time    3.7271: real time    3.7337

 eigenvalue-minimisations  :  7304
 total energy-change (2. order) : 0.9960786E-08  (-0.6686025E-11)
 number of electron      18.0000001 magnetization 
 augmentation part        7.1393358 magnetization 

 Free energy of the ion-electron system (eV)
  ---------------------------------------------------
  alpha Z        PSCENC =        69.69972675
  Ewald energy   TEWEN  =     -1713.14217088
  -Hartree energ DENC   =      -990.19247151
  -exchange      EXHF   =         0.00000000
  -V(xc)+E(xc)   XCENC  =        59.22777975
  PAW double counting   =      2390.94560002    -2451.52024816
  entropy T*S    EENTRO =        -0.00000000
  eigenvalues    EBANDS =      -476.61887298
  atomic energy  EATOM  =      3030.62410580
  Solvation  Ediel_sol  =         0.00000000
  ---------------------------------------------------
  free energy    TOTEN  =       -80.97655121 eV

  energy without entropy =      -80.97655121  energy(sigma->0) =      -80.97655121


--------------------------------------------------------------------------------------------------------




 average (electrostatic) potential at core
  the test charge radii are     1.0367
  (the norm of the test charge is              1.0000)
       1 -90.5435
 
 
 
 E-fermi :  -2.1356     XC(G=0):  -7.7457     alpha+bet : -4.8700


 k-point     1 :       0.5000    0.5000    0.5000
  band No.  band energies     occupation 
      1     -42.1451      2.00000
      2     -42.1451      2.00000
      3     -42.1432      2.00000
      4     -42.1426      2.00000
      5     -42.1426      2.00000
      6     -17.7288      2.00000
      7      -4.4292      2.00000
      8      -2.6488      2.00000
      9      -2.6487      2.00000
     10       4.9109      0.00000
     11       8.0546      0.00000
     12       8.0546      0.00000
     13       8.6168      0.00000
     14      10.6750      0.00000
     15      13.3213      0.00000
     16      13.3213      0.00000
     17      13.5408      0.00000
     18      13.5408      0.00000
     19      14.4634      0.00000
     20      17.8921      0.00000
     21      18.2698      0.00000
     22      18.2698      0.00000
     23      19.9506      0.00000
     24      21.2618      0.00000
     25      22.1583      0.00000
     26      22.7202      0.00000
     27      22.7203      0.00000
     28      23.8406      0.00000
     29      23.8406      0.00000
     30      25.8202      0.00000
     31      26.2944      0.00000
     32      27.7617      0.00000

 k-point     2 :       0.4750    0.4750    0.4750
  band No.  band energies     occupation 
      1     -42.1451      2.00000
      2     -42.1451      2.00000
      3     -42.1432      2.00000
      4     -42.1427      2.00000
      5     -42.1426      2.00000
      6     -17.7300      2.00000
      7      -4.4198      2.00000
      8      -2.6473      2.00000
      9      -2.6473      2.00000
     10       4.9117      0.00000
     11       8.0614      0.00000
     12       8.0614      0.00000
     13       8.6071      0.00000
     14      10.6365      0.00000
     15      13.0295      0.00000
     16      13.0295      0.00000
     17      13.8445      0.00000
     18      13.8445      0.00000
     19      14.5399      0.00000
     20      17.7974      0.00000
     21      18.2238      0.00000
     22      18.2238      0.00000
     23      19.9489      0.00000
     24      21.2967      0.00000
     25      22.1408      0.00000
     26      22.7289      0.00000
     27      22.7289      0.00000
     28      23.8621      0.00000
     29      23.8621      0.00000
     30      25.7559      0.00000
     31      26.3750      0.00000
     32      27.7663      0.00000

 k-point     3 :       0.4500    0.4500    0.4500
  band No.  band energies     occupation 
      1     -42.1452      2.00000
      2     -42.1452      2.00000
      3     -42.1432      2.00000
      4     -42.1428      2.00000
      5     -42.1428      2.00000
      6     -17.7338      2.00000
      7      -4.3915      2.00000
      8      -2.6430      2.00000
      9      -2.6430      2.00000
     10       4.9138      0.00000
     11       8.0816      0.00000
     12       8.0816      0.00000
     13       8.5759      0.00000
     14      10.5357      0.00000
     15      12.6641      0.00000
     16      12.6641      0.00000
     17      14.2458      0.00000
     18      14.2458      0.00000
     19      14.7576      0.00000
     20      17.5377      0.00000
     21      18.0903      0.00000
     22      18.0903      0.00000
     23      19.9438      0.00000
     24      21.3273      0.00000
     25      22.1424      0.00000
     26      22.7506      0.00000
     27      22.7506      0.00000
     28      23.9257      0.00000
     29      23.9257      0.00000
     30      25.6341      0.00000
     31      26.5510      0.00000
     32      27.7781      0.00000

 k-point     4 :       0.4250    0.4250    0.4250
  band No.  band energies     occupation 
      1     -42.1452      2.00000
      2     -42.1452      2.00000
      3     -42.1433      2.00000
      4     -42.1428      2.00000
      5     -42.1428      2.00000
      6     -17.7396      2.00000
      7      -4.3448      2.00000
      8      -2.6359      2.00000
      9      -2.6359      2.00000
     10       4.9159      0.00000
     11       8.1149      0.00000
     12       8.1149      0.00000
     13       8.5171      0.00000
     14      10.4075      0.00000
     15      12.3092      0.00000
     16      12.3092      0.00000
     17      14.6603      0.00000
     18      14.6603      0.00000
     19      15.0884      0.00000
     20      17.1644      0.00000
     21      17.8817      0.00000
     22      17.8818      0.00000
     23      19.9355      0.00000
     24      21.2068      0.00000
     25      22.2718      0.00000
     26      22.7771      0.00000
     27      22.7771      0.00000
     28      24.0286      0.00000
     29      24.0286      0.00000
     30      25.5190      0.00000
     31      26.7705      0.00000
     32      27.7939      0.00000

 k-point     5 :       0.4000    0.4000    0.4000
  band No.  band energies     occupation 
      1     -42.1451      2.00000
      2     -42.1451      2.00000
[...]
     27      23.1518      0.00000
     28      23.2870      0.00000
     29      24.0354      0.00000
     30      25.3723      0.00000
     31      25.9664      0.00000
     32      26.1906      0.00000

 k-point   147 :       0.5000    0.3333    0.5000
  band No.  band energies     occupation 
      1     -42.1449      2.00000
      2     -42.1446      2.00000
      3     -42.1431      2.00000
      4     -42.1428      2.00000
      5     -42.1427      2.00000
      6     -17.7136      2.00000
      7      -4.2483      2.00000
      8      -3.0136      2.00000
      9      -2.7775      2.00000
     10       5.5783      0.00000
     11       6.8869      0.00000
     12       8.5353      0.00000
     13       8.7268      0.00000
     14      11.2394      0.00000
     15      12.3549      0.00000
     16      13.2026      0.00000
     17      14.0366      0.00000
     18      14.1735      0.00000
     19      17.1089      0.00000
     20      17.5525      0.00000
     21      17.6297      0.00000
     22      17.9809      0.00000
     23      19.2654      0.00000
     24      20.9115      0.00000
     25      21.6300      0.00000
     26      21.8561      0.00000
     27      22.3953      0.00000
     28      23.5412      0.00000
     29      23.7666      0.00000
     30      25.9512      0.00000
     31      26.2766      0.00000
     32      27.0166      0.00000

 k-point   148 :      -0.3333    0.3333    0.5000
  band No.  band energies     occupation 
      1     -42.1449      2.00000
      2     -42.1443      2.00000
      3     -42.1430      2.00000
      4     -42.1430      2.00000
      5     -42.1427      2.00000
      6     -17.6828      2.00000
      7      -4.0118      2.00000
      8      -3.5164      2.00000
      9      -2.9844      2.00000
     10       6.1285      0.00000
     11       6.7256      0.00000
     12       8.0982      0.00000
     13       9.2173      0.00000
     14      11.0821      0.00000
     15      12.7299      0.00000
     16      14.0483      0.00000
     17      14.1247      0.00000
     18      16.8533      0.00000
     19      17.0675      0.00000
     20      17.0781      0.00000
     21      17.3269      0.00000
     22      18.0228      0.00000
     23      18.2454      0.00000
     24      20.2894      0.00000
     25      20.6514      0.00000
     26      21.6391      0.00000
     27      22.5123      0.00000
     28      22.9402      0.00000
     29      23.7743      0.00000
     30      24.1403      0.00000
     31      25.8220      0.00000
     32      26.9756      0.00000

 k-point   149 :      -0.1667    0.3333    0.5000
  band No.  band energies     occupation 
      1     -42.1448      2.00000
      2     -42.1437      2.00000
      3     -42.1436      2.00000
      4     -42.1428      2.00000
      5     -42.1424      2.00000
      6     -17.6671      2.00000
      7      -4.0201      2.00000
      8      -3.4612      2.00000
      9      -3.1955      2.00000
     10       5.4086      0.00000
     11       6.6069      0.00000
     12       8.9213      0.00000
     13       9.2799      0.00000
     14      12.6738      0.00000
     15      13.3771      0.00000
     16      14.1262      0.00000
     17      14.2612      0.00000
     18      16.3145      0.00000
     19      16.7181      0.00000
     20      16.7750      0.00000
     21      17.4940      0.00000
     22      17.5073      0.00000
     23      17.8815      0.00000
     24      19.9780      0.00000
     25      20.4906      0.00000
     26      21.0807      0.00000
     27      21.9465      0.00000
     28      22.4698      0.00000
     29      22.7682      0.00000
     30      25.8664      0.00000
     31      26.0536      0.00000
     32      26.7854      0.00000

 k-point   150 :       0.0000    0.5000    0.5000
  band No.  band energies     occupation 
      1     -42.1453      2.00000
      2     -42.1438      2.00000
      3     -42.1436      2.00000
      4     -42.1427      2.00000
      5     -42.1424      2.00000
      6     -17.6681      2.00000
      7      -4.2613      2.00000
      8      -3.1269      2.00000
      9      -3.1268      2.00000
     10       4.5307      0.00000
     11       5.6172      0.00000
     12      10.5766      0.00000
     13      12.3408      0.00000
     14      12.3409      0.00000
     15      13.4516      0.00000
     16      14.2181      0.00000
     17      14.2184      0.00000
     18      14.7759      0.00000
     19      14.9524      0.00000
     20      17.2159      0.00000
     21      17.2160      0.00000
     22      17.4611      0.00000
     23      17.7786      0.00000
     24      18.5016      0.00000
     25      21.2841      0.00000
     26      21.2845      0.00000
     27      21.4974      0.00000
     28      21.9106      0.00000
     29      21.9110      0.00000
     30      25.3586      0.00000
     31      27.7465      0.00000
     32      28.1974      0.00000

 k-point   151 :       0.1667    0.5000    0.5000
  band No.  band energies     occupation 
      1     -42.1451      2.00000
      2     -42.1437      2.00000
      3     -42.1437      2.00000
      4     -42.1425      2.00000
      5     -42.1425      2.00000
      6     -17.6831      2.00000
      7      -4.1072      2.00000
      8      -3.3044      2.00000
      9      -3.0159      2.00000
     10       5.0732      0.00000
     11       6.2531      0.00000
     12       8.9582      0.00000
     13      10.5103      0.00000
     14      11.6408      0.00000
     15      13.5072      0.00000
     16      14.3078      0.00000
     17      14.4612      0.00000
     18      14.8738      0.00000
     19      16.6245      0.00000
     20      17.1815      0.00000
     21      17.2641      0.00000
     22      17.4896      0.00000
     23      17.5945      0.00000
     24      19.6958      0.00000
     25      20.6272      0.00000
     26      21.9375      0.00000
     27      21.9655      0.00000
     28      22.4118      0.00000
     29      22.8406      0.00000
     30      25.3688      0.00000
     31      26.8816      0.00000
     32      27.6027      0.00000

 k-point   152 :       0.3333    0.5000    0.5000
  band No.  band energies     occupation 
      1     -42.1449      2.00000
      2     -42.1446      2.00000
      3     -42.1431      2.00000
      4     -42.1428      2.00000
      5     -42.1427      2.00000
      6     -17.7136      2.00000
      7      -4.2483      2.00000
      8      -3.0136      2.00000
      9      -2.7775      2.00000
     10       5.5783      0.00000
     11       6.8869      0.00000
     12       8.5353      0.00000
     13       8.7268      0.00000
     14      11.2394      0.00000
     15      12.3549      0.00000
     16      13.2026      0.00000
     17      14.0366      0.00000
     18      14.1735      0.00000
     19      17.1089      0.00000
     20      17.5525      0.00000
     21      17.6297      0.00000
     22      17.9809      0.00000
     23      19.2654      0.00000
     24      20.9115      0.00000
     25      21.6300      0.00000
     26      21.8561      0.00000
     27      22.3953      0.00000
     28      23.5412      0.00000
     29      23.7666      0.00000
     30      25.9512      0.00000
     31      26.2766      0.00000
     32      27.0166      0.00000


--------------------------------------------------------------------------------------------------------


 soft charge-density along one line, spin component           1
         0         1         2         3         4         5         6         7         8         9
 total charge-density along one line
 
 pseudopotential strength for first ion, spin component:           1
-44.466   0.000  -0.000   0.000   0.000 -42.557   0.000  -0.000
  0.000 -44.466   0.000   0.000  -0.000   0.000 -42.557   0.000
 -0.000   0.000 -44.466   0.000  -0.000  -0.000   0.000 -42.557
  0.000   0.000   0.000 -44.466   0.000   0.000   0.000   0.000
  0.000  -0.000  -0.000   0.000 -44.466   0.000  -0.000  -0.000
-42.557   0.000  -0.000   0.000   0.000 -40.795   0.000  -0.000
  0.000 -42.557   0.000   0.000  -0.000   0.000 -40.795   0.000
 -0.000   0.000 -42.557   0.000  -0.000  -0.000   0.000 -40.795
  0.000   0.000   0.000 -42.557   0.000   0.000   0.000   0.000
  0.000  -0.000  -0.000   0.000 -42.557   0.000  -0.000  -0.000
  4.293   0.000  -0.000   0.000   0.000   3.086   0.000  -0.000
  0.000   4.293   0.000   0.000  -0.000   0.000   3.086   0.000
 -0.000   0.000   4.293   0.000  -0.000  -0.000   0.000   3.086
  0.000   0.000   0.000   4.293   0.000   0.000   0.000   0.000
  0.000  -0.000  -0.000   0.000   4.293   0.000  -0.000  -0.000
  0.000   0.000  -0.000   0.000   0.000   0.000   0.000  -0.000
  0.000   0.000  -0.000   0.000   0.000   0.000   0.000  -0.000
 -0.000  -0.000  -0.000   0.000  -0.000  -0.000  -0.000  -0.000
  0.000   0.000  -0.000  -0.000  -0.000   0.000   0.000  -0.000
  0.000   0.000   0.000  -0.000  -0.000   0.000   0.000   0.000
  0.000   0.000   0.000  -0.000   0.000   0.000   0.000   0.000
 -0.000  -0.000   0.000   0.000   0.000  -0.000  -0.000   0.000
 -0.000  -0.000  -0.000   0.000   0.000  -0.000  -0.000  -0.000
  0.000   0.000  -0.000  -0.000   0.000   0.000   0.000  -0.000
  0.000   0.000   0.000  -0.000  -0.000   0.000   0.000   0.000
 -0.000   0.000   0.000  -0.000   0.000  -0.000   0.000   0.000
  0.000  -0.000   0.000  -0.000  -0.000   0.000  -0.000   0.000
 -0.000  -0.000   0.000   0.000  -0.000  -0.000  -0.000   0.000
 -0.000  -0.000  -0.000   0.000   0.000  -0.000  -0.000  -0.000
 -0.000  -0.000  -0.000   0.000   0.000  -0.000  -0.000  -0.000
 -0.000  -0.000   0.000   0.000  -0.000  -0.000  -0.000   0.000
 -0.000  -0.000  -0.000   0.000   0.000  -0.000  -0.000  -0.000
  0.000  -0.000   0.000   0.000  -0.000   0.000  -0.000   0.000
 -0.000   0.000  -0.000   0.000   0.000  -0.000   0.000  -0.000
  0.000   0.000  -0.000  -0.000   0.000   0.000   0.000  -0.000
  0.000  -0.000   0.000  -0.000  -0.000   0.000  -0.000   0.000
  0.000   0.000   0.000  -0.000  -0.000   0.000   0.000   0.000
 total augmentation occupancy for first ion, spin component:           1
  1.683   0.000  -0.000   0.005  -0.000   0.145   0.000   0.000  -0.005   0.000   0.010  -0.000   0.000   0.000   0.000  -0.000
  0.000   1.680   0.000   0.000   0.005   0.000   0.148  -0.000  -0.000  -0.005  -0.000   0.010  -0.000  -0.000   0.000  -0.000
 -0.000   0.000   1.686   0.000  -0.000   0.000  -0.000   0.141  -0.000   0.000   0.000  -0.000   0.010  -0.000   0.000   0.000
  0.005   0.000   0.000   1.680   0.000  -0.005  -0.000  -0.000   0.148   0.000   0.000  -0.000  -0.000   0.010  -0.000  -0.000
 -0.000   0.005  -0.000   0.000   1.683   0.000  -0.005   0.000   0.000   0.145   0.000   0.000   0.000  -0.000   0.010  -0.000
  0.145   0.000   0.000  -0.005   0.000   0.041  -0.000   0.000   0.005   0.000  -0.000  -0.000   0.000  -0.000  -0.000   0.000
  0.000   0.148  -0.000  -0.000  -0.005  -0.000   0.037  -0.000  -0.000   0.005  -0.000   0.000   0.000  -0.000  -0.000   0.000
  0.000  -0.000   0.141  -0.000   0.000   0.000  -0.000   0.044  -0.000   0.000   0.000   0.000  -0.000   0.000   0.000  -0.000
 -0.005  -0.000  -0.000   0.148   0.000   0.005  -0.000  -0.000   0.037  -0.000  -0.000  -0.000   0.000   0.000  -0.000   0.000
  0.000  -0.005   0.000   0.000   0.145   0.000   0.005   0.000  -0.000   0.041  -0.000  -0.000   0.000  -0.000  -0.000   0.000
  0.010  -0.000   0.000   0.000   0.000  -0.000  -0.000   0.000  -0.000  -0.000   0.000  -0.000   0.000   0.000   0.000   0.000
 -0.000   0.010  -0.000  -0.000   0.000  -0.000   0.000   0.000  -0.000  -0.000  -0.000   0.000  -0.000  -0.000   0.000   0.000
  0.000  -0.000   0.010  -0.000   0.000   0.000   0.000  -0.000   0.000   0.000   0.000  -0.000   0.000  -0.000   0.000  -0.000
  0.000  -0.000  -0.000   0.010  -0.000  -0.000  -0.000   0.000   0.000  -0.000   0.000  -0.000  -0.000   0.000  -0.000   0.000
  0.000   0.000   0.000  -0.000   0.010  -0.000  -0.000   0.000  -0.000  -0.000   0.000   0.000   0.000  -0.000   0.000   0.000
 -0.000  -0.000   0.000  -0.000  -0.000   0.000   0.000  -0.000   0.000   0.000   0.000   0.000  -0.000   0.000   0.000   1.513
 -0.000  -0.000   0.000  -0.000  -0.000   0.000   0.000  -0.000   0.000   0.000   0.000   0.000  -0.000   0.000   0.000   0.198
  0.000   0.000   0.000  -0.000   0.000  -0.000  -0.000  -0.000   0.000  -0.000  -0.000  -0.000  -0.000   0.000  -0.000  -0.000
 -0.000  -0.000  -0.000   0.000   0.000   0.000   0.000   0.000  -0.000  -0.000   0.000   0.000   0.000  -0.000  -0.000  -0.000
 -0.000  -0.000  -0.000   0.000   0.000   0.000   0.000   0.000  -0.000  -0.000   0.000   0.000   0.000  -0.000  -0.000   0.000
  0.000   0.000   0.000   0.000   0.000   0.000   0.000   0.000   0.000   0.000   0.000   0.000   0.000   0.000   0.000   0.000
  0.000  -0.000  -0.000   0.000  -0.000   0.000  -0.000   0.000   0.000  -0.000  -0.000  -0.000  -0.000   0.000   0.000  -0.000
 -0.000  -0.000  -0.000  -0.000   0.000  -0.000   0.000  -0.000  -0.000   0.000  -0.000  -0.000  -0.000   0.000   0.000  -0.000
  0.000  -0.000  -0.000   0.000   0.000   0.000  -0.000   0.000   0.000  -0.000   0.000  -0.000  -0.000   0.000   0.000   0.000
 -0.000   0.000  -0.000   0.000   0.000  -0.000   0.000   0.000  -0.000   0.000  -0.000  -0.000  -0.000   0.000   0.000  -0.000
 -0.000  -0.000  -0.000   0.000  -0.000  -0.000  -0.000  -0.000  -0.000  -0.000  -0.000   0.000  -0.000   0.000  -0.000  -0.000
 -0.000   0.000   0.000   0.000   0.000  -0.000   0.000   0.000  -0.000   0.000  -0.000   0.000   0.000   0.000   0.000   0.000
  0.000  -0.000   0.000   0.000  -0.000   0.000  -0.000   0.000   0.000  -0.000   0.000   0.000   0.000  -0.000  -0.000   0.000
  0.000   0.000  -0.000   0.000   0.000   0.000   0.000  -0.000   0.000   0.000   0.000   0.000  -0.000   0.000   0.000   0.000
 -0.000  -0.000  -0.000  -0.000   0.000   0.000   0.000   0.000   0.000   0.000  -0.000  -0.000  -0.000  -0.000   0.000   0.000
  0.000  -0.000   0.000   0.000   0.000   0.000  -0.000   0.000   0.000   0.000   0.000  -0.000   0.000   0.000   0.000   0.000
 -0.000  -0.000  -0.000   0.000   0.000  -0.000   0.000  -0.000   0.000   0.000  -0.000  -0.000  -0.000   0.000   0.000  -0.000
 -0.000  -0.000  -0.000  -0.000  -0.000  -0.000  -0.000  -0.000  -0.000  -0.000  -0.000  -0.000   0.000   0.000  -0.000  -0.000
 -0.000   0.000   0.000   0.000   0.000  -0.000   0.000   0.000  -0.000   0.000  -0.000  -0.000   0.000   0.000   0.000   0.000
  0.000  -0.000   0.000   0.000  -0.000   0.000  -0.000   0.000   0.000  -0.000   0.000  -0.000  -0.000  -0.000  -0.000   0.000
  0.000   0.000  -0.000   0.000   0.000   0.000   0.000  -0.000   0.000   0.000   0.000   0.000  -0.000   0.000   0.000   0.000
 -0.000  -0.000  -0.000  -0.000   0.000   0.000   0.000   0.000   0.000   0.000  -0.000  -0.000  -0.000  -0.000  -0.000   0.000


------------------------ aborting loop because EDIFF is reached ----------------------------------------


    CHARGE:  cpu time    0.0994: real time    0.0995
    FORLOC:  cpu time    0.0016: real time    0.0016
    FORNL :  cpu time    0.5133: real time    0.5139
    STRESS:  cpu time   15.7457: real time   15.7594
    FORCOR:  cpu time    0.1223: real time    0.1224
    FORHAR:  cpu time    0.0086: real time    0.0086
    MIXING:  cpu time    0.0023: real time    0.0023
    OFIELD:  cpu time    0.0000: real time    0.0000

  FORCE on cell =-STRESS in cart. coord.  units (eV):
  Direction    XX          YY          ZZ          XY          YZ          ZX
  --------------------------------------------------------------------------------------
  Alpha Z    69.69973    69.69973    69.69973
  Ewald    -571.04741  -571.04741  -571.04741     0.00000    -0.00000     0.00000
  Hartree   330.05693   330.06658   330.06899    -0.00835    -0.00341    -0.00591
  E(xc)    -110.89678  -110.89715  -110.89724     0.00032     0.00013     0.00023
  Local     -55.80770   -55.80147   -55.79991    -0.00539    -0.00220    -0.00382
  n-local    74.03952    74.02522    74.02164     0.01238     0.00506     0.00875
  augment   105.87931   105.88217   105.88296    -0.00248    -0.00101    -0.00175
  Kinetic   158.13560   158.10477   158.09702     0.02670     0.01091     0.01888
  Fock        0.00000     0.00000     0.00000     0.00000     0.00000     0.00000
  -------------------------------------------------------------------------------------
  Total       0.05920     0.03243     0.02578     0.02318     0.00947     0.01639
  in kB       1.55913     0.85413     0.67893     0.61056     0.24945     0.43157
  external pressure =        1.03 kB  Pullay stress =        0.00 kB


 VOLUME and BASIS-vectors are now :
 -----------------------------------------------------------------------------
  energy-cutoff  :      300.00
  volume of cell :       60.83
      direct lattice vectors                 reciprocal lattice vectors
     4.414575608  0.000000000  0.000000000     0.226522341 -0.130782734 -0.092477358
     2.207287804  3.823134623 -0.000000000     0.000000000  0.261565469 -0.092477358
     2.207287804  1.274378208  3.604485890    -0.000000000  0.000000000  0.277432075

  length of vectors
     4.414575608  4.414575608  4.414575608     0.277432075  0.277432075  0.277432075


 FORCES acting on ions
    electron-ion (+dipol)            ewald-force                    non-local-force                 convergence-correction
 -----------------------------------------------------------------------------------------------
   -.226E-06 -.747E-06 -.127E-06   -.132E-14 0.426E-15 -.114E-14   0.234E-06 -.454E-06 -.540E-08   0.776E-06 0.279E-06 0.203E-06
 -----------------------------------------------------------------------------------------------
   -.231E-06 -.755E-06 -.126E-06   -.132E-14 0.426E-15 -.114E-14   0.234E-06 -.454E-06 -.540E-08   0.776E-06 0.279E-06 0.203E-06
 
 
 POSITION                                       TOTAL-FORCE (eV/Angst)
 -----------------------------------------------------------------------------------
      0.00000      0.00000      0.00000         0.000001     -0.000001      0.000000
 -----------------------------------------------------------------------------------
    total drift:                                0.000001     -0.000001      0.000000


--------------------------------------------------------------------------------------------------------



  FREE ENERGIE OF THE ION-ELECTRON SYSTEM (eV)
  ---------------------------------------------------
  free  energy   TOTEN  =       -80.97655121 eV

  energy  without entropy=      -80.97655121  energy(sigma->0) =      -80.97655121
 


--------------------------------------------------------------------------------------------------------


    POTLOK:  cpu time    0.2229: real time    0.2231


--------------------------------------------------------------------------------------------------------


 writing wavefunctions
     LOOP+:  cpu time  116.0673: real time  116.2924
    4ORBIT:  cpu time    0.0000: real time    0.0000

 total amount of memory used by VASP MPI-rank0    65264. kBytes
=======================================================================

   base      :      30000. kBytes
   nonl-proj :       8326. kBytes
   fftplans  :       6678. kBytes
   grid      :       2919. kBytes
   one-center:         65. kBytes
   wavefun   :      17276. kBytes
 
  
  
 General timing and accounting informations for this job:
 ========================================================
  
                  Total CPU time used (sec):      119.783
                            User time (sec):      117.869
                          System time (sec):        1.914
                         Elapsed time (sec):      119.483
  
                   Maximum memory used (kb):      146720.
                   Average memory used (kb):           0.
  
                          Minor page faults:        49457
                          Major page faults:            0
                 Voluntary context switches:         2645
