Rn_FCC                                  
           1
     4.414576    0.000000    0.000000
     2.207288    3.823135   -0.000000
     2.207288    1.274378    3.604486
   Rn
   1
Direct configuration=     1
   0.00000000  0.00000000  0.00000000
