   1   1   0   0
  0.5789729E+02  0.4342346E-09  0.4342346E-09  0.4342346E-09  0.1000000E-15
  1.000000000000000E-004
  CAR 
 Og_FCC                                  
    158.20824760    -39.46208013  301      3.96099059      1.00000000
    -39.462  0.0000E+00  0.0000E+00
    -38.803  0.0000E+00  0.0000E+00
    -38.144  0.0000E+00  0.0000E+00
    -37.485  0.0000E+00  0.0000E+00
    -36.826  0.0000E+00  0.0000E+00
    -36.168  0.0000E+00  0.0000E+00
    -35.509  0.0000E+00  0.0000E+00
    -34.850  0.0000E+00  0.0000E+00
    -34.191  0.0000E+00  0.0000E+00
    -33.532  0.0000E+00  0.0000E+00
    -32.873  0.0000E+00  0.0000E+00
    -32.214  0.0000E+00  0.0000E+00
    -31.555  0.0000E+00  0.0000E+00
    -30.896  0.0000E+00  0.0000E+00
    -30.237  0.0000E+00  0.4000E+01
    -29.579  0.0000E+00  0.4000E+01
    -28.920  0.0000E+00  0.4000E+01
    -28.261  0.0000E+00  0.4000E+01
    -27.602  0.0000E+00  0.4000E+01
    -26.943  0.0000E+00  0.4000E+01
    -26.284  0.0000E+00  0.4000E+01
    -25.625  0.0000E+00  0.4000E+01
    -24.966  0.0000E+00  0.4000E+01
    -24.307  0.0000E+00  0.4000E+01
    -23.648  0.0000E+00  0.1000E+02
    -22.990  0.0000E+00  0.1000E+02
    -22.331  0.0000E+00  0.1000E+02
    -21.672  0.0000E+00  0.1000E+02
    -21.013  0.0000E+00  0.1000E+02
    -20.354  0.0000E+00  0.1000E+02
    -19.695  0.0000E+00  0.1200E+02
    -19.036  0.0000E+00  0.1200E+02
    -18.377  0.0000E+00  0.1200E+02
    -17.718  0.0000E+00  0.1200E+02
    -17.059  0.0000E+00  0.1200E+02
    -16.401  0.0000E+00  0.1200E+02
    -15.742  0.0000E+00  0.1200E+02
    -15.083  0.0000E+00  0.1200E+02
    -14.424  0.0000E+00  0.1200E+02
    -13.765  0.0000E+00  0.1200E+02
    -13.106  0.0000E+00  0.1200E+02
    -12.447  0.0000E+00  0.1200E+02
    -11.788  0.0000E+00  0.1200E+02
    -11.129  0.0000E+00  0.1200E+02
    -10.470  0.0000E+00  0.1200E+02
     -9.812  0.0000E+00  0.1200E+02
     -9.153  0.0000E+00  0.1200E+02
     -8.494  0.0000E+00  0.1200E+02
     -7.835  0.0000E+00  0.1200E+02
     -7.176  0.3373E+00  0.1375E+02
     -6.517  0.0000E+00  0.1400E+02
     -5.858  0.0000E+00  0.1400E+02
     -5.199  0.0000E+00  0.1400E+02
     -4.540  0.0000E+00  0.1400E+02
     -3.881  0.0000E+00  0.1400E+02
     -3.223  0.0000E+00  0.1400E+02
     -2.564  0.0000E+00  0.1400E+02
     -1.905  0.0000E+00  0.1400E+02
     -1.246  0.0000E+00  0.1400E+02
     -0.587  0.0000E+00  0.1400E+02
      0.072  0.0000E+00  0.1400E+02
      0.731  0.0000E+00  0.1404E+02
      1.390  0.0000E+00  0.1575E+02
      2.049  0.2018E-02  0.1620E+02
      2.708  0.3373E+00  0.1719E+02
      3.366  0.0000E+00  0.1774E+02
      4.025  0.0000E+00  0.1801E+02
      4.684  0.0000E+00  0.1801E+02
      5.343  0.0000E+00  0.1801E+02
      6.002  0.0000E+00  0.1808E+02
      6.661  0.9177E-01  0.1834E+02
      7.320  0.0000E+00  0.1944E+02
      7.979  0.0000E+00  0.2003E+02
      8.638  0.0000E+00  0.2031E+02
      9.297  0.0000E+00  0.2169E+02
      9.956  0.0000E+00  0.2232E+02
     10.614  0.4356E+00  0.2355E+02
     11.273  0.2675E-09  0.2423E+02
     11.932  0.0000E+00  0.2567E+02
     12.591  0.0000E+00  0.2624E+02
     13.250  0.0000E+00  0.2749E+02
     13.909  0.0000E+00  0.2895E+02
     14.568  0.8432E-01  0.3047E+02
     15.227  0.0000E+00  0.3110E+02
     15.886  0.9905E-02  0.3222E+02
     16.545  0.0000E+00  0.3341E+02
     17.203  0.0000E+00  0.3457E+02
     17.862  0.5576E-05  0.3632E+02
     18.521  0.0000E+00  0.3910E+02
     19.180  0.0000E+00  0.4158E+02
     19.839  0.0000E+00  0.4342E+02
     20.498  0.0000E+00  0.4544E+02
     21.157  0.1124E+00  0.4641E+02
     21.816  0.0000E+00  0.4670E+02
     22.475  0.0000E+00  0.4773E+02
     23.134  0.0000E+00  0.4838E+02
     23.792  0.0000E+00  0.5006E+02
     24.451  0.1265E+00  0.5147E+02
     25.110  0.0000E+00  0.5355E+02
     25.769  0.0000E+00  0.5605E+02
     26.428  0.0000E+00  0.5749E+02
     27.087  0.1124E+00  0.5811E+02
     27.746  0.0000E+00  0.5977E+02
     28.405  0.0000E+00  0.6094E+02
     29.064  0.0000E+00  0.6224E+02
     29.723  0.0000E+00  0.6329E+02
     30.381  0.0000E+00  0.6482E+02
     31.040  0.0000E+00  0.6638E+02
     31.699  0.0000E+00  0.6769E+02
     32.358  0.0000E+00  0.6993E+02
     33.017  0.0000E+00  0.7227E+02
     33.676  0.3373E+00  0.7347E+02
     34.335  0.0000E+00  0.7444E+02
     34.994  0.0000E+00  0.7602E+02
     35.653  0.5399E-08  0.7839E+02
     36.312  0.0000E+00  0.8030E+02
     36.970  0.0000E+00  0.8230E+02
     37.629  0.7180E-11  0.8374E+02
     38.288  0.0000E+00  0.8549E+02
     38.947  0.0000E+00  0.8630E+02
     39.606  0.0000E+00  0.8872E+02
     40.265  0.0000E+00  0.8969E+02
     40.924  0.0000E+00  0.9141E+02
     41.583  0.0000E+00  0.9356E+02
     42.242  0.1474E-01  0.9541E+02
     42.901  0.0000E+00  0.9735E+02
     43.559  0.0000E+00  0.9862E+02
     44.218  0.8432E-01  0.1006E+03
     44.877  0.0000E+00  0.1021E+03
     45.536  0.0000E+00  0.1040E+03
     46.195  0.1514E-08  0.1058E+03
     46.854  0.0000E+00  0.1079E+03
     47.513  0.0000E+00  0.1101E+03
     48.172  0.1665E-01  0.1116E+03
     48.831  0.0000E+00  0.1135E+03
     49.490  0.4675E-01  0.1154E+03
     50.148  0.2460E-01  0.1174E+03
     50.807  0.3373E+00  0.1193E+03
     51.466  0.1617E-03  0.1214E+03
     52.125  0.0000E+00  0.1241E+03
     52.784  0.0000E+00  0.1264E+03
     53.443  0.0000E+00  0.1276E+03
     54.102  0.0000E+00  0.1294E+03
     54.761  0.0000E+00  0.1318E+03
     55.420  0.3567E-01  0.1336E+03
     56.079  0.0000E+00  0.1360E+03
     56.737  0.0000E+00  0.1377E+03
     57.396  0.0000E+00  0.1396E+03
     58.055  0.0000E+00  0.1420E+03
     58.714  0.0000E+00  0.1433E+03
     59.373  0.0000E+00  0.1457E+03
     60.032  0.0000E+00  0.1480E+03
     60.691  0.0000E+00  0.1502E+03
     61.350  0.0000E+00  0.1523E+03
     62.009  0.1124E+00  0.1541E+03
     62.668  0.3095E+00  0.1563E+03
     63.326  0.1686E+00  0.1581E+03
     63.985  0.0000E+00  0.1601E+03
     64.644  0.0000E+00  0.1631E+03
     65.303  0.7115E-01  0.1650E+03
     65.962  0.3373E+00  0.1683E+03
     66.621  0.0000E+00  0.1701E+03
     67.280  0.0000E+00  0.1721E+03
     67.939  0.0000E+00  0.1740E+03
     68.598  0.0000E+00  0.1766E+03
     69.257  0.9795E-01  0.1780E+03
     69.916  0.1124E+00  0.1806E+03
     70.574  0.0000E+00  0.1826E+03
     71.233  0.1124E+00  0.1856E+03
     71.892  0.0000E+00  0.1872E+03
     72.551  0.0000E+00  0.1892E+03
     73.210  0.4357E-13  0.1927E+03
     73.869  0.0000E+00  0.1946E+03
     74.528  0.0000E+00  0.1966E+03
     75.187  0.3058E-09  0.1989E+03
     75.846  0.0000E+00  0.2017E+03
     76.505  0.0000E+00  0.2036E+03
     77.163  0.3195E+00  0.2057E+03
     77.822  0.0000E+00  0.2088E+03
     78.481  0.1379E-05  0.2126E+03
     79.140  0.0000E+00  0.2151E+03
     79.799  0.0000E+00  0.2172E+03
     80.458  0.0000E+00  0.2200E+03
     81.117  0.1686E+00  0.2220E+03
     81.776  0.1122E+00  0.2252E+03
     82.435  0.0000E+00  0.2278E+03
     83.094  0.0000E+00  0.2301E+03
     83.752  0.3271E-01  0.2320E+03
     84.411  0.0000E+00  0.2340E+03
     85.070  0.0000E+00  0.2369E+03
     85.729  0.1686E+00  0.2390E+03
     86.388  0.0000E+00  0.2416E+03
     87.047  0.0000E+00  0.2444E+03
     87.706  0.0000E+00  0.2466E+03
     88.365  0.2320E-12  0.2497E+03
     89.024  0.0000E+00  0.2521E+03
     89.683  0.0000E+00  0.2545E+03
     90.341  0.3301E+00  0.2574E+03
     91.000  0.5749E-03  0.2595E+03
     91.659  0.0000E+00  0.2620E+03
     92.318  0.1095E-01  0.2646E+03
     92.977  0.0000E+00  0.2667E+03
     93.636  0.0000E+00  0.2694E+03
     94.295  0.0000E+00  0.2721E+03
     94.954  0.8432E-01  0.2749E+03
     95.613  0.0000E+00  0.2764E+03
     96.272  0.1686E+00  0.2793E+03
     96.930  0.1003E+00  0.2823E+03
     97.589  0.0000E+00  0.2858E+03
     98.248  0.0000E+00  0.2892E+03
     98.907  0.0000E+00  0.2916E+03
     99.566  0.0000E+00  0.2937E+03
    100.225  0.0000E+00  0.2960E+03
    100.884  0.1686E+00  0.2991E+03
    101.543  0.0000E+00  0.3012E+03
    102.202  0.0000E+00  0.3033E+03
    102.861  0.1149E-04  0.3053E+03
    103.519  0.0000E+00  0.3080E+03
    104.178  0.1124E+00  0.3116E+03
    104.837  0.0000E+00  0.3145E+03
    105.496  0.0000E+00  0.3175E+03
    106.155  0.0000E+00  0.3205E+03
    106.814  0.1677E-14  0.3237E+03
    107.473  0.1014E-16  0.3259E+03
    108.132  0.6174E-01  0.3284E+03
    108.791  0.0000E+00  0.3314E+03
    109.450  0.0000E+00  0.3344E+03
    110.108  0.0000E+00  0.3377E+03
    110.767  0.0000E+00  0.3395E+03
    111.426  0.0000E+00  0.3420E+03
    112.085  0.0000E+00  0.3443E+03
    112.744  0.0000E+00  0.3471E+03
    113.403  0.0000E+00  0.3499E+03
    114.062  0.3373E+00  0.3522E+03
    114.721  0.3242E-12  0.3548E+03
    115.380  0.0000E+00  0.3583E+03
    116.039  0.3153E+00  0.3623E+03
    116.697  0.0000E+00  0.3655E+03
    117.356  0.0000E+00  0.3690E+03
    118.015  0.0000E+00  0.3721E+03
    118.674  0.0000E+00  0.3750E+03
    119.333  0.1124E+00  0.3765E+03
    119.992  0.0000E+00  0.3786E+03
    120.651  0.0000E+00  0.3818E+03
    121.310  0.0000E+00  0.3845E+03
    121.969  0.0000E+00  0.3876E+03
    122.628  0.0000E+00  0.3907E+03
    123.286  0.3274E-05  0.3930E+03
    123.945  0.3372E+00  0.3955E+03
    124.604  0.0000E+00  0.3979E+03
    125.263  0.3669E+00  0.4010E+03
    125.922  0.0000E+00  0.4052E+03
    126.581  0.0000E+00  0.4086E+03
    127.240  0.0000E+00  0.4109E+03
    127.899  0.1686E+00  0.4149E+03
    128.558  0.3397E+00  0.4200E+03
    129.217  0.1569E-14  0.4216E+03
    129.876  0.0000E+00  0.4248E+03
    130.534  0.0000E+00  0.4271E+03
    131.193  0.1014E+00  0.4293E+03
    131.852  0.1686E+00  0.4322E+03
    132.511  0.0000E+00  0.4347E+03
    133.170  0.8619E-06  0.4379E+03
    133.829  0.0000E+00  0.4410E+03
    134.488  0.6084E-01  0.4438E+03
    135.147  0.0000E+00  0.4456E+03
    135.806  0.5621E-01  0.4490E+03
    136.465  0.2033E+00  0.4531E+03
    137.123  0.1124E+00  0.4571E+03
    137.782  0.0000E+00  0.4612E+03
    138.441  0.0000E+00  0.4636E+03
    139.100  0.5061E+00  0.4662E+03
    139.759  0.0000E+00  0.4697E+03
    140.418  0.5090E-03  0.4734E+03
    141.077  0.0000E+00  0.4770E+03
    141.736  0.0000E+00  0.4792E+03
    142.395  0.1005E+00  0.4822E+03
    143.054  0.4209E-01  0.4847E+03
    143.712  0.0000E+00  0.4871E+03
    144.371  0.2811E-01  0.4899E+03
    145.030  0.1720E-10  0.4933E+03
    145.689  0.0000E+00  0.4962E+03
    146.348  0.0000E+00  0.4992E+03
    147.007  0.0000E+00  0.5029E+03
    147.666  0.0000E+00  0.5072E+03
    148.325  0.0000E+00  0.5099E+03
    148.984  0.0000E+00  0.5114E+03
    149.643  0.0000E+00  0.5120E+03
    150.301  0.0000E+00  0.5120E+03
    150.960  0.0000E+00  0.5120E+03
    151.619  0.0000E+00  0.5120E+03
    152.278  0.0000E+00  0.5120E+03
    152.937  0.0000E+00  0.5120E+03
    153.596  0.0000E+00  0.5120E+03
    154.255  0.0000E+00  0.5120E+03
    154.914  0.0000E+00  0.5120E+03
    155.573  0.0000E+00  0.5120E+03
    156.232  0.0000E+00  0.5120E+03
    156.890  0.0000E+00  0.5120E+03
    157.549  0.0000E+00  0.5120E+03
    158.208  0.0000E+00  0.5120E+03
