   1   1   0   0
  0.5789729E+02  0.4342346E-09  0.4342346E-09  0.4342346E-09  0.1000000E-15
  1.000000000000000E-004
  CAR 
 Og_FCC                                  
     19.32649538    -32.84662327  301      3.96122218      1.00000000
    -32.847  0.0000E+00  0.0000E+00
    -32.673  0.0000E+00  0.0000E+00
    -32.499  0.0000E+00  0.0000E+00
    -32.325  0.0000E+00  0.0000E+00
    -32.151  0.0000E+00  0.0000E+00
    -31.977  0.0000E+00  0.0000E+00
    -31.803  0.0000E+00  0.0000E+00
    -31.629  0.0000E+00  0.0000E+00
    -31.455  0.0000E+00  0.0000E+00
    -31.281  0.0000E+00  0.0000E+00
    -31.108  0.0000E+00  0.0000E+00
    -30.934  0.0000E+00  0.0000E+00
    -30.760  0.0000E+00  0.0000E+00
    -30.586  0.0000E+00  0.0000E+00
    -30.412  0.0000E+00  0.4000E+01
    -30.238  0.0000E+00  0.4000E+01
    -30.064  0.0000E+00  0.4000E+01
    -29.890  0.0000E+00  0.4000E+01
    -29.716  0.0000E+00  0.4000E+01
    -29.542  0.0000E+00  0.4000E+01
    -29.368  0.0000E+00  0.4000E+01
    -29.195  0.0000E+00  0.4000E+01
    -29.021  0.0000E+00  0.4000E+01
    -28.847  0.0000E+00  0.4000E+01
    -28.673  0.0000E+00  0.4000E+01
    -28.499  0.0000E+00  0.4000E+01
    -28.325  0.0000E+00  0.4000E+01
    -28.151  0.0000E+00  0.4000E+01
    -27.977  0.0000E+00  0.4000E+01
    -27.803  0.0000E+00  0.4000E+01
    -27.629  0.0000E+00  0.4000E+01
    -27.455  0.0000E+00  0.4000E+01
    -27.281  0.0000E+00  0.4000E+01
    -27.108  0.0000E+00  0.4000E+01
    -26.934  0.0000E+00  0.4000E+01
    -26.760  0.0000E+00  0.4000E+01
    -26.586  0.0000E+00  0.4000E+01
    -26.412  0.0000E+00  0.4000E+01
    -26.238  0.0000E+00  0.4000E+01
    -26.064  0.0000E+00  0.4000E+01
    -25.890  0.0000E+00  0.4000E+01
    -25.716  0.0000E+00  0.4000E+01
    -25.542  0.0000E+00  0.4000E+01
    -25.368  0.0000E+00  0.4000E+01
    -25.195  0.0000E+00  0.4000E+01
    -25.021  0.0000E+00  0.4000E+01
    -24.847  0.0000E+00  0.4000E+01
    -24.673  0.0000E+00  0.4000E+01
    -24.499  0.0000E+00  0.4000E+01
    -24.325  0.0000E+00  0.4000E+01
    -24.151  0.0000E+00  0.4000E+01
    -23.977  0.0000E+00  0.4000E+01
    -23.803  0.5996E+00  0.4104E+01
    -23.629  0.0000E+00  0.1000E+02
    -23.455  0.0000E+00  0.1000E+02
    -23.282  0.0000E+00  0.1000E+02
    -23.108  0.0000E+00  0.1000E+02
    -22.934  0.0000E+00  0.1000E+02
    -22.760  0.0000E+00  0.1000E+02
    -22.586  0.0000E+00  0.1000E+02
    -22.412  0.0000E+00  0.1000E+02
    -22.238  0.0000E+00  0.1000E+02
    -22.064  0.0000E+00  0.1000E+02
    -21.890  0.0000E+00  0.1000E+02
    -21.716  0.0000E+00  0.1000E+02
    -21.542  0.0000E+00  0.1000E+02
    -21.369  0.0000E+00  0.1000E+02
    -21.195  0.0000E+00  0.1000E+02
    -21.021  0.0000E+00  0.1000E+02
    -20.847  0.0000E+00  0.1000E+02
    -20.673  0.0000E+00  0.1000E+02
    -20.499  0.0000E+00  0.1000E+02
    -20.325  0.0000E+00  0.1000E+02
    -20.151  0.4023E+00  0.1016E+02
    -19.977  0.0000E+00  0.1200E+02
    -19.803  0.0000E+00  0.1200E+02
    -19.629  0.0000E+00  0.1200E+02
    -19.456  0.0000E+00  0.1200E+02
    -19.282  0.0000E+00  0.1200E+02
    -19.108  0.0000E+00  0.1200E+02
    -18.934  0.0000E+00  0.1200E+02
    -18.760  0.0000E+00  0.1200E+02
    -18.586  0.0000E+00  0.1200E+02
    -18.412  0.0000E+00  0.1200E+02
    -18.238  0.0000E+00  0.1200E+02
    -18.064  0.0000E+00  0.1200E+02
    -17.890  0.0000E+00  0.1200E+02
    -17.716  0.0000E+00  0.1200E+02
    -17.543  0.0000E+00  0.1200E+02
    -17.369  0.0000E+00  0.1200E+02
    -17.195  0.0000E+00  0.1200E+02
    -17.021  0.0000E+00  0.1200E+02
    -16.847  0.0000E+00  0.1200E+02
    -16.673  0.0000E+00  0.1200E+02
    -16.499  0.0000E+00  0.1200E+02
    -16.325  0.0000E+00  0.1200E+02
    -16.151  0.0000E+00  0.1200E+02
    -15.977  0.0000E+00  0.1200E+02
    -15.803  0.0000E+00  0.1200E+02
    -15.629  0.0000E+00  0.1200E+02
    -15.456  0.0000E+00  0.1200E+02
    -15.282  0.0000E+00  0.1200E+02
    -15.108  0.0000E+00  0.1200E+02
    -14.934  0.0000E+00  0.1200E+02
    -14.760  0.0000E+00  0.1200E+02
    -14.586  0.0000E+00  0.1200E+02
    -14.412  0.0000E+00  0.1200E+02
    -14.238  0.0000E+00  0.1200E+02
    -14.064  0.0000E+00  0.1200E+02
    -13.890  0.0000E+00  0.1200E+02
    -13.716  0.0000E+00  0.1200E+02
    -13.543  0.0000E+00  0.1200E+02
    -13.369  0.0000E+00  0.1200E+02
    -13.195  0.0000E+00  0.1200E+02
    -13.021  0.0000E+00  0.1200E+02
    -12.847  0.0000E+00  0.1200E+02
    -12.673  0.0000E+00  0.1200E+02
    -12.499  0.0000E+00  0.1200E+02
    -12.325  0.0000E+00  0.1200E+02
    -12.151  0.0000E+00  0.1200E+02
    -11.977  0.0000E+00  0.1200E+02
    -11.803  0.0000E+00  0.1200E+02
    -11.630  0.0000E+00  0.1200E+02
    -11.456  0.0000E+00  0.1200E+02
    -11.282  0.0000E+00  0.1200E+02
    -11.108  0.0000E+00  0.1200E+02
    -10.934  0.0000E+00  0.1200E+02
    -10.760  0.0000E+00  0.1200E+02
    -10.586  0.0000E+00  0.1200E+02
    -10.412  0.0000E+00  0.1200E+02
    -10.238  0.0000E+00  0.1200E+02
    -10.064  0.0000E+00  0.1200E+02
     -9.890  0.0000E+00  0.1200E+02
     -9.717  0.0000E+00  0.1200E+02
     -9.543  0.0000E+00  0.1200E+02
     -9.369  0.0000E+00  0.1200E+02
     -9.195  0.0000E+00  0.1200E+02
     -9.021  0.0000E+00  0.1200E+02
     -8.847  0.0000E+00  0.1200E+02
     -8.673  0.0000E+00  0.1200E+02
     -8.499  0.0000E+00  0.1200E+02
     -8.325  0.0000E+00  0.1200E+02
     -8.151  0.0000E+00  0.1200E+02
     -7.977  0.0000E+00  0.1200E+02
     -7.804  0.0000E+00  0.1200E+02
     -7.630  0.0000E+00  0.1200E+02
     -7.456  0.0000E+00  0.1200E+02
     -7.282  0.0000E+00  0.1315E+02
     -7.108  0.0000E+00  0.1384E+02
     -6.934  0.0000E+00  0.1399E+02
     -6.760  0.0000E+00  0.1400E+02
     -6.586  0.0000E+00  0.1400E+02
     -6.412  0.0000E+00  0.1400E+02
     -6.238  0.0000E+00  0.1400E+02
     -6.064  0.0000E+00  0.1400E+02
     -5.891  0.0000E+00  0.1400E+02
     -5.717  0.0000E+00  0.1400E+02
     -5.543  0.0000E+00  0.1400E+02
     -5.369  0.0000E+00  0.1400E+02
     -5.195  0.0000E+00  0.1400E+02
     -5.021  0.0000E+00  0.1400E+02
     -4.847  0.0000E+00  0.1400E+02
     -4.673  0.0000E+00  0.1400E+02
     -4.499  0.0000E+00  0.1400E+02
     -4.325  0.0000E+00  0.1400E+02
     -4.151  0.0000E+00  0.1400E+02
     -3.977  0.0000E+00  0.1400E+02
     -3.804  0.0000E+00  0.1400E+02
     -3.630  0.0000E+00  0.1400E+02
     -3.456  0.0000E+00  0.1400E+02
     -3.282  0.0000E+00  0.1400E+02
     -3.108  0.0000E+00  0.1400E+02
     -2.934  0.0000E+00  0.1400E+02
     -2.760  0.0000E+00  0.1400E+02
     -2.586  0.0000E+00  0.1400E+02
     -2.412  0.0000E+00  0.1400E+02
     -2.238  0.0000E+00  0.1400E+02
     -2.064  0.0000E+00  0.1400E+02
     -1.891  0.0000E+00  0.1400E+02
     -1.717  0.0000E+00  0.1400E+02
     -1.543  0.0000E+00  0.1400E+02
     -1.369  0.0000E+00  0.1400E+02
     -1.195  0.0000E+00  0.1400E+02
     -1.021  0.0000E+00  0.1400E+02
     -0.847  0.0000E+00  0.1400E+02
     -0.673  0.0000E+00  0.1400E+02
     -0.499  0.0000E+00  0.1400E+02
     -0.325  0.0000E+00  0.1400E+02
     -0.151  0.0000E+00  0.1400E+02
      0.022  0.0000E+00  0.1400E+02
      0.196  0.0000E+00  0.1400E+02
      0.370  0.0000E+00  0.1400E+02
      0.544  0.0000E+00  0.1400E+02
      0.718  0.0000E+00  0.1400E+02
      0.892  0.0000E+00  0.1492E+02
      1.066  0.0000E+00  0.1548E+02
      1.240  0.0000E+00  0.1562E+02
      1.414  0.0000E+00  0.1570E+02
      1.588  0.0000E+00  0.1584E+02
      1.762  0.0000E+00  0.1591E+02
      1.935  0.0000E+00  0.1605E+02
      2.109  0.4023E+00  0.1626E+02
      2.283  0.6906E-03  0.1668E+02
      2.457  0.0000E+00  0.1701E+02
      2.631  0.0000E+00  0.1701E+02
      2.805  0.0000E+00  0.1715E+02
      2.979  0.0000E+00  0.1746E+02
      3.153  0.0000E+00  0.1760E+02
      3.327  0.0000E+00  0.1774E+02
      3.501  0.0000E+00  0.1786E+02
      3.675  0.0000E+00  0.1794E+02
      3.848  0.2682E+00  0.1799E+02
      4.022  0.0000E+00  0.1801E+02
      4.196  0.0000E+00  0.1801E+02
      4.370  0.0000E+00  0.1801E+02
      4.544  0.0000E+00  0.1801E+02
      4.718  0.0000E+00  0.1801E+02
      4.892  0.0000E+00  0.1801E+02
      5.066  0.0000E+00  0.1801E+02
      5.240  0.0000E+00  0.1801E+02
      5.414  0.0000E+00  0.1805E+02
      5.588  0.0000E+00  0.1805E+02
      5.761  0.0000E+00  0.1809E+02
      5.935  0.0000E+00  0.1809E+02
      6.109  0.0000E+00  0.1809E+02
      6.283  0.0000E+00  0.1818E+02
      6.457  0.0000E+00  0.1829E+02
      6.631  0.0000E+00  0.1829E+02
      6.805  0.0000E+00  0.1850E+02
      6.979  0.0000E+00  0.1867E+02
      7.153  0.0000E+00  0.1909E+02
      7.327  0.3678E-11  0.1923E+02
      7.501  0.0000E+00  0.1951E+02
      7.674  0.0000E+00  0.1965E+02
      7.848  0.0000E+00  0.2003E+02
      8.022  0.0000E+00  0.2003E+02
      8.196  0.0000E+00  0.2010E+02
      8.370  0.0000E+00  0.2014E+02
      8.544  0.0000E+00  0.2028E+02
      8.718  0.0000E+00  0.2070E+02
      8.892  0.0000E+00  0.2091E+02
      9.066  0.6967E-01  0.2106E+02
      9.240  0.0000E+00  0.2161E+02
      9.414  0.1266E-01  0.2175E+02
      9.588  0.0000E+00  0.2199E+02
      9.761  0.0000E+00  0.2203E+02
      9.935  0.8047E+00  0.2236E+02
     10.109  0.0000E+00  0.2236E+02
     10.283  0.0000E+00  0.2282E+02
     10.457  0.0000E+00  0.2315E+02
     10.631  0.0000E+00  0.2341E+02
     10.805  0.6476E+00  0.2393E+02
     10.979  0.0000E+00  0.2400E+02
     11.153  0.0000E+00  0.2433E+02
     11.327  0.0000E+00  0.2452E+02
     11.501  0.0000E+00  0.2472E+02
     11.674  0.0000E+00  0.2507E+02
     11.848  0.0000E+00  0.2512E+02
     12.022  0.0000E+00  0.2578E+02
     12.196  0.0000E+00  0.2578E+02
     12.370  0.0000E+00  0.2587E+02
     12.544  0.0000E+00  0.2615E+02
     12.718  0.0000E+00  0.2647E+02
     12.892  0.1206E-03  0.2687E+02
     13.066  0.0000E+00  0.2762E+02
     13.240  0.0000E+00  0.2784E+02
     13.414  0.0000E+00  0.2823E+02
     13.587  0.0000E+00  0.2837E+02
     13.761  0.0000E+00  0.2858E+02
     13.935  0.1390E+00  0.2875E+02
     14.109  0.0000E+00  0.2893E+02
     14.283  0.4000E+00  0.2961E+02
     14.457  0.2682E+00  0.2994E+02
     14.631  0.0000E+00  0.3008E+02
     14.805  0.1609E+01  0.3053E+02
     14.979  0.0000E+00  0.3092E+02
     15.153  0.0000E+00  0.3106E+02
     15.327  0.8047E+00  0.3120E+02
     15.500  0.0000E+00  0.3158E+02
     15.674  0.0000E+00  0.3162E+02
     15.848  0.0000E+00  0.3162E+02
     16.022  0.0000E+00  0.3162E+02
     16.196  0.0000E+00  0.3162E+02
     16.370  0.0000E+00  0.3162E+02
     16.544  0.0000E+00  0.3165E+02
     16.718  0.0000E+00  0.3165E+02
     16.892  0.0000E+00  0.3186E+02
     17.066  0.0000E+00  0.3200E+02
     17.240  0.0000E+00  0.3200E+02
     17.413  0.0000E+00  0.3200E+02
     17.587  0.0000E+00  0.3200E+02
     17.761  0.0000E+00  0.3200E+02
     17.935  0.0000E+00  0.3200E+02
     18.109  0.0000E+00  0.3200E+02
     18.283  0.0000E+00  0.3200E+02
     18.457  0.0000E+00  0.3200E+02
     18.631  0.0000E+00  0.3200E+02
     18.805  0.0000E+00  0.3200E+02
     18.979  0.0000E+00  0.3200E+02
     19.153  0.0000E+00  0.3200E+02
     19.326  0.0000E+00  0.3200E+02
