   1   1   0   0
  0.5789729E+02  0.4342346E-09  0.4342346E-09  0.4342346E-09  0.1000000E-15
  1.000000000000000E-004
  CAR 
 Og_FCC                                  
     17.02936927    -32.73723935  301      3.96122221      1.00000000
    -32.737  0.0000E+00  0.0000E+00
    -32.571  0.0000E+00  0.0000E+00
    -32.405  0.0000E+00  0.0000E+00
    -32.240  0.0000E+00  0.0000E+00
    -32.074  0.0000E+00  0.0000E+00
    -31.908  0.0000E+00  0.0000E+00
    -31.742  0.0000E+00  0.0000E+00
    -31.576  0.0000E+00  0.0000E+00
    -31.410  0.0000E+00  0.0000E+00
    -31.244  0.0000E+00  0.0000E+00
    -31.078  0.0000E+00  0.0000E+00
    -30.912  0.0000E+00  0.0000E+00
    -30.747  0.0000E+00  0.0000E+00
    -30.581  0.0000E+00  0.0000E+00
    -30.415  0.0000E+00  0.4000E+01
    -30.249  0.0000E+00  0.4000E+01
    -30.083  0.0000E+00  0.4000E+01
    -29.917  0.0000E+00  0.4000E+01
    -29.751  0.0000E+00  0.4000E+01
    -29.585  0.0000E+00  0.4000E+01
    -29.419  0.0000E+00  0.4000E+01
    -29.254  0.0000E+00  0.4000E+01
    -29.088  0.0000E+00  0.4000E+01
    -28.922  0.0000E+00  0.4000E+01
    -28.756  0.0000E+00  0.4000E+01
    -28.590  0.0000E+00  0.4000E+01
    -28.424  0.0000E+00  0.4000E+01
    -28.258  0.0000E+00  0.4000E+01
    -28.092  0.0000E+00  0.4000E+01
    -27.926  0.0000E+00  0.4000E+01
    -27.761  0.0000E+00  0.4000E+01
    -27.595  0.0000E+00  0.4000E+01
    -27.429  0.0000E+00  0.4000E+01
    -27.263  0.0000E+00  0.4000E+01
    -27.097  0.0000E+00  0.4000E+01
    -26.931  0.0000E+00  0.4000E+01
    -26.765  0.0000E+00  0.4000E+01
    -26.599  0.0000E+00  0.4000E+01
    -26.433  0.0000E+00  0.4000E+01
    -26.268  0.0000E+00  0.4000E+01
    -26.102  0.0000E+00  0.4000E+01
    -25.936  0.0000E+00  0.4000E+01
    -25.770  0.0000E+00  0.4000E+01
    -25.604  0.0000E+00  0.4000E+01
    -25.438  0.0000E+00  0.4000E+01
    -25.272  0.0000E+00  0.4000E+01
    -25.106  0.0000E+00  0.4000E+01
    -24.940  0.0000E+00  0.4000E+01
    -24.775  0.0000E+00  0.4000E+01
    -24.609  0.0000E+00  0.4000E+01
    -24.443  0.0000E+00  0.4000E+01
    -24.277  0.0000E+00  0.4000E+01
    -24.111  0.0000E+00  0.4000E+01
    -23.945  0.0000E+00  0.4000E+01
    -23.779  0.3620E+01  0.1000E+02
    -23.613  0.0000E+00  0.1000E+02
    -23.447  0.0000E+00  0.1000E+02
    -23.282  0.0000E+00  0.1000E+02
    -23.116  0.0000E+00  0.1000E+02
    -22.950  0.0000E+00  0.1000E+02
    -22.784  0.0000E+00  0.1000E+02
    -22.618  0.0000E+00  0.1000E+02
    -22.452  0.0000E+00  0.1000E+02
    -22.286  0.0000E+00  0.1000E+02
    -22.120  0.0000E+00  0.1000E+02
    -21.954  0.0000E+00  0.1000E+02
    -21.789  0.0000E+00  0.1000E+02
    -21.623  0.0000E+00  0.1000E+02
    -21.457  0.0000E+00  0.1000E+02
    -21.291  0.0000E+00  0.1000E+02
    -21.125  0.0000E+00  0.1000E+02
    -20.959  0.0000E+00  0.1000E+02
    -20.793  0.0000E+00  0.1000E+02
    -20.627  0.0000E+00  0.1000E+02
    -20.461  0.0000E+00  0.1000E+02
    -20.296  0.0000E+00  0.1000E+02
    -20.130  0.0000E+00  0.1034E+02
    -19.964  0.0000E+00  0.1200E+02
    -19.798  0.0000E+00  0.1200E+02
    -19.632  0.0000E+00  0.1200E+02
    -19.466  0.0000E+00  0.1200E+02
    -19.300  0.0000E+00  0.1200E+02
    -19.134  0.0000E+00  0.1200E+02
    -18.968  0.0000E+00  0.1200E+02
    -18.803  0.0000E+00  0.1200E+02
    -18.637  0.0000E+00  0.1200E+02
    -18.471  0.0000E+00  0.1200E+02
    -18.305  0.0000E+00  0.1200E+02
    -18.139  0.0000E+00  0.1200E+02
    -17.973  0.0000E+00  0.1200E+02
    -17.807  0.0000E+00  0.1200E+02
    -17.641  0.0000E+00  0.1200E+02
    -17.475  0.0000E+00  0.1200E+02
    -17.310  0.0000E+00  0.1200E+02
    -17.144  0.0000E+00  0.1200E+02
    -16.978  0.0000E+00  0.1200E+02
    -16.812  0.0000E+00  0.1200E+02
    -16.646  0.0000E+00  0.1200E+02
    -16.480  0.0000E+00  0.1200E+02
    -16.314  0.0000E+00  0.1200E+02
    -16.148  0.0000E+00  0.1200E+02
    -15.982  0.0000E+00  0.1200E+02
    -15.817  0.0000E+00  0.1200E+02
    -15.651  0.0000E+00  0.1200E+02
    -15.485  0.0000E+00  0.1200E+02
    -15.319  0.0000E+00  0.1200E+02
    -15.153  0.0000E+00  0.1200E+02
    -14.987  0.0000E+00  0.1200E+02
    -14.821  0.0000E+00  0.1200E+02
    -14.655  0.0000E+00  0.1200E+02
    -14.489  0.0000E+00  0.1200E+02
    -14.324  0.0000E+00  0.1200E+02
    -14.158  0.0000E+00  0.1200E+02
    -13.992  0.0000E+00  0.1200E+02
    -13.826  0.0000E+00  0.1200E+02
    -13.660  0.0000E+00  0.1200E+02
    -13.494  0.0000E+00  0.1200E+02
    -13.328  0.0000E+00  0.1200E+02
    -13.162  0.0000E+00  0.1200E+02
    -12.996  0.0000E+00  0.1200E+02
    -12.831  0.0000E+00  0.1200E+02
    -12.665  0.0000E+00  0.1200E+02
    -12.499  0.0000E+00  0.1200E+02
    -12.333  0.0000E+00  0.1200E+02
    -12.167  0.0000E+00  0.1200E+02
    -12.001  0.0000E+00  0.1200E+02
    -11.835  0.0000E+00  0.1200E+02
    -11.669  0.0000E+00  0.1200E+02
    -11.503  0.0000E+00  0.1200E+02
    -11.338  0.0000E+00  0.1200E+02
    -11.172  0.0000E+00  0.1200E+02
    -11.006  0.0000E+00  0.1200E+02
    -10.840  0.0000E+00  0.1200E+02
    -10.674  0.0000E+00  0.1200E+02
    -10.508  0.0000E+00  0.1200E+02
    -10.342  0.0000E+00  0.1200E+02
    -10.176  0.0000E+00  0.1200E+02
    -10.010  0.0000E+00  0.1200E+02
     -9.845  0.0000E+00  0.1200E+02
     -9.679  0.0000E+00  0.1200E+02
     -9.513  0.0000E+00  0.1200E+02
     -9.347  0.0000E+00  0.1200E+02
     -9.181  0.0000E+00  0.1200E+02
     -9.015  0.0000E+00  0.1200E+02
     -8.849  0.0000E+00  0.1200E+02
     -8.683  0.0000E+00  0.1200E+02
     -8.517  0.0000E+00  0.1200E+02
     -8.352  0.0000E+00  0.1200E+02
     -8.186  0.0000E+00  0.1200E+02
     -8.020  0.0000E+00  0.1200E+02
     -7.854  0.0000E+00  0.1200E+02
     -7.688  0.0000E+00  0.1200E+02
     -7.522  0.0000E+00  0.1200E+02
     -7.356  0.8272E+00  0.1221E+02
     -7.190  0.1054E+00  0.1366E+02
     -7.024  0.0000E+00  0.1391E+02
     -6.859  0.0000E+00  0.1400E+02
     -6.693  0.0000E+00  0.1400E+02
     -6.527  0.0000E+00  0.1400E+02
     -6.361  0.0000E+00  0.1400E+02
     -6.195  0.0000E+00  0.1400E+02
     -6.029  0.0000E+00  0.1400E+02
     -5.863  0.0000E+00  0.1400E+02
     -5.697  0.0000E+00  0.1400E+02
     -5.531  0.0000E+00  0.1400E+02
     -5.366  0.0000E+00  0.1400E+02
     -5.200  0.0000E+00  0.1400E+02
     -5.034  0.0000E+00  0.1400E+02
     -4.868  0.0000E+00  0.1400E+02
     -4.702  0.0000E+00  0.1400E+02
     -4.536  0.0000E+00  0.1400E+02
     -4.370  0.0000E+00  0.1400E+02
     -4.204  0.0000E+00  0.1400E+02
     -4.038  0.0000E+00  0.1400E+02
     -3.873  0.0000E+00  0.1400E+02
     -3.707  0.0000E+00  0.1400E+02
     -3.541  0.0000E+00  0.1400E+02
     -3.375  0.0000E+00  0.1400E+02
     -3.209  0.0000E+00  0.1400E+02
     -3.043  0.0000E+00  0.1400E+02
     -2.877  0.0000E+00  0.1400E+02
     -2.711  0.0000E+00  0.1400E+02
     -2.545  0.0000E+00  0.1400E+02
     -2.380  0.0000E+00  0.1400E+02
     -2.214  0.0000E+00  0.1400E+02
     -2.048  0.0000E+00  0.1400E+02
     -1.882  0.0000E+00  0.1400E+02
     -1.716  0.0000E+00  0.1400E+02
     -1.550  0.0000E+00  0.1400E+02
     -1.384  0.0000E+00  0.1400E+02
     -1.218  0.0000E+00  0.1400E+02
     -1.052  0.0000E+00  0.1400E+02
     -0.887  0.0000E+00  0.1400E+02
     -0.721  0.0000E+00  0.1400E+02
     -0.555  0.0000E+00  0.1400E+02
     -0.389  0.0000E+00  0.1400E+02
     -0.223  0.0000E+00  0.1400E+02
     -0.057  0.0000E+00  0.1400E+02
      0.109  0.0000E+00  0.1400E+02
      0.275  0.0000E+00  0.1400E+02
      0.440  0.0000E+00  0.1400E+02
      0.606  0.0000E+00  0.1400E+02
      0.772  0.0000E+00  0.1414E+02
      0.938  0.0000E+00  0.1520E+02
      1.104  0.8436E+00  0.1562E+02
      1.270  0.0000E+00  0.1562E+02
      1.436  0.0000E+00  0.1570E+02
      1.602  0.0000E+00  0.1584E+02
      1.768  0.0000E+00  0.1591E+02
      1.933  0.0000E+00  0.1605E+02
      2.099  0.3497E-03  0.1619E+02
      2.265  0.1580E+01  0.1666E+02
      2.431  0.0000E+00  0.1687E+02
      2.597  0.0000E+00  0.1701E+02
      2.763  0.0000E+00  0.1715E+02
      2.929  0.0000E+00  0.1746E+02
      3.095  0.0000E+00  0.1760E+02
      3.261  0.0000E+00  0.1774E+02
      3.426  0.2812E+00  0.1779E+02
      3.592  0.2272E-11  0.1790E+02
      3.758  0.0000E+00  0.1795E+02
      3.924  0.0000E+00  0.1799E+02
      4.090  0.0000E+00  0.1801E+02
      4.256  0.0000E+00  0.1801E+02
      4.422  0.0000E+00  0.1801E+02
      4.588  0.0000E+00  0.1801E+02
      4.754  0.0000E+00  0.1801E+02
      4.919  0.0000E+00  0.1801E+02
      5.085  0.0000E+00  0.1801E+02
      5.251  0.0000E+00  0.1801E+02
      5.417  0.0000E+00  0.1805E+02
      5.583  0.0000E+00  0.1805E+02
      5.749  0.6810E-05  0.1805E+02
      5.915  0.0000E+00  0.1809E+02
      6.081  0.0000E+00  0.1809E+02
      6.247  0.0000E+00  0.1818E+02
      6.412  0.0000E+00  0.1825E+02
      6.578  0.0000E+00  0.1829E+02
      6.744  0.0000E+00  0.1850E+02
      6.910  0.0000E+00  0.1850E+02
      7.076  0.0000E+00  0.1909E+02
      7.242  0.0000E+00  0.1923E+02
      7.408  0.4262E-01  0.1938E+02
      7.574  0.0000E+00  0.1951E+02
      7.740  0.0000E+00  0.1993E+02
      7.905  0.0000E+00  0.2003E+02
      8.071  0.0000E+00  0.2003E+02
      8.237  0.0000E+00  0.2010E+02
      8.403  0.0000E+00  0.2014E+02
      8.569  0.0000E+00  0.2028E+02
      8.735  0.0000E+00  0.2077E+02
      8.901  0.0000E+00  0.2091E+02
      9.067  0.3797E+00  0.2111E+02
      9.233  0.0000E+00  0.2161E+02
      9.398  0.5885E-10  0.2161E+02
      9.564  0.0000E+00  0.2199E+02
      9.730  0.0000E+00  0.2199E+02
      9.896  0.0000E+00  0.2208E+02
     10.062  0.0000E+00  0.2236E+02
     10.228  0.0000E+00  0.2254E+02
     10.394  0.5079E+00  0.2309E+02
     10.560  0.2495E+00  0.2340E+02
     10.726  0.0000E+00  0.2351E+02
     10.891  0.0000E+00  0.2397E+02
     11.057  0.0000E+00  0.2405E+02
     11.223  0.0000E+00  0.2438E+02
     11.389  0.0000E+00  0.2461E+02
     11.555  0.0000E+00  0.2472E+02
     11.721  0.0000E+00  0.2507E+02
     11.887  0.4575E-09  0.2522E+02
     12.053  0.0000E+00  0.2578E+02
     12.219  0.0000E+00  0.2578E+02
     12.384  0.0000E+00  0.2587E+02
     12.550  0.0000E+00  0.2615E+02
     12.716  0.0000E+00  0.2643E+02
     12.882  0.8806E+00  0.2674E+02
     13.048  0.0000E+00  0.2734E+02
     13.214  0.0000E+00  0.2734E+02
     13.380  0.0000E+00  0.2737E+02
     13.546  0.0000E+00  0.2758E+02
     13.712  0.0000E+00  0.2758E+02
     13.877  0.0000E+00  0.2758E+02
     14.043  0.0000E+00  0.2772E+02
     14.209  0.0000E+00  0.2790E+02
     14.375  0.0000E+00  0.2797E+02
     14.541  0.0000E+00  0.2797E+02
     14.707  0.0000E+00  0.2797E+02
     14.873  0.0000E+00  0.2800E+02
     15.039  0.0000E+00  0.2800E+02
     15.205  0.0000E+00  0.2800E+02
     15.370  0.0000E+00  0.2800E+02
     15.536  0.0000E+00  0.2800E+02
     15.702  0.0000E+00  0.2800E+02
     15.868  0.0000E+00  0.2800E+02
     16.034  0.0000E+00  0.2800E+02
     16.200  0.0000E+00  0.2800E+02
     16.366  0.0000E+00  0.2800E+02
     16.532  0.0000E+00  0.2800E+02
     16.698  0.0000E+00  0.2800E+02
     16.863  0.0000E+00  0.2800E+02
     17.029  0.0000E+00  0.2800E+02
