 running on  128 total cores
 distrk:  each k-point on   16 cores,    8 groups
 distr:  one band on    4 cores,    4 groups
 using from now: INCAR     
 vasp.5.4.4.18Apr17-6-g9f103f2a35 (build Jul 09 2018 16:43:14) complex          
  
 POSCAR found type information on POSCAR  Og
 POSCAR found :  1 types and       1 ions
 scaLAPACK will be used

 ----------------------------------------------------------------------------- 
|                                                                             |
|           W    W    AA    RRRRR   N    N  II  N    N   GGGG   !!!           |
|           W    W   A  A   R    R  NN   N  II  NN   N  G    G  !!!           |
|           W    W  A    A  R    R  N N  N  II  N N  N  G       !!!           |
|           W WW W  AAAAAA  RRRRR   N  N N  II  N  N N  G  GGG   !            |
|           WW  WW  A    A  R   R   N   NN  II  N   NN  G    G                |
|           W    W  A    A  R    R  N    N  II  N    N   GGGG   !!!           |
|                                                                             |
|      For optimal performance we recommend to set                            |
|        NCORE= 4 - approx SQRT( number of cores)                             |
|      NCORE specifies how many cores store one orbital (NPAR=cpu/NCORE).     |
|      This setting can  greatly improve the performance of VASP for DFT.     |
|      The default,   NCORE=1            might be grossly inefficient         |
|      on modern multi-core architectures or massively parallel machines.     |
|      Do your own testing !!!!                                               |
|      Unfortunately you need to use the default for GW and RPA calculations. |
|      (for HF NCORE is supported but not extensively tested yet)             |
|                                                                             |
 ----------------------------------------------------------------------------- 


 ----------------------------------------------------------------------------- 
|                                                                             |
|           W    W    AA    RRRRR   N    N  II  N    N   GGGG   !!!           |
|           W    W   A  A   R    R  NN   N  II  NN   N  G    G  !!!           |
|           W    W  A    A  R    R  N N  N  II  N N  N  G       !!!           |
|           W WW W  AAAAAA  RRRRR   N  N N  II  N  N N  G  GGG   !            |
|           WW  WW  A    A  R   R   N   NN  II  N   NN  G    G                |
|           W    W  A    A  R    R  N    N  II  N    N   GGGG   !!!           |
|                                                                             |
|      You have enabled k-point parallelism (KPAR>1).                         |
|      This developmental code was originally  written by Paul Kent at ORNL,  |
|      and carefully double checked in Vienna.                                |
|      GW as well as linear response parallelism added by Martijn Marsman     |
|      and Georg Kresse.                                                      |
|      Carefully verify results versus KPAR=1.                                |
|      Report problems to Paul Kent and Vienna.                               |
|                                                                             |
 ----------------------------------------------------------------------------- 

 LDA part: xc-table for Pade appr. of Perdew
 POSCAR, INCAR and KPOINTS ok, starting setup
 FFT: planning ...
 WAVECAR not read
 entering main loop
       N       E                     dE             d eps       ncg     rms          rms(c)
DAV:   1     0.150801770712E+03    0.15080E+03   -0.82753E+03 29428   0.743E+02
DAV:   2    -0.860931124818E+01   -0.15941E+03   -0.15621E+03 25140   0.339E+02
DAV:   3    -0.130723883718E+02   -0.44631E+01   -0.44437E+01 23504   0.653E+01
DAV:   4    -0.132310132255E+02   -0.15862E+00   -0.15855E+00 29404   0.119E+01
DAV:   5    -0.132357268610E+02   -0.47136E-02   -0.47132E-02 24728   0.198E+00    0.634E+00
DAV:   6    -0.131574773807E+02    0.78249E-01   -0.85039E-01 22088   0.130E+01    0.217E+00
DAV:   7    -0.131635985919E+02   -0.61212E-02   -0.14765E-01 20684   0.485E+00    0.909E-01
DAV:   8    -0.131762732194E+02   -0.12675E-01   -0.30758E-02 22340   0.212E+00    0.499E-01
DAV:   9    -0.131821737638E+02   -0.59005E-02   -0.28407E-03 23148   0.555E-01    0.306E-01
DAV:  10    -0.131830230291E+02   -0.84927E-03   -0.13360E-03 24288   0.321E-01    0.463E-02
DAV:  11    -0.131830691061E+02   -0.46077E-04   -0.93716E-05 23676   0.891E-02    0.161E-02
DAV:  12    -0.131831169360E+02   -0.47830E-04   -0.34359E-05 21712   0.448E-02    0.103E-02
DAV:  13    -0.131831233355E+02   -0.63995E-05   -0.73584E-06 23628   0.230E-02    0.242E-03
DAV:  14    -0.131831232424E+02    0.93145E-07   -0.12466E-06 30884   0.698E-03    0.106E-03
DAV:  15    -0.131831226587E+02    0.58366E-06   -0.95887E-07 21516   0.420E-03    0.843E-04
DAV:  16    -0.131831221413E+02    0.51747E-06   -0.13538E-06 21540   0.416E-03    0.623E-04
DAV:  17    -0.131831222976E+02   -0.15636E-06   -0.33475E-07 18228   0.275E-03    0.437E-04
DAV:  18    -0.131831224339E+02   -0.13623E-06   -0.28009E-07 18408   0.225E-03    0.268E-04
DAV:  19    -0.131831224923E+02   -0.58415E-07   -0.13787E-07 17832   0.178E-03    0.255E-04
DAV:  20    -0.131831225838E+02   -0.91543E-07   -0.19789E-07 17824   0.189E-03    0.150E-04
DAV:  21    -0.131831226297E+02   -0.45908E-07   -0.11552E-07 17928   0.154E-03    0.950E-05
DAV:  22    -0.131831226068E+02    0.22872E-07   -0.35141E-08 17992   0.107E-03    0.794E-05
DAV:  23    -0.131831225720E+02    0.34855E-07   -0.34232E-08 17664   0.993E-04    0.630E-05
DAV:  24    -0.131831225466E+02    0.25388E-07   -0.21009E-08 17692   0.765E-04    0.467E-05
DAV:  25    -0.131831225356E+02    0.11000E-07   -0.14043E-08 17744   0.646E-04    0.357E-05
DAV:  26    -0.131831225351E+02    0.53615E-09   -0.84467E-09 17596   0.508E-04
   1 F= 0.63070616E+96 E0= 0.63070616E+96  d E =-.368022E-06  mag=    -0.0007    -0.0008    -0.0006
 writing wavefunctions
 optical routines
 imaginary and real dielectric function
 recalculating local potential from charge density
 direction            1
 direction            2
 direction            3
