<?xml version="1.0" encoding="ISO-8859-1"?>
<modeling>
 <generator>
  <i name="program" type="string">vasp </i>
  <i name="version" type="string">5.4.4.18Apr17-6-g9f103f2a35  </i>
  <i name="subversion" type="string">(build Nov 03 2018 10:20:46) complex            parallel </i>
  <i name="platform" type="string">LinuxIFC </i>
  <i name="date" type="string">2018 11 15 </i>
  <i name="time" type="string">16:23:09 </i>
 </generator>
 <incar>
  <i type="string" name="SYSTEM">   Og_FCC</i>
  <i type="string" name="PREC">accurate</i>
  <i type="string" name="ALGO">   Normal</i>
  <i type="logical" name="ADDGRID"> T  </i>
  <i type="logical" name="LSORBIT"> T  </i>
  <i type="int" name="ISPIN">     1</i>
  <i type="int" name="MAXMIX">    50</i>
  <i type="int" name="NELM">    50</i>
  <i type="int" name="NELMDL">    -5</i>
  <i type="int" name="NELMIN">     2</i>
  <i type="int" name="IBRION">    -1</i>
  <i type="int" name="NFREE">     5</i>
  <i name="EDIFF">      0.00000001</i>
  <i name="EDIFFG">      0.00001000</i>
  <i type="int" name="NSW">     1</i>
  <i type="int" name="ISIF">     3</i>
  <i type="int" name="ISYM">     0</i>
  <i name="SYMPREC">      0.00000010</i>
  <i name="ENCUT">    300.00000000</i>
  <i name="POTIM">      0.10000000</i>
  <i type="logical" name="LREAL"> F  </i>
  <i type="int" name="ISMEAR">     0</i>
  <i name="SIGMA">      0.00100000</i>
  <i type="int" name="NWRITE">     2</i>
  <i type="logical" name="LWAVE"> T  </i>
  <i type="logical" name="LCHARG"> F  </i>
  <i type="logical" name="LVTOT"> F  </i>
  <i type="logical" name="LOPTICS"> T  </i>
  <i type="logical" name="GGA_COMPAT"> F  </i>
  <v type="int" name="KPOINT_BSE">    -1     0     0     0</v>
  <i type="int" name="NELM">    50</i>
  <i type="string" name="GGA"> PE</i>
 </incar>
 <structure name="primitive_cell" >
  <crystal>
   <varray name="basis" >
    <v>       4.34234588       0.00000000       0.00000000 </v>
    <v>       2.17117294       3.76058184      -0.00000000 </v>
    <v>       2.17117294       1.25352728       3.54551056 </v>
   </varray>
   <i name="volume">     57.89729060 </i>
   <varray name="rec_basis" >
    <v>       0.23029027      -0.13295815      -0.09401561 </v>
    <v>       0.00000000       0.26591630      -0.09401561 </v>
    <v>      -0.00000000       0.00000000       0.28204683 </v>
   </varray>
  </crystal>
  <varray name="positions" >
   <v>       0.00000000       0.00000000       0.00000000 </v>
  </varray>
 </structure>
 <varray name="primitive_index" >
  <v type="int" >        1 </v>
 </varray>
 <kpoints>
  <generation param="Gamma">
   <v type="int" name="divisions">       7        7        7 </v>
   <v name="usershift">      0.00000000       0.00000000       0.00000000 </v>
   <v name="genvec1">      0.14285714       0.00000000       0.00000000 </v>
   <v name="genvec2">      0.00000000       0.14285714      -0.00000000 </v>
   <v name="genvec3">      0.00000000      -0.00000000       0.14285714 </v>
   <v name="shift">      0.00000000       0.00000000       0.00000000 </v>
  </generation>
  <varray name="kpointlist" >
   <v>       0.00000000       0.00000000       0.00000000 </v>
   <v>       0.14285714       0.00000000       0.00000000 </v>
   <v>       0.28571429       0.00000000       0.00000000 </v>
   <v>       0.42857143       0.00000000       0.00000000 </v>
   <v>      -0.42857143      -0.00000000      -0.00000000 </v>
   <v>      -0.28571429      -0.00000000      -0.00000000 </v>
   <v>      -0.14285714      -0.00000000      -0.00000000 </v>
   <v>       0.00000000       0.14285714       0.00000000 </v>
   <v>       0.14285714       0.14285714       0.00000000 </v>
   <v>       0.28571429       0.14285714       0.00000000 </v>
   <v>       0.42857143       0.14285714       0.00000000 </v>
   <v>      -0.42857143       0.14285714      -0.00000000 </v>
   <v>      -0.28571429       0.14285714      -0.00000000 </v>
   <v>      -0.14285714       0.14285714      -0.00000000 </v>
   <v>       0.00000000       0.28571429      -0.00000000 </v>
   <v>       0.14285714       0.28571429       0.00000000 </v>
   <v>       0.28571429       0.28571429       0.00000000 </v>
   <v>       0.42857143       0.28571429       0.00000000 </v>
   <v>      -0.42857143       0.28571429      -0.00000000 </v>
   <v>      -0.28571429       0.28571429      -0.00000000 </v>
   <v>      -0.14285714       0.28571429      -0.00000000 </v>
   <v>       0.00000000       0.42857143      -0.00000000 </v>
   <v>       0.14285714       0.42857143       0.00000000 </v>
   <v>       0.28571429       0.42857143       0.00000000 </v>
   <v>       0.42857143       0.42857143       0.00000000 </v>
   <v>      -0.42857143       0.42857143      -0.00000000 </v>
   <v>      -0.28571429       0.42857143      -0.00000000 </v>
   <v>      -0.14285714       0.42857143      -0.00000000 </v>
   <v>      -0.00000000      -0.42857143       0.00000000 </v>
   <v>       0.14285714      -0.42857143       0.00000000 </v>
   <v>       0.28571429      -0.42857143       0.00000000 </v>
   <v>       0.42857143      -0.42857143       0.00000000 </v>
   <v>      -0.42857143      -0.42857143       0.00000000 </v>
   <v>      -0.28571429      -0.42857143      -0.00000000 </v>
   <v>      -0.14285714      -0.42857143       0.00000000 </v>
   <v>      -0.00000000      -0.28571429       0.00000000 </v>
   <v>       0.14285714      -0.28571429       0.00000000 </v>
   <v>       0.28571429      -0.28571429       0.00000000 </v>
   <v>       0.42857143      -0.28571429       0.00000000 </v>
   <v>      -0.42857143      -0.28571429      -0.00000000 </v>
   <v>      -0.28571429      -0.28571429      -0.00000000 </v>
   <v>      -0.14285714      -0.28571429      -0.00000000 </v>
   <v>      -0.00000000      -0.14285714      -0.00000000 </v>
   <v>       0.14285714      -0.14285714       0.00000000 </v>
   <v>       0.28571429      -0.14285714       0.00000000 </v>
   <v>       0.42857143      -0.14285714       0.00000000 </v>
   <v>      -0.42857143      -0.14285714      -0.00000000 </v>
   <v>      -0.28571429      -0.14285714      -0.00000000 </v>
   <v>      -0.14285714      -0.14285714      -0.00000000 </v>
   <v>      -0.00000000       0.00000000       0.14285714 </v>
   <v>       0.14285714      -0.00000000       0.14285714 </v>
   <v>       0.28571429      -0.00000000       0.14285714 </v>
   <v>       0.42857143      -0.00000000       0.14285714 </v>
   <v>      -0.42857143      -0.00000000       0.14285714 </v>
   <v>      -0.28571429      -0.00000000       0.14285714 </v>
   <v>      -0.14285714      -0.00000000       0.14285714 </v>
   <v>      -0.00000000       0.14285714       0.14285714 </v>
   <v>       0.14285714       0.14285714       0.14285714 </v>
   <v>       0.28571429       0.14285714       0.14285714 </v>
   <v>       0.42857143       0.14285714       0.14285714 </v>
   <v>      -0.42857143       0.14285714       0.14285714 </v>
   <v>      -0.28571429       0.14285714       0.14285714 </v>
   <v>      -0.14285714       0.14285714       0.14285714 </v>
   <v>      -0.00000000       0.28571429       0.14285714 </v>
   <v>       0.14285714       0.28571429       0.14285714 </v>
   <v>       0.28571429       0.28571429       0.14285714 </v>
   <v>       0.42857143       0.28571429       0.14285714 </v>
   <v>      -0.42857143       0.28571429       0.14285714 </v>
   <v>      -0.28571429       0.28571429       0.14285714 </v>
   <v>      -0.14285714       0.28571429       0.14285714 </v>
   <v>      -0.00000000       0.42857143       0.14285714 </v>
   <v>       0.14285714       0.42857143       0.14285714 </v>
   <v>       0.28571429       0.42857143       0.14285714 </v>
   <v>       0.42857143       0.42857143       0.14285714 </v>
   <v>      -0.42857143       0.42857143       0.14285714 </v>
   <v>      -0.28571429       0.42857143       0.14285714 </v>
   <v>      -0.14285714       0.42857143       0.14285714 </v>
   <v>      -0.00000000      -0.42857143       0.14285714 </v>
   <v>       0.14285714      -0.42857143       0.14285714 </v>
   <v>       0.28571429      -0.42857143       0.14285714 </v>
   <v>       0.42857143      -0.42857143       0.14285714 </v>
   <v>      -0.42857143      -0.42857143       0.14285714 </v>
   <v>      -0.28571429      -0.42857143       0.14285714 </v>
   <v>      -0.14285714      -0.42857143       0.14285714 </v>
   <v>      -0.00000000      -0.28571429       0.14285714 </v>
   <v>       0.14285714      -0.28571429       0.14285714 </v>
   <v>       0.28571429      -0.28571429       0.14285714 </v>
   <v>       0.42857143      -0.28571429       0.14285714 </v>
   <v>      -0.42857143      -0.28571429       0.14285714 </v>
   <v>      -0.28571429      -0.28571429       0.14285714 </v>
   <v>      -0.14285714      -0.28571429       0.14285714 </v>
   <v>       0.00000000      -0.14285714       0.14285714 </v>
   <v>       0.14285714      -0.14285714       0.14285714 </v>
   <v>       0.28571429      -0.14285714       0.14285714 </v>
   <v>       0.42857143      -0.14285714       0.14285714 </v>
   <v>      -0.42857143      -0.14285714       0.14285714 </v>
   <v>      -0.28571429      -0.14285714       0.14285714 </v>
   <v>      -0.14285714      -0.14285714       0.14285714 </v>
   <v>      -0.00000000       0.00000000       0.28571429 </v>
   <v>       0.14285714       0.00000000       0.28571429 </v>
   <v>       0.28571429      -0.00000000       0.28571429 </v>
   <v>       0.42857143      -0.00000000       0.28571429 </v>
   <v>      -0.42857143      -0.00000000       0.28571429 </v>
   <v>      -0.28571429      -0.00000000       0.28571429 </v>
   <v>      -0.14285714      -0.00000000       0.28571429 </v>
   <v>      -0.00000000       0.14285714       0.28571429 </v>
   <v>       0.14285714       0.14285714       0.28571429 </v>
   <v>       0.28571429       0.14285714       0.28571429 </v>
   <v>       0.42857143       0.14285714       0.28571429 </v>
   <v>      -0.42857143       0.14285714       0.28571429 </v>
   <v>      -0.28571429       0.14285714       0.28571429 </v>
   <v>      -0.14285714       0.14285714       0.28571429 </v>
   <v>      -0.00000000       0.28571429       0.28571429 </v>
   <v>       0.14285714       0.28571429       0.28571429 </v>
   <v>       0.28571429       0.28571429       0.28571429 </v>
   <v>       0.42857143       0.28571429       0.28571429 </v>
   <v>      -0.42857143       0.28571429       0.28571429 </v>
   <v>      -0.28571429       0.28571429       0.28571429 </v>
   <v>      -0.14285714       0.28571429       0.28571429 </v>
   <v>      -0.00000000       0.42857143       0.28571429 </v>
   <v>       0.14285714       0.42857143       0.28571429 </v>
   <v>       0.28571429       0.42857143       0.28571429 </v>
   <v>       0.42857143       0.42857143       0.28571429 </v>
   <v>      -0.42857143       0.42857143       0.28571429 </v>
   <v>      -0.28571429       0.42857143       0.28571429 </v>
   <v>      -0.14285714       0.42857143       0.28571429 </v>
   <v>      -0.00000000      -0.42857143       0.28571429 </v>
   <v>       0.14285714      -0.42857143       0.28571429 </v>
   <v>       0.28571429      -0.42857143       0.28571429 </v>
   <v>       0.42857143      -0.42857143       0.28571429 </v>
   <v>      -0.42857143      -0.42857143       0.28571429 </v>
   <v>      -0.28571429      -0.42857143       0.28571429 </v>
   <v>      -0.14285714      -0.42857143       0.28571429 </v>
   <v>       0.00000000      -0.28571429       0.28571429 </v>
   <v>       0.14285714      -0.28571429       0.28571429 </v>
   <v>       0.28571429      -0.28571429       0.28571429 </v>
   <v>       0.42857143      -0.28571429       0.28571429 </v>
   <v>      -0.42857143      -0.28571429       0.28571429 </v>
   <v>      -0.28571429      -0.28571429       0.28571429 </v>
   <v>      -0.14285714      -0.28571429       0.28571429 </v>
   <v>      -0.00000000      -0.14285714       0.28571429 </v>
   <v>       0.14285714      -0.14285714       0.28571429 </v>
   <v>       0.28571429      -0.14285714       0.28571429 </v>
   <v>       0.42857143      -0.14285714       0.28571429 </v>
   <v>      -0.42857143      -0.14285714       0.28571429 </v>
   <v>      -0.28571429      -0.14285714       0.28571429 </v>
   <v>      -0.14285714      -0.14285714       0.28571429 </v>
   <v>      -0.00000000      -0.00000000       0.42857143 </v>
   <v>       0.14285714       0.00000000       0.42857143 </v>
   <v>       0.28571429       0.00000000       0.42857143 </v>
   <v>       0.42857143       0.00000000       0.42857143 </v>
   <v>      -0.42857143       0.00000000       0.42857143 </v>
   <v>      -0.28571429       0.00000000       0.42857143 </v>
   <v>      -0.14285714      -0.00000000       0.42857143 </v>
   <v>      -0.00000000       0.14285714       0.42857143 </v>
   <v>       0.14285714       0.14285714       0.42857143 </v>
   <v>       0.28571429       0.14285714       0.42857143 </v>
   <v>       0.42857143       0.14285714       0.42857143 </v>
   <v>      -0.42857143       0.14285714       0.42857143 </v>
   <v>      -0.28571429       0.14285714       0.42857143 </v>
   <v>      -0.14285714       0.14285714       0.42857143 </v>
   <v>      -0.00000000       0.28571429       0.42857143 </v>
   <v>       0.14285714       0.28571429       0.42857143 </v>
   <v>       0.28571429       0.28571429       0.42857143 </v>
   <v>       0.42857143       0.28571429       0.42857143 </v>
   <v>      -0.42857143       0.28571429       0.42857143 </v>
   <v>      -0.28571429       0.28571429       0.42857143 </v>
   <v>      -0.14285714       0.28571429       0.42857143 </v>
   <v>      -0.00000000       0.42857143       0.42857143 </v>
   <v>       0.14285714       0.42857143       0.42857143 </v>
   <v>       0.28571429       0.42857143       0.42857143 </v>
   <v>       0.42857143       0.42857143       0.42857143 </v>
   <v>      -0.42857143       0.42857143       0.42857143 </v>
   <v>      -0.28571429       0.42857143       0.42857143 </v>
   <v>      -0.14285714       0.42857143       0.42857143 </v>
   <v>       0.00000000      -0.42857143       0.42857143 </v>
   <v>       0.14285714      -0.42857143       0.42857143 </v>
   <v>       0.28571429      -0.42857143       0.42857143 </v>
   <v>       0.42857143      -0.42857143       0.42857143 </v>
   <v>      -0.42857143      -0.42857143       0.42857143 </v>
   <v>      -0.28571429      -0.42857143       0.42857143 </v>
   <v>      -0.14285714      -0.42857143       0.42857143 </v>
   <v>       0.00000000      -0.28571429       0.42857143 </v>
   <v>       0.14285714      -0.28571429       0.42857143 </v>
   <v>       0.28571429      -0.28571429       0.42857143 </v>
   <v>       0.42857143      -0.28571429       0.42857143 </v>
   <v>      -0.42857143      -0.28571429       0.42857143 </v>
   <v>      -0.28571429      -0.28571429       0.42857143 </v>
   <v>      -0.14285714      -0.28571429       0.42857143 </v>
   <v>      -0.00000000      -0.14285714       0.42857143 </v>
   <v>       0.14285714      -0.14285714       0.42857143 </v>
   <v>       0.28571429      -0.14285714       0.42857143 </v>
   <v>       0.42857143      -0.14285714       0.42857143 </v>
   <v>      -0.42857143      -0.14285714       0.42857143 </v>
   <v>      -0.28571429      -0.14285714       0.42857143 </v>
   <v>      -0.14285714      -0.14285714       0.42857143 </v>
   <v>       0.00000000       0.00000000      -0.42857143 </v>
   <v>       0.14285714      -0.00000000      -0.42857143 </v>
   <v>       0.28571429      -0.00000000      -0.42857143 </v>
   <v>       0.42857143      -0.00000000      -0.42857143 </v>
   <v>      -0.42857143      -0.00000000      -0.42857143 </v>
   <v>      -0.28571429      -0.00000000      -0.42857143 </v>
   <v>      -0.14285714      -0.00000000      -0.42857143 </v>
   <v>       0.00000000       0.14285714      -0.42857143 </v>
   <v>       0.14285714       0.14285714      -0.42857143 </v>
   <v>       0.28571429       0.14285714      -0.42857143 </v>
   <v>       0.42857143       0.14285714      -0.42857143 </v>
   <v>      -0.42857143       0.14285714      -0.42857143 </v>
   <v>      -0.28571429       0.14285714      -0.42857143 </v>
   <v>      -0.14285714       0.14285714      -0.42857143 </v>
   <v>       0.00000000       0.28571429      -0.42857143 </v>
   <v>       0.14285714       0.28571429      -0.42857143 </v>
   <v>       0.28571429       0.28571429      -0.42857143 </v>
   <v>       0.42857143       0.28571429      -0.42857143 </v>
   <v>      -0.42857143       0.28571429      -0.42857143 </v>
   <v>      -0.28571429       0.28571429      -0.42857143 </v>
   <v>      -0.14285714       0.28571429      -0.42857143 </v>
   <v>      -0.00000000       0.42857143      -0.42857143 </v>
   <v>       0.14285714       0.42857143      -0.42857143 </v>
   <v>       0.28571429       0.42857143      -0.42857143 </v>
   <v>       0.42857143       0.42857143      -0.42857143 </v>
   <v>      -0.42857143       0.42857143      -0.42857143 </v>
   <v>      -0.28571429       0.42857143      -0.42857143 </v>
   <v>      -0.14285714       0.42857143      -0.42857143 </v>
   <v>       0.00000000      -0.42857143      -0.42857143 </v>
   <v>       0.14285714      -0.42857143      -0.42857143 </v>
   <v>       0.28571429      -0.42857143      -0.42857143 </v>
   <v>       0.42857143      -0.42857143      -0.42857143 </v>
   <v>      -0.42857143      -0.42857143      -0.42857143 </v>
   <v>      -0.28571429      -0.42857143      -0.42857143 </v>
   <v>      -0.14285714      -0.42857143      -0.42857143 </v>
   <v>       0.00000000      -0.28571429      -0.42857143 </v>
   <v>       0.14285714      -0.28571429      -0.42857143 </v>
   <v>       0.28571429      -0.28571429      -0.42857143 </v>
   <v>       0.42857143      -0.28571429      -0.42857143 </v>
   <v>      -0.42857143      -0.28571429      -0.42857143 </v>
   <v>      -0.28571429      -0.28571429      -0.42857143 </v>
   <v>      -0.14285714      -0.28571429      -0.42857143 </v>
   <v>       0.00000000      -0.14285714      -0.42857143 </v>
   <v>       0.14285714      -0.14285714      -0.42857143 </v>
   <v>       0.28571429      -0.14285714      -0.42857143 </v>
   <v>       0.42857143      -0.14285714      -0.42857143 </v>
   <v>      -0.42857143      -0.14285714      -0.42857143 </v>
   <v>      -0.28571429      -0.14285714      -0.42857143 </v>
   <v>      -0.14285714      -0.14285714      -0.42857143 </v>
   <v>       0.00000000      -0.00000000      -0.28571429 </v>
   <v>       0.14285714      -0.00000000      -0.28571429 </v>
   <v>       0.28571429       0.00000000      -0.28571429 </v>
   <v>       0.42857143       0.00000000      -0.28571429 </v>
   <v>      -0.42857143       0.00000000      -0.28571429 </v>
   <v>      -0.28571429       0.00000000      -0.28571429 </v>
   <v>      -0.14285714      -0.00000000      -0.28571429 </v>
   <v>       0.00000000       0.14285714      -0.28571429 </v>
   <v>       0.14285714       0.14285714      -0.28571429 </v>
   <v>       0.28571429       0.14285714      -0.28571429 </v>
   <v>       0.42857143       0.14285714      -0.28571429 </v>
   <v>      -0.42857143       0.14285714      -0.28571429 </v>
   <v>      -0.28571429       0.14285714      -0.28571429 </v>
   <v>      -0.14285714       0.14285714      -0.28571429 </v>
   <v>       0.00000000       0.28571429      -0.28571429 </v>
   <v>       0.14285714       0.28571429      -0.28571429 </v>
   <v>       0.28571429       0.28571429      -0.28571429 </v>
   <v>       0.42857143       0.28571429      -0.28571429 </v>
   <v>      -0.42857143       0.28571429      -0.28571429 </v>
   <v>      -0.28571429       0.28571429      -0.28571429 </v>
   <v>      -0.14285714       0.28571429      -0.28571429 </v>
   <v>       0.00000000       0.42857143      -0.28571429 </v>
   <v>       0.14285714       0.42857143      -0.28571429 </v>
   <v>       0.28571429       0.42857143      -0.28571429 </v>
   <v>       0.42857143       0.42857143      -0.28571429 </v>
   <v>      -0.42857143       0.42857143      -0.28571429 </v>
   <v>      -0.28571429       0.42857143      -0.28571429 </v>
   <v>      -0.14285714       0.42857143      -0.28571429 </v>
   <v>       0.00000000      -0.42857143      -0.28571429 </v>
   <v>       0.14285714      -0.42857143      -0.28571429 </v>
   <v>       0.28571429      -0.42857143      -0.28571429 </v>
   <v>       0.42857143      -0.42857143      -0.28571429 </v>
   <v>      -0.42857143      -0.42857143      -0.28571429 </v>
   <v>      -0.28571429      -0.42857143      -0.28571429 </v>
   <v>      -0.14285714      -0.42857143      -0.28571429 </v>
   <v>       0.00000000      -0.28571429      -0.28571429 </v>
   <v>       0.14285714      -0.28571429      -0.28571429 </v>
   <v>       0.28571429      -0.28571429      -0.28571429 </v>
   <v>       0.42857143      -0.28571429      -0.28571429 </v>
   <v>      -0.42857143      -0.28571429      -0.28571429 </v>
   <v>      -0.28571429      -0.28571429      -0.28571429 </v>
   <v>      -0.14285714      -0.28571429      -0.28571429 </v>
   <v>       0.00000000      -0.14285714      -0.28571429 </v>
   <v>       0.14285714      -0.14285714      -0.28571429 </v>
   <v>       0.28571429      -0.14285714      -0.28571429 </v>
   <v>       0.42857143      -0.14285714      -0.28571429 </v>
   <v>      -0.42857143      -0.14285714      -0.28571429 </v>
   <v>      -0.28571429      -0.14285714      -0.28571429 </v>
   <v>      -0.14285714      -0.14285714      -0.28571429 </v>
   <v>       0.00000000      -0.00000000      -0.14285714 </v>
   <v>       0.14285714       0.00000000      -0.14285714 </v>
   <v>       0.28571429       0.00000000      -0.14285714 </v>
   <v>       0.42857143       0.00000000      -0.14285714 </v>
   <v>      -0.42857143      -0.00000000      -0.14285714 </v>
   <v>      -0.28571429       0.00000000      -0.14285714 </v>
   <v>      -0.14285714       0.00000000      -0.14285714 </v>
   <v>       0.00000000       0.14285714      -0.14285714 </v>
   <v>       0.14285714       0.14285714      -0.14285714 </v>
   <v>       0.28571429       0.14285714      -0.14285714 </v>
   <v>       0.42857143       0.14285714      -0.14285714 </v>
   <v>      -0.42857143       0.14285714      -0.14285714 </v>
   <v>      -0.28571429       0.14285714      -0.14285714 </v>
   <v>      -0.14285714       0.14285714      -0.14285714 </v>
   <v>       0.00000000       0.28571429      -0.14285714 </v>
   <v>       0.14285714       0.28571429      -0.14285714 </v>
   <v>       0.28571429       0.28571429      -0.14285714 </v>
   <v>       0.42857143       0.28571429      -0.14285714 </v>
   <v>      -0.42857143       0.28571429      -0.14285714 </v>
   <v>      -0.28571429       0.28571429      -0.14285714 </v>
   <v>      -0.14285714       0.28571429      -0.14285714 </v>
   <v>       0.00000000       0.42857143      -0.14285714 </v>
   <v>       0.14285714       0.42857143      -0.14285714 </v>
   <v>       0.28571429       0.42857143      -0.14285714 </v>
   <v>       0.42857143       0.42857143      -0.14285714 </v>
   <v>      -0.42857143       0.42857143      -0.14285714 </v>
   <v>      -0.28571429       0.42857143      -0.14285714 </v>
   <v>      -0.14285714       0.42857143      -0.14285714 </v>
   <v>       0.00000000      -0.42857143      -0.14285714 </v>
   <v>       0.14285714      -0.42857143      -0.14285714 </v>
   <v>       0.28571429      -0.42857143      -0.14285714 </v>
   <v>       0.42857143      -0.42857143      -0.14285714 </v>
   <v>      -0.42857143      -0.42857143      -0.14285714 </v>
   <v>      -0.28571429      -0.42857143      -0.14285714 </v>
   <v>      -0.14285714      -0.42857143      -0.14285714 </v>
   <v>       0.00000000      -0.28571429      -0.14285714 </v>
   <v>       0.14285714      -0.28571429      -0.14285714 </v>
   <v>       0.28571429      -0.28571429      -0.14285714 </v>
   <v>       0.42857143      -0.28571429      -0.14285714 </v>
   <v>      -0.42857143      -0.28571429      -0.14285714 </v>
   <v>      -0.28571429      -0.28571429      -0.14285714 </v>
   <v>      -0.14285714      -0.28571429      -0.14285714 </v>
   <v>       0.00000000      -0.14285714      -0.14285714 </v>
   <v>       0.14285714      -0.14285714      -0.14285714 </v>
   <v>       0.28571429      -0.14285714      -0.14285714 </v>
   <v>       0.42857143      -0.14285714      -0.14285714 </v>
   <v>      -0.42857143      -0.14285714      -0.14285714 </v>
   <v>      -0.28571429      -0.14285714      -0.14285714 </v>
   <v>      -0.14285714      -0.14285714      -0.14285714 </v>
  </varray>
  <varray name="weights" >
   <v>       0.00291545 </v>
   <v>       0.00291545 </v>
   <v>       0.00291545 </v>
   <v>       0.00291545 </v>
   <v>       0.00291545 </v>
   <v>       0.00291545 </v>
   <v>       0.00291545 </v>
   <v>       0.00291545 </v>
   <v>       0.00291545 </v>
   <v>       0.00291545 </v>
   <v>       0.00291545 </v>
   <v>       0.00291545 </v>
   <v>       0.00291545 </v>
   <v>       0.00291545 </v>
   <v>       0.00291545 </v>
   <v>       0.00291545 </v>
   <v>       0.00291545 </v>
   <v>       0.00291545 </v>
   <v>       0.00291545 </v>
   <v>       0.00291545 </v>
   <v>       0.00291545 </v>
   <v>       0.00291545 </v>
   <v>       0.00291545 </v>
   <v>       0.00291545 </v>
   <v>       0.00291545 </v>
   <v>       0.00291545 </v>
   <v>       0.00291545 </v>
   <v>       0.00291545 </v>
   <v>       0.00291545 </v>
   <v>       0.00291545 </v>
   <v>       0.00291545 </v>
   <v>       0.00291545 </v>
   <v>       0.00291545 </v>
   <v>       0.00291545 </v>
   <v>       0.00291545 </v>
   <v>       0.00291545 </v>
   <v>       0.00291545 </v>
   <v>       0.00291545 </v>
   <v>       0.00291545 </v>
   <v>       0.00291545 </v>
   <v>       0.00291545 </v>
   <v>       0.00291545 </v>
   <v>       0.00291545 </v>
   <v>       0.00291545 </v>
   <v>       0.00291545 </v>
   <v>       0.00291545 </v>
   <v>       0.00291545 </v>
   <v>       0.00291545 </v>
   <v>       0.00291545 </v>
   <v>       0.00291545 </v>
   <v>       0.00291545 </v>
   <v>       0.00291545 </v>
   <v>       0.00291545 </v>
   <v>       0.00291545 </v>
   <v>       0.00291545 </v>
   <v>       0.00291545 </v>
   <v>       0.00291545 </v>
   <v>       0.00291545 </v>
   <v>       0.00291545 </v>
   <v>       0.00291545 </v>
   <v>       0.00291545 </v>
   <v>       0.00291545 </v>
   <v>       0.00291545 </v>
   <v>       0.00291545 </v>
   <v>       0.00291545 </v>
   <v>       0.00291545 </v>
   <v>       0.00291545 </v>
   <v>       0.00291545 </v>
   <v>       0.00291545 </v>
   <v>       0.00291545 </v>
   <v>       0.00291545 </v>
   <v>       0.00291545 </v>
   <v>       0.00291545 </v>
   <v>       0.00291545 </v>
   <v>       0.00291545 </v>
   <v>       0.00291545 </v>
   <v>       0.00291545 </v>
   <v>       0.00291545 </v>
   <v>       0.00291545 </v>
   <v>       0.00291545 </v>
   <v>       0.00291545 </v>
   <v>       0.00291545 </v>
   <v>       0.00291545 </v>
   <v>       0.00291545 </v>
   <v>       0.00291545 </v>
   <v>       0.00291545 </v>
   <v>       0.00291545 </v>
   <v>       0.00291545 </v>
   <v>       0.00291545 </v>
   <v>       0.00291545 </v>
   <v>       0.00291545 </v>
   <v>       0.00291545 </v>
   <v>       0.00291545 </v>
   <v>       0.00291545 </v>
   <v>       0.00291545 </v>
   <v>       0.00291545 </v>
   <v>       0.00291545 </v>
   <v>       0.00291545 </v>
   <v>       0.00291545 </v>
   <v>       0.00291545 </v>
   <v>       0.00291545 </v>
   <v>       0.00291545 </v>
   <v>       0.00291545 </v>
   <v>       0.00291545 </v>
   <v>       0.00291545 </v>
   <v>       0.00291545 </v>
   <v>       0.00291545 </v>
   <v>       0.00291545 </v>
   <v>       0.00291545 </v>
   <v>       0.00291545 </v>
   <v>       0.00291545 </v>
   <v>       0.00291545 </v>
   <v>       0.00291545 </v>
   <v>       0.00291545 </v>
   <v>       0.00291545 </v>
   <v>       0.00291545 </v>
   <v>       0.00291545 </v>
   <v>       0.00291545 </v>
   <v>       0.00291545 </v>
   <v>       0.00291545 </v>
   <v>       0.00291545 </v>
   <v>       0.00291545 </v>
   <v>       0.00291545 </v>
   <v>       0.00291545 </v>
   <v>       0.00291545 </v>
   <v>       0.00291545 </v>
   <v>       0.00291545 </v>
   <v>       0.00291545 </v>
   <v>       0.00291545 </v>
   <v>       0.00291545 </v>
   <v>       0.00291545 </v>
   <v>       0.00291545 </v>
   <v>       0.00291545 </v>
   <v>       0.00291545 </v>
   <v>       0.00291545 </v>
   <v>       0.00291545 </v>
   <v>       0.00291545 </v>
   <v>       0.00291545 </v>
   <v>       0.00291545 </v>
   <v>       0.00291545 </v>
   <v>       0.00291545 </v>
   <v>       0.00291545 </v>
   <v>       0.00291545 </v>
   <v>       0.00291545 </v>
   <v>       0.00291545 </v>
   <v>       0.00291545 </v>
   <v>       0.00291545 </v>
   <v>       0.00291545 </v>
   <v>       0.00291545 </v>
   <v>       0.00291545 </v>
   <v>       0.00291545 </v>
   <v>       0.00291545 </v>
   <v>       0.00291545 </v>
   <v>       0.00291545 </v>
   <v>       0.00291545 </v>
   <v>       0.00291545 </v>
   <v>       0.00291545 </v>
   <v>       0.00291545 </v>
   <v>       0.00291545 </v>
   <v>       0.00291545 </v>
   <v>       0.00291545 </v>
   <v>       0.00291545 </v>
   <v>       0.00291545 </v>
   <v>       0.00291545 </v>
   <v>       0.00291545 </v>
   <v>       0.00291545 </v>
   <v>       0.00291545 </v>
   <v>       0.00291545 </v>
   <v>       0.00291545 </v>
   <v>       0.00291545 </v>
   <v>       0.00291545 </v>
   <v>       0.00291545 </v>
   <v>       0.00291545 </v>
   <v>       0.00291545 </v>
   <v>       0.00291545 </v>
   <v>       0.00291545 </v>
   <v>       0.00291545 </v>
   <v>       0.00291545 </v>
   <v>       0.00291545 </v>
   <v>       0.00291545 </v>
   <v>       0.00291545 </v>
   <v>       0.00291545 </v>
   <v>       0.00291545 </v>
   <v>       0.00291545 </v>
   <v>       0.00291545 </v>
   <v>       0.00291545 </v>
   <v>       0.00291545 </v>
   <v>       0.00291545 </v>
   <v>       0.00291545 </v>
   <v>       0.00291545 </v>
   <v>       0.00291545 </v>
   <v>       0.00291545 </v>
   <v>       0.00291545 </v>
   <v>       0.00291545 </v>
   <v>       0.00291545 </v>
   <v>       0.00291545 </v>
   <v>       0.00291545 </v>
   <v>       0.00291545 </v>
   <v>       0.00291545 </v>
   <v>       0.00291545 </v>
   <v>       0.00291545 </v>
   <v>       0.00291545 </v>
   <v>       0.00291545 </v>
   <v>       0.00291545 </v>
   <v>       0.00291545 </v>
   <v>       0.00291545 </v>
   <v>       0.00291545 </v>
   <v>       0.00291545 </v>
   <v>       0.00291545 </v>
   <v>       0.00291545 </v>
   <v>       0.00291545 </v>
   <v>       0.00291545 </v>
   <v>       0.00291545 </v>
   <v>       0.00291545 </v>
   <v>       0.00291545 </v>
   <v>       0.00291545 </v>
   <v>       0.00291545 </v>
   <v>       0.00291545 </v>
   <v>       0.00291545 </v>
   <v>       0.00291545 </v>
   <v>       0.00291545 </v>
   <v>       0.00291545 </v>
   <v>       0.00291545 </v>
   <v>       0.00291545 </v>
   <v>       0.00291545 </v>
   <v>       0.00291545 </v>
   <v>       0.00291545 </v>
   <v>       0.00291545 </v>
   <v>       0.00291545 </v>
   <v>       0.00291545 </v>
   <v>       0.00291545 </v>
   <v>       0.00291545 </v>
   <v>       0.00291545 </v>
   <v>       0.00291545 </v>
   <v>       0.00291545 </v>
   <v>       0.00291545 </v>
   <v>       0.00291545 </v>
   <v>       0.00291545 </v>
   <v>       0.00291545 </v>
   <v>       0.00291545 </v>
   <v>       0.00291545 </v>
   <v>       0.00291545 </v>
   <v>       0.00291545 </v>
   <v>       0.00291545 </v>
   <v>       0.00291545 </v>
   <v>       0.00291545 </v>
   <v>       0.00291545 </v>
   <v>       0.00291545 </v>
   <v>       0.00291545 </v>
   <v>       0.00291545 </v>
   <v>       0.00291545 </v>
   <v>       0.00291545 </v>
   <v>       0.00291545 </v>
   <v>       0.00291545 </v>
   <v>       0.00291545 </v>
   <v>       0.00291545 </v>
   <v>       0.00291545 </v>
   <v>       0.00291545 </v>
   <v>       0.00291545 </v>
   <v>       0.00291545 </v>
   <v>       0.00291545 </v>
   <v>       0.00291545 </v>
   <v>       0.00291545 </v>
   <v>       0.00291545 </v>
   <v>       0.00291545 </v>
   <v>       0.00291545 </v>
   <v>       0.00291545 </v>
   <v>       0.00291545 </v>
   <v>       0.00291545 </v>
   <v>       0.00291545 </v>
   <v>       0.00291545 </v>
   <v>       0.00291545 </v>
   <v>       0.00291545 </v>
   <v>       0.00291545 </v>
   <v>       0.00291545 </v>
   <v>       0.00291545 </v>
   <v>       0.00291545 </v>
   <v>       0.00291545 </v>
   <v>       0.00291545 </v>
   <v>       0.00291545 </v>
   <v>       0.00291545 </v>
   <v>       0.00291545 </v>
   <v>       0.00291545 </v>
   <v>       0.00291545 </v>
   <v>       0.00291545 </v>
   <v>       0.00291545 </v>
   <v>       0.00291545 </v>
   <v>       0.00291545 </v>
   <v>       0.00291545 </v>
   <v>       0.00291545 </v>
   <v>       0.00291545 </v>
   <v>       0.00291545 </v>
   <v>       0.00291545 </v>
   <v>       0.00291545 </v>
   <v>       0.00291545 </v>
   <v>       0.00291545 </v>
   <v>       0.00291545 </v>
   <v>       0.00291545 </v>
   <v>       0.00291545 </v>
   <v>       0.00291545 </v>
   <v>       0.00291545 </v>
   <v>       0.00291545 </v>
   <v>       0.00291545 </v>
   <v>       0.00291545 </v>
   <v>       0.00291545 </v>
   <v>       0.00291545 </v>
   <v>       0.00291545 </v>
   <v>       0.00291545 </v>
   <v>       0.00291545 </v>
   <v>       0.00291545 </v>
   <v>       0.00291545 </v>
   <v>       0.00291545 </v>
   <v>       0.00291545 </v>
   <v>       0.00291545 </v>
   <v>       0.00291545 </v>
   <v>       0.00291545 </v>
   <v>       0.00291545 </v>
   <v>       0.00291545 </v>
   <v>       0.00291545 </v>
   <v>       0.00291545 </v>
   <v>       0.00291545 </v>
   <v>       0.00291545 </v>
   <v>       0.00291545 </v>
   <v>       0.00291545 </v>
   <v>       0.00291545 </v>
   <v>       0.00291545 </v>
   <v>       0.00291545 </v>
   <v>       0.00291545 </v>
   <v>       0.00291545 </v>
   <v>       0.00291545 </v>
   <v>       0.00291545 </v>
   <v>       0.00291545 </v>
   <v>       0.00291545 </v>
   <v>       0.00291545 </v>
   <v>       0.00291545 </v>
   <v>       0.00291545 </v>
   <v>       0.00291545 </v>
   <v>       0.00291545 </v>
   <v>       0.00291545 </v>
   <v>       0.00291545 </v>
   <v>       0.00291545 </v>
   <v>       0.00291545 </v>
   <v>       0.00291545 </v>
  </varray>
 </kpoints>
 <parameters>
  <separator name="general" >
   <i type="string" name="SYSTEM">Og_FCC</i>
   <i type="logical" name="LCOMPAT"> F  </i>
  </separator>
  <separator name="electronic" >
   <i type="string" name="PREC">accura</i>
   <i name="ENMAX">    300.00000000</i>
   <i name="ENAUG">    361.02500000</i>
   <i name="EDIFF">      0.00000001</i>
   <i type="int" name="IALGO">    38</i>
   <i type="int" name="IWAVPR">    10</i>
   <i type="int" name="NBANDS">    32</i>
   <i name="NELECT">     18.00000000</i>
   <i type="int" name="TURBO">     0</i>
   <i type="int" name="IRESTART">     0</i>
   <i type="int" name="NREBOOT">     0</i>
   <i type="int" name="NMIN">     0</i>
   <i name="EREF">      0.00000000</i>
   <separator name="electronic smearing" >
    <i type="int" name="ISMEAR">     0</i>
    <i name="SIGMA">      0.00100000</i>
    <i name="KSPACING">      0.50000000</i>
    <i type="logical" name="KGAMMA"> T  </i>
   </separator>
   <separator name="electronic projectors" >
    <i type="logical" name="LREAL"> F  </i>
    <v name="ROPT">      0.00000000</v>
    <i type="int" name="LMAXPAW">  -100</i>
    <i type="int" name="LMAXMIX">     2</i>
    <i type="logical" name="NLSPLINE"> F  </i>
   </separator>
   <separator name="electronic startup" >
    <i type="int" name="ISTART">     0</i>
    <i type="int" name="ICHARG">     2</i>
    <i type="int" name="INIWAV">     1</i>
   </separator>
   <separator name="electronic spin" >
    <i type="int" name="ISPIN">     1</i>
    <i type="logical" name="LNONCOLLINEAR"> T  </i>
    <v name="MAGMOM">      1.00000000      1.00000000      1.00000000</v>
    <i name="NUPDOWN">     -1.00000000</i>
    <i type="logical" name="LSORBIT"> T  </i>
    <v name="SAXIS">      0.00000000      0.00000000      1.00000000</v>
    <i type="logical" name="LSPIRAL"> F  </i>
    <v name="QSPIRAL">      0.00000000      0.00000000      0.00000000</v>
    <i type="logical" name="LZEROZ"> F  </i>
   </separator>
   <separator name="electronic exchange-correlation" >
    <i type="logical" name="LASPH"> F  </i>
    <i type="logical" name="LMETAGGA"> F  </i>
   </separator>
   <separator name="electronic convergence" >
    <i type="int" name="NELM">    50</i>
    <i type="int" name="NELMDL">    -5</i>
    <i type="int" name="NELMIN">     2</i>
    <i name="ENINI">    300.00000000</i>
    <separator name="electronic convergence detail" >
     <i type="logical" name="LDIAG"> T  </i>
     <i type="logical" name="LSUBROT"> F  </i>
     <i name="WEIMIN">      0.00000000</i>
     <i name="EBREAK">      0.00000000</i>
     <i name="DEPER">      0.30000000</i>
     <i type="int" name="NRMM">     4</i>
     <i name="TIME">      0.40000000</i>
    </separator>
   </separator>
   <separator name="electronic mixer" >
    <i name="AMIX">      0.40000000</i>
    <i name="BMIX">      1.00000000</i>
    <i name="AMIN">      0.10000000</i>
    <i name="AMIX_MAG">      1.60000000</i>
    <i name="BMIX_MAG">      1.00000000</i>
    <separator name="electronic mixer details" >
     <i type="int" name="IMIX">     4</i>
     <i type="logical" name="MIXFIRST"> F  </i>
     <i type="int" name="MAXMIX">    50</i>
     <i name="WC">    100.00000000</i>
     <i type="int" name="INIMIX">     1</i>
     <i type="int" name="MIXPRE">     1</i>
     <i type="int" name="MREMOVE">     5</i>
    </separator>
   </separator>
   <separator name="electronic dipolcorrection" >
    <i type="logical" name="LDIPOL"> F  </i>
    <i type="logical" name="LMONO"> F  </i>
    <i type="int" name="IDIPOL">     0</i>
    <i name="EPSILON">      1.00000000</i>
    <v name="DIPOL">   -100.00000000   -100.00000000   -100.00000000</v>
    <i name="EFIELD">      0.00000000</i>
   </separator>
  </separator>
  <separator name="grids" >
   <i type="int" name="NGX">    28</i>
   <i type="int" name="NGY">    28</i>
   <i type="int" name="NGZ">    28</i>
   <i type="int" name="NGXF">    56</i>
   <i type="int" name="NGYF">    56</i>
   <i type="int" name="NGZF">    56</i>
   <i type="logical" name="ADDGRID"> T  </i>
  </separator>
  <separator name="ionic" >
   <i type="int" name="NSW">     1</i>
   <i type="int" name="IBRION">    -1</i>
   <i type="int" name="MDALGO">     0</i>
   <i type="int" name="ISIF">     3</i>
   <i name="PSTRESS">      0.00000000</i>
   <i name="EDIFFG">      0.00001000</i>
   <i type="int" name="NFREE">     5</i>
   <i name="POTIM">      0.10000000</i>
   <i name="SMASS">     -3.00000000</i>
   <i name="SCALEE">      1.00000000</i>
  </separator>
  <separator name="ionic md" >
   <i name="TEBEG">      0.00010000</i>
   <i name="TEEND">      0.00010000</i>
   <i type="int" name="NBLOCK">     1</i>
   <i type="int" name="KBLOCK">     1</i>
   <i type="int" name="NPACO">   256</i>
   <i name="APACO">     16.00000000</i>
  </separator>
  <separator name="symmetry" >
   <i type="int" name="ISYM">     0</i>
   <i name="SYMPREC">      0.00000010</i>
  </separator>
  <separator name="dos" >
   <i type="int" name="LORBIT">     0</i>
   <v name="RWIGS">     -1.00000000</v>
   <i type="int" name="NEDOS">   301</i>
   <i name="EMIN">     10.00000000</i>
   <i name="EMAX">    -10.00000000</i>
   <i name="EFERMI">      0.00000000</i>
  </separator>
  <separator name="writing" >
   <i type="int" name="NWRITE">     2</i>
   <i type="logical" name="LWAVE"> T  </i>
   <i type="logical" name="LDOWNSAMPLE"> F  </i>
   <i type="logical" name="LCHARG"> F  </i>
   <i type="logical" name="LPARD"> F  </i>
   <i type="logical" name="LVTOT"> F  </i>
   <i type="logical" name="LVHAR"> F  </i>
   <i type="logical" name="LELF"> F  </i>
   <i type="logical" name="LOPTICS"> T  </i>
   <v name="STM">      0.00000000      0.00000000      0.00000000      0.00000000      0.00000000      0.00000000      0.00000000</v>
  </separator>
  <separator name="performance" >
   <i type="int" name="NPAR">     8</i>
   <i type="int" name="NSIM">     4</i>
   <i type="int" name="NBLK">    -1</i>
   <i type="logical" name="LPLANE"> T  </i>
   <i type="logical" name="LSCALAPACK"> T  </i>
   <i type="logical" name="LSCAAWARE"> T  </i>
   <i type="logical" name="LSCALU"> F  </i>
   <i type="logical" name="LASYNC"> F  </i>
   <i type="logical" name="LORBITALREAL"> F  </i>
  </separator>
  <separator name="miscellaneous" >
   <i type="int" name="IDIOT">     3</i>
   <i type="int" name="ISPECIAL">     0</i>
   <i type="logical" name="LMUSIC"> F  </i>
   <v name="POMASS">      0.01000000</v>
   <v name="DARWINR">      0.00000000</v>
   <v name="DARWINV">      1.00000000</v>
   <i type="logical" name="LCORR"> T  </i>
  </separator>
  <i type="logical" name="GGA_COMPAT"> F  </i>
  <i type="logical" name="LBERRY"> F  </i>
  <i type="int" name="ICORELEVEL">     0</i>
  <i type="logical" name="LDAU"> F  </i>
  <i type="int" name="I_CONSTRAINED_M">     0</i>
  <separator name="electronic exchange-correlation" >
   <i type="string" name="GGA">PE</i>
   <i type="int" name="VOSKOWN">     0</i>
   <i type="logical" name="LHFCALC"> F  </i>
   <i type="string" name="PRECFOCK"></i>
   <i type="logical" name="LSYMGRAD"> F  </i>
   <i type="logical" name="LHFONE"> F  </i>
   <i type="logical" name="LRHFCALC"> F  </i>
   <i type="logical" name="LTHOMAS"> F  </i>
   <i type="logical" name="LMODELHF"> F  </i>
   <i name="ENCUT4O">     -1.00000000</i>
   <i type="int" name="EXXOEP">     0</i>
   <i type="int" name="FOURORBIT">     0</i>
   <i name="AEXX">      0.00000000</i>
   <i name="HFALPHA">      0.00000000</i>
   <i name="MCALPHA">      0.00000000</i>
   <i name="ALDAX">      1.00000000</i>
   <i name="AGGAX">      1.00000000</i>
   <i name="ALDAC">      1.00000000</i>
   <i name="AGGAC">      1.00000000</i>
   <i type="int" name="NKREDX">     1</i>
   <i type="int" name="NKREDY">     1</i>
   <i type="int" name="NKREDZ">     1</i>
   <i type="logical" name="SHIFTRED"> F  </i>
   <i type="logical" name="ODDONLY"> F  </i>
   <i type="logical" name="EVENONLY"> F  </i>
   <i type="int" name="LMAXFOCK">     0</i>
   <i type="int" name="NMAXFOCKAE">     0</i>
   <i type="logical" name="LFOCKAEDFT"> F  </i>
   <i name="HFSCREEN">      0.00000000</i>
   <i name="HFSCREENC">      0.00000000</i>
   <i type="int" name="NBANDSGWLOW">     0</i>
  </separator>
  <separator name="vdW DFT" >
   <i type="logical" name="LUSE_VDW"> F  </i>
   <i name="Zab_VDW">     -0.84910000</i>
   <i name="PARAM1">      0.12340000</i>
   <i name="PARAM2">      1.00000000</i>
   <i name="PARAM3">      0.00000000</i>
  </separator>
  <separator name="model GW" >
   <i type="int" name="MODEL_GW">     0</i>
   <i name="MODEL_EPS0">     34.73837436</i>
   <i name="MODEL_ALPHA">      1.00000000</i>
  </separator>
  <separator name="linear response parameters" >
   <i type="logical" name="LEPSILON"> F  </i>
   <i type="logical" name="LRPA"> F  </i>
   <i type="logical" name="LNABLA"> F  </i>
   <i type="logical" name="LVEL"> F  </i>
   <i type="int" name="KINTER">     0</i>
   <i name="CSHIFT">      0.10000000</i>
   <i name="OMEGAMAX">     -1.00000000</i>
   <i name="DEG_THRESHOLD">      0.00200000</i>
   <i name="RTIME">     -0.10000000</i>
   <i name="WPLASMAI">      0.00000000</i>
   <v name="DFIELD">      0.00000000      0.00000000      0.00000000</v>
   <v name="WPLASMA">      0.00000000      0.00000000      0.00000000      0.00000000      0.00000000      0.00000000      0.00000000      0.00000000      0.00000000</v>
  </separator>
  <separator name="orbital magnetization" >
   <i type="logical" name="NUCIND"> F  </i>
   <v name="MAGPOS">      0.00000000      0.00000000      0.00000000</v>
   <i type="logical" name="LNICSALL"> T  </i>
   <i type="logical" name="ORBITALMAG"> F  </i>
   <i type="logical" name="LMAGBLOCH"> F  </i>
   <i type="logical" name="LCHIMAG"> F  </i>
   <i type="logical" name="LGAUGE"> T  </i>
   <i type="int" name="MAGATOM">     0</i>
   <v name="MAGDIPOL">      0.00000000      0.00000000      0.00000000</v>
   <v name="AVECCONST">      0.00000000      0.00000000      0.00000000</v>
  </separator>
  <separator name="response functions" >
   <i type="logical" name="LADDER"> F  </i>
   <i type="logical" name="LRPAFORCE"> F  </i>
   <i type="logical" name="LFXC"> F  </i>
   <i type="logical" name="LHARTREE"> T  </i>
   <i type="int" name="IBSE">     0</i>
   <v type="int" name="KPOINT">    -1     0     0     0</v>
   <i type="logical" name="LTCTE"> F  </i>
   <i type="logical" name="LTETE"> F  </i>
   <i type="logical" name="LTRIPLET"> F  </i>
   <i type="logical" name="LFXCEPS"> F  </i>
   <i type="logical" name="LFXHEG"> F  </i>
   <i type="int" name="NATURALO">     2</i>
   <i type="logical" name="L2ORDER"> F  </i>
   <i type="logical" name="LMP2LT"> F  </i>
   <i type="logical" name="LUSEW"> F  </i>
   <i name="ENCUTGW">     -2.00000000</i>
   <i name="ENCUTGWSOFT">     -2.00000000</i>
   <i name="ENCUTLF">     -1.00000000</i>
   <i type="int" name="LMAXMP2">    -1</i>
   <i name="SCISSOR">      0.00000000</i>
   <i type="int" name="NOMEGA">     0</i>
   <i type="int" name="NOMEGAR">     0</i>
   <i type="int" name="NBANDSGW">    -1</i>
   <i type="int" name="NBANDSO">    -1</i>
   <i type="int" name="NBANDSV">    -1</i>
   <i type="int" name="NELM">    50</i>
   <i type="int" name="NELMHF">     1</i>
   <i type="int" name="DIM">     3</i>
   <i type="int" name="ANTIRES">     0</i>
   <i name="OMEGAMAX">    -30.00000000</i>
   <i name="OMEGAMIN">    -30.00000000</i>
   <i name="OMEGATL">   -200.00000000</i>
   <i type="int" name="OMEGAGRID">   140</i>
   <i name="CSHIFT">     -0.10000000</i>
   <i type="logical" name="SELFENERGY"> F  </i>
   <i type="logical" name="LSPECTRAL"> F  </i>
   <i type="logical" name="LSPECTRALGW"> F  </i>
   <i type="logical" name="LSINGLES"> F  </i>
   <i type="logical" name="LFERMIGW"> F  </i>
   <i type="logical" name="ODDONLYGW"> F  </i>
   <i type="logical" name="EVENONLYGW"> F  </i>
   <i type="int" name="NKREDLFX">     1</i>
   <i type="int" name="NKREDLFY">     1</i>
   <i type="int" name="NKREDLFZ">     1</i>
   <i type="int" name="MAXMEM">  2800</i>
   <i type="int" name="TELESCOPE">     0</i>
   <i type="int" name="TAUPAR">     1</i>
   <i type="int" name="OMEGAPAR">    -1</i>
   <i name="LAMBDA">      1.00000000</i>
  </separator>
  <separator name="External order field" >
   <i name="OFIELD_KAPPA">      0.00000000</i>
   <v name="OFIELD_K">      0.00000000      0.00000000      0.00000000</v>
   <i name="OFIELD_Q6_NEAR">      0.00000000</i>
   <i name="OFIELD_Q6_FAR">      0.00000000</i>
   <i name="OFIELD_A">      0.00000000</i>
  </separator>
 </parameters>
 <atominfo>
  <atoms>       1 </atoms>
  <types>       1 </types>
  <array name="atoms" >
   <dimension dim="1">ion</dimension>
   <field type="string">element</field>
   <field type="int">atomtype</field>
   <set>
    <rc><c>Og</c><c>   1</c></rc>
   </set>
  </array>
  <array name="atomtypes" >
   <dimension dim="1">type</dimension>
   <field type="int">atomspertype</field>
   <field type="string">element</field>
   <field>mass</field>
   <field>valence</field>
   <field type="string">pseudopotential</field>
   <set>
    <rc><c>   1</c><c>Og</c><c>      0.01000000</c><c>     18.00000000</c><c>  PAW Og, JanMewes Oct 18               </c></rc>
   </set>
  </array>
 </atominfo>
 <structure name="initialpos" >
  <crystal>
   <varray name="basis" >
    <v>       4.34234588       0.00000000       0.00000000 </v>
    <v>       2.17117294       3.76058184      -0.00000000 </v>
    <v>       2.17117294       1.25352728       3.54551056 </v>
   </varray>
   <i name="volume">     57.89729060 </i>
   <varray name="rec_basis" >
    <v>       0.23029027      -0.13295815      -0.09401561 </v>
    <v>       0.00000000       0.26591630      -0.09401561 </v>
    <v>      -0.00000000       0.00000000       0.28204683 </v>
   </varray>
  </crystal>
  <varray name="positions" >
   <v>       0.00000000       0.00000000       0.00000000 </v>
  </varray>
  <varray name="velocities" >
   <v>       0.00000000       0.00000000       0.00000000 </v>
  </varray>
 </structure>
 <calculation>
  <scstep>
   <time name="dav">    3.83    3.83</time>
   <time name="total">    3.94    3.94</time>
   <energy>
    <i name="alphaZ">     65.89697999 </i>
    <i name="ewald">  -1741.63824267 </i>
    <i name="hartreedc">   -659.90666889 </i>
    <i name="XCdc">    -69.15713524 </i>
    <i name="pawpsdc">   2268.28454800 </i>
    <i name="pawaedc">  -2184.08492831 </i>
    <i name="eentropy">     -0.00000027 </i>
    <i name="bandstr">   -175.51723571 </i>
    <i name="atom">   2639.90492407 </i>
    <i name="e_fr_energy">    143.78224097 </i>
    <i name="e_wo_entrp">    143.78224124 </i>
    <i name="e_0_energy">    143.78224110 </i>
   </energy>
  </scstep>
  <scstep>
   <time name="dav">    3.39    3.39</time>
   <time name="total">    3.39    3.39</time>
   <energy>
    <i name="e_fr_energy">     -9.04588069 </i>
    <i name="e_wo_entrp">     -9.04588069 </i>
    <i name="e_0_energy">     -9.04588069 </i>
   </energy>
  </scstep>
  <scstep>
   <time name="dav">    3.50    3.50</time>
   <time name="total">    3.51    3.51</time>
   <energy>
    <i name="e_fr_energy">    -13.08106860 </i>
    <i name="e_wo_entrp">    -13.08106860 </i>
    <i name="e_0_energy">    -13.08106860 </i>
   </energy>
  </scstep>
  <scstep>
   <time name="dav">    3.78    3.78</time>
   <time name="total">    3.78    3.78</time>
   <energy>
    <i name="e_fr_energy">    -13.23106580 </i>
    <i name="e_wo_entrp">    -13.23106580 </i>
    <i name="e_0_energy">    -13.23106580 </i>
   </energy>
  </scstep>
  <scstep>
   <time name="dav">    3.70    3.70</time>
   <time name="total">    3.82    3.81</time>
   <energy>
    <i name="e_fr_energy">    -13.23574711 </i>
    <i name="e_wo_entrp">    -13.23574711 </i>
    <i name="e_0_energy">    -13.23574711 </i>
   </energy>
  </scstep>
  <scstep>
   <time name="dav">    3.29    3.29</time>
   <time name="total">    3.50    3.50</time>
   <energy>
    <i name="e_fr_energy">    -13.15757845 </i>
    <i name="e_wo_entrp">    -13.15757845 </i>
    <i name="e_0_energy">    -13.15757845 </i>
   </energy>
  </scstep>
  <scstep>
   <time name="dav">    3.08    3.08</time>
   <time name="total">    3.29    3.29</time>
   <energy>
    <i name="e_fr_energy">    -13.16361785 </i>
    <i name="e_wo_entrp">    -13.16361785 </i>
    <i name="e_0_energy">    -13.16361785 </i>
   </energy>
  </scstep>
  <scstep>
   <time name="dav">    3.30    3.30</time>
   <time name="total">    3.51    3.50</time>
   <energy>
    <i name="e_fr_energy">    -13.17628532 </i>
    <i name="e_wo_entrp">    -13.17628532 </i>
    <i name="e_0_energy">    -13.17628532 </i>
   </energy>
  </scstep>
  <scstep>
   <time name="dav">    3.22    3.22</time>
   <time name="total">    3.43    3.43</time>
   <energy>
    <i name="e_fr_energy">    -13.18218800 </i>
    <i name="e_wo_entrp">    -13.18218648 </i>
    <i name="e_0_energy">    -13.18218724 </i>
   </energy>
  </scstep>
  <scstep>
   <time name="dav">    3.42    3.41</time>
   <time name="total">    3.62    3.62</time>
   <energy>
    <i name="e_fr_energy">    -13.18302379 </i>
    <i name="e_wo_entrp">    -13.18302250 </i>
    <i name="e_0_energy">    -13.18302314 </i>
   </energy>
  </scstep>
  <scstep>
   <time name="dav">    3.39    3.39</time>
   <time name="total">    3.60    3.60</time>
   <energy>
    <i name="e_fr_energy">    -13.18306897 </i>
    <i name="e_wo_entrp">    -13.18306726 </i>
    <i name="e_0_energy">    -13.18306811 </i>
   </energy>
  </scstep>
  <scstep>
   <time name="dav">    3.13    3.13</time>
   <time name="total">    3.34    3.34</time>
   <energy>
    <i name="e_fr_energy">    -13.18311676 </i>
    <i name="e_wo_entrp">    -13.18311552 </i>
    <i name="e_0_energy">    -13.18311614 </i>
   </energy>
  </scstep>
  <scstep>
   <time name="dav">    3.38    3.38</time>
   <time name="total">    3.59    3.59</time>
   <energy>
    <i name="e_fr_energy">    -13.18312333 </i>
    <i name="e_wo_entrp">    -13.18312257 </i>
    <i name="e_0_energy">    -13.18312295 </i>
   </energy>
  </scstep>
  <scstep>
   <time name="dav">    4.06    4.06</time>
   <time name="total">    4.28    4.28</time>
   <energy>
    <i name="e_fr_energy">    -13.18312327 </i>
    <i name="e_wo_entrp">    -13.18312268 </i>
    <i name="e_0_energy">    -13.18312298 </i>
   </energy>
  </scstep>
  <scstep>
   <time name="dav">    3.18    3.17</time>
   <time name="total">    3.39    3.39</time>
   <energy>
    <i name="e_fr_energy">    -13.18312268 </i>
    <i name="e_wo_entrp">    -13.18312223 </i>
    <i name="e_0_energy">    -13.18312245 </i>
   </energy>
  </scstep>
  <scstep>
   <time name="dav">    3.19    3.19</time>
   <time name="total">    3.40    3.40</time>
   <energy>
    <i name="e_fr_energy">    -13.18312213 </i>
    <i name="e_wo_entrp">    -13.18312178 </i>
    <i name="e_0_energy">    -13.18312195 </i>
   </energy>
  </scstep>
  <scstep>
   <time name="dav">    2.93    2.93</time>
   <time name="total">    3.14    3.14</time>
   <energy>
    <i name="e_fr_energy">    -13.18312228 </i>
    <i name="e_wo_entrp">    -13.18312190 </i>
    <i name="e_0_energy">    -13.18312209 </i>
   </energy>
  </scstep>
  <scstep>
   <time name="dav">    2.92    2.92</time>
   <time name="total">    3.13    3.13</time>
   <energy>
    <i name="e_fr_energy">    -13.18312243 </i>
    <i name="e_wo_entrp">    -13.18312204 </i>
    <i name="e_0_energy">    -13.18312224 </i>
   </energy>
  </scstep>
  <scstep>
   <time name="dav">    2.87    2.87</time>
   <time name="total">    3.09    3.08</time>
   <energy>
    <i name="e_fr_energy">    -13.18312249 </i>
    <i name="e_wo_entrp">    -13.18312211 </i>
    <i name="e_0_energy">    -13.18312230 </i>
   </energy>
  </scstep>
  <scstep>
   <time name="dav">    2.88    2.88</time>
   <time name="total">    3.10    3.09</time>
   <energy>
    <i name="e_fr_energy">    -13.18312258 </i>
    <i name="e_wo_entrp">    -13.18312221 </i>
    <i name="e_0_energy">    -13.18312240 </i>
   </energy>
  </scstep>
  <scstep>
   <time name="dav">    2.90    2.90</time>
   <time name="total">    3.11    3.11</time>
   <energy>
    <i name="e_fr_energy">    -13.18312264 </i>
    <i name="e_wo_entrp">    -13.18312227 </i>
    <i name="e_0_energy">    -13.18312245 </i>
   </energy>
  </scstep>
  <scstep>
   <time name="dav">    2.90    2.90</time>
   <time name="total">    3.11    3.11</time>
   <energy>
    <i name="e_fr_energy">    -13.18312261 </i>
    <i name="e_wo_entrp">    -13.18312224 </i>
    <i name="e_0_energy">    -13.18312243 </i>
   </energy>
  </scstep>
  <scstep>
   <time name="dav">    2.92    2.92</time>
   <time name="total">    3.13    3.13</time>
   <energy>
    <i name="e_fr_energy">    -13.18312257 </i>
    <i name="e_wo_entrp">    -13.18312221 </i>
    <i name="e_0_energy">    -13.18312239 </i>
   </energy>
  </scstep>
  <scstep>
   <time name="dav">    2.88    2.88</time>
   <time name="total">    3.10    3.09</time>
   <energy>
    <i name="e_fr_energy">    -13.18312255 </i>
    <i name="e_wo_entrp">    -13.18312218 </i>
    <i name="e_0_energy">    -13.18312237 </i>
   </energy>
  </scstep>
  <scstep>
   <time name="dav">    2.86    2.86</time>
   <time name="total">    3.08    3.08</time>
   <energy>
    <i name="e_fr_energy">    -13.18312254 </i>
    <i name="e_wo_entrp">    -13.18312217 </i>
    <i name="e_0_energy">    -13.18312236 </i>
   </energy>
  </scstep>
  <scstep>
   <time name="dav">    2.86    2.87</time>
   <time name="total">    2.97    2.97</time>
   <energy>
    <i name="alphaZ">     65.89697999 </i>
    <i name="ewald">  -1741.63824267 </i>
    <i name="hartreedc">   -672.04214851 </i>
    <i name="XCdc">    -68.73353701 </i>
    <i name="pawpsdc">   2336.02996103 </i>
    <i name="pawaedc">  -2260.63369404 </i>
    <i name="eentropy">     -0.00000037 </i>
    <i name="bandstr">   -311.96736503 </i>
    <i name="atom">   2639.90492407 </i>
    <i name="e_fr_energy">    -13.18312254 </i>
    <i name="e_wo_entrp">    -13.18312217 </i>
    <i name="e_0_energy">    -13.18312235 </i>
   </energy>
  </scstep>
  <structure>
   <crystal>
    <varray name="basis" >
     <v>       4.34234588       0.00000000       0.00000000 </v>
     <v>       2.17117294       3.76058184      -0.00000000 </v>
     <v>       2.17117294       1.25352728       3.54551056 </v>
    </varray>
    <i name="volume">     57.89729060 </i>
    <varray name="rec_basis" >
     <v>       0.23029027      -0.13295815      -0.09401561 </v>
     <v>       0.00000000       0.26591630      -0.09401561 </v>
     <v>      -0.00000000       0.00000000       0.28204683 </v>
    </varray>
   </crystal>
   <varray name="positions" >
    <v>       0.00000000       0.00000000       0.00000000 </v>
   </varray>
  </structure>
  <varray name="forces" >
   <v>      -0.00001888       0.00000594      -0.00000041 </v>
  </varray>
  <varray name="stress" >
   <v>    -146.40335155      -0.00008238      -0.00007310 </v>
   <v>      -0.00008196    -146.40332199      -0.00006478 </v>
   <v>      -0.00007279      -0.00006499    -146.40331605 </v>
  </varray>
  <energy>
   <i name="e_fr_energy">    -13.62308463 </i>
   <i name="e_wo_entrp">    -13.62308445 </i>
   <i name="e_0_energy">     -0.00000037 </i>
  </energy>
  <time name="totalsc">   91.40   91.91</time>
  <eigenvalues>
   <array>
    <dimension dim="1">band</dimension>
    <dimension dim="2">kpoint</dimension>
    <dimension dim="3">spin</dimension>
    <field>eigene</field>
    <field>occ</field>
    <set>
     <set comment="spin 1">
      <set comment="kpoint 1">
       <r>  -30.4707    1.0000 </r>
       <r>  -30.4706    1.0000 </r>
       <r>  -30.4705    1.0000 </r>
       <r>  -30.4705    1.0000 </r>
       <r>  -23.8041    1.0000 </r>
       <r>  -23.8039    1.0000 </r>
       <r>  -23.8037    1.0000 </r>
       <r>  -23.8034    1.0000 </r>
       <r>  -23.8029    1.0000 </r>
       <r>  -23.8024    1.0000 </r>
       <r>  -20.2090    1.0000 </r>
       <r>  -20.2085    1.0000 </r>
       <r>   -6.9151    1.0000 </r>
       <r>   -6.9144    1.0000 </r>
       <r>    3.7127    1.0000 </r>
       <r>    3.7130    1.0000 </r>
       <r>    3.9597    0.9831 </r>
       <r>    3.9598    0.9805 </r>
       <r>    3.9627    0.0195 </r>
       <r>    3.9627    0.0169 </r>
       <r>   10.8785    0.0000 </r>
       <r>   10.8787    0.0000 </r>
       <r>   10.8791    0.0000 </r>
       <r>   10.8792    0.0000 </r>
       <r>   11.1160    0.0000 </r>
       <r>   11.1164    0.0000 </r>
       <r>   11.3029    0.0000 </r>
       <r>   11.3038    0.0000 </r>
       <r>   13.2158    0.0000 </r>
       <r>   13.2176    0.0000 </r>
       <r>   13.5205    0.0000 </r>
       <r>   13.5209    0.0000 </r>
      </set>
      <set comment="kpoint 2">
       <r>  -30.4493    1.0000 </r>
       <r>  -30.4492    1.0000 </r>
       <r>  -30.4471    1.0000 </r>
       <r>  -30.4471    1.0000 </r>
       <r>  -23.7893    1.0000 </r>
       <r>  -23.7892    1.0000 </r>
       <r>  -23.7883    1.0000 </r>
       <r>  -23.7879    1.0000 </r>
       <r>  -23.7868    1.0000 </r>
       <r>  -23.7863    1.0000 </r>
       <r>  -20.1881    1.0000 </r>
       <r>  -20.1876    1.0000 </r>
       <r>   -6.9836    1.0000 </r>
       <r>   -6.9829    1.0000 </r>
       <r>    2.3998    1.0000 </r>
       <r>    2.4001    1.0000 </r>
       <r>    3.8419    1.0000 </r>
       <r>    3.8425    1.0000 </r>
       <r>    5.3246    0.0000 </r>
       <r>    5.3248    0.0000 </r>
       <r>    9.8868    0.0000 </r>
       <r>    9.8870    0.0000 </r>
       <r>   11.0420    0.0000 </r>
       <r>   11.0421    0.0000 </r>
       <r>   11.3468    0.0000 </r>
       <r>   11.3473    0.0000 </r>
       <r>   12.2951    0.0000 </r>
       <r>   12.2958    0.0000 </r>
       <r>   12.5739    0.0000 </r>
       <r>   12.5752    0.0000 </r>
       <r>   12.7302    0.0000 </r>
       <r>   12.7304    0.0000 </r>
      </set>
      <set comment="kpoint 3">
       <r>  -30.4560    1.0000 </r>
       <r>  -30.4560    1.0000 </r>
       <r>  -30.4538    1.0000 </r>
       <r>  -30.4538    1.0000 </r>
       <r>  -23.7931    1.0000 </r>
       <r>  -23.7927    1.0000 </r>
       <r>  -23.7914    1.0000 </r>
       <r>  -23.7910    1.0000 </r>
       <r>  -23.7891    1.0000 </r>
       <r>  -23.7890    1.0000 </r>
       <r>  -20.1415    1.0000 </r>
       <r>  -20.1410    1.0000 </r>
       <r>   -7.1382    1.0000 </r>
       <r>   -7.1375    1.0000 </r>
       <r>    1.3420    1.0000 </r>
       <r>    1.3424    1.0000 </r>
       <r>    3.5979    1.0000 </r>
       <r>    3.5985    1.0000 </r>
       <r>    6.1442    0.0000 </r>
       <r>    6.1446    0.0000 </r>
       <r>   10.1167    0.0000 </r>
       <r>   10.1168    0.0000 </r>
       <r>   10.7706    0.0000 </r>
       <r>   10.7707    0.0000 </r>
       <r>   11.1815    0.0000 </r>
       <r>   11.1825    0.0000 </r>
       <r>   11.4022    0.0000 </r>
       <r>   11.4028    0.0000 </r>
       <r>   12.9062    0.0000 </r>
       <r>   12.9064    0.0000 </r>
       <r>   13.1598    0.0000 </r>
       <r>   13.1600    0.0000 </r>
      </set>
      <set comment="kpoint 4">
       <r>  -30.4609    1.0000 </r>
       <r>  -30.4608    1.0000 </r>
       <r>  -30.4477    1.0000 </r>
       <r>  -30.4477    1.0000 </r>
       <r>  -23.7962    1.0000 </r>
       <r>  -23.7961    1.0000 </r>
       <r>  -23.7879    1.0000 </r>
       <r>  -23.7878    1.0000 </r>
       <r>  -23.7844    1.0000 </r>
       <r>  -23.7843    1.0000 </r>
       <r>  -20.1033    1.0000 </r>
       <r>  -20.1028    1.0000 </r>
       <r>   -7.2629    1.0000 </r>
       <r>   -7.2622    1.0000 </r>
       <r>    0.7875    1.0000 </r>
       <r>    0.7879    1.0000 </r>
       <r>    3.4216    1.0000 </r>
       <r>    3.4221    1.0000 </r>
       <r>    6.2202    0.0000 </r>
       <r>    6.2206    0.0000 </r>
       <r>   10.3725    0.0000 </r>
       <r>   10.3726    0.0000 </r>
       <r>   10.5586    0.0000 </r>
       <r>   10.5591    0.0000 </r>
       <r>   10.7798    0.0000 </r>
       <r>   10.7810    0.0000 </r>
       <r>   11.8083    0.0000 </r>
       <r>   11.8084    0.0000 </r>
       <r>   14.2443    0.0000 </r>
       <r>   14.2447    0.0000 </r>
       <r>   14.4522    0.0000 </r>
       <r>   14.4523    0.0000 </r>
      </set>
      <set comment="kpoint 5">
       <r>  -30.4609    1.0000 </r>
       <r>  -30.4608    1.0000 </r>
       <r>  -30.4477    1.0000 </r>
       <r>  -30.4477    1.0000 </r>
       <r>  -23.7962    1.0000 </r>
       <r>  -23.7961    1.0000 </r>
       <r>  -23.7879    1.0000 </r>
       <r>  -23.7878    1.0000 </r>
       <r>  -23.7844    1.0000 </r>
       <r>  -23.7843    1.0000 </r>
       <r>  -20.1033    1.0000 </r>
       <r>  -20.1028    1.0000 </r>
       <r>   -7.2629    1.0000 </r>
       <r>   -7.2622    1.0000 </r>
       <r>    0.7875    1.0000 </r>
       <r>    0.7879    1.0000 </r>
       <r>    3.4216    1.0000 </r>
       <r>    3.4221    1.0000 </r>
       <r>    6.2202    0.0000 </r>
       <r>    6.2206    0.0000 </r>
       <r>   10.3725    0.0000 </r>
       <r>   10.3726    0.0000 </r>
       <r>   10.5586    0.0000 </r>
       <r>   10.5591    0.0000 </r>
       <r>   10.7798    0.0000 </r>
       <r>   10.7810    0.0000 </r>
       <r>   11.8083    0.0000 </r>
       <r>   11.8084    0.0000 </r>
       <r>   14.2443    0.0000 </r>
       <r>   14.2447    0.0000 </r>
       <r>   14.4522    0.0000 </r>
       <r>   14.4523    0.0000 </r>
      </set>
      <set comment="kpoint 6">
       <r>  -30.4560    1.0000 </r>
       <r>  -30.4560    1.0000 </r>
       <r>  -30.4538    1.0000 </r>
       <r>  -30.4538    1.0000 </r>
       <r>  -23.7931    1.0000 </r>
       <r>  -23.7927    1.0000 </r>
       <r>  -23.7914    1.0000 </r>
       <r>  -23.7910    1.0000 </r>
       <r>  -23.7891    1.0000 </r>
       <r>  -23.7890    1.0000 </r>
       <r>  -20.1415    1.0000 </r>
       <r>  -20.1410    1.0000 </r>
       <r>   -7.1382    1.0000 </r>
       <r>   -7.1375    1.0000 </r>
       <r>    1.3420    1.0000 </r>
       <r>    1.3424    1.0000 </r>
       <r>    3.5979    1.0000 </r>
       <r>    3.5985    1.0000 </r>
       <r>    6.1442    0.0000 </r>
       <r>    6.1446    0.0000 </r>
       <r>   10.1167    0.0000 </r>
       <r>   10.1168    0.0000 </r>
       <r>   10.7706    0.0000 </r>
       <r>   10.7707    0.0000 </r>
       <r>   11.1815    0.0000 </r>
       <r>   11.1825    0.0000 </r>
       <r>   11.4022    0.0000 </r>
       <r>   11.4028    0.0000 </r>
       <r>   12.9062    0.0000 </r>
       <r>   12.9064    0.0000 </r>
       <r>   13.1598    0.0000 </r>
       <r>   13.1600    0.0000 </r>
      </set>
      <set comment="kpoint 7">
       <r>  -30.4493    1.0000 </r>
       <r>  -30.4492    1.0000 </r>
       <r>  -30.4471    1.0000 </r>
       <r>  -30.4471    1.0000 </r>
       <r>  -23.7893    1.0000 </r>
       <r>  -23.7892    1.0000 </r>
       <r>  -23.7883    1.0000 </r>
       <r>  -23.7879    1.0000 </r>
       <r>  -23.7868    1.0000 </r>
       <r>  -23.7863    1.0000 </r>
       <r>  -20.1881    1.0000 </r>
       <r>  -20.1876    1.0000 </r>
       <r>   -6.9836    1.0000 </r>
       <r>   -6.9829    1.0000 </r>
       <r>    2.3998    1.0000 </r>
       <r>    2.4001    1.0000 </r>
       <r>    3.8419    1.0000 </r>
       <r>    3.8425    1.0000 </r>
       <r>    5.3246    0.0000 </r>
       <r>    5.3248    0.0000 </r>
       <r>    9.8868    0.0000 </r>
       <r>    9.8870    0.0000 </r>
       <r>   11.0420    0.0000 </r>
       <r>   11.0421    0.0000 </r>
       <r>   11.3468    0.0000 </r>
       <r>   11.3473    0.0000 </r>
       <r>   12.2951    0.0000 </r>
       <r>   12.2958    0.0000 </r>
       <r>   12.5739    0.0000 </r>
       <r>   12.5752    0.0000 </r>
       <r>   12.7302    0.0000 </r>
       <r>   12.7304    0.0000 </r>
      </set>
      <set comment="kpoint 8">
       <r>  -30.4493    1.0000 </r>
       <r>  -30.4492    1.0000 </r>
       <r>  -30.4471    1.0000 </r>
       <r>  -30.4471    1.0000 </r>
       <r>  -23.7894    1.0000 </r>
       <r>  -23.7891    1.0000 </r>
       <r>  -23.7883    1.0000 </r>
       <r>  -23.7879    1.0000 </r>
       <r>  -23.7868    1.0000 </r>
       <r>  -23.7863    1.0000 </r>
       <r>  -20.1881    1.0000 </r>
       <r>  -20.1876    1.0000 </r>
       <r>   -6.9835    1.0000 </r>
       <r>   -6.9829    1.0000 </r>
       <r>    2.3996    1.0000 </r>
       <r>    2.4003    1.0000 </r>
       <r>    3.8416    1.0000 </r>
       <r>    3.8428    1.0000 </r>
       <r>    5.3245    0.0000 </r>
       <r>    5.3249    0.0000 </r>
       <r>    9.8868    0.0000 </r>
       <r>    9.8870    0.0000 </r>
       <r>   11.0420    0.0000 </r>
       <r>   11.0421    0.0000 </r>
       <r>   11.3468    0.0000 </r>
       <r>   11.3473    0.0000 </r>
       <r>   12.2951    0.0000 </r>
       <r>   12.2957    0.0000 </r>
       <r>   12.5740    0.0000 </r>
       <r>   12.5752    0.0000 </r>
       <r>   12.7300    0.0000 </r>
       <r>   12.7306    0.0000 </r>
      </set>
      <set comment="kpoint 9">
       <r>  -30.4587    1.0000 </r>
       <r>  -30.4586    1.0000 </r>
       <r>  -30.4489    1.0000 </r>
       <r>  -30.4487    1.0000 </r>
       <r>  -23.7966    1.0000 </r>
       <r>  -23.7963    1.0000 </r>
       <r>  -23.7912    1.0000 </r>
       <r>  -23.7908    1.0000 </r>
       <r>  -23.7873    1.0000 </r>
       <r>  -23.7869    1.0000 </r>
       <r>  -20.1813    1.0000 </r>
       <r>  -20.1808    1.0000 </r>
       <r>   -7.0050    1.0000 </r>
       <r>   -7.0044    1.0000 </r>
       <r>    2.2850    1.0000 </r>
       <r>    2.2868    1.0000 </r>
       <r>    3.5626    1.0000 </r>
       <r>    3.5653    1.0000 </r>
       <r>    5.7516    0.0000 </r>
       <r>    5.7527    0.0000 </r>
       <r>    9.4336    0.0000 </r>
       <r>    9.4340    0.0000 </r>
       <r>   10.9120    0.0000 </r>
       <r>   10.9125    0.0000 </r>
       <r>   11.3423    0.0000 </r>
       <r>   11.3434    0.0000 </r>
       <r>   11.8681    0.0000 </r>
       <r>   11.8690    0.0000 </r>
       <r>   13.1985    0.0000 </r>
       <r>   13.1989    0.0000 </r>
       <r>   13.9335    0.0000 </r>
       <r>   13.9350    0.0000 </r>
      </set>
      <set comment="kpoint 10">
       <r>  -30.4559    1.0000 </r>
       <r>  -30.4559    1.0000 </r>
       <r>  -30.4501    1.0000 </r>
       <r>  -30.4499    1.0000 </r>
       <r>  -23.7942    1.0000 </r>
       <r>  -23.7940    1.0000 </r>
       <r>  -23.7892    1.0000 </r>
       <r>  -23.7890    1.0000 </r>
       <r>  -23.7863    1.0000 </r>
       <r>  -23.7860    1.0000 </r>
       <r>  -20.1433    1.0000 </r>
       <r>  -20.1428    1.0000 </r>
       <r>   -7.1275    1.0000 </r>
       <r>   -7.1268    1.0000 </r>
       <r>    1.5046    1.0000 </r>
       <r>    1.5058    1.0000 </r>
       <r>    3.2282    1.0000 </r>
       <r>    3.2299    1.0000 </r>
       <r>    6.6535    0.0000 </r>
       <r>    6.6542    0.0000 </r>
       <r>    9.2129    0.0000 </r>
       <r>    9.2133    0.0000 </r>
       <r>    9.9254    0.0000 </r>
       <r>    9.9263    0.0000 </r>
       <r>   11.5681    0.0000 </r>
       <r>   11.5686    0.0000 </r>
       <r>   12.5794    0.0000 </r>
       <r>   12.5794    0.0000 </r>
       <r>   13.3296    0.0000 </r>
       <r>   13.3302    0.0000 </r>
       <r>   13.9493    0.0000 </r>
       <r>   13.9497    0.0000 </r>
      </set>
      <set comment="kpoint 11">
       <r>  -30.4543    1.0000 </r>
       <r>  -30.4542    1.0000 </r>
       <r>  -30.4477    1.0000 </r>
       <r>  -30.4477    1.0000 </r>
       <r>  -23.7898    1.0000 </r>
       <r>  -23.7896    1.0000 </r>
       <r>  -23.7877    1.0000 </r>
       <r>  -23.7875    1.0000 </r>
       <r>  -23.7844    1.0000 </r>
       <r>  -23.7842    1.0000 </r>
       <r>  -20.1022    1.0000 </r>
       <r>  -20.1017    1.0000 </r>
       <r>   -7.2580    1.0000 </r>
       <r>   -7.2574    1.0000 </r>
       <r>    0.9095    1.0000 </r>
       <r>    0.9101    1.0000 </r>
       <r>    2.9191    1.0000 </r>
       <r>    2.9198    1.0000 </r>
       <r>    6.9486    0.0000 </r>
       <r>    6.9492    0.0000 </r>
       <r>    9.1932    0.0000 </r>
       <r>    9.1938    0.0000 </r>
       <r>   10.3935    0.0000 </r>
       <r>   10.3938    0.0000 </r>
       <r>   11.2895    0.0000 </r>
       <r>   11.2901    0.0000 </r>
       <r>   12.7829    0.0000 </r>
       <r>   12.7835    0.0000 </r>
       <r>   13.5958    0.0000 </r>
       <r>   13.5960    0.0000 </r>
       <r>   14.8566    0.0000 </r>
       <r>   14.8570    0.0000 </r>
      </set>
      <set comment="kpoint 12">
       <r>  -30.4642    1.0000 </r>
       <r>  -30.4641    1.0000 </r>
       <r>  -30.4497    1.0000 </r>
       <r>  -30.4497    1.0000 </r>
       <r>  -23.7967    1.0000 </r>
       <r>  -23.7967    1.0000 </r>
       <r>  -23.7883    1.0000 </r>
       <r>  -23.7881    1.0000 </r>
       <r>  -23.7875    1.0000 </r>
       <r>  -23.7874    1.0000 </r>
       <r>  -20.0893    1.0000 </r>
       <r>  -20.0888    1.0000 </r>
       <r>   -7.2984    1.0000 </r>
       <r>   -7.2978    1.0000 </r>
       <r>    0.7472    1.0000 </r>
       <r>    0.7477    1.0000 </r>
       <r>    2.8203    1.0000 </r>
       <r>    2.8209    1.0000 </r>
       <r>    7.0109    0.0000 </r>
       <r>    7.0114    0.0000 </r>
       <r>    9.0665    0.0000 </r>
       <r>    9.0671    0.0000 </r>
       <r>   10.8040    0.0000 </r>
       <r>   10.8044    0.0000 </r>
       <r>   11.6287    0.0000 </r>
       <r>   11.6289    0.0000 </r>
       <r>   12.9094    0.0000 </r>
       <r>   12.9101    0.0000 </r>
       <r>   13.5092    0.0000 </r>
       <r>   13.5095    0.0000 </r>
       <r>   14.1678    0.0000 </r>
       <r>   14.1682    0.0000 </r>
      </set>
      <set comment="kpoint 13">
       <r>  -30.4627    1.0000 </r>
       <r>  -30.4625    1.0000 </r>
       <r>  -30.4527    1.0000 </r>
       <r>  -30.4526    1.0000 </r>
       <r>  -23.7956    1.0000 </r>
       <r>  -23.7953    1.0000 </r>
       <r>  -23.7928    1.0000 </r>
       <r>  -23.7924    1.0000 </r>
       <r>  -23.7882    1.0000 </r>
       <r>  -23.7879    1.0000 </r>
       <r>  -20.1149    1.0000 </r>
       <r>  -20.1144    1.0000 </r>
       <r>   -7.2188    1.0000 </r>
       <r>   -7.2181    1.0000 </r>
       <r>    1.0543    1.0000 </r>
       <r>    1.0551    1.0000 </r>
       <r>    3.0155    1.0000 </r>
       <r>    3.0167    1.0000 </r>
       <r>    6.9920    0.0000 </r>
       <r>    6.9924    0.0000 </r>
       <r>    9.4149    0.0000 </r>
       <r>    9.4154    0.0000 </r>
       <r>   10.2936    0.0000 </r>
       <r>   10.2939    0.0000 </r>
       <r>   11.0756    0.0000 </r>
       <r>   11.0763    0.0000 </r>
       <r>   12.5799    0.0000 </r>
       <r>   12.5804    0.0000 </r>
       <r>   13.1646    0.0000 </r>
       <r>   13.1654    0.0000 </r>
       <r>   14.4468    0.0000 </r>
       <r>   14.4471    0.0000 </r>
      </set>
      <set comment="kpoint 14">
       <r>  -30.4544    1.0000 </r>
       <r>  -30.4543    1.0000 </r>
       <r>  -30.4450    1.0000 </r>
       <r>  -30.4449    1.0000 </r>
       <r>  -23.7922    1.0000 </r>
       <r>  -23.7920    1.0000 </r>
       <r>  -23.7898    1.0000 </r>
       <r>  -23.7895    1.0000 </r>
       <r>  -23.7828    1.0000 </r>
       <r>  -23.7824    1.0000 </r>
       <r>  -20.1588    1.0000 </r>
       <r>  -20.1583    1.0000 </r>
       <r>   -7.0789    1.0000 </r>
       <r>   -7.0783    1.0000 </r>
       <r>    1.7286    1.0000 </r>
       <r>    1.7298    1.0000 </r>
       <r>    3.4490    1.0000 </r>
       <r>    3.4510    1.0000 </r>
       <r>    6.3018    0.0000 </r>
       <r>    6.3023    0.0000 </r>
       <r>    9.5124    0.0000 </r>
       <r>    9.5127    0.0000 </r>
       <r>   10.5195    0.0000 </r>
       <r>   10.5201    0.0000 </r>
       <r>   11.4733    0.0000 </r>
       <r>   11.4735    0.0000 </r>
       <r>   11.6646    0.0000 </r>
       <r>   11.6653    0.0000 </r>
       <r>   13.0220    0.0000 </r>
       <r>   13.0226    0.0000 </r>
       <r>   13.6427    0.0000 </r>
       <r>   13.6435    0.0000 </r>
      </set>
      <set comment="kpoint 15">
       <r>  -30.4560    1.0000 </r>
       <r>  -30.4559    1.0000 </r>
       <r>  -30.4539    1.0000 </r>
       <r>  -30.4538    1.0000 </r>
       <r>  -23.7931    1.0000 </r>
       <r>  -23.7927    1.0000 </r>
       <r>  -23.7913    1.0000 </r>
       <r>  -23.7910    1.0000 </r>
       <r>  -23.7892    1.0000 </r>
       <r>  -23.7889    1.0000 </r>
       <r>  -20.1415    1.0000 </r>
       <r>  -20.1410    1.0000 </r>
       <r>   -7.1382    1.0000 </r>
       <r>   -7.1375    1.0000 </r>
       <r>    1.3417    1.0000 </r>
       <r>    1.3426    1.0000 </r>
       <r>    3.5976    1.0000 </r>
       <r>    3.5988    1.0000 </r>
       <r>    6.1442    0.0000 </r>
       <r>    6.1446    0.0000 </r>
       <r>   10.1166    0.0000 </r>
       <r>   10.1169    0.0000 </r>
       <r>   10.7706    0.0000 </r>
       <r>   10.7707    0.0000 </r>
       <r>   11.1815    0.0000 </r>
       <r>   11.1824    0.0000 </r>
       <r>   11.4023    0.0000 </r>
       <r>   11.4028    0.0000 </r>
       <r>   12.9062    0.0000 </r>
       <r>   12.9065    0.0000 </r>
       <r>   13.1597    0.0000 </r>
       <r>   13.1601    0.0000 </r>
      </set>
      <set comment="kpoint 16">
       <r>  -30.4559    1.0000 </r>
       <r>  -30.4558    1.0000 </r>
       <r>  -30.4501    1.0000 </r>
       <r>  -30.4499    1.0000 </r>
       <r>  -23.7942    1.0000 </r>
       <r>  -23.7940    1.0000 </r>
       <r>  -23.7892    1.0000 </r>
       <r>  -23.7890    1.0000 </r>
       <r>  -23.7863    1.0000 </r>
       <r>  -23.7860    1.0000 </r>
       <r>  -20.1433    1.0000 </r>
       <r>  -20.1428    1.0000 </r>
       <r>   -7.1275    1.0000 </r>
       <r>   -7.1268    1.0000 </r>
       <r>    1.5046    1.0000 </r>
       <r>    1.5058    1.0000 </r>
       <r>    3.2282    1.0000 </r>
       <r>    3.2299    1.0000 </r>
       <r>    6.6536    0.0000 </r>
       <r>    6.6542    0.0000 </r>
       <r>    9.2129    0.0000 </r>
       <r>    9.2133    0.0000 </r>
       <r>    9.9254    0.0000 </r>
       <r>    9.9263    0.0000 </r>
       <r>   11.5681    0.0000 </r>
       <r>   11.5686    0.0000 </r>
       <r>   12.5793    0.0000 </r>
       <r>   12.5796    0.0000 </r>
       <r>   13.3296    0.0000 </r>
       <r>   13.3302    0.0000 </r>
       <r>   13.9492    0.0000 </r>
       <r>   13.9498    0.0000 </r>
      </set>
      <set comment="kpoint 17">
       <r>  -30.4599    1.0000 </r>
       <r>  -30.4598    1.0000 </r>
       <r>  -30.4574    1.0000 </r>
       <r>  -30.4572    1.0000 </r>
       <r>  -23.7964    1.0000 </r>
       <r>  -23.7961    1.0000 </r>
       <r>  -23.7928    1.0000 </r>
       <r>  -23.7924    1.0000 </r>
       <r>  -23.7896    1.0000 </r>
       <r>  -23.7892    1.0000 </r>
       <r>  -20.1193    1.0000 </r>
       <r>  -20.1188    1.0000 </r>
       <r>   -7.1985    1.0000 </r>
       <r>   -7.1979    1.0000 </r>
       <r>    1.2811    1.0000 </r>
       <r>    1.2831    1.0000 </r>
       <r>    2.8427    1.0000 </r>
       <r>    2.8453    1.0000 </r>
       <r>    6.9628    0.0000 </r>
       <r>    6.9632    0.0000 </r>
       <r>    8.3501    0.0000 </r>
       <r>    8.3506    0.0000 </r>
       <r>    9.7468    0.0000 </r>
       <r>    9.7479    0.0000 </r>
       <r>   12.2608    0.0000 </r>
       <r>   12.2618    0.0000 </r>
       <r>   13.3483    0.0000 </r>
       <r>   13.3489    0.0000 </r>
       <r>   14.8556    0.0000 </r>
       <r>   14.8563    0.0000 </r>
       <r>   15.5635    0.0000 </r>
       <r>   15.5685    0.0000 </r>
      </set>
      <set comment="kpoint 18">
       <r>  -30.4619    1.0000 </r>
       <r>  -30.4618    1.0000 </r>
       <r>  -30.4562    1.0000 </r>
       <r>  -30.4561    1.0000 </r>
       <r>  -23.7952    1.0000 </r>
       <r>  -23.7951    1.0000 </r>
       <r>  -23.7921    1.0000 </r>
       <r>  -23.7919    1.0000 </r>
       <r>  -23.7892    1.0000 </r>
       <r>  -23.7889    1.0000 </r>
       <r>  -20.0869    1.0000 </r>
       <r>  -20.0864    1.0000 </r>
       <r>   -7.2948    1.0000 </r>
       <r>   -7.2942    1.0000 </r>
       <r>    0.9491    1.0000 </r>
       <r>    0.9508    1.0000 </r>
       <r>    2.4377    1.0000 </r>
       <r>    2.4398    1.0000 </r>
       <r>    7.0383    0.0000 </r>
       <r>    7.0388    0.0000 </r>
       <r>    8.4150    0.0000 </r>
       <r>    8.4153    0.0000 </r>
       <r>    9.9286    0.0000 </r>
       <r>    9.9294    0.0000 </r>
       <r>   12.4969    0.0000 </r>
       <r>   12.4975    0.0000 </r>
       <r>   13.9037    0.0000 </r>
       <r>   13.9038    0.0000 </r>
       <r>   15.3207    0.0000 </r>
       <r>   15.3210    0.0000 </r>
       <r>   15.4711    0.0000 </r>
       <r>   15.4717    0.0000 </r>
      </set>
      <set comment="kpoint 19">
       <r>  -30.4740    1.0000 </r>
       <r>  -30.4738    1.0000 </r>
       <r>  -30.4602    1.0000 </r>
       <r>  -30.4601    1.0000 </r>
[...]
       <r>     4.1963     0.0000     0.0000 </r>
       <r>     4.3702     0.0000     0.0000 </r>
       <r>     4.5441     0.0000     0.0000 </r>
       <r>     4.7180     0.0000     0.0000 </r>
       <r>     4.8919     0.0000     0.0000 </r>
       <r>     5.0658     0.0000     0.0000 </r>
       <r>     5.2398     0.0000     0.0000 </r>
       <r>     5.4137     0.0000     0.0000 </r>
       <r>     5.5876     0.0000     0.0000 </r>
       <r>     5.7615     0.0000     0.0000 </r>
       <r>     5.9354     0.0000     0.0000 </r>
       <r>     6.1093     0.0000     0.0000 </r>
       <r>     6.2832     0.0000     0.0000 </r>
       <r>     6.4571     0.0000     0.0000 </r>
       <r>     6.6310     0.0000     0.0000 </r>
       <r>     6.8049     0.0000     0.0000 </r>
       <r>     6.9789     0.0000     0.0000 </r>
       <r>     7.1528     0.0000     0.0000 </r>
       <r>     7.3267     0.0000     0.0000 </r>
       <r>     7.5006     0.0000     0.0000 </r>
       <r>     7.6745     0.0000     0.0000 </r>
       <r>     7.8484     0.0000     0.0000 </r>
       <r>     8.0223     0.0000     0.0000 </r>
       <r>     8.1962     0.0000     0.0000 </r>
       <r>     8.3701     0.0000     0.0000 </r>
       <r>     8.5441     0.0000     0.0000 </r>
       <r>     8.7180     0.0000     0.0000 </r>
       <r>     8.8919     0.0000     0.0000 </r>
       <r>     9.0658     0.0000     0.0000 </r>
       <r>     9.2397     0.0000     0.0000 </r>
       <r>     9.4136     0.0000     0.0000 </r>
       <r>     9.5875     0.0000     0.0000 </r>
       <r>     9.7614     0.0000     0.0000 </r>
       <r>     9.9353     0.0000     0.0000 </r>
       <r>    10.1092     0.0000     0.0000 </r>
       <r>    10.2832     0.0000     0.0000 </r>
       <r>    10.4571     0.0000     0.0000 </r>
       <r>    10.6310     0.0000     0.0000 </r>
       <r>    10.8049     0.0000     0.0000 </r>
       <r>    10.9788     0.0000     0.0000 </r>
       <r>    11.1527     0.0000     0.0000 </r>
       <r>    11.3266     0.0000     0.0000 </r>
       <r>    11.5005     0.0000     0.0000 </r>
       <r>    11.6744     0.0000     0.0000 </r>
       <r>    11.8483     0.0000     0.0000 </r>
       <r>    12.0223     0.0000     0.0000 </r>
       <r>    12.1962     0.0000     0.0000 </r>
       <r>    12.3701     0.0000     0.0000 </r>
       <r>    12.5440     0.0000     0.0000 </r>
       <r>    12.7179     0.0000     0.0000 </r>
       <r>    12.8918     0.0000     0.0000 </r>
       <r>    13.0657     0.0000     0.0000 </r>
       <r>    13.2396     0.0000     0.0000 </r>
       <r>    13.4135     0.0000     0.0000 </r>
       <r>    13.5875     0.0000     0.0000 </r>
       <r>    13.7614     0.0000     0.0000 </r>
       <r>    13.9353     0.0000     0.0000 </r>
       <r>    14.1092     0.0000     0.0000 </r>
       <r>    14.2831     0.0000     0.0000 </r>
       <r>    14.4570     0.0000     0.0000 </r>
       <r>    14.6309     0.0000     0.0000 </r>
       <r>    14.8048     0.0000     0.0000 </r>
       <r>    14.9787     0.0000     0.0000 </r>
       <r>    15.1526     0.0000     0.0000 </r>
       <r>    15.3266     0.0000     0.0000 </r>
       <r>    15.5005     0.0000     0.0000 </r>
       <r>    15.6744     0.0000     0.0000 </r>
       <r>    15.8483     0.0000     0.0000 </r>
       <r>    16.0222     0.0000     0.0000 </r>
       <r>    16.1961     0.0000     0.0000 </r>
       <r>    16.3700     0.0000     0.0000 </r>
       <r>    16.5439     0.0000     0.0000 </r>
       <r>    16.7178     0.0000     0.0000 </r>
       <r>    16.8917     0.0000     0.0000 </r>
       <r>    17.0657     0.0000     0.0000 </r>
       <r>    17.2396     0.0000     0.0000 </r>
       <r>    17.4135     0.0000     0.0000 </r>
       <r>    17.5874     0.0000     0.0000 </r>
       <r>    17.7613     0.0000     0.0000 </r>
       <r>    17.9352     0.0000     0.0000 </r>
       <r>    18.1091     0.0000     0.0000 </r>
       <r>    18.2830     0.0000     0.0000 </r>
       <r>    18.4569     0.0000     0.0000 </r>
       <r>    18.6309     0.0000     0.0000 </r>
       <r>    18.8048     0.0000     0.0000 </r>
       <r>    18.9787     0.0000     0.0000 </r>
       <r>    19.1526     0.0000     0.0000 </r>
       <r>    19.3265     0.0000     0.0000 </r>
      </set>
      <set comment="spin 4">
       <r>   -32.8466     0.0000     0.0000 </r>
       <r>   -32.6727     0.0000     0.0000 </r>
       <r>   -32.4988     0.0000     0.0000 </r>
       <r>   -32.3249     0.0000     0.0000 </r>
       <r>   -32.1510     0.0000     0.0000 </r>
       <r>   -31.9771     0.0000     0.0000 </r>
       <r>   -31.8032     0.0000     0.0000 </r>
       <r>   -31.6293     0.0000     0.0000 </r>
       <r>   -31.4553     0.0000     0.0000 </r>
       <r>   -31.2814     0.0000     0.0000 </r>
       <r>   -31.1075     0.0000     0.0000 </r>
       <r>   -30.9336     0.0000     0.0000 </r>
       <r>   -30.7597     0.0000     0.0000 </r>
       <r>   -30.5858     0.0000     0.0000 </r>
       <r>   -30.4119     0.0000     0.0000 </r>
       <r>   -30.2380     0.0000     0.0000 </r>
       <r>   -30.0641     0.0000     0.0000 </r>
       <r>   -29.8901     0.0000     0.0000 </r>
       <r>   -29.7162     0.0000     0.0000 </r>
       <r>   -29.5423     0.0000     0.0000 </r>
       <r>   -29.3684     0.0000     0.0000 </r>
       <r>   -29.1945     0.0000     0.0000 </r>
       <r>   -29.0206     0.0000     0.0000 </r>
       <r>   -28.8467     0.0000     0.0000 </r>
       <r>   -28.6728     0.0000     0.0000 </r>
       <r>   -28.4989     0.0000     0.0000 </r>
       <r>   -28.3250     0.0000     0.0000 </r>
       <r>   -28.1510     0.0000     0.0000 </r>
       <r>   -27.9771     0.0000     0.0000 </r>
       <r>   -27.8032     0.0000     0.0000 </r>
       <r>   -27.6293     0.0000     0.0000 </r>
       <r>   -27.4554     0.0000     0.0000 </r>
       <r>   -27.2815     0.0000     0.0000 </r>
       <r>   -27.1076     0.0000     0.0000 </r>
       <r>   -26.9337     0.0000     0.0000 </r>
       <r>   -26.7598     0.0000     0.0000 </r>
       <r>   -26.5858     0.0000     0.0000 </r>
       <r>   -26.4119     0.0000     0.0000 </r>
       <r>   -26.2380     0.0000     0.0000 </r>
       <r>   -26.0641     0.0000     0.0000 </r>
       <r>   -25.8902     0.0000     0.0000 </r>
       <r>   -25.7163     0.0000     0.0000 </r>
       <r>   -25.5424     0.0000     0.0000 </r>
       <r>   -25.3685     0.0000     0.0000 </r>
       <r>   -25.1946     0.0000     0.0000 </r>
       <r>   -25.0207     0.0000     0.0000 </r>
       <r>   -24.8467     0.0000     0.0000 </r>
       <r>   -24.6728     0.0000     0.0000 </r>
       <r>   -24.4989     0.0000     0.0000 </r>
       <r>   -24.3250     0.0000     0.0000 </r>
       <r>   -24.1511     0.0000     0.0000 </r>
       <r>   -23.9772     0.0000     0.0000 </r>
       <r>   -23.8033     0.0000     0.0000 </r>
       <r>   -23.6294     0.0000     0.0000 </r>
       <r>   -23.4555     0.0000     0.0000 </r>
       <r>   -23.2816     0.0000     0.0000 </r>
       <r>   -23.1076     0.0000     0.0000 </r>
       <r>   -22.9337     0.0000     0.0000 </r>
       <r>   -22.7598     0.0000     0.0000 </r>
       <r>   -22.5859     0.0000     0.0000 </r>
       <r>   -22.4120     0.0000     0.0000 </r>
       <r>   -22.2381     0.0000     0.0000 </r>
       <r>   -22.0642     0.0000     0.0000 </r>
       <r>   -21.8903     0.0000     0.0000 </r>
       <r>   -21.7164     0.0000     0.0000 </r>
       <r>   -21.5424     0.0000     0.0000 </r>
       <r>   -21.3685     0.0000     0.0000 </r>
       <r>   -21.1946     0.0000     0.0000 </r>
       <r>   -21.0207     0.0000     0.0000 </r>
       <r>   -20.8468     0.0000     0.0000 </r>
       <r>   -20.6729     0.0000     0.0000 </r>
       <r>   -20.4990     0.0000     0.0000 </r>
       <r>   -20.3251     0.0000     0.0000 </r>
       <r>   -20.1512     0.0000     0.0000 </r>
       <r>   -19.9773     0.0000     0.0000 </r>
       <r>   -19.8033     0.0000     0.0000 </r>
       <r>   -19.6294     0.0000     0.0000 </r>
       <r>   -19.4555     0.0000     0.0000 </r>
       <r>   -19.2816     0.0000     0.0000 </r>
       <r>   -19.1077     0.0000     0.0000 </r>
       <r>   -18.9338     0.0000     0.0000 </r>
       <r>   -18.7599     0.0000     0.0000 </r>
       <r>   -18.5860     0.0000     0.0000 </r>
       <r>   -18.4121     0.0000     0.0000 </r>
       <r>   -18.2382     0.0000     0.0000 </r>
       <r>   -18.0642     0.0000     0.0000 </r>
       <r>   -17.8903     0.0000     0.0000 </r>
       <r>   -17.7164     0.0000     0.0000 </r>
       <r>   -17.5425     0.0000     0.0000 </r>
       <r>   -17.3686     0.0000     0.0000 </r>
       <r>   -17.1947     0.0000     0.0000 </r>
       <r>   -17.0208     0.0000     0.0000 </r>
       <r>   -16.8469     0.0000     0.0000 </r>
       <r>   -16.6730     0.0000     0.0000 </r>
       <r>   -16.4990     0.0000     0.0000 </r>
       <r>   -16.3251     0.0000     0.0000 </r>
       <r>   -16.1512     0.0000     0.0000 </r>
       <r>   -15.9773     0.0000     0.0000 </r>
       <r>   -15.8034     0.0000     0.0000 </r>
       <r>   -15.6295     0.0000     0.0000 </r>
       <r>   -15.4556     0.0000     0.0000 </r>
       <r>   -15.2817     0.0000     0.0000 </r>
       <r>   -15.1078     0.0000     0.0000 </r>
       <r>   -14.9339     0.0000     0.0000 </r>
       <r>   -14.7599     0.0000     0.0000 </r>
       <r>   -14.5860     0.0000     0.0000 </r>
       <r>   -14.4121     0.0000     0.0000 </r>
       <r>   -14.2382     0.0000     0.0000 </r>
       <r>   -14.0643     0.0000     0.0000 </r>
       <r>   -13.8904     0.0000     0.0000 </r>
       <r>   -13.7165     0.0000     0.0000 </r>
       <r>   -13.5426     0.0000     0.0000 </r>
       <r>   -13.3687     0.0000     0.0000 </r>
       <r>   -13.1947     0.0000     0.0000 </r>
       <r>   -13.0208     0.0000     0.0000 </r>
       <r>   -12.8469     0.0000     0.0000 </r>
       <r>   -12.6730     0.0000     0.0000 </r>
       <r>   -12.4991     0.0000     0.0000 </r>
       <r>   -12.3252     0.0000     0.0000 </r>
       <r>   -12.1513     0.0000     0.0000 </r>
       <r>   -11.9774     0.0000     0.0000 </r>
       <r>   -11.8035     0.0000     0.0000 </r>
       <r>   -11.6296     0.0000     0.0000 </r>
       <r>   -11.4556     0.0000     0.0000 </r>
       <r>   -11.2817     0.0000     0.0000 </r>
       <r>   -11.1078     0.0000     0.0000 </r>
       <r>   -10.9339     0.0000     0.0000 </r>
       <r>   -10.7600     0.0000     0.0000 </r>
       <r>   -10.5861     0.0000     0.0000 </r>
       <r>   -10.4122     0.0000     0.0000 </r>
       <r>   -10.2383     0.0000     0.0000 </r>
       <r>   -10.0644     0.0000     0.0000 </r>
       <r>    -9.8905     0.0000     0.0000 </r>
       <r>    -9.7165     0.0000     0.0000 </r>
       <r>    -9.5426     0.0000     0.0000 </r>
       <r>    -9.3687     0.0000     0.0000 </r>
       <r>    -9.1948     0.0000     0.0000 </r>
       <r>    -9.0209     0.0000     0.0000 </r>
       <r>    -8.8470     0.0000     0.0000 </r>
       <r>    -8.6731     0.0000     0.0000 </r>
       <r>    -8.4992     0.0000     0.0000 </r>
       <r>    -8.3253     0.0000     0.0000 </r>
       <r>    -8.1513     0.0000     0.0000 </r>
       <r>    -7.9774     0.0000     0.0000 </r>
       <r>    -7.8035     0.0000     0.0000 </r>
       <r>    -7.6296     0.0000     0.0000 </r>
       <r>    -7.4557     0.0000     0.0000 </r>
       <r>    -7.2818     0.0000     0.0000 </r>
       <r>    -7.1079     0.0000     0.0000 </r>
       <r>    -6.9340     0.0000     0.0000 </r>
       <r>    -6.7601     0.0000     0.0000 </r>
       <r>    -6.5862     0.0000     0.0000 </r>
       <r>    -6.4122     0.0000     0.0000 </r>
       <r>    -6.2383     0.0000     0.0000 </r>
       <r>    -6.0644     0.0000     0.0000 </r>
       <r>    -5.8905     0.0000     0.0000 </r>
       <r>    -5.7166     0.0000     0.0000 </r>
       <r>    -5.5427     0.0000     0.0000 </r>
       <r>    -5.3688     0.0000     0.0000 </r>
       <r>    -5.1949     0.0000     0.0000 </r>
       <r>    -5.0210     0.0000     0.0000 </r>
       <r>    -4.8470     0.0000     0.0000 </r>
       <r>    -4.6731     0.0000     0.0000 </r>
       <r>    -4.4992     0.0000     0.0000 </r>
       <r>    -4.3253     0.0000     0.0000 </r>
       <r>    -4.1514     0.0000     0.0000 </r>
       <r>    -3.9775     0.0000     0.0000 </r>
       <r>    -3.8036     0.0000     0.0000 </r>
       <r>    -3.6297     0.0000     0.0000 </r>
       <r>    -3.4558     0.0000     0.0000 </r>
       <r>    -3.2819     0.0000     0.0000 </r>
       <r>    -3.1079     0.0000     0.0000 </r>
       <r>    -2.9340     0.0000     0.0000 </r>
       <r>    -2.7601     0.0000     0.0000 </r>
       <r>    -2.5862     0.0000     0.0000 </r>
       <r>    -2.4123     0.0000     0.0000 </r>
       <r>    -2.2384     0.0000     0.0000 </r>
       <r>    -2.0645     0.0000     0.0000 </r>
       <r>    -1.8906     0.0000     0.0000 </r>
       <r>    -1.7167     0.0000     0.0000 </r>
       <r>    -1.5428     0.0000     0.0000 </r>
       <r>    -1.3688     0.0000     0.0000 </r>
       <r>    -1.1949     0.0000     0.0000 </r>
       <r>    -1.0210     0.0000     0.0000 </r>
       <r>    -0.8471     0.0000     0.0000 </r>
       <r>    -0.6732     0.0000     0.0000 </r>
       <r>    -0.4993     0.0000     0.0000 </r>
       <r>    -0.3254     0.0000     0.0000 </r>
       <r>    -0.1515     0.0000     0.0000 </r>
       <r>     0.0224     0.0000     0.0000 </r>
       <r>     0.1964     0.0000     0.0000 </r>
       <r>     0.3703     0.0000     0.0000 </r>
       <r>     0.5442     0.0000     0.0000 </r>
       <r>     0.7181     0.0000     0.0000 </r>
       <r>     0.8920     0.0000     0.0000 </r>
       <r>     1.0659     0.0000     0.0000 </r>
       <r>     1.2398     0.0000     0.0000 </r>
       <r>     1.4137     0.0000     0.0000 </r>
       <r>     1.5876     0.0000     0.0000 </r>
       <r>     1.7615     0.0000     0.0000 </r>
       <r>     1.9355     0.0000     0.0000 </r>
       <r>     2.1094     0.0000     0.0000 </r>
       <r>     2.2833     0.0000     0.0000 </r>
       <r>     2.4572     0.0000     0.0000 </r>
       <r>     2.6311     0.0000     0.0000 </r>
       <r>     2.8050     0.0000     0.0000 </r>
       <r>     2.9789     0.0000     0.0000 </r>
       <r>     3.1528     0.0000     0.0000 </r>
       <r>     3.3267     0.0000     0.0000 </r>
       <r>     3.5006     0.0000     0.0000 </r>
       <r>     3.6746     0.0000     0.0000 </r>
       <r>     3.8485     0.0000     0.0000 </r>
       <r>     4.0224     0.0000     0.0000 </r>
       <r>     4.1963     0.0000     0.0000 </r>
       <r>     4.3702     0.0000     0.0000 </r>
       <r>     4.5441     0.0000     0.0000 </r>
       <r>     4.7180     0.0000     0.0000 </r>
       <r>     4.8919     0.0000     0.0000 </r>
       <r>     5.0658     0.0000     0.0000 </r>
       <r>     5.2398     0.0000     0.0000 </r>
       <r>     5.4137     0.0000     0.0000 </r>
       <r>     5.5876     0.0000     0.0000 </r>
       <r>     5.7615     0.0000     0.0000 </r>
       <r>     5.9354     0.0000     0.0000 </r>
       <r>     6.1093     0.0000     0.0000 </r>
       <r>     6.2832     0.0000     0.0000 </r>
       <r>     6.4571     0.0000     0.0000 </r>
       <r>     6.6310     0.0000     0.0000 </r>
       <r>     6.8049     0.0000     0.0000 </r>
       <r>     6.9789     0.0000     0.0000 </r>
       <r>     7.1528     0.0000     0.0000 </r>
       <r>     7.3267     0.0000     0.0000 </r>
       <r>     7.5006     0.0000     0.0000 </r>
       <r>     7.6745     0.0000     0.0000 </r>
       <r>     7.8484     0.0000     0.0000 </r>
       <r>     8.0223     0.0000     0.0000 </r>
       <r>     8.1962     0.0000     0.0000 </r>
       <r>     8.3701     0.0000     0.0000 </r>
       <r>     8.5441     0.0000     0.0000 </r>
       <r>     8.7180     0.0000     0.0000 </r>
       <r>     8.8919     0.0000     0.0000 </r>
       <r>     9.0658     0.0000     0.0000 </r>
       <r>     9.2397     0.0000     0.0000 </r>
       <r>     9.4136     0.0000     0.0000 </r>
       <r>     9.5875     0.0000     0.0000 </r>
       <r>     9.7614     0.0000     0.0000 </r>
       <r>     9.9353     0.0000     0.0000 </r>
       <r>    10.1092     0.0000     0.0000 </r>
       <r>    10.2832     0.0000     0.0000 </r>
       <r>    10.4571     0.0000     0.0000 </r>
       <r>    10.6310     0.0000     0.0000 </r>
       <r>    10.8049     0.0000     0.0000 </r>
       <r>    10.9788     0.0000     0.0000 </r>
       <r>    11.1527     0.0000     0.0000 </r>
       <r>    11.3266     0.0000     0.0000 </r>
       <r>    11.5005     0.0000     0.0000 </r>
       <r>    11.6744     0.0000     0.0000 </r>
       <r>    11.8483     0.0000     0.0000 </r>
       <r>    12.0223     0.0000     0.0000 </r>
       <r>    12.1962     0.0000     0.0000 </r>
       <r>    12.3701     0.0000     0.0000 </r>
       <r>    12.5440     0.0000     0.0000 </r>
       <r>    12.7179     0.0000     0.0000 </r>
       <r>    12.8918     0.0000     0.0000 </r>
       <r>    13.0657     0.0000     0.0000 </r>
       <r>    13.2396     0.0000     0.0000 </r>
       <r>    13.4135     0.0000     0.0000 </r>
       <r>    13.5875     0.0000     0.0000 </r>
       <r>    13.7614     0.0000     0.0000 </r>
       <r>    13.9353     0.0000     0.0000 </r>
       <r>    14.1092     0.0000     0.0000 </r>
       <r>    14.2831     0.0000     0.0000 </r>
       <r>    14.4570     0.0000     0.0000 </r>
       <r>    14.6309     0.0000     0.0000 </r>
       <r>    14.8048     0.0000     0.0000 </r>
       <r>    14.9787     0.0000     0.0000 </r>
       <r>    15.1526     0.0000     0.0000 </r>
       <r>    15.3266     0.0000     0.0000 </r>
       <r>    15.5005     0.0000     0.0000 </r>
       <r>    15.6744     0.0000     0.0000 </r>
       <r>    15.8483     0.0000     0.0000 </r>
       <r>    16.0222     0.0000     0.0000 </r>
       <r>    16.1961     0.0000     0.0000 </r>
       <r>    16.3700     0.0000     0.0000 </r>
       <r>    16.5439     0.0000     0.0000 </r>
       <r>    16.7178     0.0000     0.0000 </r>
       <r>    16.8917     0.0000     0.0000 </r>
       <r>    17.0657     0.0000     0.0000 </r>
       <r>    17.2396     0.0000     0.0000 </r>
       <r>    17.4135     0.0000     0.0000 </r>
       <r>    17.5874     0.0000     0.0000 </r>
       <r>    17.7613     0.0000     0.0000 </r>
       <r>    17.9352     0.0000     0.0000 </r>
       <r>    18.1091     0.0000     0.0000 </r>
       <r>    18.2830     0.0000     0.0000 </r>
       <r>    18.4569     0.0000     0.0000 </r>
       <r>    18.6309     0.0000     0.0000 </r>
       <r>    18.8048     0.0000     0.0000 </r>
       <r>    18.9787     0.0000     0.0000 </r>
       <r>    19.1526     0.0000     0.0000 </r>
       <r>    19.3265     0.0000     0.0000 </r>
      </set>
     </set>
    </array>
   </total>
  </dos>
 </calculation>
 <structure name="finalpos" >
  <crystal>
   <varray name="basis" >
    <v>       4.34234588       0.00000000       0.00000000 </v>
    <v>       2.17117294       3.76058184      -0.00000000 </v>
    <v>       2.17117294       1.25352728       3.54551056 </v>
   </varray>
   <i name="volume">     57.89729060 </i>
   <varray name="rec_basis" >
    <v>       0.23029027      -0.13295815      -0.09401561 </v>
    <v>       0.00000000       0.26591630      -0.09401561 </v>
    <v>      -0.00000000       0.00000000       0.28204683 </v>
   </varray>
  </crystal>
  <varray name="positions" >
   <v>       0.00000000       0.00000000       0.00000000 </v>
  </varray>
  <varray name="velocities" >
   <v>       0.00000000       0.00000000       0.00000000 </v>
  </varray>
 </structure>
</modeling>
