   1   1   0   0
  0.6156630E+02  0.4432200E-09  0.4432200E-09  0.4432200E-09  0.1000000E-15
  1.000000000000000E-004
  CAR 
 Og_FCC                                  
     56.55080597    -22.51875935  301     -6.04593324      1.00000000
    -22.519  0.0000E+00  0.0000E+00
    -22.255  0.0000E+00  0.0000E+00
    -21.992  0.0000E+00  0.0000E+00
    -21.728  0.0000E+00  0.0000E+00
    -21.464  0.0000E+00  0.0000E+00
    -21.201  0.0000E+00  0.0000E+00
    -20.937  0.0000E+00  0.0000E+00
    -20.674  0.0000E+00  0.0000E+00
    -20.410  0.0000E+00  0.0000E+00
    -20.147  0.0000E+00  0.0000E+00
    -19.883  0.0000E+00  0.0000E+00
    -19.620  0.0000E+00  0.0000E+00
    -19.356  0.0000E+00  0.0000E+00
    -19.092  0.0000E+00  0.0000E+00
    -18.829  0.0000E+00  0.1389E+00
    -18.565  0.0000E+00  0.2000E+01
    -18.302  0.0000E+00  0.2000E+01
    -18.038  0.0000E+00  0.2000E+01
    -17.775  0.0000E+00  0.2000E+01
    -17.511  0.0000E+00  0.2000E+01
    -17.247  0.0000E+00  0.2000E+01
    -16.984  0.0000E+00  0.2000E+01
    -16.720  0.0000E+00  0.2000E+01
    -16.457  0.0000E+00  0.2000E+01
    -16.193  0.0000E+00  0.2000E+01
    -15.930  0.0000E+00  0.2000E+01
    -15.666  0.0000E+00  0.2000E+01
    -15.402  0.0000E+00  0.2000E+01
    -15.139  0.0000E+00  0.2000E+01
    -14.875  0.0000E+00  0.2000E+01
    -14.612  0.0000E+00  0.2000E+01
    -14.348  0.0000E+00  0.2000E+01
    -14.085  0.0000E+00  0.2000E+01
    -13.821  0.0000E+00  0.2000E+01
    -13.558  0.0000E+00  0.2000E+01
    -13.294  0.0000E+00  0.2000E+01
    -13.030  0.0000E+00  0.2000E+01
    -12.767  0.0000E+00  0.2000E+01
    -12.503  0.0000E+00  0.2000E+01
    -12.240  0.0000E+00  0.2000E+01
    -11.976  0.0000E+00  0.2000E+01
    -11.713  0.0000E+00  0.2000E+01
    -11.449  0.0000E+00  0.2000E+01
    -11.185  0.0000E+00  0.2000E+01
    -10.922  0.0000E+00  0.2000E+01
    -10.658  0.0000E+00  0.2000E+01
    -10.395  0.0000E+00  0.2000E+01
    -10.131  0.0000E+00  0.2000E+01
     -9.868  0.0000E+00  0.2000E+01
     -9.604  0.0000E+00  0.2000E+01
     -9.340  0.0000E+00  0.2000E+01
     -9.077  0.0000E+00  0.2000E+01
     -8.813  0.0000E+00  0.2000E+01
     -8.550  0.0000E+00  0.2065E+01
     -8.286  0.0000E+00  0.3398E+01
     -8.023  0.0000E+00  0.3750E+01
     -7.759  0.0000E+00  0.3861E+01
     -7.496  0.0000E+00  0.3991E+01
     -7.232  0.8431E+00  0.4917E+01
     -6.968  0.0000E+00  0.5454E+01
     -6.705  0.0000E+00  0.6556E+01
     -6.441  0.0000E+00  0.7407E+01
     -6.178  0.0000E+00  0.7907E+01
     -5.914  0.0000E+00  0.8000E+01
     -5.651  0.0000E+00  0.8000E+01
     -5.387  0.0000E+00  0.8000E+01
     -5.123  0.0000E+00  0.8000E+01
     -4.860  0.0000E+00  0.8000E+01
     -4.596  0.0000E+00  0.8000E+01
     -4.333  0.0000E+00  0.8000E+01
     -4.069  0.0000E+00  0.8000E+01
     -3.806  0.0000E+00  0.8000E+01
     -3.542  0.0000E+00  0.8000E+01
     -3.278  0.0000E+00  0.8000E+01
     -3.015  0.0000E+00  0.8000E+01
     -2.751  0.0000E+00  0.8000E+01
     -2.488  0.0000E+00  0.8000E+01
     -2.224  0.0000E+00  0.8000E+01
     -1.961  0.0000E+00  0.8000E+01
     -1.697  0.0000E+00  0.8000E+01
     -1.434  0.0000E+00  0.8000E+01
     -1.170  0.0000E+00  0.8000E+01
     -0.906  0.0000E+00  0.8000E+01
     -0.643  0.0000E+00  0.8000E+01
     -0.379  0.0000E+00  0.8000E+01
     -0.116  0.0000E+00  0.8000E+01
      0.148  0.0000E+00  0.8000E+01
      0.411  0.0000E+00  0.8000E+01
      0.675  0.0000E+00  0.8000E+01
      0.939  0.0000E+00  0.8000E+01
      1.202  0.0000E+00  0.8000E+01
      1.466  0.0000E+00  0.8000E+01
      1.729  0.0000E+00  0.8000E+01
      1.993  0.0000E+00  0.8000E+01
      2.256  0.0000E+00  0.8000E+01
      2.520  0.0000E+00  0.8000E+01
      2.784  0.0000E+00  0.8000E+01
      3.047  0.0000E+00  0.8000E+01
      3.311  0.0000E+00  0.8009E+01
      3.574  0.0000E+00  0.8009E+01
      3.838  0.0000E+00  0.8009E+01
      4.101  0.0000E+00  0.8083E+01
      4.365  0.0000E+00  0.8139E+01
      4.628  0.0000E+00  0.8167E+01
      4.892  0.0000E+00  0.8167E+01
      5.156  0.0000E+00  0.8667E+01
      5.419  0.0000E+00  0.9000E+01
      5.683  0.0000E+00  0.9361E+01
      5.946  0.0000E+00  0.9806E+01
      6.210  0.0000E+00  0.1031E+02
      6.473  0.0000E+00  0.1042E+02
      6.737  0.0000E+00  0.1086E+02
      7.001  0.0000E+00  0.1164E+02
      7.264  0.0000E+00  0.1208E+02
      7.528  0.0000E+00  0.1219E+02
      7.791  0.0000E+00  0.1279E+02
      8.055  0.0000E+00  0.1331E+02
      8.318  0.1158E-05  0.1371E+02
      8.582  0.8431E+00  0.1472E+02
      8.846  0.0000E+00  0.1567E+02
      9.109  0.3048E+00  0.1580E+02
      9.373  0.8431E+00  0.1711E+02
      9.636  0.0000E+00  0.1738E+02
      9.900  0.0000E+00  0.1830E+02
     10.163  0.0000E+00  0.1843E+02
     10.427  0.0000E+00  0.1865E+02
     10.690  0.0000E+00  0.1906E+02
     10.954  0.1423E-08  0.1983E+02
     11.218  0.0000E+00  0.2088E+02
     11.481  0.0000E+00  0.2149E+02
     11.745  0.0000E+00  0.2205E+02
     12.008  0.1054E+00  0.2263E+02
     12.272  0.0000E+00  0.2283E+02
     12.535  0.0000E+00  0.2335E+02
     12.799  0.0000E+00  0.2394E+02
     13.063  0.0000E+00  0.2397E+02
     13.326  0.1296E+00  0.2462E+02
     13.590  0.0000E+00  0.2497E+02
     13.853  0.0000E+00  0.2544E+02
     14.117  0.3757E+00  0.2579E+02
     14.380  0.0000E+00  0.2694E+02
     14.644  0.0000E+00  0.2786E+02
     14.908  0.8387E+00  0.2869E+02
     15.171  0.0000E+00  0.2936E+02
     15.435  0.0000E+00  0.2990E+02
     15.698  0.4196E+00  0.3031E+02
     15.962  0.8361E+00  0.3097E+02
     16.225  0.0000E+00  0.3144E+02
     16.489  0.0000E+00  0.3247E+02
     16.752  0.0000E+00  0.3284E+02
     17.016  0.0000E+00  0.3343E+02
     17.280  0.0000E+00  0.3419E+02
     17.543  0.0000E+00  0.3459E+02
     17.807  0.0000E+00  0.3548E+02
     18.070  0.0000E+00  0.3637E+02
     18.334  0.0000E+00  0.3700E+02
     18.597  0.0000E+00  0.3822E+02
     18.861  0.0000E+00  0.3879E+02
     19.125  0.0000E+00  0.3946E+02
     19.388  0.0000E+00  0.3980E+02
     19.652  0.0000E+00  0.4007E+02
     19.915  0.2459E+00  0.4073E+02
     20.179  0.0000E+00  0.4187E+02
     20.442  0.0000E+00  0.4246E+02
     20.706  0.0000E+00  0.4365E+02
     20.970  0.4216E+00  0.4403E+02
     21.233  0.0000E+00  0.4508E+02
     21.497  0.0000E+00  0.4544E+02
     21.760  0.0000E+00  0.4662E+02
     22.024  0.2082E+00  0.4753E+02
     22.287  0.0000E+00  0.4792E+02
     22.551  0.0000E+00  0.4810E+02
     22.814  0.3513E-01  0.4842E+02
     23.078  0.0000E+00  0.4903E+02
     23.342  0.0000E+00  0.4966E+02
     23.605  0.8431E+00  0.5113E+02
     23.869  0.0000E+00  0.5156E+02
     24.132  0.0000E+00  0.5179E+02
     24.396  0.0000E+00  0.5292E+02
     24.659  0.0000E+00  0.5327E+02
     24.923  0.0000E+00  0.5396E+02
     25.187  0.0000E+00  0.5465E+02
     25.450  0.0000E+00  0.5593E+02
     25.714  0.4211E+00  0.5748E+02
     25.977  0.0000E+00  0.5787E+02
     26.241  0.1786E-02  0.5813E+02
     26.504  0.0000E+00  0.5894E+02
     26.768  0.0000E+00  0.5978E+02
     27.032  0.0000E+00  0.6026E+02
     27.295  0.0000E+00  0.6062E+02
     27.559  0.0000E+00  0.6130E+02
     27.822  0.0000E+00  0.6169E+02
     28.086  0.0000E+00  0.6235E+02
     28.349  0.0000E+00  0.6274E+02
     28.613  0.0000E+00  0.6385E+02
     28.876  0.0000E+00  0.6463E+02
     29.140  0.0000E+00  0.6535E+02
     29.404  0.0000E+00  0.6613E+02
     29.667  0.0000E+00  0.6646E+02
     29.931  0.0000E+00  0.6769E+02
     30.194  0.0000E+00  0.6797E+02
     30.458  0.0000E+00  0.6894E+02
     30.721  0.0000E+00  0.6983E+02
     30.985  0.0000E+00  0.7047E+02
     31.249  0.0000E+00  0.7142E+02
     31.512  0.0000E+00  0.7192E+02
     31.776  0.0000E+00  0.7299E+02
     32.039  0.0000E+00  0.7396E+02
     32.303  0.0000E+00  0.7407E+02
     32.566  0.0000E+00  0.7507E+02
     32.830  0.1023E+01  0.7601E+02
     33.094  0.0000E+00  0.7639E+02
     33.357  0.0000E+00  0.7704E+02
     33.621  0.2810E+00  0.7800E+02
     33.884  0.0000E+00  0.7846E+02
     34.148  0.0000E+00  0.7917E+02
     34.411  0.0000E+00  0.7922E+02
     34.675  0.0000E+00  0.7939E+02
     34.938  0.0000E+00  0.7983E+02
     35.202  0.0000E+00  0.8056E+02
     35.466  0.2108E+00  0.8172E+02
     35.729  0.2108E+00  0.8280E+02
     35.993  0.0000E+00  0.8372E+02
     36.256  0.0000E+00  0.8452E+02
     36.520  0.1038E-06  0.8499E+02
     36.783  0.0000E+00  0.8580E+02
     37.047  0.0000E+00  0.8661E+02
     37.311  0.0000E+00  0.8796E+02
     37.574  0.0000E+00  0.8819E+02
     37.838  0.8142E+00  0.8967E+02
     38.101  0.0000E+00  0.9037E+02
     38.365  0.8369E+00  0.9105E+02
     38.628  0.8431E+00  0.9228E+02
     38.892  0.0000E+00  0.9283E+02
     39.156  0.3513E-01  0.9394E+02
     39.419  0.2458E-01  0.9394E+02
     39.683  0.0000E+00  0.9477E+02
     39.946  0.0000E+00  0.9535E+02
     40.210  0.0000E+00  0.9580E+02
     40.473  0.0000E+00  0.9669E+02
     40.737  0.0000E+00  0.9728E+02
     41.000  0.0000E+00  0.9814E+02
     41.264  0.0000E+00  0.9898E+02
     41.528  0.0000E+00  0.9976E+02
     41.791  0.0000E+00  0.1004E+03
     42.055  0.0000E+00  0.1011E+03
     42.318  0.0000E+00  0.1019E+03
     42.582  0.0000E+00  0.1024E+03
     42.845  0.2762E+00  0.1035E+03
     43.109  0.0000E+00  0.1041E+03
     43.373  0.8154E+00  0.1055E+03
     43.636  0.0000E+00  0.1066E+03
     43.900  0.0000E+00  0.1072E+03
     44.163  0.0000E+00  0.1075E+03
     44.427  0.0000E+00  0.1082E+03
     44.690  0.8500E-01  0.1087E+03
     44.954  0.0000E+00  0.1100E+03
     45.218  0.1384E+00  0.1104E+03
     45.481  0.7093E-03  0.1110E+03
     45.745  0.8431E+00  0.1119E+03
     46.008  0.2108E+00  0.1128E+03
     46.272  0.0000E+00  0.1136E+03
     46.535  0.0000E+00  0.1143E+03
     46.799  0.0000E+00  0.1150E+03
     47.062  0.0000E+00  0.1160E+03
     47.326  0.0000E+00  0.1165E+03
     47.590  0.0000E+00  0.1173E+03
     47.853  0.0000E+00  0.1173E+03
     48.117  0.0000E+00  0.1185E+03
     48.380  0.1952E-05  0.1190E+03
     48.644  0.1691E-06  0.1206E+03
     48.907  0.0000E+00  0.1216E+03
     49.171  0.0000E+00  0.1221E+03
     49.435  0.0000E+00  0.1234E+03
     49.698  0.0000E+00  0.1243E+03
     49.962  0.8431E+00  0.1253E+03
     50.225  0.0000E+00  0.1256E+03
     50.489  0.0000E+00  0.1261E+03
     50.752  0.0000E+00  0.1270E+03
     51.016  0.0000E+00  0.1273E+03
     51.280  0.0000E+00  0.1274E+03
     51.543  0.2191E-02  0.1277E+03
     51.807  0.0000E+00  0.1279E+03
     52.070  0.0000E+00  0.1279E+03
     52.334  0.1048E-08  0.1279E+03
     52.597  0.0000E+00  0.1279E+03
     52.861  0.0000E+00  0.1279E+03
     53.124  0.0000E+00  0.1280E+03
     53.388  0.0000E+00  0.1280E+03
     53.652  0.0000E+00  0.1280E+03
     53.915  0.0000E+00  0.1280E+03
     54.179  0.0000E+00  0.1280E+03
     54.442  0.0000E+00  0.1280E+03
     54.706  0.0000E+00  0.1280E+03
     54.969  0.0000E+00  0.1280E+03
     55.233  0.0000E+00  0.1280E+03
     55.497  0.0000E+00  0.1280E+03
     55.760  0.0000E+00  0.1280E+03
     56.024  0.0000E+00  0.1280E+03
     56.287  0.0000E+00  0.1280E+03
     56.551  0.0000E+00  0.1280E+03
