Cn_BCC                                  
   1.00000000000000     
     3.242103    0.000000    0.000000
    -1.080689    3.056688    0.000000
    -1.080689   -1.528319    2.647184
   Cn
     1
Direct
  0.000000  0.000000  0.000000
 
   36   36   36
  50.883      49.791      47.625      46.736      48.629      52.566      55.952      56.090      51.821      43.975    
  34.584      25.676      18.468      13.233      9.6353      7.2652      5.8133      5.0345      4.7912      5.0345    
  5.8133      7.2652      9.6353      13.233      18.468      25.676      34.584      43.975      51.821      56.090    
  55.952      52.566      48.629      46.736      47.625      49.791      49.791      49.473      47.799      46.720    
  48.007      51.579      55.324      56.489      53.432      46.449      37.313      28.132      20.382      14.594    
  10.561      7.8581      6.1551      5.1848      4.7777      4.8572      5.4396      6.6296      8.6334      11.739    
  16.308      22.755      31.087      40.461      49.120      54.939      56.523      54.230      50.229      47.267    
  46.873      48.401      47.625      47.799      47.131      46.782      48.178      51.489      55.116      56.608    
  54.222      47.907      39.134      29.929      21.883      15.711      11.341      8.3652      6.4431      5.2982    
  4.7367      4.6599      5.0528      5.9871      7.6221      10.213      14.073      19.607      27.063      36.015    
  45.148      52.491      56.263      55.937      52.747      49.078      46.974      46.873      46.736      46.720    
  46.782      47.349      49.180      52.304      55.471      56.680      54.385      48.415      39.985      30.936    
  22.836      16.481      11.906      8.7431      6.6537      5.3636      4.6668      4.4474      4.6671      5.3642    
  6.6544      8.7439      11.906      16.481      22.833      30.928      39.967      48.382      54.333      56.606    
  55.377      52.199      49.078      47.267      48.629      48.007      48.178      49.180      51.170      53.873    
  56.214      56.636      53.937      47.997      39.844      31.085      23.152      16.828      12.202      8.9549    
  6.7650      5.3707      4.5652      4.2232      4.2911      4.7788      5.7639      7.3966      9.9086      13.573    
  18.736      25.630      33.947      42.662      50.210      55.094      56.637      55.377      52.747      50.229    
  52.566      51.579      51.489      52.304      53.873      55.705      56.848      56.127      52.712      46.606    
  38.704      30.361      22.800      16.714      12.198      8.9760      6.7610      5.3118      4.4299      3.9907    
  3.9304      4.2417      4.9669      6.2106      8.1448      11.002      15.046      20.585      27.682      35.849    
  44.010      50.793      55.094      56.606      55.937      54.230      55.952      55.324      55.116      55.471    
  56.214      56.848      56.594      54.623      50.434      44.162      36.585      28.806      21.807      16.145    
  11.888      8.7986      6.6350      5.1829      4.2612      3.7520      3.5900      3.7564      4.2698      5.1951    
  6.6498      8.8142      11.901      16.151      21.796      28.764      36.496      44.010      50.210      54.333    
  56.263      56.523      56.090      56.489      56.608      56.680      56.636      56.127      54.623      51.614    
  46.875      40.636      33.565      26.525      20.259      15.174      11.298      8.4331      6.3908      4.9857    
  4.0612      3.5103      3.2730      3.3245      3.6701      4.3437      5.4204      7.0220      9.3191      12.494    
  16.744      22.218      28.764      35.849      42.662      48.382      52.491      54.939      51.821      53.432    
  54.222      54.385      53.937      52.712      50.434      46.875      42.015      36.147      29.822      23.694    
  18.292      13.890      10.477      7.9076      6.0425      4.7278      3.8338      3.2694      2.9819      2.9470    
  3.1616      3.6419      4.4291      5.6004      7.2715      9.5908      12.701      16.744      21.796      27.682    
  33.947      39.967      45.148      49.120      43.975      46.449      47.907      48.415      47.997      46.606    
  44.162      40.636      36.147      30.999      25.641      20.547      16.078      12.402      9.4925      7.2631    
  5.6130      4.4212      3.5858      3.0327      2.7192      2.6231      2.7389      3.0718      3.6432      4.4951    
  5.7004      7.3593      9.5908      12.494      16.151      20.585      25.630      30.928      36.015      40.461    
  34.584      37.313      39.134      39.985      39.844      38.704      36.585      33.565      29.822      25.641    
  21.370      17.341      13.795      10.824      8.4202      6.5470      5.1299      4.0815      3.3249      2.8045    
  2.4861      2.3523      2.3962      2.6192      3.0299      3.6504      4.5198      5.7004      7.2715      9.3191    
  11.901      15.046      18.736      22.833      27.063      31.087      25.676      28.132      29.929      30.936    
  31.085      30.361      28.806      26.525      23.694      20.547      17.341      14.305      11.589      9.2568    
  7.3340      5.8057      4.6226      3.7255      3.0608      2.5889      2.2843      2.1334      2.1299      2.2728    
  2.5656      3.0182      3.6504      4.4951      5.6004      7.0220      8.8142      11.002      13.573      16.481    
  19.607      22.755      18.468      20.382      21.883      22.836      23.152      22.800      21.807      20.259    
  18.292      16.078      13.795      11.589      9.5629      7.7866      6.2942      5.0803      4.1177      3.3700    
  2.8033      2.3910      2.1155      1.9658      1.9366      2.0256      2.2338      2.5656      3.0299      3.6432    
  4.4291      5.4204      6.6498      8.1448      9.9086      11.906      14.073      16.308      13.233      14.594    
  15.711      16.481      16.828      16.714      16.145      15.174      13.890      12.402      10.824      9.2568    
  7.7866      6.4728      5.3433      4.4021      3.6373      3.0304      2.5623      2.2170      1.9824      1.8501    
  1.8148      1.8735      2.0256      2.2728      2.6192      3.0718      3.6419      4.3437      5.1951      6.2106    
  7.3966      8.7439      10.213      11.739      9.6353      10.561      11.341      11.906      12.202      12.198    
  11.888      11.298      10.477      9.4925      8.4202      7.3340      6.2942      5.3433      4.5061      3.7915    
  3.1984      2.7201      2.3480      2.0737      1.8893      1.7881      1.7646      1.8148      1.9366      2.1299    
  2.3962      2.7389      3.1616      3.6701      4.2698      4.9669      5.7639      6.6544      7.6221      8.6334    
  7.2652      7.8581      8.3652      8.7431      8.9549      8.9760      8.7986      8.4331      7.9076      7.2631    
  6.5470      5.8057      5.0803      4.4021      3.7915      3.2600      2.8126      2.4499      2.1698      1.9688    
  1.8420      1.7837      1.7881      1.8501      1.9658      2.1334      2.3523      2.6231      2.9470      3.3245    
  3.7564      4.2417      4.7788      5.3642      5.9871      6.6296      5.8133      6.1551      6.4431      6.6537    
  6.7650      6.7610      6.6350      6.3908      6.0425      5.6130      5.1299      4.6226      4.1177      3.6373    
  3.1984      2.8126      2.4878      2.2283      2.0358      1.9096      1.8467      1.8420      1.8893      1.9824    
  2.1155      2.2843      2.4861      2.7192      2.9819      3.2730      3.5900      3.9304      4.2911      4.6671    
  5.0528      5.4396      5.0345      5.1848      5.2982      5.3636      5.3707      5.3118      5.1829      4.9857    
  4.7278      4.4212      4.0815      3.7255      3.3700      3.0304      2.7201      2.4499      2.2283      2.0614    
  1.9526      1.9027      1.9096      1.9688      2.0737      2.2170      2.3910      2.5889      2.8045      3.0327    
  3.2694      3.5103      3.7520      3.9907      4.2232      4.4474      4.6599      4.8572      4.7912      4.7777    
  4.7367      4.6668      4.5652      4.4299      4.2612      4.0612      3.8338      3.5858      3.3249      3.0608    
  2.8033      2.5623      2.3480      2.1698      2.0358      1.9526      1.9244      1.9526      2.0358      2.1698    
  2.3480      2.5623      2.8033      3.0608      3.3249      3.5858      3.8338      4.0612      4.2612      4.4299    
  4.5652      4.6668      4.7367      4.7777      5.0345      4.8572      4.6599      4.4474      4.2232      3.9907    
  3.7520      3.5103      3.2694      3.0327      2.8045      2.5889      2.3910      2.2170      2.0737      1.9688    
  1.9096      1.9027      1.9526      2.0614      2.2283      2.4499      2.7201      3.0304      3.3700      3.7255    
  4.0815      4.4212      4.7278      4.9857      5.1829      5.3118      5.3707      5.3636      5.2982      5.1848    
  5.8133      5.4396      5.0528      4.6671      4.2911      3.9304      3.5900      3.2730      2.9819      2.7192    
  2.4861      2.2843      2.1155      1.9824      1.8893      1.8420      1.8467      1.9096      2.0358      2.2283    
  2.4878      2.8126      3.1984      3.6373      4.1177      4.6226      5.1299      5.6130      6.0425      6.3908    
  6.6350      6.7610      6.7650      6.6537      6.4431      6.1551      7.2652      6.6296      5.9871      5.3642    
  4.7788      4.2417      3.7564      3.3245      2.9470      2.6231      2.3523      2.1334      1.9658      1.8501    
  1.7881      1.7837      1.8420      1.9688      2.1698      2.4499      2.8126      3.2600      3.7915      4.4021    
  5.0803      5.8057      6.5470      7.2631      7.9076      8.4331      8.7986      8.9760      8.9549      8.7431    
  8.3652      7.8581      9.6353      8.6334      7.6221      6.6544      5.7639      4.9669      4.2698      3.6701    
  3.1616      2.7389      2.3962      2.1299      1.9366      1.8148      1.7646      1.7881      1.8893      2.0737    
  2.3480      2.7201      3.1984      3.7915      4.5061      5.3433      6.2942      7.3340      8.4202      9.4925    
  10.477      11.298      11.888      12.198      12.202      11.906      11.341      10.561      13.233      11.739    
  10.213      8.7439      7.3966      6.2106      5.1951      4.3437      3.6419      3.0718      2.6192      2.2728    
  2.0256      1.8735      1.8148      1.8501      1.9824      2.2170      2.5623      3.0304      3.6373      4.4021    
  5.3433      6.4728      7.7866      9.2568      10.824      12.402      13.890      15.174      16.145      16.714    
  16.828      16.481      15.711      14.594      18.468      16.308      14.073      11.906      9.9086      8.1448    
  6.6498      5.4204      4.4291      3.6432      3.0299      2.5656      2.2338      2.0256      1.9366      1.9658    
  2.1155      2.3910      2.8033      3.3700      4.1177      5.0803      6.2942      7.7866      9.5629      11.589    
  13.795      16.078      18.292      20.259      21.807      22.800      23.152      22.836      21.883      20.382    
  25.676      22.755      19.607      16.481      13.573      11.002      8.8142      7.0220      5.6004      4.4951    
  3.6504      3.0182      2.5656      2.2728      2.1299      2.1334      2.2843      2.5889      3.0608      3.7255    
  4.6226      5.8057      7.3340      9.2568      11.589      14.305      17.341      20.547      23.694      26.525    
  28.806      30.361      31.085      30.936      29.929      28.132      34.584      31.087      27.063      22.833    
  18.736      15.046      11.901      9.3191      7.2715      5.7004      4.5198      3.6504      3.0299      2.6192    
  2.3962      2.3523      2.4861      2.8045      3.3249      4.0815      5.1299      6.5470      8.4202      10.824    
  13.795      17.341      21.370      25.641      29.822      33.565      36.585      38.704      39.844      39.985    
  39.134      37.313      43.975      40.461      36.015      30.928      25.630      20.585      16.151      12.494    
  9.5908      7.3593      5.7004      4.4951      3.6432      3.0718      2.7389      2.6231      2.7192      3.0327    
  3.5858      4.4212      5.6130      7.2631      9.4925      12.402      16.078      20.547      25.641      30.999    
  36.147      40.636      44.162      46.606      47.997      48.415      47.907      46.449      51.821      49.120    
  45.148      39.967      33.947      27.682      21.796      16.744      12.701      9.5908      7.2715      5.6004    
  4.4291      3.6419      3.1616      2.9470      2.9819      3.2694      3.8338      4.7278      6.0425      7.9076    
  10.477      13.890      18.292      23.694      29.822      36.147      42.015      46.875      50.434      52.712    
  53.937      54.385      54.222      53.432      56.090      54.939      52.491      48.382      42.662      35.849    
  28.764      22.218      16.744      12.494      9.3191      7.0220      5.4204      4.3437      3.6701      3.3245    
  3.2730      3.5103      4.0612      4.9857      6.3908      8.4331      11.298      15.174      20.259      26.525    
  33.565      40.636      46.875      51.614      54.623      56.127      56.636      56.680      56.608      56.489    
  55.952      56.523      56.263      54.333      50.210      44.010      36.496      28.764      21.796      16.151    
  11.901      8.8142      6.6498      5.1951      4.2698      3.7564      3.5900      3.7520      4.2612      5.1829    
  6.6350      8.7986      11.888      16.145      21.807      28.806      36.585      44.162      50.434      54.623    
  56.594      56.848      56.214      55.471      55.116      55.324      52.566      54.230      55.937      56.606    
  55.094      50.793      44.010      35.849      27.682      20.585      15.046      11.002      8.1448      6.2106    
  4.9669      4.2417      3.9304      3.9907      4.4299      5.3118      6.7610      8.9760      12.198      16.714    
  22.800      30.361      38.704      46.606      52.712      56.127      56.848      55.705      53.873      52.304    
  51.489      51.579      48.629      50.229      52.747      55.377      56.637      55.094      50.210      42.662    
  33.947      25.630      18.736      13.573      9.9086      7.3966      5.7639      4.7788      4.2911      4.2232    
  4.5652      5.3707      6.7650      8.9549      12.202      16.828      23.152      31.085      39.844      47.997    
  53.937      56.636      56.214      53.873      51.170      49.180      48.178      48.007      46.736      47.267    
  49.078      52.199      55.377      56.606      54.333      48.382      39.967      30.928      22.833      16.481    
  11.906      8.7439      6.6544      5.3642      4.6671      4.4474      4.6668      5.3636      6.6537      8.7431    
  11.906      16.481      22.836      30.936      39.985      48.415      54.385      56.680      55.471      52.304    
  49.180      47.349      46.782      46.720      47.625      46.873      46.974      49.078      52.747      55.937    
  56.263      52.491      45.148      36.015      27.063      19.607      14.073      10.213      7.6221      5.9871    
  5.0528      4.6599      4.7367      5.2982      6.4431      8.3652      11.341      15.711      21.883      29.929    
  39.134      47.907      54.222      56.608      55.116      51.489      48.178      46.782      47.131      47.799    
  49.791      48.401      46.873      47.267      50.229      54.230      56.523      54.939      49.120      40.461    
  31.087      22.755      16.308      11.739      8.6334      6.6296      5.4396      4.8572      4.7777      5.1848    
  6.1551      7.8581      10.561      14.594      20.382      28.132      37.313      46.449      53.432      56.489    
  55.324      51.579      48.007      46.720      47.799      49.473      49.791      49.473      47.799      46.720    
  48.007      51.579      55.324      56.489      53.432      46.449      37.313      28.132      20.382      14.594    
  10.561      7.8581      6.1551      5.1848      4.7777      4.8572      5.4396      6.6296      8.6334      11.739    
  16.308      22.755      31.087      40.461      49.120      54.939      56.523      54.230      50.229      47.267    
  46.873      48.401      49.473      49.790      48.401      46.873      47.267      50.229      54.230      56.523    
  54.939      49.120      40.461      31.087      22.754      16.308      11.739      8.6334      6.6296      5.4396    
  4.8572      4.7777      5.1848      6.1552      7.8581      10.562      14.594      20.382      28.132      37.313    
  46.449      53.432      56.489      55.324      51.579      48.007      46.720      47.799      47.799      48.401    
  47.799      46.831      47.204      49.812      53.669      56.375      55.658      50.748      42.647      33.338    
  24.693      17.776      12.771      9.3258      7.0536      5.6583      4.9080      4.6731      4.9080      5.6583    
  7.0536      9.3258      12.772      17.776      24.693      33.338      42.647      50.748      55.658      56.375    
  53.669      49.812      47.204      46.831      46.720      46.873      46.831      46.782      47.728      50.321    
  53.862      56.404      55.905      51.479      43.838      34.744      26.031      18.866      13.574      9.8790    
  7.3950      5.8247      4.9249      4.5457      4.6200      5.1617      6.2636      8.1080      10.960      15.140    
  21.046      28.801      37.809      46.634      53.359      56.471      55.773      52.639      49.243      47.204    
  48.007      47.267      47.204      47.728      49.180      51.744      54.750      56.649      55.789      51.398    
  44.037      35.230      26.659      19.475      14.072      10.243      7.6226      5.9230      4.9012      4.3969    
  4.3275      4.6819      5.5178      6.9683      9.2517      12.641      17.477      24.071      32.262      41.149    
  49.168      54.650      56.641      55.484      52.640      49.812      51.579      50.229      49.812      50.321    
  51.744      53.873      55.982      56.827      55.170      50.472      43.238      34.767      26.522      19.541    
  14.213      10.380      7.7112      5.9394      4.8315      4.2277      4.0356      4.2290      4.8340      5.9429    
  7.7152      10.384      14.215      19.538      26.508      34.734      43.176      50.370      55.025      56.641    
  55.773      53.669      55.324      54.230      53.669      53.862      54.750      55.982      56.848      56.379    
  53.715      48.564      41.420      33.372      25.628      19.054      13.980      10.273      7.6468      5.8649    
  4.7129      4.0384      3.7490      3.8080      4.2218      5.0452      6.3883      8.4273      11.384      15.510    
  21.076      28.083      36.014      43.850      50.370      54.650      56.471      56.375      56.489      56.523    
  56.375      56.404      56.649      56.827      56.379      54.623      51.032      45.525      38.589      31.112    
  24.044      18.055      13.392      9.9265      7.4286      5.6980      4.5450      3.8314      3.4707      3.4230    
  3.6822      4.2765      5.2749      6.7973      9.0180      12.134      16.364      21.897      28.626      36.014    
  43.176      49.168      53.359      55.658      53.432      54.939      55.658      55.905      55.789      55.170    
  53.715      51.032      46.875      41.324      34.840      28.129      21.900      16.638      12.500      9.3674    
  7.0701      5.4451      4.3311      3.6099      3.2042      3.0764      3.2140      3.6292      4.3593      5.4806    
  7.1107      9.4091      12.537      16.662      21.897      28.083      34.734      41.149      46.633      50.748    
  46.449      49.120      50.748      51.479      51.398      50.472      48.564      45.525      41.324      36.147    
  30.406      24.647      19.380      14.930      11.381      8.6412      6.5972      5.1193      4.0789      3.3778    
  2.9527      2.7695      2.8153      3.0921      3.6191      4.4378      5.6226      7.2810      9.5459      12.537    
  16.364      21.076      26.508      32.262      37.809      42.647      37.313      40.461      42.647      43.838    
  44.037      43.238      41.420      38.589      34.840      30.406      25.641      20.953      16.694      13.073    
  10.126      7.8053      6.0434      4.7399      3.7980      3.1408      2.7186      2.5033      2.4830      2.6559    
  3.0297      3.6257      4.4846      5.6733      7.2810      9.4091      12.134      15.510      19.538      24.071    
  28.801      33.338      28.132      31.087      33.338      34.744      35.230      34.767      33.372      31.112    
  28.129      24.647      20.953      17.341      14.046      11.197      8.8230      6.9205      5.4456      4.3287    
  3.5004      2.9048      2.5047      2.2781      2.2150      2.3122      2.5723      3.0046      3.6302      4.4846    
  5.6226      7.1107      9.0179      11.384      14.215      17.477      21.046      24.693      20.382      22.754    
  24.693      26.031      26.659      26.522      25.628      24.044      21.900      19.380      16.694      14.046    
  11.589      9.4079      7.5545      6.0405      4.8392      3.9073      3.1990      2.6767      2.3136      2.0940    
  2.0091      2.0555      2.2332      2.5465      3.0046      3.6257      4.4378      5.4806      6.7972      8.4273    
  10.384      12.641      15.140      17.776      14.594      16.308      17.776      18.866      19.475      19.541    
  19.054      18.055      16.638      14.930      13.073      11.197      9.4079      7.7866      6.3823      5.2083    
  4.2541      3.4956      2.9067      2.4637      2.1494      1.9519      1.8641      1.8820      2.0047      2.2332    
  2.5723      3.0297      3.6191      4.3593      5.2749      6.3883      7.7151      9.2517      10.960      12.772    
  10.561      11.739      12.771      13.574      14.072      14.213      13.980      13.392      12.500      11.381    
  10.126      8.8230      7.5545      6.3823      5.3433      4.4534      3.7122      3.1105      2.6353      2.2744    
  2.0167      1.8541      1.7800      1.7901      1.8820      2.0555      2.3121      2.6559      3.0921      3.6292    
  4.2765      5.0452      5.9429      6.9683      8.1080      9.3258      7.8581      8.6334      9.3258      9.8790    
  10.243      10.380      10.273      9.9265      9.3674      8.6412      7.8053      6.9205      6.0405      5.2083    
  4.4534      3.7914      3.2287      2.7648      2.3960      2.1169      1.9218      1.8044      1.7589      1.7800    
  1.8641      2.0091      2.2150      2.4830      2.8153      3.2140      3.6822      4.2218      4.8340      5.5178    
  6.2636      7.0536      6.1551      6.6296      7.0536      7.3950      7.6226      7.7112      7.6468      7.4286    
  7.0701      6.5972      6.0434      5.4456      4.8392      4.2541      3.7122      3.2287      2.8126      2.4685    
  2.1978      1.9997      1.8714      1.8082      1.8044      1.8541      1.9519      2.0940      2.2781      2.5033    
  2.7695      3.0764      3.4230      3.8080      4.2290      4.6819      5.1617      5.6583      5.1848      5.4396    
  5.6583      5.8247      5.9230      5.9394      5.8649      5.6980      5.4451      5.1193      4.7399      4.3287    
  3.9073      3.4956      3.1105      2.7648      2.4685      2.2283      2.0483      1.9300      1.8723      1.8714    
  1.9218      2.0167      2.1494      2.3137      2.5047      2.7186      2.9527      3.2042      3.4707      3.7490    
  4.0356      4.3275      4.6200      4.9080      4.7777      4.8572      4.9080      4.9249      4.9012      4.8315    
  4.7129      4.5450      4.3311      4.0789      3.7980      3.5004      3.1990      2.9067      2.6353      2.3960    
  2.1978      2.0483      1.9526      1.9133      1.9300      1.9998      2.1169      2.2744      2.4637      2.6767    
  2.9048      3.1408      3.3778      3.6099      3.8314      4.0384      4.2277      4.3969      4.5457      4.6731    
  4.8572      4.7777      4.6731      4.5457      4.3969      4.2277      4.0384      3.8314      3.6099      3.3778    
  3.1408      2.9048      2.6767      2.4637      2.2744      2.1169      1.9997      1.9300      1.9133      1.9526    
  2.0483      2.1978      2.3960      2.6353      2.9067      3.1990      3.5004      3.7980      4.0790      4.3312    
  4.5450      4.7129      4.8315      4.9013      4.9249      4.9080      5.4396      5.1848      4.9080      4.6200    
  4.3275      4.0356      3.7490      3.4707      3.2042      2.9527      2.7186      2.5047      2.3136      2.1494    
  2.0167      1.9218      1.8714      1.8723      1.9300      2.0483      2.2283      2.4685      2.7648      3.1105    
  3.4956      3.9073      4.3287      4.7399      5.1193      5.4451      5.6980      5.8649      5.9394      5.9230    
  5.8248      5.6583      6.6296      6.1552      5.6583      5.1617      4.6819      4.2290      3.8080      3.4230    
  3.0764      2.7695      2.5033      2.2781      2.0940      1.9519      1.8541      1.8044      1.8082      1.8714    
  1.9998      2.1978      2.4685      2.8126      3.2288      3.7122      4.2541      4.8392      5.4457      6.0435    
  6.5973      7.0702      7.4287      7.6468      7.7112      7.6226      7.3951      7.0536      8.6334      7.8581    
  7.0536      6.2636      5.5178      4.8340      4.2218      3.6822      3.2140      2.8153      2.4830      2.2150    
  2.0091      1.8641      1.7800      1.7589      1.8044      1.9218      2.1169      2.3960      2.7648      3.2288    
  3.7915      4.4534      5.2084      6.0406      6.9205      7.8054      8.6412      9.3675      9.9266      10.273    
  10.380      10.243      9.8790      9.3258      11.739      10.562      9.3258      8.1080      6.9683      5.9429    
  5.0452      4.2765      3.6292      3.0921      2.6559      2.3122      2.0555      1.8820      1.7901      1.7800    
  1.8541      2.0167      2.2744      2.6353      3.1105      3.7122      4.4534      5.3433      6.3824      7.5546    
  8.8230      10.126      11.381      12.500      13.392      13.980      14.213      14.072      13.574      12.772    
  16.308      14.594      12.772      10.960      9.2517      7.7152      6.3883      5.2749      4.3593      3.6191    
  3.0297      2.5723      2.2332      2.0047      1.8820      1.8641      1.9519      2.1494      2.4637      2.9067    
  3.4956      4.2541      5.2084      6.3824      7.7866      9.4080      11.197      13.073      14.930      16.639    
  18.056      19.054      19.541      19.475      18.866      17.776      22.755      20.382      17.776      15.140    
  12.641      10.384      8.4273      6.7973      5.4806      4.4378      3.6257      3.0046      2.5465      2.2332    
  2.0555      2.0091      2.0940      2.3137      2.6767      3.1990      3.9073      4.8392      6.0406      7.5546    
  9.4080      11.589      14.047      16.694      19.380      21.901      24.044      25.628      26.522      26.659    
  26.032      24.693      31.087      28.132      24.693      21.046      17.477      14.215      11.384      9.0180    
  7.1107      5.6226      4.4846      3.6302      3.0046      2.5723      2.3121      2.2150      2.2781      2.5047    
  2.9048      3.5004      4.3287      5.4457      6.9205      8.8230      11.197      14.047      17.341      20.954    
  24.648      28.129      31.112      33.373      34.768      35.230      34.744      33.338      40.461      37.313    
  33.338      28.801      24.071      19.538      15.510      12.134      9.4091      7.2810      5.6733      4.4846    
  3.6257      3.0297      2.6559      2.4830      2.5033      2.7186      3.1408      3.7980      4.7399      6.0435    
  7.8054      10.126      13.073      16.694      20.954      25.641      30.406      34.841      38.589      41.420    
  43.238      44.037      43.838      42.647      49.120      46.449      42.647      37.809      32.262      26.508    
  21.076      16.364      12.537      9.5459      7.2810      5.6226      4.4378      3.6191      3.0921      2.8153    
  2.7695      2.9527      3.3778      4.0790      5.1193      6.5973      8.6412      11.381      14.930      19.380    
  24.648      30.406      36.147      41.325      45.525      48.564      50.472      51.398      51.479      50.748    
  54.939      53.432      50.748      46.634      41.149      34.734      28.083      21.897      16.662      12.537    
  9.4091      7.1107      5.4806      4.3593      3.6292      3.2140      3.0764      3.2042      3.6099      4.3312    
  5.4451      7.0702      9.3675      12.500      16.639      21.901      28.129      34.841      41.325      46.875    
  51.032      53.716      55.170      55.788      55.905      55.658      56.523      56.489      55.658      53.359    
  49.168      43.176      36.014      28.626      21.897      16.364      12.134      9.0179      6.7972      5.2749    
  4.2765      3.6822      3.4230      3.4707      3.8314      4.5450      5.6980      7.4287      9.9266      13.392    
  18.056      24.044      31.112      38.589      45.525      51.032      54.623      56.379      56.827      56.649    
  56.404      56.375      54.230      55.324      56.375      56.471      54.650      50.370      43.850      36.014    
  28.083      21.076      15.510      11.384      8.4273      6.3883      5.0452      4.2218      3.8080      3.7490    
  4.0384      4.7129      5.8649      7.6468      10.273      13.980      19.054      25.628      33.373      41.420    
  48.564      53.716      56.379      56.848      55.982      54.750      53.861      53.669      50.229      51.579    