Cn_BCC                                  
   1.00000000000000     
     3.242103    0.000000    0.000000
    -1.080689    3.056688    0.000000
    -1.080689   -1.528319    2.647184
   Cn
     1
Direct
  0.000000  0.000000  0.000000
 
   36   36   36
 0.50882501888E+02 0.49790618975E+02 0.47624968221E+02 0.46736319264E+02 0.48629488274E+02
 0.52565632443E+02 0.55952426757E+02 0.56090094609E+02 0.51820647535E+02 0.43974886262E+02
 0.34583930303E+02 0.25676078517E+02 0.18467679161E+02 0.13233186141E+02 0.96353271886E+01
 0.72652365914E+01 0.58133001615E+01 0.50344685178E+01 0.47911587017E+01 0.50344685177E+01
 0.58133001613E+01 0.72652365912E+01 0.96353271884E+01 0.13233186141E+02 0.18467679160E+02
 0.25676078516E+02 0.34583930303E+02 0.43974886263E+02 0.51820647536E+02 0.56090094610E+02
 0.55952426758E+02 0.52565632444E+02 0.48629488275E+02 0.46736319265E+02 0.47624968222E+02
 0.49790618975E+02 0.49790618976E+02 0.49473181507E+02 0.47799320133E+02 0.46719821469E+02
 0.48007282722E+02 0.51579242529E+02 0.55323900219E+02 0.56489196597E+02 0.53431555468E+02
 0.46448732516E+02 0.37313100334E+02 0.28132143954E+02 0.20381870075E+02 0.14594256721E+02
 0.10561475778E+02 0.78580702983E+01 0.61551371611E+01 0.51847644571E+01 0.47776755668E+01
 0.48571708743E+01 0.54396077756E+01 0.66296192036E+01 0.86334366169E+01 0.11738570677E+02
 0.16307929158E+02 0.22754595624E+02 0.31086752305E+02 0.40460704187E+02 0.49120395724E+02
 0.54938981025E+02 0.56523340487E+02 0.54229956831E+02 0.50228832065E+02 0.47266982746E+02
 0.46873177582E+02 0.48401450109E+02 0.47624968222E+02 0.47799320134E+02 0.47131183526E+02
 0.46782154091E+02 0.48177972511E+02 0.51489355382E+02 0.55115672979E+02 0.56608048114E+02
 0.54221816795E+02 0.47906929392E+02 0.39134244071E+02 0.29929097994E+02 0.21883358702E+02
 0.15711090802E+02 0.11340776375E+02 0.83652367585E+01 0.64430673007E+01 0.52982297430E+01
 0.47367240587E+01 0.46599353351E+01 0.50528116905E+01 0.59871349388E+01 0.76221319991E+01
 0.10213310761E+02 0.14073041150E+02 0.19607406897E+02 0.27062615393E+02 0.36014967463E+02
 0.45148368943E+02 0.52490840170E+02 0.56263490547E+02 0.55936604853E+02 0.52746674246E+02
 0.49077730997E+02 0.46973865988E+02 0.46873177582E+02 0.46736319264E+02 0.46719821470E+02
 0.46782154092E+02 0.47349147824E+02 0.49180071509E+02 0.52304271238E+02 0.55470645141E+02
 0.56679655723E+02 0.54384698649E+02 0.48415189093E+02 0.39985212983E+02 0.30936426350E+02
 0.22836128666E+02 0.16481232793E+02 0.11905885673E+02 0.87431346776E+01 0.66536809573E+01
 0.53636095553E+01 0.46667573377E+01 0.44473685708E+01 0.46670510629E+01 0.53641805896E+01
 0.66544317806E+01 0.87439226559E+01 0.11906301622E+02 0.16480564579E+02 0.22832759497E+02
 0.30927688207E+02 0.39966938118E+02 0.48382373222E+02 0.54332671373E+02 0.56605721096E+02
 0.55377321415E+02 0.52199469003E+02 0.49077730995E+02 0.47266982744E+02 0.48629488271E+02
 0.48007282721E+02 0.48177972512E+02 0.49180071509E+02 0.51170347042E+02 0.53873166080E+02
 0.56214382214E+02 0.56636057673E+02 0.53937362628E+02 0.47997306551E+02 0.39843992303E+02
 0.31084996724E+02 0.23152388914E+02 0.16828080935E+02 0.12202340235E+02 0.89548612215E+01
 0.67650499722E+01 0.53706691576E+01 0.45651881066E+01 0.42232120860E+01 0.42911364060E+01
 0.47788331903E+01 0.57639300110E+01 0.73966455949E+01 0.99085717079E+01 0.13573212088E+02
 0.18736498693E+02 0.25630359527E+02 0.33946783189E+02 0.42661913138E+02 0.50209875650E+02
 0.55094291745E+02 0.56636916280E+02 0.55377321413E+02 0.52746674242E+02 0.50228832060E+02
 0.52565632437E+02 0.51579242525E+02 0.51489355380E+02 0.52304271237E+02 0.53873166080E+02
 0.55705054285E+02 0.56847892029E+02 0.56127304247E+02 0.52711881896E+02 0.46606411642E+02
 0.38704138531E+02 0.30360903821E+02 0.22800372007E+02 0.16713794447E+02 0.12197654108E+02
 0.89760394016E+01 0.67609867527E+01 0.53117913332E+01 0.44298937526E+01 0.39907115980E+01
 0.39304390503E+01 0.42417344416E+01 0.49669291737E+01 0.62105977409E+01 0.81447741860E+01
 0.11002124734E+02 0.15045949623E+02 0.20584773999E+02 0.27682272356E+02 0.35849084917E+02
 0.44010269953E+02 0.50792569830E+02 0.55094291745E+02 0.56605721094E+02 0.55936604848E+02
 0.54229956824E+02 0.55952426751E+02 0.55323900214E+02 0.55115672976E+02 0.55470645139E+02
 0.56214382213E+02 0.56847892029E+02 0.56593611455E+02 0.54622691534E+02 0.50433846248E+02
 0.44161580148E+02 0.36584677300E+02 0.28805553554E+02 0.21807385121E+02 0.16145313981E+02
 0.11887765287E+02 0.87985619057E+01 0.66349654263E+01 0.51828707174E+01 0.42612474914E+01
 0.37519924408E+01 0.35899731205E+01 0.37563804702E+01 0.42698320309E+01 0.51950779180E+01
 0.66498436444E+01 0.88141522552E+01 0.11901106406E+02 0.16150929229E+02 0.21796472933E+02
 0.28764353631E+02 0.36496328521E+02 0.44010269954E+02 0.50209875652E+02 0.54332671372E+02
 0.56263490544E+02 0.56523340482E+02 0.56090094606E+02 0.56489196594E+02 0.56608048111E+02
 0.56679655722E+02 0.56636057672E+02 0.56127304248E+02 0.54622691534E+02 0.51614498667E+02
 0.46874570694E+02 0.40635749431E+02 0.33564775637E+02 0.26524607663E+02 0.20258926284E+02
 0.15174446091E+02 0.11297513263E+02 0.84330700829E+01 0.63907844566E+01 0.49856812461E+01
 0.40611932218E+01 0.35102735625E+01 0.32729716629E+01 0.33245468054E+01 0.36701080887E+01
 0.43436544290E+01 0.54203956679E+01 0.70219567940E+01 0.93191053750E+01 0.12493696782E+02
 0.16743932335E+02 0.22218220498E+02 0.28764353632E+02 0.35849084919E+02 0.42661913141E+02
 0.48382373225E+02 0.52490840172E+02 0.54938981024E+02 0.51820647537E+02 0.53431555469E+02
 0.54221816796E+02 0.54384698649E+02 0.53937362629E+02 0.52711881897E+02 0.50433846249E+02
 0.46874570695E+02 0.42015307987E+02 0.36146708208E+02 0.29822452485E+02 0.23693727625E+02
 0.18291912384E+02 0.13890083922E+02 0.10476633673E+02 0.79076279158E+01 0.60425224143E+01
 0.47277845724E+01 0.38338026010E+01 0.32693564754E+01 0.29818505474E+01 0.29470301468E+01
 0.31615937269E+01 0.36418629150E+01 0.44291075011E+01 0.56004429011E+01 0.72714756091E+01
 0.95908386224E+01 0.12700805487E+02 0.16743932335E+02 0.21796472933E+02 0.27682272358E+02
 0.33946783193E+02 0.39966938123E+02 0.45148368948E+02 0.49120395727E+02 0.43974886268E+02
 0.46448732521E+02 0.47906929396E+02 0.48415189096E+02 0.47997306554E+02 0.46606411645E+02
 0.44161580151E+02 0.40635749432E+02 0.36146708209E+02 0.30999186588E+02 0.25641103553E+02
 0.20546781885E+02 0.16078112339E+02 0.12402384620E+02 0.94924558984E+01 0.72630524634E+01
 0.56130173440E+01 0.44211645701E+01 0.35857549491E+01 0.30326833309E+01 0.27191501505E+01
 0.26230575683E+01 0.27388867817E+01 0.30717613875E+01 0.36431516902E+01 0.44951132312E+01
 0.57004057202E+01 0.73592818511E+01 0.95908386221E+01 0.12493696782E+02 0.16150929229E+02
 0.20584774000E+02 0.25630359530E+02 0.30927688212E+02 0.36014967470E+02 0.40460704193E+02
 0.34583930309E+02 0.37313100340E+02 0.39134244076E+02 0.39985212988E+02 0.39843992307E+02
 0.38704138535E+02 0.36584677303E+02 0.33564775640E+02 0.29822452486E+02 0.25641103554E+02
 0.21369608683E+02 0.17340631555E+02 0.13794504819E+02 0.10824163686E+02 0.84202334267E+01
 0.65469725027E+01 0.51298571063E+01 0.40815449114E+01 0.33248791834E+01 0.28045344330E+01
 0.24860715269E+01 0.23522923084E+01 0.23962333282E+01 0.26191868526E+01 0.30299421282E+01
 0.36504024729E+01 0.45198104046E+01 0.57004057199E+01 0.72714756084E+01 0.93191053739E+01
 0.11901106405E+02 0.15045949622E+02 0.18736498694E+02 0.22832759500E+02 0.27062615399E+02
 0.31086752311E+02 0.25676078522E+02 0.28132143959E+02 0.29929097999E+02 0.30936426355E+02
 0.31084996728E+02 0.30360903825E+02 0.28805553557E+02 0.26524607665E+02 0.23693727627E+02
 0.20546781886E+02 0.17340631555E+02 0.14304647073E+02 0.11588938536E+02 0.92568473987E+01
 0.73339804153E+01 0.58057182769E+01 0.46225695007E+01 0.37254630483E+01 0.30608223006E+01
 0.25888860152E+01 0.22843334127E+01 0.21333548720E+01 0.21298846087E+01 0.22727636712E+01
 0.25656206127E+01 0.30181705743E+01 0.36504024727E+01 0.44951132307E+01 0.56004429002E+01
 0.70219567926E+01 0.88141522536E+01 0.11002124732E+02 0.13573212087E+02 0.16480564579E+02
 0.19607406899E+02 0.22754595628E+02 0.18467679162E+02 0.20381870078E+02 0.21883358705E+02
 0.22836128669E+02 0.23152388917E+02 0.22800372009E+02 0.21807385124E+02 0.20258926287E+02
 0.18291912386E+02 0.16078112340E+02 0.13794504819E+02 0.11588938537E+02 0.95628871943E+01
 0.77866418288E+01 0.62941633296E+01 0.50803330033E+01 0.41176642777E+01 0.33699525338E+01
 0.28032506229E+01 0.23910419295E+01 0.21154586913E+01 0.19658489278E+01 0.19365648098E+01
 0.20256213078E+01 0.22338321409E+01 0.25656206126E+01 0.30299421281E+01 0.36431516898E+01
 0.44291075004E+01 0.54203956666E+01 0.66498436427E+01 0.81447741839E+01 0.99085717060E+01
 0.11906301621E+02 0.14073041149E+02 0.16307929158E+02 0.13233186140E+02 0.14594256720E+02
 0.15711090802E+02 0.16481232794E+02 0.16828080936E+02 0.16713794448E+02 0.16145313982E+02
 0.15174446092E+02 0.13890083923E+02 0.12402384621E+02 0.10824163686E+02 0.92568473991E+01
 0.77866418289E+01 0.64728300813E+01 0.53433168170E+01 0.44020689261E+01 0.36372954827E+01
 0.30304030402E+01 0.25623281079E+01 0.22169813208E+01 0.19823725747E+01 0.18500858967E+01
 0.18147872417E+01 0.18734778136E+01 0.20256213078E+01 0.22727636712E+01 0.26191868525E+01
 0.30717613873E+01 0.36418629145E+01 0.43436544281E+01 0.51950779165E+01 0.62105977389E+01
 0.73966455925E+01 0.87439226534E+01 0.10213310759E+02 0.11738570675E+02 0.96353271856E+01
 0.10561475775E+02 0.11340776373E+02 0.11905885672E+02 0.12202340233E+02 0.12197654107E+02
 0.11887765287E+02 0.11297513262E+02 0.10476633673E+02 0.94924558986E+01 0.84202334269E+01
 0.73339804154E+01 0.62941633296E+01 0.53433168170E+01 0.45060525523E+01 0.37914624587E+01
 0.31983506552E+01 0.27200758560E+01 0.23480297960E+01 0.20737185341E+01 0.18893227574E+01
 0.17881471317E+01 0.17645945084E+01 0.18147872417E+01 0.19365648098E+01 0.21298846087E+01
 0.23962333281E+01 0.27388867815E+01 0.31615937266E+01 0.36701080881E+01 0.42698320299E+01
 0.49669291723E+01 0.57639300090E+01 0.66544317781E+01 0.76221319963E+01 0.86334366140E+01
 0.72652365882E+01 0.78580702951E+01 0.83652367554E+01 0.87431346748E+01 0.89548612191E+01
 0.89760393996E+01 0.87985619041E+01 0.84330700817E+01 0.79076279150E+01 0.72630524628E+01
 0.65469725024E+01 0.58057182767E+01 0.50803330032E+01 0.44020689261E+01 0.37914624587E+01
 0.32600312341E+01 0.28126393221E+01 0.24498535761E+01 0.21697843890E+01 0.19687687819E+01
 0.18419964063E+01 0.17837113586E+01 0.17881471317E+01 0.18500858967E+01 0.19658489277E+01
 0.21333548719E+01 0.23522923083E+01 0.26230575681E+01 0.29470301466E+01 0.33245468051E+01
 0.37563804697E+01 0.42417344408E+01 0.47788331890E+01 0.53641805878E+01 0.59871349365E+01
 0.66296192009E+01 0.58133001590E+01 0.61551371585E+01 0.64430672980E+01 0.66536809546E+01
 0.67650499697E+01 0.67609867504E+01 0.66349654243E+01 0.63907844549E+01 0.60425224130E+01
 0.56130173430E+01 0.51298571057E+01 0.46225695003E+01 0.41176642774E+01 0.36372954826E+01
 0.31983506551E+01 0.28126393221E+01 0.24877922669E+01 0.22282809214E+01 0.20357925354E+01
 0.19096393558E+01 0.18466892006E+01 0.18419964063E+01 0.18893227574E+01 0.19823725747E+01
 0.21154586912E+01 0.22843334126E+01 0.24860715266E+01 0.27191501502E+01 0.29818505470E+01
 0.32729716626E+01 0.35899731201E+01 0.39304390498E+01 0.42911364052E+01 0.46670510618E+01
 0.50528116890E+01 0.54396077737E+01 0.50344685163E+01 0.51847644554E+01 0.52982297411E+01
 0.53636095533E+01 0.53706691557E+01 0.53117913313E+01 0.51828707156E+01 0.49856812445E+01
 0.47277845711E+01 0.44211645690E+01 0.40815449106E+01 0.37254630477E+01 0.33699525335E+01
 0.30304030400E+01 0.27200758560E+01 0.24498535761E+01 0.22282809214E+01 0.20613607696E+01
 0.19526178281E+01 0.19027130348E+01 0.19096393558E+01 0.19687687819E+01 0.20737185341E+01
 0.22169813208E+01 0.23910419293E+01 0.25888860150E+01 0.28045344326E+01 0.30326833304E+01
 0.32693564748E+01 0.35102735619E+01 0.37519924402E+01 0.39907115973E+01 0.42232120853E+01
 0.44473685700E+01 0.46599353341E+01 0.48571708731E+01 0.47911587006E+01 0.47776755657E+01
 0.47367240576E+01 0.46667573366E+01 0.45651881055E+01 0.44298937514E+01 0.42612474902E+01
 0.40611932207E+01 0.38338025999E+01 0.35857549482E+01 0.33248791827E+01 0.30608223000E+01
 0.28032506226E+01 0.25623281077E+01 0.23480297959E+01 0.21697843889E+01 0.20357925354E+01
 0.19526178281E+01 0.19243912898E+01 0.19526178281E+01 0.20357925354E+01 0.21697843890E+01
 0.23480297960E+01 0.25623281078E+01 0.28032506227E+01 0.30608223002E+01 0.33248791828E+01
 0.35857549483E+01 0.38338026000E+01 0.40611932207E+01 0.42612474903E+01 0.44298937515E+01
 0.45651881055E+01 0.46667573366E+01 0.47367240576E+01 0.47776755657E+01 0.50344685163E+01
 0.48571708731E+01 0.46599353341E+01 0.44473685701E+01 0.42232120854E+01 0.39907115974E+01
 0.37519924402E+01 0.35102735619E+01 0.32693564747E+01 0.30326833303E+01 0.28045344325E+01
 0.25888860149E+01 0.23910419292E+01 0.22169813207E+01 0.20737185340E+01 0.19687687819E+01
 0.19096393558E+01 0.19027130348E+01 0.19526178281E+01 0.20613607696E+01 0.22282809214E+01
 0.24498535762E+01 0.27200758561E+01 0.30304030402E+01 0.33699525337E+01 0.37254630479E+01
 0.40815449108E+01 0.44211645692E+01 0.47277845713E+01 0.49856812447E+01 0.51828707158E+01
 0.53117913314E+01 0.53706691558E+01 0.53636095534E+01 0.52982297412E+01 0.51847644555E+01
 0.58133001592E+01 0.54396077738E+01 0.50528116891E+01 0.46670510619E+01 0.42911364053E+01
 0.39304390499E+01 0.35899731202E+01 0.32729716626E+01 0.29818505470E+01 0.27191501501E+01
 0.24860715266E+01 0.22843334125E+01 0.21154586912E+01 0.19823725746E+01 0.18893227574E+01
 0.18419964063E+01 0.18466892006E+01 0.19096393558E+01 0.20357925354E+01 0.22282809214E+01
 0.24877922670E+01 0.28126393222E+01 0.31983506553E+01 0.36372954828E+01 0.41176642776E+01
 0.46225695005E+01 0.51298571059E+01 0.56130173433E+01 0.60425224132E+01 0.63907844551E+01
 0.66349654245E+01 0.67609867506E+01 0.67650499699E+01 0.66536809548E+01 0.64430672982E+01
 0.61551371586E+01 0.72652365885E+01 0.66296192011E+01 0.59871349367E+01 0.53641805880E+01
 0.47788331891E+01 0.42417344409E+01 0.37563804698E+01 0.33245468051E+01 0.29470301466E+01
 0.26230575681E+01 0.23522923083E+01 0.21333548719E+01 0.19658489277E+01 0.18500858967E+01
 0.17881471317E+01 0.17837113586E+01 0.18419964063E+01 0.19687687819E+01 0.21697843890E+01
 0.24498535762E+01 0.28126393222E+01 0.32600312343E+01 0.37914624588E+01 0.44020689263E+01
 0.50803330034E+01 0.58057182770E+01 0.65469725027E+01 0.72630524631E+01 0.79076279153E+01
 0.84330700820E+01 0.87985619044E+01 0.89760393999E+01 0.89548612194E+01 0.87431346751E+01
 0.83652367557E+01 0.78580702953E+01 0.96353271859E+01 0.86334366143E+01 0.76221319966E+01
 0.66544317783E+01 0.57639300091E+01 0.49669291724E+01 0.42698320300E+01 0.36701080882E+01
 0.31615937266E+01 0.27388867816E+01 0.23962333281E+01 0.21298846087E+01 0.19365648098E+01
 0.18147872417E+01 0.17645945085E+01 0.17881471317E+01 0.18893227574E+01 0.20737185341E+01
 0.23480297961E+01 0.27200758561E+01 0.31983506553E+01 0.37914624588E+01 0.45060525525E+01
 0.53433168172E+01 0.62941633299E+01 0.73339804157E+01 0.84202334272E+01 0.94924558989E+01
 0.10476633673E+02 0.11297513263E+02 0.11887765287E+02 0.12197654107E+02 0.12202340234E+02
 0.11905885672E+02 0.11340776373E+02 0.10561475775E+02 0.13233186140E+02 0.11738570676E+02
 0.10213310760E+02 0.87439226537E+01 0.73966455927E+01 0.62105977391E+01 0.51950779167E+01
 0.43436544281E+01 0.36418629145E+01 0.30717613873E+01 0.26191868525E+01 0.22727636712E+01
 0.20256213079E+01 0.18734778136E+01 0.18147872417E+01 0.18500858968E+01 0.19823725747E+01
 0.22169813209E+01 0.25623281080E+01 0.30304030403E+01 0.36372954828E+01 0.44020689263E+01
 0.53433168172E+01 0.64728300816E+01 0.77866418292E+01 0.92568473994E+01 0.10824163687E+02
 0.12402384621E+02 0.13890083924E+02 0.15174446092E+02 0.16145313983E+02 0.16713794449E+02
 0.16828080936E+02 0.16481232794E+02 0.15711090803E+02 0.14594256720E+02 0.18467679163E+02
 0.16307929159E+02 0.14073041150E+02 0.11906301621E+02 0.99085717063E+01 0.81447741842E+01
 0.66498436429E+01 0.54203956667E+01 0.44291075004E+01 0.36431516899E+01 0.30299421281E+01
 0.25656206127E+01 0.22338321409E+01 0.20256213079E+01 0.19365648099E+01 0.19658489278E+01
 0.21154586913E+01 0.23910419295E+01 0.28032506230E+01 0.33699525339E+01 0.41176642778E+01
 0.50803330035E+01 0.62941633298E+01 0.77866418291E+01 0.95628871947E+01 0.11588938537E+02
 0.13794504820E+02 0.16078112341E+02 0.18291912386E+02 0.20258926287E+02 0.21807385124E+02
 0.22800372009E+02 0.23152388917E+02 0.22836128669E+02 0.21883358706E+02 0.20381870078E+02
 0.25676078522E+02 0.22754595628E+02 0.19607406900E+02 0.16480564580E+02 0.13573212088E+02
 0.11002124733E+02 0.88141522539E+01 0.70219567928E+01 0.56004429003E+01 0.44951132308E+01
 0.36504024728E+01 0.30181705743E+01 0.25656206127E+01 0.22727636712E+01 0.21298846088E+01
 0.21333548720E+01 0.22843334128E+01 0.25888860153E+01 0.30608223006E+01 0.37254630484E+01
 0.46225695008E+01 0.58057182771E+01 0.73339804155E+01 0.92568473991E+01 0.11588938537E+02
 0.14304647073E+02 0.17340631555E+02 0.20546781886E+02 0.23693727627E+02 0.26524607665E+02
 0.28805553557E+02 0.30360903825E+02 0.31084996728E+02 0.30936426355E+02 0.29929098000E+02
 0.28132143960E+02 0.34583930310E+02 0.31086752312E+02 0.27062615400E+02 0.22832759501E+02
 0.18736498695E+02 0.15045949623E+02 0.11901106406E+02 0.93191053743E+01 0.72714756086E+01
 0.57004057201E+01 0.45198104047E+01 0.36504024730E+01 0.30299421283E+01 0.26191868527E+01
 0.23962333282E+01 0.23522923085E+01 0.24860715269E+01 0.28045344331E+01 0.33248791834E+01
 0.40815449115E+01 0.51298571065E+01 0.65469725030E+01 0.84202334270E+01 0.10824163686E+02
 0.13794504819E+02 0.17340631555E+02 0.21369608683E+02 0.25641103554E+02 0.29822452486E+02
 0.33564775639E+02 0.36584677302E+02 0.38704138534E+02 0.39843992306E+02 0.39985212987E+02
 0.39134244076E+02 0.37313100341E+02 0.43974886269E+02 0.40460704194E+02 0.36014967471E+02
 0.30927688213E+02 0.25630359531E+02 0.20584774001E+02 0.16150929229E+02 0.12493696782E+02
 0.95908386224E+01 0.73592818513E+01 0.57004057204E+01 0.44951132313E+01 0.36431516903E+01
 0.30717613876E+01 0.27388867817E+01 0.26230575683E+01 0.27191501505E+01 0.30326833310E+01
 0.35857549492E+01 0.44211645701E+01 0.56130173441E+01 0.72630524636E+01 0.94924558987E+01
 0.12402384620E+02 0.16078112339E+02 0.20546781885E+02 0.25641103553E+02 0.30999186588E+02
 0.36146708209E+02 0.40635749431E+02 0.44161580149E+02 0.46606411643E+02 0.47997306552E+02
 0.48415189095E+02 0.47906929395E+02 0.46448732521E+02 0.51820647537E+02 0.49120395728E+02
 0.45148368949E+02 0.39966938124E+02 0.33946783194E+02 0.27682272359E+02 0.21796472934E+02
 0.16743932336E+02 0.12700805487E+02 0.95908386228E+01 0.72714756093E+01 0.56004429012E+01
 0.44291075013E+01 0.36418629151E+01 0.31615937270E+01 0.29470301469E+01 0.29818505474E+01
 0.32693564754E+01 0.38338026010E+01 0.47277845725E+01 0.60425224144E+01 0.79076279160E+01
 0.10476633673E+02 0.13890083923E+02 0.18291912384E+02 0.23693727625E+02 0.29822452484E+02
 0.36146708208E+02 0.42015307986E+02 0.46874570693E+02 0.50433846246E+02 0.52711881894E+02
 0.53937362626E+02 0.54384698647E+02 0.54221816794E+02 0.53431555468E+02 0.56090094606E+02
 0.54938981024E+02 0.52490840173E+02 0.48382373227E+02 0.42661913142E+02 0.35849084921E+02
 0.28764353633E+02 0.22218220499E+02 0.16743932336E+02 0.12493696783E+02 0.93191053753E+01
 0.70219567942E+01 0.54203956680E+01 0.43436544291E+01 0.36701080888E+01 0.33245468055E+01
 0.32729716630E+01 0.35102735625E+01 0.40611932218E+01 0.49856812461E+01 0.63907844566E+01
 0.84330700830E+01 0.11297513263E+02 0.15174446091E+02 0.20258926285E+02 0.26524607663E+02
 0.33564775637E+02 0.40635749430E+02 0.46874570692E+02 0.51614498665E+02 0.54622691531E+02
 0.56127304244E+02 0.56636057669E+02 0.56679655718E+02 0.56608048109E+02 0.56489196592E+02
 0.55952426750E+02 0.56523340482E+02 0.56263490545E+02 0.54332671374E+02 0.50209875654E+02
 0.44010269956E+02 0.36496328522E+02 0.28764353632E+02 0.21796472933E+02 0.16150929229E+02
 0.11901106407E+02 0.88141522554E+01 0.66498436446E+01 0.51950779181E+01 0.42698320310E+01
 0.37563804703E+01 0.35899731205E+01 0.37519924408E+01 0.42612474914E+01 0.51828707174E+01
 0.66349654263E+01 0.87985619057E+01 0.11887765287E+02 0.16145313981E+02 0.21807385121E+02
 0.28805553554E+02 0.36584677299E+02 0.44161580148E+02 0.50433846246E+02 0.54622691532E+02
 0.56593611452E+02 0.56847892025E+02 0.56214382209E+02 0.55470645135E+02 0.55115672973E+02
 0.55323900212E+02 0.52565632436E+02 0.54229956824E+02 0.55936604849E+02 0.56605721096E+02
 0.55094291747E+02 0.50792569832E+02 0.44010269955E+02 0.35849084919E+02 0.27682272357E+02
 0.20584773999E+02 0.15045949623E+02 0.11002124734E+02 0.81447741862E+01 0.62105977411E+01
 0.49669291739E+01 0.42417344418E+01 0.39304390504E+01 0.39907115980E+01 0.44298937526E+01
 0.53117913331E+01 0.67609867527E+01 0.89760394016E+01 0.12197654108E+02 0.16713794447E+02
 0.22800372007E+02 0.30360903821E+02 0.38704138532E+02 0.46606411642E+02 0.52711881895E+02
 0.56127304246E+02 0.56847892026E+02 0.55705054282E+02 0.53873166076E+02 0.52304271233E+02
 0.51489355377E+02 0.51579242523E+02 0.48629488270E+02 0.50228832060E+02 0.52746674243E+02
 0.55377321415E+02 0.56636916282E+02 0.55094291747E+02 0.50209875652E+02 0.42661913139E+02
 0.33946783190E+02 0.25630359528E+02 0.18736498693E+02 0.13573212088E+02 0.99085717082E+01
 0.73966455950E+01 0.57639300111E+01 0.47788331904E+01 0.42911364061E+01 0.42232120860E+01
 0.45651881066E+01 0.53706691575E+01 0.67650499721E+01 0.89548612214E+01 0.12202340235E+02
 0.16828080935E+02 0.23152388915E+02 0.31084996724E+02 0.39843992303E+02 0.47997306551E+02
 0.53937362629E+02 0.56636057673E+02 0.56214382213E+02 0.53873166077E+02 0.51170347039E+02
 0.49180071506E+02 0.48177972509E+02 0.48007282719E+02 0.46736319263E+02 0.47266982744E+02
 0.49077730996E+02 0.52199469005E+02 0.55377321417E+02 0.56605721097E+02 0.54332671374E+02
 0.48382373223E+02 0.39966938119E+02 0.30927688207E+02 0.22832759497E+02 0.16480564579E+02
 0.11906301623E+02 0.87439226561E+01 0.66544317807E+01 0.53641805898E+01 0.46670510630E+01
 0.44473685709E+01 0.46667573377E+01 0.53636095552E+01 0.66536809572E+01 0.87431346774E+01
 0.11905885673E+02 0.16481232793E+02 0.22836128666E+02 0.30936426350E+02 0.39985212984E+02
 0.48415189094E+02 0.54384698650E+02 0.56679655724E+02 0.55470645141E+02 0.52304271237E+02
 0.49180071507E+02 0.47349147822E+02 0.46782154090E+02 0.46719821468E+02 0.47624968222E+02
 0.46873177582E+02 0.46973865988E+02 0.49077730998E+02 0.52746674247E+02 0.55936604853E+02
 0.56263490547E+02 0.52490840171E+02 0.45148368944E+02 0.36014967464E+02 0.27062615394E+02
 0.19607406897E+02 0.14073041150E+02 0.10213310762E+02 0.76221319993E+01 0.59871349390E+01
 0.50528116906E+01 0.46599353351E+01 0.47367240587E+01 0.52982297429E+01 0.64430673006E+01
 0.83652367583E+01 0.11340776375E+02 0.15711090802E+02 0.21883358702E+02 0.29929097994E+02
 0.39134244071E+02 0.47906929393E+02 0.54221816797E+02 0.56608048116E+02 0.55115672980E+02
 0.51489355383E+02 0.48177972511E+02 0.46782154090E+02 0.47131183525E+02 0.47799320133E+02
 0.49790618975E+02 0.48401450109E+02 0.46873177582E+02 0.47266982746E+02 0.50228832065E+02
 0.54229956831E+02 0.56523340487E+02 0.54938981025E+02 0.49120395724E+02 0.40460704187E+02
 0.31086752305E+02 0.22754595624E+02 0.16307929158E+02 0.11738570677E+02 0.86334366171E+01
 0.66296192038E+01 0.54396077758E+01 0.48571708744E+01 0.47776755668E+01 0.51847644570E+01
 0.61551371610E+01 0.78580702981E+01 0.10561475777E+02 0.14594256720E+02 0.20381870075E+02
 0.28132143954E+02 0.37313100334E+02 0.46448732517E+02 0.53431555469E+02 0.56489196599E+02
 0.55323900220E+02 0.51579242530E+02 0.48007282723E+02 0.46719821469E+02 0.47799320132E+02
 0.49473181506E+02 0.49790618976E+02 0.49473181507E+02 0.47799320132E+02 0.46719821468E+02
 0.48007282722E+02 0.51579242530E+02 0.55323900221E+02 0.56489196600E+02 0.53431555471E+02
 0.46448732519E+02 0.37313100336E+02 0.28132143956E+02 0.20381870076E+02 0.14594256721E+02
 0.10561475778E+02 0.78580702986E+01 0.61551371613E+01 0.51847644572E+01 0.47776755669E+01
 0.48571708742E+01 0.54396077755E+01 0.66296192034E+01 0.86334366165E+01 0.11738570676E+02
 0.16307929157E+02 0.22754595622E+02 0.31086752303E+02 0.40460704184E+02 0.49120395721E+02
 0.54938981023E+02 0.56523340486E+02 0.54229956830E+02 0.50228832065E+02 0.47266982748E+02
 0.46873177584E+02 0.48401450110E+02 0.49473181507E+02 0.49790475468E+02 0.48401382830E+02
 0.46873158147E+02 0.47266989697E+02 0.50228716816E+02 0.54230097809E+02 0.56523302672E+02
 0.54938878904E+02 0.49120330450E+02 0.40460589840E+02 0.31086666517E+02 0.22754496130E+02
 0.16307871936E+02 0.11738523461E+02 0.86334094531E+01 0.66295968804E+01 0.54395988477E+01
 0.48571656524E+01 0.47776776372E+01 0.51847713096E+01 0.61551519465E+01 0.78580902956E+01
 0.10561516032E+02 0.14594299187E+02 0.20381948685E+02 0.28132217838E+02 0.37313226536E+02
 0.46448759497E+02 0.53431606173E+02 0.56489217692E+02 0.55323850643E+02 0.51579365519E+02
 0.48007187086E+02 0.46719788717E+02 0.47799319357E+02 0.47799320133E+02 0.48401382830E+02
 0.47799371351E+02 0.46830890470E+02 0.47204291833E+02 0.49811840162E+02 0.53668983915E+02
 0.56374809570E+02 0.55658056162E+02 0.50748195763E+02 0.42646871764E+02 0.33338089882E+02
 0.24692747357E+02 0.17775796221E+02 0.12771495733E+02 0.93257588970E+01 0.70535587448E+01
 0.56582987456E+01 0.49080363451E+01 0.46730923626E+01 0.49080473248E+01 0.56583226516E+01
 0.70535990857E+01 0.93258181787E+01 0.12771596272E+02 0.17775916873E+02 0.24692928035E+02
 0.33338267073E+02 0.42647124258E+02 0.50748343961E+02 0.55658049207E+02 0.56374766435E+02
 0.53668808231E+02 0.49811712431E+02 0.47204276807E+02 0.46830863473E+02 0.46719821468E+02
 0.46873158148E+02 0.46830890471E+02 0.46782067484E+02 0.47727954155E+02 0.50320693157E+02
 0.53861614345E+02 0.56403629091E+02 0.55904783352E+02 0.51478531015E+02 0.43837885587E+02
 0.34744123466E+02 0.26031453678E+02 0.18866398809E+02 0.13574318180E+02 0.98789945643E+01
 0.73950332162E+01 0.58247389610E+01 0.49248941271E+01 0.45456567222E+01 0.46200165379E+01
 0.51616891755E+01 0.62636253139E+01 0.81080295831E+01 0.10959650602E+02 0.15140142596E+02
 0.21045659255E+02 0.28801008993E+02 0.37808963600E+02 0.46633565023E+02 0.53358678829E+02
 0.56470663157E+02 0.55772608888E+02 0.52639484993E+02 0.49242539231E+02 0.47204302998E+02
 0.48007282720E+02 0.47266989696E+02 0.47204291833E+02 0.47727954155E+02 0.49180175860E+02
 0.51743602557E+02 0.54749856170E+02 0.56649048417E+02 0.55788580136E+02 0.51397802156E+02
 0.44037058523E+02 0.35229564361E+02 0.26658893988E+02 0.19475348940E+02 0.14071962673E+02
 0.10242870480E+02 0.76226038810E+01 0.59230044615E+01 0.49012370079E+01 0.43969280058E+01
 0.43275116748E+01 0.46818582058E+01 0.55178134462E+01 0.69682737462E+01 0.92517096898E+01
 0.12640713763E+02 0.17476598743E+02 0.24070637575E+02 0.32261931612E+02 0.41148980924E+02
 0.49168448478E+02 0.54649970615E+02 0.56641392728E+02 0.55484277435E+02 0.52639621461E+02
 0.49811874756E+02 0.51579242525E+02 0.50228716812E+02 0.49811840160E+02 0.50320693155E+02
 0.51743602557E+02 0.53873108564E+02 0.55981818436E+02 0.56826957112E+02 0.55170406822E+02
 0.50471958970E+02 0.43238242024E+02 0.34767459255E+02 0.26522200888E+02 0.19541201737E+02
 0.14213259942E+02 0.10380303741E+02 0.77111780457E+01 0.59394025210E+01 0.48315380806E+01
 0.42276812767E+01 0.40355876826E+01 0.42289776488E+01 0.48340315637E+01 0.59428948426E+01
 0.77151557051E+01 0.10383927779E+02 0.14214801531E+02 0.19537611414E+02 0.26507819619E+02
 0.34734182916E+02 0.43175658932E+02 0.50370432211E+02 0.55025074541E+02 0.56641281647E+02
 0.55772530851E+02 0.53668780859E+02 0.55323900215E+02 0.54230097803E+02 0.53668983910E+02
 0.53861614342E+02 0.54749856168E+02 0.55981818435E+02 0.56847883822E+02 0.56378962466E+02
 0.53715304207E+02 0.48563904790E+02 0.41420180690E+02 0.33372415851E+02 0.25628131745E+02
 0.19053541964E+02 0.13980349818E+02 0.10273179978E+02 0.76468209932E+01 0.58648522888E+01
 0.47129408024E+01 0.40383717860E+01 0.37489775199E+01 0.38079770856E+01 0.42217894299E+01
 0.50451991935E+01 0.63883484771E+01 0.84273232518E+01 0.11384342256E+02 0.15509719920E+02
 0.21075838810E+02 0.28082867776E+02 0.36013670138E+02 0.43850422476E+02 0.50370468342E+02
 0.54649997587E+02 0.56470660910E+02 0.56374879564E+02 0.56489196596E+02 0.56523302667E+02
 0.56374809565E+02 0.56403629087E+02 0.56649048414E+02 0.56826957111E+02 0.56378962466E+02
 0.54622547094E+02 0.51031686125E+02 0.45525481500E+02 0.38588987695E+02 0.31112233482E+02
 0.24044350843E+02 0.18055453562E+02 0.13391644730E+02 0.99265321521E+01 0.74286387866E+01
 0.56980108953E+01 0.45449585783E+01 0.38313845657E+01 0.34707334258E+01 0.34229929542E+01
 0.36822395058E+01 0.42765046461E+01 0.52748964424E+01 0.67972538019E+01 0.90179520161E+01
 0.12134360596E+02 0.16363589723E+02 0.21897360158E+02 0.28626481988E+02 0.36013652450E+02
 0.43175605650E+02 0.49168425276E+02 0.53358596232E+02 0.55658074020E+02 0.53431555471E+02
 0.54938878903E+02 0.55658056160E+02 0.55904783350E+02 0.55788580134E+02 0.55170406822E+02
 0.53715304207E+02 0.51031686125E+02 0.46874588534E+02 0.41324356535E+02 0.34840393552E+02
 0.28129052544E+02 0.21900475353E+02 0.16638482330E+02 0.12499579123E+02 0.93674215655E+01
 0.70701382015E+01 0.54450891256E+01 0.43311456690E+01 0.36098855269E+01 0.32041535333E+01
 0.30764447453E+01 0.32140005685E+01 0.36292433305E+01 0.43593221616E+01 0.54806041255E+01
 0.71107053944E+01 0.94090570765E+01 0.12536672510E+02 0.16662062842E+02 0.21897348372E+02
 0.28082861526E+02 0.34734152032E+02 0.41148954490E+02 0.46633494508E+02 0.50748269114E+02
 0.46448732524E+02 0.49120330453E+02 0.50748195764E+02 0.51478531015E+02 0.51397802156E+02
 0.50471958971E+02 0.48563904791E+02 0.45525481501E+02 0.41324356535E+02 0.36146509115E+02