   1   1   0   0
  0.2623385E+02  0.3242103E-09  0.3242103E-09  0.3242103E-09  0.1000000E-15
  1.000000000000000E-004
  CAR 
 Cn_BCC                                  
     61.06155269     -8.67436167  301      3.52215918      1.00000000
     -8.674  0.0000E+00  0.0000E+00
     -8.442  0.0000E+00  0.0000E+00
     -8.209  0.0000E+00  0.0000E+00
     -7.977  0.0000E+00  0.0000E+00
     -7.745  0.0000E+00  0.0000E+00
     -7.512  0.0000E+00  0.0000E+00
     -7.280  0.0000E+00  0.0000E+00
     -7.047  0.0000E+00  0.0000E+00
     -6.815  0.0000E+00  0.0000E+00
     -6.582  0.0000E+00  0.0000E+00
     -6.350  0.0000E+00  0.0000E+00
     -6.117  0.0000E+00  0.0000E+00
     -5.885  0.0000E+00  0.0000E+00
     -5.652  0.0000E+00  0.0000E+00
     -5.420  0.0000E+00  0.9259E-02
     -5.188  0.0000E+00  0.9259E-02
     -4.955  0.0000E+00  0.9259E-02
     -4.723  0.0000E+00  0.1204E+00
     -4.490  0.0000E+00  0.1204E+00
     -4.258  0.0000E+00  0.1204E+00
     -4.025  0.0000E+00  0.1759E+00
     -3.793  0.0000E+00  0.1759E+00
     -3.560  0.0000E+00  0.3981E+00
     -3.328  0.0000E+00  0.3981E+00
     -3.095  0.0000E+00  0.5093E+00
     -2.863  0.0000E+00  0.5093E+00
     -2.631  0.0000E+00  0.7870E+00
     -2.398  0.0000E+00  0.1231E+01
     -2.166  0.0000E+00  0.1491E+01
     -1.933  0.0000E+00  0.1843E+01
     -1.701  0.2390E+00  0.3935E+01
     -1.468  0.0000E+00  0.4398E+01
     -1.236  0.0000E+00  0.4472E+01
     -1.003  0.0000E+00  0.4806E+01
     -0.771  0.0000E+00  0.4806E+01
     -0.539  0.0000E+00  0.4806E+01
     -0.306  0.0000E+00  0.5250E+01
     -0.074  0.0000E+00  0.5750E+01
      0.159  0.0000E+00  0.5806E+01
      0.391  0.0000E+00  0.5880E+01
      0.624  0.0000E+00  0.5991E+01
      0.856  0.0000E+00  0.6065E+01
      1.089  0.4776E-15  0.6296E+01
      1.321  0.9560E+00  0.7796E+01
      1.554  0.0000E+00  0.8333E+01
      1.786  0.0000E+00  0.9185E+01
      2.018  0.0000E+00  0.9815E+01
      2.251  0.0000E+00  0.1035E+02
      2.483  0.0000E+00  0.1091E+02
      2.716  0.0000E+00  0.1091E+02
      2.948  0.0000E+00  0.1163E+02
      3.181  0.0000E+00  0.1194E+02
      3.413  0.0000E+00  0.1199E+02
      3.646  0.0000E+00  0.1206E+02
      3.878  0.0000E+00  0.1206E+02
      4.111  0.0000E+00  0.1206E+02
      4.343  0.0000E+00  0.1206E+02
      4.575  0.0000E+00  0.1206E+02
      4.808  0.0000E+00  0.1206E+02
      5.040  0.0000E+00  0.1217E+02
      5.273  0.0000E+00  0.1217E+02
      5.505  0.6918E-06  0.1217E+02
      5.738  0.0000E+00  0.1218E+02
      5.970  0.0000E+00  0.1262E+02
      6.203  0.0000E+00  0.1262E+02
      6.435  0.0000E+00  0.1273E+02
      6.668  0.0000E+00  0.1295E+02
      6.900  0.7522E-05  0.1314E+02
      7.132  0.0000E+00  0.1321E+02
      7.365  0.0000E+00  0.1321E+02
      7.597  0.0000E+00  0.1321E+02
      7.830  0.0000E+00  0.1332E+02
      8.062  0.0000E+00  0.1360E+02
      8.295  0.0000E+00  0.1360E+02
      8.527  0.0000E+00  0.1360E+02
      8.760  0.0000E+00  0.1360E+02
      8.992  0.0000E+00  0.1368E+02
      9.225  0.0000E+00  0.1368E+02
      9.457  0.0000E+00  0.1390E+02
      9.689  0.0000E+00  0.1390E+02
      9.922  0.0000E+00  0.1390E+02
     10.154  0.0000E+00  0.1390E+02
     10.387  0.7967E-01  0.1425E+02
     10.619  0.0000E+00  0.1436E+02
     10.852  0.0000E+00  0.1436E+02
     11.084  0.0000E+00  0.1436E+02
     11.317  0.0000E+00  0.1442E+02
     11.549  0.0000E+00  0.1442E+02
     11.782  0.0000E+00  0.1492E+02
     12.014  0.0000E+00  0.1510E+02
     12.246  0.0000E+00  0.1521E+02
     12.479  0.4780E+00  0.1532E+02
     12.711  0.2390E+00  0.1549E+02
     12.944  0.0000E+00  0.1549E+02
     13.176  0.0000E+00  0.1549E+02
     13.409  0.0000E+00  0.1577E+02
     13.641  0.0000E+00  0.1577E+02
     13.874  0.0000E+00  0.1584E+02
     14.106  0.0000E+00  0.1596E+02
     14.338  0.0000E+00  0.1619E+02
     14.571  0.0000E+00  0.1619E+02
     14.803  0.0000E+00  0.1619E+02
     15.036  0.0000E+00  0.1630E+02
     15.268  0.0000E+00  0.1637E+02
     15.501  0.0000E+00  0.1681E+02
     15.733  0.0000E+00  0.1709E+02
     15.966  0.0000E+00  0.1731E+02
     16.198  0.0000E+00  0.1737E+02
     16.431  0.0000E+00  0.1737E+02
     16.663  0.0000E+00  0.1737E+02
     16.895  0.0000E+00  0.1770E+02
     17.128  0.0000E+00  0.1770E+02
     17.360  0.0000E+00  0.1776E+02
     17.593  0.0000E+00  0.1794E+02
     17.825  0.0000E+00  0.1794E+02
     18.058  0.0000E+00  0.1806E+02
     18.290  0.0000E+00  0.1806E+02
     18.523  0.0000E+00  0.1817E+02
     18.755  0.0000E+00  0.1858E+02
     18.988  0.2542E+00  0.1864E+02
     19.220  0.0000E+00  0.1881E+02
     19.452  0.0000E+00  0.1892E+02
     19.685  0.0000E+00  0.1914E+02
     19.917  0.0000E+00  0.1942E+02
     20.150  0.0000E+00  0.1942E+02
     20.382  0.0000E+00  0.1947E+02
     20.615  0.0000E+00  0.2008E+02
     20.847  0.0000E+00  0.2031E+02
     21.080  0.0000E+00  0.2060E+02
     21.312  0.4780E+00  0.2105E+02
     21.545  0.0000E+00  0.2116E+02
     21.777  0.9020E+00  0.2144E+02
     22.009  0.0000E+00  0.2195E+02
     22.242  0.0000E+00  0.2203E+02
     22.474  0.0000E+00  0.2219E+02
     22.707  0.0000E+00  0.2219E+02
     22.939  0.0000E+00  0.2281E+02
     23.172  0.0000E+00  0.2281E+02
     23.404  0.0000E+00  0.2352E+02
     23.637  0.0000E+00  0.2365E+02
     23.869  0.0000E+00  0.2376E+02
     24.102  0.0000E+00  0.2381E+02
     24.334  0.0000E+00  0.2393E+02
     24.566  0.0000E+00  0.2416E+02
     24.799  0.0000E+00  0.2436E+02
     25.031  0.0000E+00  0.2447E+02
     25.264  0.0000E+00  0.2453E+02
     25.496  0.0000E+00  0.2471E+02
     25.729  0.0000E+00  0.2505E+02
     25.961  0.0000E+00  0.2560E+02
     26.194  0.0000E+00  0.2582E+02
     26.426  0.0000E+00  0.2594E+02
     26.659  0.0000E+00  0.2616E+02
     26.891  0.0000E+00  0.2627E+02
     27.123  0.0000E+00  0.2634E+02
     27.356  0.0000E+00  0.2656E+02
     27.588  0.0000E+00  0.2709E+02
     27.821  0.0000E+00  0.2781E+02
     28.053  0.0000E+00  0.2781E+02
     28.286  0.0000E+00  0.2815E+02
     28.518  0.0000E+00  0.2817E+02
     28.751  0.0000E+00  0.2839E+02
     28.983  0.0000E+00  0.2870E+02
     29.215  0.0000E+00  0.2883E+02
     29.448  0.0000E+00  0.2900E+02
     29.680  0.0000E+00  0.2933E+02
     29.913  0.0000E+00  0.2934E+02
     30.145  0.0000E+00  0.2968E+02
     30.378  0.0000E+00  0.3029E+02
     30.610  0.0000E+00  0.3040E+02
     30.843  0.0000E+00  0.3053E+02
     31.075  0.0000E+00  0.3064E+02
     31.308  0.0000E+00  0.3088E+02
     31.540  0.0000E+00  0.3155E+02
     31.772  0.4780E+00  0.3177E+02
     32.005  0.0000E+00  0.3240E+02
     32.237  0.0000E+00  0.3262E+02
     32.470  0.0000E+00  0.3269E+02
     32.702  0.0000E+00  0.3306E+02
     32.935  0.0000E+00  0.3323E+02
     33.167  0.0000E+00  0.3412E+02
     33.400  0.0000E+00  0.3412E+02
     33.632  0.0000E+00  0.3440E+02
     33.865  0.0000E+00  0.3451E+02
     34.097  0.0000E+00  0.3481E+02
     34.329  0.0000E+00  0.3525E+02
     34.562  0.0000E+00  0.3526E+02
     34.794  0.0000E+00  0.3548E+02
     35.027  0.0000E+00  0.3615E+02
     35.259  0.0000E+00  0.3660E+02
     35.492  0.0000E+00  0.3666E+02
     35.724  0.0000E+00  0.3681E+02
     35.957  0.0000E+00  0.3703E+02
     36.189  0.0000E+00  0.3710E+02
     36.422  0.0000E+00  0.3744E+02
     36.654  0.0000E+00  0.3806E+02
     36.886  0.0000E+00  0.3817E+02
     37.119  0.0000E+00  0.3828E+02
     37.351  0.0000E+00  0.3830E+02
     37.584  0.0000E+00  0.3887E+02
     37.816  0.0000E+00  0.3887E+02
     38.049  0.0000E+00  0.3913E+02
     38.281  0.4780E+00  0.3935E+02
     38.514  0.0000E+00  0.3935E+02
     38.746  0.0000E+00  0.3952E+02
     38.979  0.0000E+00  0.4010E+02
     39.211  0.0000E+00  0.4066E+02
     39.443  0.4757E+00  0.4077E+02
     39.676  0.0000E+00  0.4077E+02
     39.908  0.0000E+00  0.4118E+02
     40.141  0.0000E+00  0.4186E+02
     40.373  0.0000E+00  0.4205E+02
     40.606  0.0000E+00  0.4205E+02
     40.838  0.4780E+00  0.4305E+02
     41.071  0.0000E+00  0.4310E+02
     41.303  0.0000E+00  0.4316E+02
     41.535  0.0000E+00  0.4334E+02
     41.768  0.0000E+00  0.4397E+02
     42.000  0.0000E+00  0.4442E+02
     42.233  0.0000E+00  0.4475E+02
     42.465  0.0000E+00  0.4487E+02
     42.698  0.0000E+00  0.4543E+02
     42.930  0.0000E+00  0.4554E+02
     43.163  0.0000E+00  0.4565E+02
     43.395  0.0000E+00  0.4570E+02
     43.628  0.9560E+00  0.4609E+02
     43.860  0.0000E+00  0.4644E+02
     44.092  0.0000E+00  0.4694E+02
     44.325  0.0000E+00  0.4694E+02
     44.557  0.0000E+00  0.4739E+02
     44.790  0.4780E+00  0.4761E+02
     45.022  0.0000E+00  0.4800E+02
     45.255  0.0000E+00  0.4839E+02
     45.487  0.0000E+00  0.4891E+02
     45.720  0.0000E+00  0.4913E+02
     45.952  0.0000E+00  0.4980E+02
     46.185  0.0000E+00  0.4991E+02
     46.417  0.0000E+00  0.5020E+02
     46.649  0.0000E+00  0.5020E+02
     46.882  0.5170E-02  0.5048E+02
     47.114  0.0000E+00  0.5126E+02
     47.347  0.0000E+00  0.5148E+02
     47.579  0.0000E+00  0.5178E+02
     47.812  0.0000E+00  0.5185E+02
     48.044  0.0000E+00  0.5196E+02
     48.277  0.0000E+00  0.5219E+02
     48.509  0.0000E+00  0.5219E+02
     48.742  0.8684E+00  0.5249E+02
     48.974  0.5887E-03  0.5318E+02
     49.206  0.0000E+00  0.5360E+02
     49.439  0.2248E-02  0.5379E+02
     49.671  0.0000E+00  0.5425E+02
     49.904  0.0000E+00  0.5494E+02
     50.136  0.4189E-01  0.5511E+02
     50.369  0.0000E+00  0.5521E+02
     50.601  0.0000E+00  0.5553E+02
     50.834  0.0000E+00  0.5575E+02
     51.066  0.0000E+00  0.5597E+02
     51.299  0.0000E+00  0.5608E+02
     51.531  0.0000E+00  0.5642E+02
     51.763  0.4341E+00  0.5674E+02
     51.996  0.9358E+00  0.5719E+02
     52.228  0.0000E+00  0.5769E+02
     52.461  0.0000E+00  0.5847E+02
     52.693  0.0000E+00  0.5872E+02
     52.926  0.9556E+00  0.5907E+02
     53.158  0.0000E+00  0.5907E+02
     53.391  0.0000E+00  0.5941E+02
     53.623  0.0000E+00  0.5991E+02
     53.856  0.0000E+00  0.6013E+02
     54.088  0.0000E+00  0.6035E+02
     54.320  0.0000E+00  0.6054E+02
     54.553  0.2007E-06  0.6054E+02
     54.785  0.0000E+00  0.6071E+02
     55.018  0.0000E+00  0.6071E+02
     55.250  0.0000E+00  0.6112E+02
     55.483  0.0000E+00  0.6112E+02
     55.715  0.7967E-01  0.6155E+02
     55.948  0.8792E+00  0.6208E+02
     56.180  0.0000E+00  0.6277E+02
     56.412  0.1912E+01  0.6338E+02
     56.645  0.0000E+00  0.6345E+02
     56.877  0.0000E+00  0.6368E+02
     57.110  0.0000E+00  0.6379E+02
     57.342  0.0000E+00  0.6384E+02
     57.575  0.0000E+00  0.6384E+02
     57.807  0.0000E+00  0.6393E+02
     58.040  0.0000E+00  0.6400E+02
     58.272  0.0000E+00  0.6400E+02
     58.505  0.0000E+00  0.6400E+02
     58.737  0.0000E+00  0.6400E+02
     58.969  0.0000E+00  0.6400E+02
     59.202  0.0000E+00  0.6400E+02
     59.434  0.0000E+00  0.6400E+02
     59.667  0.0000E+00  0.6400E+02
     59.899  0.0000E+00  0.6400E+02
     60.132  0.0000E+00  0.6400E+02
     60.364  0.0000E+00  0.6400E+02
     60.597  0.0000E+00  0.6400E+02
     60.829  0.0000E+00  0.6400E+02
     61.062  0.0000E+00  0.6400E+02
