    1    1    1    1
  0.2623385E+02  0.3242103E-09  0.3242103E-09  0.3242103E-09  0.1000000E-15
  1.000000000000000E-004
  CAR 
 Cn_BCC                                  
     12    216     64
 
  0.0000000E+00  0.0000000E+00  0.0000000E+00  0.4629630E-02
    1       -5.504547   1.000000
    2       -5.504547   1.000000
    3       -1.789765   1.000000
    4       -1.789765   1.000000
    5       -1.789746   1.000000
    6       -1.789746   1.000000
    7        0.882093   1.000000
    8        0.882093   1.000000
    9        1.800367   1.000000
   10        1.800367   1.000000
   11        1.800419   1.000000
   12        1.800419   1.000000
   13       13.929657   0.000000
   14       13.929657   0.000000
   15       18.570714   0.000000
   16       18.570714   0.000000
   17       18.570714   0.000000
   18       18.570714   0.000000
   19       18.570862   0.000000
   20       18.570862   0.000000
   21       23.267317   0.000000
   22       23.267317   0.000000
   23       23.588472   0.000000
   24       23.588472   0.000000
   25       23.588663   0.000000
   26       23.588663   0.000000
   27       24.741020   0.000000
   28       24.741020   0.000000
   29       24.741091   0.000000
   30       24.741091   0.000000
   31       28.421280   0.000000
   32       28.421280   0.000000
   33       28.421337   0.000000
   34       28.421337   0.000000
   35       29.730104   0.000000
   36       29.730104   0.000000
   37       35.163117   0.000000
   38       35.163117   0.000000
   39       37.269721   0.000000
   40       37.269721   0.000000
   41       37.269928   0.000000
   42       37.269928   0.000000
   43       42.393964   0.000000
   44       42.393964   0.000000
   45       43.740284   0.000000
   46       43.740284   0.000000
   47       48.671005   0.000000
   48       48.671005   0.000000
   49       48.671016   0.000000
   50       48.671016   0.000000
   51       52.508202   0.000000
   52       52.508202   0.000000
   53       52.508202   0.000000
   54       52.508202   0.000000
   55       52.508404   0.000000
   56       52.508404   0.000000
   57       54.773238   0.000000
   58       54.773238   0.000000
   59       55.710070   0.000000
   60       55.710070   0.000000
   61       55.710416   0.000000
   62       55.710416   0.000000
   63       57.601250   0.000000
   64       57.601250   0.000000
 
  0.1666667E+00  0.0000000E+00  0.0000000E+00  0.4629630E-02
    1       -4.803965   1.000000
    2       -4.803965   1.000000
    3       -1.793811   1.000000
    4       -1.793811   1.000000
    5       -1.684997   1.000000
    6       -1.684997   1.000000
    7        1.033096   1.000000
    8        1.033096   1.000000
    9        1.605146   1.000000
   10        1.605146   1.000000
   11        1.922013   1.000000
   12        1.922013   1.000000
   13       12.063975   0.000000
   14       12.063975   0.000000
   15       17.485137   0.000000
   16       17.485137   0.000000
   17       18.589279   0.000000
   18       18.589279   0.000000
   19       19.272267   0.000000
   20       19.272267   0.000000
   21       19.482990   0.000000
   22       19.482990   0.000000
   23       21.485578   0.000000
   24       21.485578   0.000000
   25       25.848027   0.000000
   26       25.848027   0.000000
   27       26.239394   0.000000
   28       26.239394   0.000000
   29       27.263894   0.000000
   30       27.263894   0.000000
   31       28.787959   0.000000
   32       28.787959   0.000000
   33       29.562100   0.000000
   34       29.562100   0.000000
   35       31.767963   0.000000
   36       31.767963   0.000000
   37       34.946690   0.000000
   38       34.946690   0.000000
   39       36.526727   0.000000
   40       36.526727   0.000000
   41       38.542407   0.000000
   42       38.542407   0.000000
   43       44.455712   0.000000
   44       44.455712   0.000000
   45       44.635408   0.000000
   46       44.635408   0.000000
   47       45.476543   0.000000
   48       45.476543   0.000000
   49       46.741670   0.000000
   50       46.741670   0.000000
   51       47.567147   0.000000
   52       47.567147   0.000000
   53       50.137148   0.000000
   54       50.137148   0.000000
   55       51.919863   0.000000
   56       51.919863   0.000000
   57       53.236442   0.000000
   58       53.236442   0.000000
   59       55.692141   0.000000
   60       55.692141   0.000000
   61       55.735006   0.000000
   62       55.735006   0.000000
   63       56.368872   0.000000
   64       56.368872   0.000000
 
  0.3333333E+00  0.2775558E-16 -0.2775558E-16  0.4629630E-02
    1       -3.302936   1.000000
    2       -3.302936   1.000000
    3       -1.860947   1.000000
    4       -1.860947   1.000000
    5       -1.114639   1.000000
    6       -1.114639   1.000000
    7        1.233725   1.000000
    8        1.233725   1.000000
    9        1.726439   1.000000
   10        1.726439   1.000000
   11        2.358619   1.000000
   12        2.358619   1.000000
   13        7.631733   0.000000
   14        7.631733   0.000000
   15       14.089454   0.000000
   16       14.089454   0.000000
   17       16.715153   0.000000
   18       16.715153   0.000000
   19       19.486357   0.000000
   20       19.486357   0.000000
   21       21.304745   0.000000
   22       21.304745   0.000000
   23       22.742669   0.000000
   24       22.742669   0.000000
   25       24.147523   0.000000
   26       24.147523   0.000000
   27       28.595273   0.000000
   28       28.595273   0.000000
   29       29.541378   0.000000
   30       29.541378   0.000000
   31       30.905626   0.000000
   32       30.905626   0.000000
   33       31.483797   0.000000
   34       31.483797   0.000000
   35       33.024953   0.000000
   36       33.024953   0.000000
   37       34.898517   0.000000
   38       34.898517   0.000000
   39       38.818920   0.000000
   40       38.818920   0.000000
   41       40.285813   0.000000
   42       40.285813   0.000000
   43       40.833561   0.000000
   44       40.833561   0.000000
   45       41.717130   0.000000
   46       41.717130   0.000000
   47       42.595095   0.000000
   48       42.595095   0.000000
   49       43.701382   0.000000
   50       43.701382   0.000000
   51       49.268583   0.000000
   52       49.268583   0.000000
   53       49.876845   0.000000
   54       49.876845   0.000000
   55       52.043143   0.000000
   56       52.043143   0.000000
   57       52.401779   0.000000
   58       52.401779   0.000000
   59       55.561113   0.000000
   60       55.561113   0.000000
   61       55.820050   0.000000
   62       55.820050   0.000000
   63       56.894676   0.000000
   64       56.894676   0.000000
 
  0.5000000E+00  0.0000000E+00  0.0000000E+00  0.4629630E-02
    1       -2.838308   1.000000
    2       -2.838308   1.000000
    3       -1.921745   1.000000
    4       -1.921745   1.000000
    5        0.136568   1.000000
    6        0.136568   1.000000
    7        1.171407   1.000000
    8        1.171407   1.000000
    9        2.785454   1.000000
   10        2.785454   1.000000
   11        3.225032   1.000000
   12        3.225032   1.000000
   13        3.576593   0.000000
   14        3.576593   0.000000
   15       12.703789   0.000000
   16       12.703789   0.000000
   17       15.526749   0.000000
   18       15.526749   0.000000
   19       19.887111   0.000000
   20       19.887111   0.000000
   21       22.354990   0.000000
   22       22.354990   0.000000
   23       22.846863   0.000000
   24       22.846863   0.000000
   25       25.183477   0.000000
   26       25.183477   0.000000
   27       29.337956   0.000000
   28       29.337956   0.000000
   29       30.507189   0.000000
   30       30.507189   0.000000
   31       30.569749   0.000000
   32       30.569749   0.000000
   33       32.780630   0.000000
   34       32.780630   0.000000
   35       33.098474   0.000000
   36       33.098474   0.000000
   37       36.117675   0.000000
   38       36.117675   0.000000
   39       37.457682   0.000000
   40       37.457682   0.000000
   41       39.730680   0.000000
   42       39.730680   0.000000
   43       40.062808   0.000000
   44       40.062808   0.000000
   45       41.562830   0.000000
   46       41.562830   0.000000
   47       42.188779   0.000000
   48       42.188779   0.000000
   49       43.555163   0.000000
   50       43.555163   0.000000
   51       46.798535   0.000000
   52       46.798535   0.000000
   53       51.983600   0.000000
   54       51.983600   0.000000
   55       52.056345   0.000000
   56       52.056345   0.000000
   57       53.467986   0.000000
   58       53.467986   0.000000
   59       54.101774   0.000000
   60       54.101774   0.000000
   61       54.690274   0.000000
   62       54.690274   0.000000
   63       56.200922   0.000000
   64       56.200923   0.000000
 
 -0.3333333E+00 -0.2775558E-16  0.2775558E-16  0.4629630E-02
    1       -3.302936   1.000000
    2       -3.302936   1.000000
    3       -1.860947   1.000000
    4       -1.860947   1.000000
    5       -1.114639   1.000000
    6       -1.114639   1.000000
    7        1.233725   1.000000
    8        1.233725   1.000000
    9        1.726439   1.000000
   10        1.726439   1.000000
   11        2.358619   1.000000
   12        2.358619   1.000000
   13        7.631733   0.000000
   14        7.631733   0.000000
   15       14.089454   0.000000
   16       14.089454   0.000000
   17       16.715153   0.000000
   18       16.715153   0.000000
   19       19.486357   0.000000
   20       19.486357   0.000000
   21       21.304745   0.000000
   22       21.304745   0.000000
   23       22.742669   0.000000
   24       22.742669   0.000000
   25       24.147523   0.000000
   26       24.147523   0.000000
   27       28.595273   0.000000
   28       28.595273   0.000000
   29       29.541378   0.000000
   30       29.541378   0.000000
   31       30.905626   0.000000
   32       30.905626   0.000000
   33       31.483797   0.000000
   34       31.483797   0.000000
   35       33.024953   0.000000
   36       33.024953   0.000000
   37       34.898517   0.000000
   38       34.898517   0.000000
   39       38.818920   0.000000
   40       38.818920   0.000000
   41       40.285813   0.000000
   42       40.285813   0.000000
   43       40.833561   0.000000
   44       40.833561   0.000000
   45       41.717130   0.000000
   46       41.717130   0.000000
   47       42.595095   0.000000
   48       42.595095   0.000000
   49       43.701382   0.000000
   50       43.701382   0.000000
   51       49.268583   0.000000
   52       49.268583   0.000000
   53       49.876845   0.000000
   54       49.876845   0.000000
   55       52.043143   0.000000
   56       52.043143   0.000000
   57       52.401779   0.000000
   58       52.401779   0.000000
   59       55.561113   0.000000
   60       55.561113   0.000000
   61       55.820050   0.000000
   62       55.820050   0.000000
   63       56.894676   0.000000
   64       56.894676   0.000000
 
 -0.1666667E+00  0.0000000E+00  0.0000000E+00  0.4629630E-02
    1       -4.803965   1.000000
    2       -4.803965   1.000000
    3       -1.793811   1.000000
    4       -1.793811   1.000000
    5       -1.684997   1.000000
    6       -1.684997   1.000000
    7        1.033096   1.000000
    8        1.033096   1.000000
    9        1.605146   1.000000
   10        1.605146   1.000000
   11        1.922013   1.000000
   12        1.922013   1.000000
   13       12.063975   0.000000
   14       12.063975   0.000000
   15       17.485137   0.000000
   16       17.485137   0.000000
   17       18.589279   0.000000
   18       18.589279   0.000000
   19       19.272267   0.000000
   20       19.272267   0.000000
   21       19.482990   0.000000
   22       19.482990   0.000000
   23       21.485578   0.000000
   24       21.485578   0.000000
   25       25.848027   0.000000
   26       25.848027   0.000000
   27       26.239394   0.000000
   28       26.239394   0.000000
   29       27.263894   0.000000
   30       27.263894   0.000000
   31       28.787959   0.000000
   32       28.787959   0.000000
   33       29.562100   0.000000
   34       29.562100   0.000000
   35       31.767963   0.000000
   36       31.767963   0.000000
   37       34.946690   0.000000
   38       34.946690   0.000000
   39       36.526727   0.000000
   40       36.526727   0.000000
   41       38.542407   0.000000
   42       38.542407   0.000000
   43       44.455712   0.000000
   44       44.455712   0.000000
   45       44.635408   0.000000
   46       44.635408   0.000000
   47       45.476543   0.000000
   48       45.476543   0.000000
   49       46.741670   0.000000
   50       46.741670   0.000000
   51       47.567147   0.000000
   52       47.567147   0.000000
   53       50.137148   0.000000
   54       50.137148   0.000000
   55       51.919863   0.000000
   56       51.919863   0.000000
   57       53.236442   0.000000
   58       53.236442   0.000000
   59       55.692141   0.000000
   60       55.692141   0.000000
   61       55.735006   0.000000
   62       55.735006   0.000000
   63       56.368872   0.000000
   64       56.368872   0.000000
 
  0.0000000E+00  0.1666667E+00  0.1387779E-16  0.4629630E-02
    1       -4.803965   1.000000
    2       -4.803965   1.000000
    3       -1.793811   1.000000
    4       -1.793811   1.000000
    5       -1.684997   1.000000
    6       -1.684997   1.000000
    7        1.033096   1.000000
    8        1.033096   1.000000
    9        1.605146   1.000000
   10        1.605146   1.000000
   11        1.922013   1.000000
   12        1.922013   1.000000
   13       12.063975   0.000000
   14       12.063975   0.000000
   15       17.485137   0.000000
   16       17.485137   0.000000
   17       18.589279   0.000000
   18       18.589279   0.000000
   19       19.272267   0.000000
   20       19.272267   0.000000
   21       19.482990   0.000000
   22       19.482990   0.000000
   23       21.485578   0.000000
   24       21.485578   0.000000
   25       25.848027   0.000000
   26       25.848027   0.000000
   27       26.239394   0.000000
   28       26.239394   0.000000
   29       27.263894   0.000000
   30       27.263894   0.000000
   31       28.787959   0.000000
   32       28.787959   0.000000
   33       29.562100   0.000000
   34       29.562100   0.000000
   35       31.767963   0.000000
   36       31.767963   0.000000
   37       34.946690   0.000000
   38       34.946690   0.000000
   39       36.526727   0.000000
   40       36.526727   0.000000
   41       38.542407   0.000000
   42       38.542407   0.000000
   43       44.455712   0.000000
   44       44.455712   0.000000
   45       44.635408   0.000000
   46       44.635408   0.000000
   47       45.476543   0.000000
   48       45.476543   0.000000
   49       46.741670   0.000000
   50       46.741670   0.000000
   51       47.567147   0.000000
   52       47.567147   0.000000
   53       50.137148   0.000000
   54       50.137148   0.000000
   55       51.919863   0.000000
   56       51.919863   0.000000
   57       53.236442   0.000000
   58       53.236442   0.000000
   59       55.692141   0.000000
   60       55.692141   0.000000
   61       55.735006   0.000000
   62       55.735006   0.000000
   63       56.368872   0.000000
   64       56.368872   0.000000
 
  0.1666667E+00  0.1666667E+00  0.2775558E-16  0.4629630E-02
    1       -3.595939   1.000000
    2       -3.595939   1.000000
    3       -1.786629   1.000000
    4       -1.786629   1.000000
    5       -1.538653   1.000000
    6       -1.538653   1.000000
    7        1.301299   1.000000
    8        1.301299   1.000000
    9        1.454113   1.000000
   10        1.454113   1.000000
   11        2.264322   1.000000
   12        2.264322   1.000000
   13        9.238541   0.000000
   14        9.238541   0.000000
   15       14.265540   0.000000
   16       14.265540   0.000000
   17       16.871396   0.000000
   18       16.871396   0.000000
   19       19.722708   0.000000
   20       19.722708   0.000000
   21       20.979469   0.000000
   22       20.979469   0.000000
   23       22.892216   0.000000
   24       22.892216   0.000000
   25       25.631739   0.000000
   26       25.631739   0.000000
   27       26.449465   0.000000
   28       26.449465   0.000000
   29       27.415112   0.000000
   30       27.415112   0.000000
   31       30.061375   0.000000
   32       30.061375   0.000000
   33       32.603511   0.000000
   34       32.603511   0.000000
   35       33.878858   0.000000
   36       33.878858   0.000000
   37       35.213134   0.000000
   38       35.213134   0.000000
   39       37.451842   0.000000
   40       37.451842   0.000000
   41       39.815027   0.000000
   42       39.815027   0.000000
   43       40.750472   0.000000
   44       40.750472   0.000000
   45       41.617732   0.000000
   46       41.617732   0.000000
   47       44.825534   0.000000
   48       44.825534   0.000000
   49       46.296577   0.000000
   50       46.296577   0.000000
   51       48.087625   0.000000
   52       48.087625   0.000000
   53       50.719849   0.000000
   54       50.719849   0.000000
   55       50.922972   0.000000
   56       50.922972   0.000000
   57       52.216813   0.000000
   58       52.216813   0.000000
   59       53.981669   0.000000
   60       53.981669   0.000000
   61       55.946570   0.000000
   62       55.946570   0.000000
   63       56.655507   0.000000
   64       56.655509   0.000000
 
  0.3333333E+00  0.1666667E+00  0.2775558E-16  0.4629630E-02
    1       -2.543116   1.000000
    2       -2.543116   1.000000
    3       -1.814834   1.000000
    4       -1.814834   1.000000
    5       -0.496897   1.000000
    6       -0.496897   1.000000
    7        1.162832   1.000000
    8        1.162832   1.000000
    9        1.828586   1.000000
   10        1.828586   1.000000
   11        2.922933   1.000000
   12        2.922933   1.000000
   13        5.825336   0.000000
   14        5.825336   0.000000
   15       11.596541   0.000000
   16       11.596541   0.000000
   17       15.344019   0.000000
   18       15.344019   0.000000
   19       20.605455   0.000000
   20       20.605455   0.000000
   21       21.973343   0.000000
   22       21.973343   0.000000
   23       23.234349   0.000000
   24       23.234349   0.000000
   25       25.739501   0.000000
   26       25.739501   0.000000
   27       27.674345   0.000000
   28       27.674345   0.000000
   29       30.179562   0.000000
   30       30.179562   0.000000
   31       31.383587   0.000000
   32       31.383587   0.000000
   33       32.955126   0.000000
   34       32.955126   0.000000
   35       34.182851   0.000000
   36       34.182851   0.000000
   37       34.943983   0.000000
   38       34.943983   0.000000
   39       36.638094   0.000000
   40       36.638094   0.000000
   41       39.091887   0.000000
   42       39.091887   0.000000
   43       40.624476   0.000000
   44       40.624476   0.000000
   45       42.659004   0.000000
   46       42.659004   0.000000
   47       43.915689   0.000000
   48       43.915689   0.000000
   49       45.839037   0.000000
   50       45.839037   0.000000
   51       46.953249   0.000000
   52       46.953249   0.000000
   53       48.770914   0.000000
   54       48.770914   0.000000
   55       49.770562   0.000000
   56       49.770562   0.000000
   57       52.244722   0.000000
   58       52.244722   0.000000
   59       53.523854   0.000000
   60       53.523854   0.000000
   61       56.037925   0.000000
   62       56.037925   0.000000
   63       56.405566   0.000000
   64       56.405566   0.000000
 
  0.5000000E+00  0.1666667E+00  0.5551115E-16  0.4629630E-02
    1       -2.543113   1.000000
    2       -2.543113   1.000000
    3       -1.814835   1.000000
    4       -1.814835   1.000000
    5       -0.496884   1.000000
    6       -0.496884   1.000000
    7        1.162829   1.000000
    8        1.162829   1.000000
    9        1.828601   1.000000
   10        1.828601   1.000000
   11        2.923018   1.000000
   12        2.923018   1.000000
   13        5.825227   0.000000
   14        5.825227   0.000000
   15       11.596561   0.000000
   16       11.596561   0.000000
   17       15.344026   0.000000
   18       15.344026   0.000000
   19       20.605420   0.000000
   20       20.605420   0.000000
   21       21.973316   0.000000
   22       21.973316   0.000000
   23       23.234358   0.000000
   24       23.234358   0.000000
   25       25.739441   0.000000
   26       25.739441   0.000000
   27       27.674141   0.000000
   28       27.674141   0.000000
   29       30.179444   0.000000
   30       30.179444   0.000000
   31       31.383919   0.000000
   32       31.383919   0.000000
   33       32.955024   0.000000
   34       32.955024   0.000000
   35       34.182998   0.000000
   36       34.182998   0.000000
   37       34.944096   0.000000
   38       34.944096   0.000000
   39       36.638216   0.000000
   40       36.638216   0.000000
   41       39.091878   0.000000
   42       39.091878   0.000000
   43       40.624497   0.000000
   44       40.624497   0.000000
   45       42.658969   0.000000
   46       42.658969   0.000000
   47       43.915816   0.000000
   48       43.915816   0.000000
   49       45.838859   0.000000
   50       45.838859   0.000000
   51       46.953221   0.000000
   52       46.953221   0.000000
   53       48.770728   0.000000
   54       48.770728   0.000000
   55       49.770565   0.000000
   56       49.770565   0.000000
   57       52.244743   0.000000
   58       52.244743   0.000000
   59       53.523726   0.000000
   60       53.523726   0.000000
   61       56.037907   0.000000
   62       56.037907   0.000000
   63       56.405639   0.000000
   64       56.405639   0.000000
 
 -0.3333333E+00  0.1666667E+00 -0.1387779E-16  0.4629630E-02
    1       -3.595904   1.000000
    2       -3.595904   1.000000
    3       -1.786621   1.000000
    4       -1.786621   1.000000
    5       -1.538643   1.000000
    6       -1.538643   1.000000
    7        1.301303   1.000000
    8        1.301303   1.000000
    9        1.454114   1.000000
   10        1.454114   1.000000
   11        2.264310   1.000000
   12        2.264310   1.000000
   13        9.238558   0.000000
   14        9.238558   0.000000
   15       14.265569   0.000000
   16       14.265569   0.000000
   17       16.871460   0.000000
   18       16.871460   0.000000
   19       19.722650   0.000000
   20       19.722650   0.000000
   21       20.979399   0.000000
   22       20.979399   0.000000
   23       22.892114   0.000000
   24       22.892114   0.000000
   25       25.631496   0.000000
   26       25.631496   0.000000
   27       26.449338   0.000000
   28       26.449338   0.000000
   29       27.414970   0.000000
   30       27.414970   0.000000
   31       30.061673   0.000000
   32       30.061673   0.000000
   33       32.603638   0.000000
   34       32.603638   0.000000
   35       33.878931   0.000000
   36       33.878931   0.000000
   37       35.213144   0.000000
   38       35.213144   0.000000
   39       37.451988   0.000000
   40       37.451988   0.000000
   41       39.814839   0.000000
   42       39.814839   0.000000
   43       40.750921   0.000000
   44       40.750921   0.000000
   45       41.618020   0.000000
   46       41.618020   0.000000
   47       44.825473   0.000000
   48       44.825473   0.000000
   49       46.296217   0.000000
   50       46.296217   0.000000
   51       48.087503   0.000000
   52       48.087503   0.000000
   53       50.719772   0.000000
   54       50.719772   0.000000
   55       50.922837   0.000000
   56       50.922837   0.000000
   57       52.217045   0.000000
   58       52.217045   0.000000
   59       53.981614   0.000000
   60       53.981614   0.000000
   61       55.946513   0.000000
   62       55.946513   0.000000
   63       56.655243   0.000000
   64       56.655311   0.000000
 
 -0.1666667E+00  0.1666667E+00 -0.1743022E-17  0.4629630E-02
    1       -4.803946   1.000000
    2       -4.803946   1.000000
    3       -1.793796   1.000000
    4       -1.793796   1.000000
    5       -1.685002   1.000000
    6       -1.685002   1.000000
    7        1.033093   1.000000
    8        1.033093   1.000000
    9        1.605155   1.000000
   10        1.605155   1.000000
   11        1.921982   1.000000
   12        1.921982   1.000000
   13       12.064055   0.000000
   14       12.064055   0.000000
   15       17.485237   0.000000
   16       17.485237   0.000000
   17       18.589233   0.000000
   18       18.589233   0.000000
   19       19.272231   0.000000
   20       19.272231   0.000000
   21       19.482974   0.000000
   22       19.482974   0.000000
   23       21.485428   0.000000
   24       21.485428   0.000000
   25       25.847846   0.000000
   26       25.847846   0.000000
   27       26.239397   0.000000
   28       26.239397   0.000000
   29       27.263927   0.000000
   30       27.263927   0.000000
   31       28.787914   0.000000
   32       28.787914   0.000000
   33       29.562096   0.000000
   34       29.562096   0.000000
   35       31.768237   0.000000
   36       31.768237   0.000000
   37       34.946633   0.000000
   38       34.946633   0.000000
   39       36.526621   0.000000
   40       36.526621   0.000000
   41       38.542340   0.000000
   42       38.542340   0.000000
   43       44.455974   0.000000
   44       44.455974   0.000000
   45       44.635534   0.000000
   46       44.635534   0.000000
   47       45.476619   0.000000
   48       45.476619   0.000000
   49       46.741863   0.000000
   50       46.741863   0.000000
   51       47.567542   0.000000
   52       47.567542   0.000000
   53       50.137299   0.000000
   54       50.137299   0.000000
   55       51.919572   0.000000
   56       51.919572   0.000000
   57       53.236346   0.000000
   58       53.236346   0.000000
   59       55.691770   0.000000
   60       55.691770   0.000000
   61       55.734645   0.000000
   62       55.734645   0.000000
   63       56.368573   0.000000
   64       56.368574   0.000000
 
  0.0000000E+00  0.3333333E+00  0.2775558E-16  0.4629630E-02
    1       -3.302936   1.000000
    2       -3.302936   1.000000
    3       -1.860947   1.000000
    4       -1.860947   1.000000
    5       -1.114639   1.000000
    6       -1.114639   1.000000
    7        1.233725   1.000000
    8        1.233725   1.000000
    9        1.726439   1.000000
   10        1.726439   1.000000
   11        2.358619   1.000000
   12        2.358619   1.000000
   13        7.631733   0.000000
   14        7.631733   0.000000
   15       14.089454   0.000000
   16       14.089454   0.000000
   17       16.715153   0.000000
   18       16.715153   0.000000
   19       19.486357   0.000000
   20       19.486357   0.000000
   21       21.304745   0.000000
   22       21.304745   0.000000
   23       22.742669   0.000000
   24       22.742669   0.000000
   25       24.147523   0.000000
   26       24.147523   0.000000
   27       28.595273   0.000000
   28       28.595273   0.000000
   29       29.541378   0.000000
   30       29.541378   0.000000
   31       30.905626   0.000000
   32       30.905626   0.000000
   33       31.483797   0.000000
   34       31.483797   0.000000
   35       33.024953   0.000000
   36       33.024953   0.000000
   37       34.898517   0.000000
   38       34.898517   0.000000
   39       38.818920   0.000000
   40       38.818920   0.000000
   41       40.285813   0.000000
   42       40.285813   0.000000
   43       40.833561   0.000000
   44       40.833561   0.000000
   45       41.717130   0.000000
   46       41.717130   0.000000
   47       42.595095   0.000000
   48       42.595095   0.000000
   49       43.701382   0.000000
   50       43.701382   0.000000
   51       49.268583   0.000000
   52       49.268583   0.000000
   53       49.876845   0.000000
   54       49.876845   0.000000
   55       52.043143   0.000000
   56       52.043143   0.000000
   57       52.401779   0.000000
   58       52.401779   0.000000
   59       55.561113   0.000000
   60       55.561113   0.000000
   61       55.820050   0.000000
   62       55.820050   0.000000
   63       56.894676   0.000000
   64       56.894676   0.000000
 
  0.1666667E+00  0.3333333E+00  0.1110223E-15  0.4629630E-02
    1       -2.543116   1.000000
    2       -2.543116   1.000000
    3       -1.814834   1.000000
    4       -1.814834   1.000000
    5       -0.496897   1.000000
    6       -0.496897   1.000000
    7        1.162832   1.000000
    8        1.162832   1.000000
    9        1.828586   1.000000
   10        1.828586   1.000000
   11        2.922933   1.000000
   12        2.922933   1.000000
   13        5.825336   0.000000
   14        5.825336   0.000000
   15       11.596541   0.000000
   16       11.596541   0.000000
   17       15.344019   0.000000
   18       15.344019   0.000000
   19       20.605455   0.000000
   20       20.605455   0.000000
   21       21.973343   0.000000
   22       21.973343   0.000000
   23       23.234349   0.000000
   24       23.234349   0.000000
   25       25.739501   0.000000
   26       25.739501   0.000000
   27       27.674345   0.000000
   28       27.674345   0.000000
   29       30.179562   0.000000
   30       30.179562   0.000000
   31       31.383587   0.000000
   32       31.383587   0.000000
   33       32.955126   0.000000
   34       32.955126   0.000000
   35       34.182851   0.000000
   36       34.182851   0.000000
   37       34.943983   0.000000
   38       34.943983   0.000000
   39       36.638094   0.000000
   40       36.638094   0.000000
   41       39.091887   0.000000
   42       39.091887   0.000000
   43       40.624476   0.000000
   44       40.624476   0.000000