 vasp.5.4.4.18Apr17-6-g9f103f2a35 (build Nov 03 2018 10:20:46) complex          
  
 executed on             LinuxIFC date 2018.12.22  09:55:45
 running on   16 total cores
 distrk:  each k-point on    4 cores,    4 groups
 distr:  one band on NCORES_PER_BAND=   4 cores,    1 groups


--------------------------------------------------------------------------------------------------------


 INCAR:
 POTCAR:    Cn-PAW, fit to 4c-PBE, JanMewes Oct18 

 ----------------------------------------------------------------------------- 
|                                                                             |
|           W    W    AA    RRRRR   N    N  II  N    N   GGGG   !!!           |
|           W    W   A  A   R    R  NN   N  II  NN   N  G    G  !!!           |
|           W    W  A    A  R    R  N N  N  II  N N  N  G       !!!           |
|           W WW W  AAAAAA  RRRRR   N  N N  II  N  N N  G  GGG   !            |
|           WW  WW  A    A  R   R   N   NN  II  N   NN  G    G                |
|           W    W  A    A  R    R  N    N  II  N    N   GGGG   !!!           |
|                                                                             |
|      You have enabled k-point parallelism (KPAR>1).                         |
|      This developmental code was originally  written by Paul Kent at ORNL,  |
|      and carefully double checked in Vienna.                                |
|      GW as well as linear response parallelism added by Martijn Marsman     |
|      and Georg Kresse.                                                      |
|      Carefully verify results versus KPAR=1.                                |
|      Report problems to Paul Kent and Vienna.                               |
|                                                                             |
 ----------------------------------------------------------------------------- 

 POTCAR:    Cn-PAW, fit to 4c-PBE, JanMewes Oct18 
   VRHFIN =Cn : 10d 2s                                                          
   LEXCH  = PE                                                                  
   EATOM  =  1021.7933 eV,   75.0997 Ry                                         
                                                                                
   TITEL  = Cn-PAW, fit to 4c-PBE, JanMewes Oct18                               
   LULTRA =        F    use ultrasoft PP ?                                      
   IUNSCR =        1    unscreen: 0-lin 1-nonlin 2-no                           
   RPACOR =    1.900    partial core radius                                     
   POMASS =    0.010; ZVAL   =   12.000    mass and valenz                      
   RCORE  =    2.700    outmost cutoff radius                                   
   RWIGS  =    2.800; RWIGS  =    1.482    wigner-seitz radius (au A)           
   ENMAX  =  273.073; ENMIN  =  204.805 eV                                      
   ICORE  =        3    local potential                                         
   LCOR   =        T    correct aug charges                                     
   LPAW   =        T    paw PP                                                  
   EAUG   =  361.025                                                            
   DEXC   =   -0.000                                                            
   RMAX   =    2.790    core radius for proj-oper                               
   RAUG   =    1.300    factor for augmentation sphere                          
   RDEP   =    2.775    radius for radial grids                                 
   RDEPT  =    2.135    core radius for aug-charge                              
   QCUT   =   -4.480; QGAM   =    8.960    optimization parameters              
                                                                                
   Atomic configuration                                                         
   21 entries                                                                   
     n  l   j            E        occ.                                          
     1  0  0.50   -193593.9187   2.0000                                         
     2  0  0.50    -39412.0693   2.0000                                         
     2  1  1.50    -29335.4582   6.0000                                         
     3  0  0.50    -10546.4577   2.0000                                         
     3  1  1.50     -7865.5022   6.0000                                         
     3  2  2.50     -6292.8271  10.0000                                         
     4  0  0.50     -3004.9901   2.0000                                         
     4  1  1.50     -2140.4665   6.0000                                         
     4  2  2.50     -1542.0671  10.0000                                         
     4  3  3.50      -986.2983  14.0000                                         
     5  0  0.50      -773.9725   2.0000                                         
     5  1  1.50      -487.4947   6.0000                                         
     5  2  2.50      -269.9971  10.0000                                         
     5  3  3.50       -71.2530  14.0000                                         
     6  0  0.50      -136.5695   2.0000                                         
     6  1  0.50       -97.1736   2.0000                                         
     6  1  1.50       -52.5109   4.0000                                         
     6  2  2.50        -7.9997  10.0000                                         
     7  0  0.50        -9.4823   2.0000                                         
     7  1  1.50        -2.1674   0.0000                                         
     6  3  3.50        -0.0014   0.0000                                         
   Description                                                                  
     l       E           TYP  RCUT    TYP  RCUT                                 
     2     -7.9996624     23  2.300                                             
     2     40.8174780     23  2.600                                             
     0     -9.4822916     23  1.900                                             
     0     68.0291300     23  2.400                                             
     1     -2.1674081     23  2.500                                             
     1     98.6422385     23  2.300                                             
     3     10.8846608      7  2.700                                             
  local pseudopotential read in
  partial core-charges read in
  partial kinetic energy density read in
  kinetic energy density of atom read in
  atomic valenz-charges read in
  non local Contribution for L=           2  read in
    real space projection operators read in
  non local Contribution for L=           2  read in
    real space projection operators read in
  non local Contribution for L=           0  read in
    real space projection operators read in
  non local Contribution for L=           0  read in
    real space projection operators read in
  non local Contribution for L=           1  read in
    real space projection operators read in
  non local Contribution for L=           1  read in
    real space projection operators read in
    PAW grid and wavefunctions read in
 
   number of l-projection  operators is LMAX  =           6
   number of lm-projection operators is LMMAX =          18
 
  Cn-PAW, fit to 4c-PBE, JanMewes Oct18 :
 energy of atom  1       EATOM=-1021.7933
 kinetic energy error for atom=    0.0874 (will be added to EATOM!!)
 
 
 POSCAR: Cn BCC                                  
  positions in direct lattice
  velocities in cartesian coordinates
 exchange correlation table for  LEXCH =        8
   RHO(1)=    0.500       N(1)  =     2000
   RHO(2)=  100.500       N(2)  =     4000
 


--------------------------------------------------------------------------------------------------------


 ion  position               nearest neighbor table
   1  0.000  0.000  0.000-
 

IMPORTANT INFORMATION: All symmetrisations will be switched off!
NOSYMM: (Re-)initialisation of all symmetry stuff for point group C_1.

 
 
 KPOINTS: k-points                                

Automatic generation of k-mesh.
Space group operators:
 irot       det(A)        alpha          n_x          n_y          n_z        tau_x        tau_y        tau_z
    1     1.000000     0.000001     1.000000     0.000000     0.000000     0.000000     0.000000     0.000000
 
 Subroutine IBZKPT returns following result:
 ===========================================
 
 Found    216 irreducible k-points:
 
 Following reciprocal coordinates:
            Coordinates               Weight
  0.000000  0.000000  0.000000      1.000000
  0.166667  0.000000  0.000000      1.000000
  0.333333  0.000000 -0.000000      1.000000
  0.500000  0.000000  0.000000      1.000000
 -0.333333 -0.000000  0.000000      1.000000
 -0.166667  0.000000  0.000000      1.000000
  0.000000  0.166667  0.000000      1.000000
  0.166667  0.166667  0.000000      1.000000
  0.333333  0.166667  0.000000      1.000000
  0.500000  0.166667  0.000000      1.000000
 -0.333333  0.166667 -0.000000      1.000000
 -0.166667  0.166667 -0.000000      1.000000
  0.000000  0.333333  0.000000      1.000000
  0.166667  0.333333  0.000000      1.000000
  0.333333  0.333333  0.000000      1.000000
  0.500000  0.333333  0.000000      1.000000
 -0.333333  0.333333  0.000000      1.000000
 -0.166667  0.333333  0.000000      1.000000
  0.000000  0.500000 -0.000000      1.000000
  0.166667  0.500000  0.000000      1.000000
  0.333333  0.500000  0.000000      1.000000
  0.500000  0.500000 -0.000000      1.000000
 -0.333333  0.500000 -0.000000      1.000000
 -0.166667  0.500000  0.000000      1.000000
  0.000000 -0.333333 -0.000000      1.000000
  0.166667 -0.333333 -0.000000      1.000000
  0.333333 -0.333333 -0.000000      1.000000
  0.500000 -0.333333 -0.000000      1.000000
 -0.333333 -0.333333  0.000000      1.000000
 -0.166667 -0.333333 -0.000000      1.000000
  0.000000 -0.166667 -0.000000      1.000000
  0.166667 -0.166667  0.000000      1.000000
  0.333333 -0.166667  0.000000      1.000000
  0.500000 -0.166667  0.000000      1.000000
 -0.333333 -0.166667 -0.000000      1.000000
 -0.166667 -0.166667 -0.000000      1.000000
  0.000000  0.000000  0.166667      1.000000
  0.166667  0.000000  0.166667      1.000000
  0.333333  0.000000  0.166667      1.000000
  0.500000  0.000000  0.166667      1.000000
 -0.333333 -0.000000  0.166667      1.000000
 -0.166667  0.000000  0.166667      1.000000
  0.000000  0.166667  0.166667      1.000000
  0.166667  0.166667  0.166667      1.000000
  0.333333  0.166667  0.166667      1.000000
  0.500000  0.166667  0.166667      1.000000
 -0.333333  0.166667  0.166667      1.000000
 -0.166667  0.166667  0.166667      1.000000
  0.000000  0.333333  0.166667      1.000000
  0.166667  0.333333  0.166667      1.000000
  0.333333  0.333333  0.166667      1.000000
  0.500000  0.333333  0.166667      1.000000
 -0.333333  0.333333  0.166667      1.000000
 -0.166667  0.333333  0.166667      1.000000
  0.000000  0.500000  0.166667      1.000000
  0.166667  0.500000  0.166667      1.000000
  0.333333  0.500000  0.166667      1.000000
  0.500000  0.500000  0.166667      1.000000
 -0.333333  0.500000  0.166667      1.000000
 -0.166667  0.500000  0.166667      1.000000
  0.000000 -0.333333  0.166667      1.000000
  0.166667 -0.333333  0.166667      1.000000
  0.333333 -0.333333  0.166667      1.000000
  0.500000 -0.333333  0.166667      1.000000
 -0.333333 -0.333333  0.166667      1.000000
 -0.166667 -0.333333  0.166667      1.000000
  0.000000 -0.166667  0.166667      1.000000
  0.166667 -0.166667  0.166667      1.000000
  0.333333 -0.166667  0.166667      1.000000
  0.500000 -0.166667  0.166667      1.000000
 -0.333333 -0.166667  0.166667      1.000000
 -0.166667 -0.166667  0.166667      1.000000
  0.000000  0.000000  0.333333      1.000000
  0.166667  0.000000  0.333333      1.000000
  0.333333  0.000000  0.333333      1.000000
  0.500000  0.000000  0.333333      1.000000
 -0.333333 -0.000000  0.333333      1.000000
 -0.166667  0.000000  0.333333      1.000000
  0.000000  0.166667  0.333333      1.000000
  0.166667  0.166667  0.333333      1.000000
  0.333333  0.166667  0.333333      1.000000
  0.500000  0.166667  0.333333      1.000000
 -0.333333  0.166667  0.333333      1.000000
 -0.166667  0.166667  0.333333      1.000000
  0.000000  0.333333  0.333333      1.000000
  0.166667  0.333333  0.333333      1.000000
  0.333333  0.333333  0.333333      1.000000
  0.500000  0.333333  0.333333      1.000000
 -0.333333  0.333333  0.333333      1.000000
 -0.166667  0.333333  0.333333      1.000000
  0.000000  0.500000  0.333333      1.000000
  0.166667  0.500000  0.333333      1.000000
  0.333333  0.500000  0.333333      1.000000
  0.500000  0.500000  0.333333      1.000000
 -0.333333  0.500000  0.333333      1.000000
 -0.166667  0.500000  0.333333      1.000000
  0.000000 -0.333333  0.333333      1.000000
  0.166667 -0.333333  0.333333      1.000000
  0.333333 -0.333333  0.333333      1.000000
  0.500000 -0.333333  0.333333      1.000000
 -0.333333 -0.333333  0.333333      1.000000
 -0.166667 -0.333333  0.333333      1.000000
  0.000000 -0.166667  0.333333      1.000000
  0.166667 -0.166667  0.333333      1.000000
  0.333333 -0.166667  0.333333      1.000000
  0.500000 -0.166667  0.333333      1.000000
 -0.333333 -0.166667  0.333333      1.000000
 -0.166667 -0.166667  0.333333      1.000000
  0.000000  0.000000  0.500000      1.000000
  0.166667  0.000000  0.500000      1.000000
  0.333333  0.000000  0.500000      1.000000
  0.500000  0.000000  0.500000      1.000000
 -0.333333 -0.000000  0.500000      1.000000
 -0.166667  0.000000  0.500000      1.000000
  0.000000  0.166667  0.500000      1.000000
  0.166667  0.166667  0.500000      1.000000
  0.333333  0.166667  0.500000      1.000000
  0.500000  0.166667  0.500000      1.000000
 -0.333333  0.166667  0.500000      1.000000
 -0.166667  0.166667  0.500000      1.000000
  0.000000  0.333333  0.500000      1.000000
  0.166667  0.333333  0.500000      1.000000
  0.333333  0.333333  0.500000      1.000000
  0.500000  0.333333  0.500000      1.000000
 -0.333333  0.333333  0.500000      1.000000
 -0.166667  0.333333  0.500000      1.000000
  0.000000  0.500000  0.500000      1.000000
  0.166667  0.500000  0.500000      1.000000
  0.333333  0.500000  0.500000      1.000000
  0.500000  0.500000  0.500000      1.000000
 -0.333333  0.500000  0.500000      1.000000
 -0.166667  0.500000  0.500000      1.000000
  0.000000 -0.333333  0.500000      1.000000
  0.166667 -0.333333  0.500000      1.000000
  0.333333 -0.333333  0.500000      1.000000
  0.500000 -0.333333  0.500000      1.000000
 -0.333333 -0.333333  0.500000      1.000000
 -0.166667 -0.333333  0.500000      1.000000
  0.000000 -0.166667  0.500000      1.000000
  0.166667 -0.166667  0.500000      1.000000
  0.333333 -0.166667  0.500000      1.000000
  0.500000 -0.166667  0.500000      1.000000
 -0.333333 -0.166667  0.500000      1.000000
 -0.166667 -0.166667  0.500000      1.000000
  0.000000  0.000000 -0.333333      1.000000
  0.166667  0.000000 -0.333333      1.000000
  0.333333  0.000000 -0.333333      1.000000
  0.500000  0.000000 -0.333333      1.000000
 -0.333333 -0.000000 -0.333333      1.000000
 -0.166667  0.000000 -0.333333      1.000000
  0.000000  0.166667 -0.333333      1.000000
  0.166667  0.166667 -0.333333      1.000000
  0.333333  0.166667 -0.333333      1.000000
  0.500000  0.166667 -0.333333      1.000000
 -0.333333  0.166667 -0.333333      1.000000
 -0.166667  0.166667 -0.333333      1.000000
  0.000000  0.333333 -0.333333      1.000000
  0.166667  0.333333 -0.333333      1.000000
  0.333333  0.333333 -0.333333      1.000000
  0.500000  0.333333 -0.333333      1.000000
 -0.333333  0.333333 -0.333333      1.000000
 -0.166667  0.333333 -0.333333      1.000000
  0.000000  0.500000 -0.333333      1.000000
  0.166667  0.500000 -0.333333      1.000000
  0.333333  0.500000 -0.333333      1.000000
  0.500000  0.500000 -0.333333      1.000000
 -0.333333  0.500000 -0.333333      1.000000
 -0.166667  0.500000 -0.333333      1.000000
  0.000000 -0.333333 -0.333333      1.000000
  0.166667 -0.333333 -0.333333      1.000000
  0.333333 -0.333333 -0.333333      1.000000
  0.500000 -0.333333 -0.333333      1.000000
 -0.333333 -0.333333 -0.333333      1.000000
 -0.166667 -0.333333 -0.333333      1.000000
  0.000000 -0.166667 -0.333333      1.000000
  0.166667 -0.166667 -0.333333      1.000000
  0.333333 -0.166667 -0.333333      1.000000
  0.500000 -0.166667 -0.333333      1.000000
 -0.333333 -0.166667 -0.333333      1.000000
 -0.166667 -0.166667 -0.333333      1.000000
  0.000000  0.000000 -0.166667      1.000000
  0.166667  0.000000 -0.166667      1.000000
  0.333333  0.000000 -0.166667      1.000000
  0.500000  0.000000 -0.166667      1.000000
 -0.333333 -0.000000 -0.166667      1.000000
 -0.166667  0.000000 -0.166667      1.000000
  0.000000  0.166667 -0.166667      1.000000
  0.166667  0.166667 -0.166667      1.000000
  0.333333  0.166667 -0.166667      1.000000
  0.500000  0.166667 -0.166667      1.000000
 -0.333333  0.166667 -0.166667      1.000000
 -0.166667  0.166667 -0.166667      1.000000
  0.000000  0.333333 -0.166667      1.000000
  0.166667  0.333333 -0.166667      1.000000
  0.333333  0.333333 -0.166667      1.000000
  0.500000  0.333333 -0.166667      1.000000
 -0.333333  0.333333 -0.166667      1.000000
 -0.166667  0.333333 -0.166667      1.000000
  0.000000  0.500000 -0.166667      1.000000
  0.166667  0.500000 -0.166667      1.000000
  0.333333  0.500000 -0.166667      1.000000
  0.500000  0.500000 -0.166667      1.000000
 -0.333333  0.500000 -0.166667      1.000000
 -0.166667  0.500000 -0.166667      1.000000
  0.000000 -0.333333 -0.166667      1.000000
  0.166667 -0.333333 -0.166667      1.000000
  0.333333 -0.333333 -0.166667      1.000000
  0.500000 -0.333333 -0.166667      1.000000
 -0.333333 -0.333333 -0.166667      1.000000
 -0.166667 -0.333333 -0.166667      1.000000
  0.000000 -0.166667 -0.166667      1.000000
  0.166667 -0.166667 -0.166667      1.000000
  0.333333 -0.166667 -0.166667      1.000000
  0.500000 -0.166667 -0.166667      1.000000
 -0.333333 -0.166667 -0.166667      1.000000
 -0.166667 -0.166667 -0.166667      1.000000
 
 Following cartesian coordinates:
            Coordinates               Weight
  0.000000  0.000000  0.000000      1.000000
  0.051407  0.018175  0.031479      1.000000
  0.102814  0.036350  0.062959      1.000000
  0.154221  0.054525  0.094438      1.000000
 -0.102814 -0.036350 -0.062959      1.000000
 -0.051407 -0.018175 -0.031479      1.000000
  0.000000  0.054525  0.031479      1.000000
  0.051407  0.072700  0.062959      1.000000
  0.102814  0.090875  0.094438      1.000000
  0.154221  0.109050  0.125918      1.000000
 -0.102814  0.018175 -0.031479      1.000000
 -0.051407  0.036350  0.000000      1.000000
  0.000000  0.109050  0.062959      1.000000
  0.051407  0.127225  0.094438      1.000000
  0.102814  0.145400  0.125918      1.000000
  0.154221  0.163575  0.157397      1.000000
 -0.102814  0.072701  0.000000      1.000000
 -0.051407  0.090876  0.031479      1.000000
  0.000000  0.163576  0.094438      1.000000
  0.051407  0.181751  0.125918      1.000000
  0.102814  0.199926  0.157397      1.000000
  0.154221  0.218100  0.188877      1.000000
 -0.102814  0.127226  0.031479      1.000000
 -0.051407  0.145401  0.062959      1.000000
  0.000000 -0.109050 -0.062959      1.000000
  0.051407 -0.090876 -0.031479      1.000000
  0.102814 -0.072701 -0.000000      1.000000
  0.154221 -0.054526  0.031479      1.000000
 -0.102814 -0.145400 -0.125918      1.000000
 -0.051407 -0.127225 -0.094438      1.000000
  0.000000 -0.054525 -0.031479      1.000000
  0.051407 -0.036350 -0.000000      1.000000
  0.102814 -0.018175  0.031479      1.000000
  0.154221 -0.000001  0.062959      1.000000
 -0.102814 -0.090875 -0.094438      1.000000
 -0.051407 -0.072700 -0.062959      1.000000
  0.000000  0.000000  0.062960      1.000000
  0.051407  0.018175  0.094439      1.000000
  0.102814  0.036350  0.125919      1.000000
  0.154221  0.054525  0.157398      1.000000
 -0.102814 -0.036350  0.000001      1.000000
 -0.051407 -0.018175  0.031481      1.000000
  0.000000  0.054525  0.094439      1.000000
  0.051407  0.072700  0.125919      1.000000
  0.102814  0.090875  0.157398      1.000000
  0.154221  0.109050  0.188878      1.000000
 -0.102814  0.018175  0.031481      1.000000
 -0.051407  0.036350  0.062960      1.000000
  0.000000  0.109050  0.125919      1.000000
  0.051407  0.127225  0.157398      1.000000
  0.102814  0.145400  0.188878      1.000000
  0.154221  0.163575  0.220357      1.000000
 -0.102814  0.072701  0.062960      1.000000
 -0.051407  0.090876  0.094439      1.000000
  0.000000  0.163576  0.157398      1.000000
  0.051407  0.181751  0.188878      1.000000
  0.102814  0.199926  0.220357      1.000000
  0.154221  0.218100  0.251837      1.000000
 -0.102814  0.127226  0.094439      1.000000
 -0.051407  0.145401  0.125919      1.000000
  0.000000 -0.109050  0.000001      1.000000
  0.051407 -0.090876  0.031481      1.000000
  0.102814 -0.072701  0.062960      1.000000
  0.154221 -0.054526  0.094439      1.000000
 -0.102814 -0.145400 -0.062958      1.000000
 -0.051407 -0.127225 -0.031478      1.000000
  0.000000 -0.054525  0.031481      1.000000
  0.051407 -0.036350  0.062960      1.000000
  0.102814 -0.018175  0.094439      1.000000
  0.154221 -0.000001  0.125919      1.000000
 -0.102814 -0.090875 -0.031478      1.000000
 -0.051407 -0.072700  0.000001      1.000000
  0.000000  0.000000  0.125920      1.000000
  0.051407  0.018175  0.157399      1.000000
  0.102814  0.036350  0.188879      1.000000
  0.154221  0.054525  0.220358      1.000000
 -0.102814 -0.036350  0.062961      1.000000
 -0.051407 -0.018175  0.094440      1.000000
  0.000000  0.054525  0.157399      1.000000
  0.051407  0.072700  0.188879      1.000000
  0.102814  0.090875  0.220358      1.000000
  0.154221  0.109050  0.251838      1.000000
 -0.102814  0.018175  0.094440      1.000000
 -0.051407  0.036350  0.125920      1.000000
  0.000000  0.109050  0.188879      1.000000
  0.051407  0.127225  0.220358      1.000000
  0.102814  0.145400  0.251838      1.000000
  0.154221  0.163575  0.283317      1.000000
 -0.102814  0.072701  0.125920      1.000000
 -0.051407  0.090876  0.157399      1.000000
  0.000000  0.163576  0.220358      1.000000
  0.051407  0.181751  0.251838      1.000000
  0.102814  0.199926  0.283317      1.000000
  0.154221  0.218100  0.314797      1.000000
 -0.102814  0.127226  0.157399      1.000000
 -0.051407  0.145401  0.188879      1.000000
  0.000000 -0.109050  0.062961      1.000000
  0.051407 -0.090876  0.094440      1.000000
  0.102814 -0.072701  0.125920      1.000000
  0.154221 -0.054526  0.157399      1.000000
 -0.102814 -0.145400  0.000002      1.000000
 -0.051407 -0.127225  0.031482      1.000000
  0.000000 -0.054525  0.094440      1.000000
  0.051407 -0.036350  0.125920      1.000000
  0.102814 -0.018175  0.157399      1.000000
  0.154221 -0.000001  0.188879      1.000000
 -0.102814 -0.090875  0.031482      1.000000
 -0.051407 -0.072700  0.062961      1.000000
  0.000000  0.000000  0.188880      1.000000
  0.051407  0.018175  0.220359      1.000000
  0.102814  0.036350  0.251839      1.000000
  0.154221  0.054525  0.283318      1.000000
 -0.102814 -0.036350  0.125921      1.000000
 -0.051407 -0.018175  0.157400      1.000000
  0.000000  0.054525  0.220359      1.000000
  0.051407  0.072700  0.251839      1.000000
  0.102814  0.090875  0.283318      1.000000
  0.154221  0.109050  0.314798      1.000000
 -0.102814  0.018175  0.157400      1.000000
 -0.051407  0.036350  0.188880      1.000000
  0.000000  0.109050  0.251839      1.000000
  0.051407  0.127225  0.283318      1.000000
  0.102814  0.145400  0.314798      1.000000
  0.154221  0.163575  0.346277      1.000000
 -0.102814  0.072701  0.188880      1.000000
 -0.051407  0.090876  0.220359      1.000000
  0.000000  0.163576  0.283318      1.000000
  0.051407  0.181751  0.314798      1.000000
  0.102814  0.199926  0.346277      1.000000
  0.154221  0.218100  0.377757      1.000000
 -0.102814  0.127226  0.220359      1.000000
 -0.051407  0.145401  0.251839      1.000000
  0.000000 -0.109050  0.125921      1.000000
  0.051407 -0.090876  0.157400      1.000000
  0.102814 -0.072701  0.188880      1.000000
  0.154221 -0.054526  0.220359      1.000000
 -0.102814 -0.145400  0.062962      1.000000
 -0.051407 -0.127225  0.094442      1.000000
  0.000000 -0.054525  0.157400      1.000000
  0.051407 -0.036350  0.188880      1.000000
  0.102814 -0.018175  0.220359      1.000000
  0.154221 -0.000001  0.251839      1.000000
 -0.102814 -0.090875  0.094442      1.000000
 -0.051407 -0.072700  0.125921      1.000000
  0.000000  0.000000 -0.125920      1.000000
  0.051407  0.018175 -0.094440      1.000000
  0.102814  0.036350 -0.062961      1.000000
  0.154221  0.054525 -0.031482      1.000000
 -0.102814 -0.036350 -0.188879      1.000000
 -0.051407 -0.018175 -0.157399      1.000000
  0.000000  0.054525 -0.094440      1.000000
  0.051407  0.072700 -0.062961      1.000000
  0.102814  0.090875 -0.031482      1.000000
  0.154221  0.109050 -0.000002      1.000000
 -0.102814  0.018175 -0.157399      1.000000
 -0.051407  0.036350 -0.125920      1.000000
  0.000000  0.109050 -0.062961      1.000000
  0.051407  0.127225 -0.031482      1.000000
  0.102814  0.145400 -0.000002      1.000000
  0.154221  0.163575  0.031477      1.000000
 -0.102814  0.072701 -0.125920      1.000000
 -0.051407  0.090876 -0.094440      1.000000
  0.000000  0.163576 -0.031482      1.000000
  0.051407  0.181751 -0.000002      1.000000
  0.102814  0.199926  0.031477      1.000000
  0.154221  0.218100  0.062957      1.000000
 -0.102814  0.127226 -0.094440      1.000000
 -0.051407  0.145401 -0.062961      1.000000
  0.000000 -0.109050 -0.188879      1.000000
  0.051407 -0.090876 -0.157399      1.000000
  0.102814 -0.072701 -0.125920      1.000000
  0.154221 -0.054526 -0.094440      1.000000
 -0.102814 -0.145400 -0.251838      1.000000
 -0.051407 -0.127225 -0.220358      1.000000
  0.000000 -0.054525 -0.157399      1.000000
  0.051407 -0.036350 -0.125920      1.000000
  0.102814 -0.018175 -0.094440      1.000000
  0.154221 -0.000001 -0.062961      1.000000
 -0.102814 -0.090875 -0.220358      1.000000
 -0.051407 -0.072700 -0.188879      1.000000
  0.000000  0.000000 -0.062960      1.000000
  0.051407  0.018175 -0.031481      1.000000
  0.102814  0.036350 -0.000001      1.000000
  0.154221  0.054525  0.031478      1.000000
 -0.102814 -0.036350 -0.125919      1.000000
 -0.051407 -0.018175 -0.094439      1.000000
  0.000000  0.054525 -0.031481      1.000000
  0.051407  0.072700 -0.000001      1.000000
  0.102814  0.090875  0.031478      1.000000
  0.154221  0.109050  0.062958      1.000000
 -0.102814  0.018175 -0.094439      1.000000
 -0.051407  0.036350 -0.062960      1.000000
  0.000000  0.109050 -0.000001      1.000000
  0.051407  0.127225  0.031478      1.000000
  0.102814  0.145400  0.062958      1.000000
  0.154221  0.163575  0.094437      1.000000
 -0.102814  0.072701 -0.062960      1.000000
 -0.051407  0.090876 -0.031481      1.000000
  0.000000  0.163576  0.031478      1.000000
  0.051407  0.181751  0.062958      1.000000
  0.102814  0.199926  0.094437      1.000000
  0.154221  0.218100  0.125917      1.000000
 -0.102814  0.127226 -0.031481      1.000000
 -0.051407  0.145401 -0.000001      1.000000
  0.000000 -0.109050 -0.125919      1.000000
  0.051407 -0.090876 -0.094439      1.000000
  0.102814 -0.072701 -0.062960      1.000000
  0.154221 -0.054526 -0.031481      1.000000
 -0.102814 -0.145400 -0.188878      1.000000
 -0.051407 -0.127225 -0.157398      1.000000
  0.000000 -0.054525 -0.094439      1.000000
  0.051407 -0.036350 -0.062960      1.000000
  0.102814 -0.018175 -0.031481      1.000000
  0.154221 -0.000001 -0.000001      1.000000
 -0.102814 -0.090875 -0.157398      1.000000
 -0.051407 -0.072700 -0.125919      1.000000
 


--------------------------------------------------------------------------------------------------------




 Dimension of arrays:
   k-points           NKPTS =    216   k-points in BZ     NKDIM =    216   number of bands    NBANDS=     64
   number of dos      NEDOS =    301   number of ions     NIONS =      1
   non local maximal  LDIM  =      6   non local SUM 2l+1 LMDIM =     18
   total plane-waves  NPLWV =   5832
   max r-space proj   IRMAX =      1   max aug-charges    IRDMAX= 106984
   dimension x,y,z NGX =    18 NGY =   18 NGZ =   18
   dimension x,y,z NGXF=    36 NGYF=   36 NGZF=   36
   support grid    NGXF=    72 NGYF=   72 NGZF=   72
   ions per type =               1
   NGX,Y,Z   is equivalent  to a cutoff of   9.23,  9.23,  9.23 a.u.
   NGXF,Y,Z  is equivalent  to a cutoff of  18.46, 18.46, 18.46 a.u.

 SYSTEM =  Cn_BCC                                  
 POSCAR =  Cn BCC                                  

 Startparameter for this run:
   NWRITE =      2    write-flag & timer
   PREC   = accura    normal or accurate (medium, high low for compatibility)
   ISTART =      1    job   : 0-new  1-cont  2-samecut
   ICHARG =      0    charge: 1-file 2-atom 10-const
   ISPIN  =      1    spin polarized calculation?
   LNONCOLLINEAR =      T non collinear calculations
   LSORBIT =      T    spin-orbit coupling
   INIWAV =      1    electr: 0-lowe 1-rand  2-diag
   LASPH  =      F    aspherical Exc in radial PAW
   METAGGA=      F    non-selfconsistent MetaGGA calc.

 Electronic Relaxation 1
   ENCUT  =  300.0 eV  22.05 Ry    4.70 a.u.   4.58  4.58  4.58*2*pi/ulx,y,z
   ENINI  =  300.0     initial cutoff
   ENAUG  =  361.0 eV  augmentation charge cutoff
   NELM   =     50;   NELMIN=  2; NELMDL= -5     # of ELM steps 
   EDIFF  = 0.1E-07   stopping-criterion for ELM
   LREAL  =      F    real-space projection
   NLSPLINE    = F    spline interpolate recip. space projectors
   LCOMPAT=      F    compatible to vasp.4.4
   GGA_COMPAT  = F    GGA compatible to vasp.4.4-vasp.4.6
   LMAXPAW     = -100 max onsite density
   LMAXMIX     =    2 max onsite mixed and CHGCAR
   VOSKOWN=      0    Vosko Wilk Nusair interpolation
   ROPT   =    0.00000
 Ionic relaxation
   EDIFFG = 0.1E-04   stopping-criterion for IOM
   NSW    =      1    number of steps for IOM
   NBLOCK =      1;   KBLOCK =      1    inner block; outer block 
   IBRION =     -1    ionic relax: 0-MD 1-quasi-New 2-CG
   NFREE  =      5    steps in history (QN), initial steepest desc. (CG)
   ISIF   =      3    stress and relaxation
   IWAVPR =     10    prediction:  0-non 1-charg 2-wave 3-comb
   ISYM   =      0    0-nonsym 1-usesym 2-fastsym
   LCORR  =      T    Harris-Foulkes like correction to forces

   POTIM  = 0.1000    time-step for ionic-motion
   TEIN   =    0.0    initial temperature
   TEBEG  =    0.0;   TEEND  =   0.0 temperature during run
   SMASS  =  -3.00    Nose mass-parameter (am)
   estimated Nose-frequenzy (Omega)   =  0.10E-29 period in steps =****** mass=  -0.240E-27a.u.
   SCALEE = 1.0000    scale energy and forces
   NPACO  =    256;   APACO  = 16.0  distance and # of slots for P.C.
   PSTRESS=    0.0 pullay stress

  Mass of Ions in am
   POMASS =   0.01
  Ionic Valenz
   ZVAL   =  12.00
  Atomic Wigner-Seitz radii
   RWIGS  =  -1.00
  virtual crystal weights 
   VCA    =   1.00
   NELECT =      12.0000    total number of electrons
   NUPDOWN=      -1.0000    fix difference up-down

 DOS related values:
   EMIN   =  10.00;   EMAX   =-10.00  energy-range for DOS
   EFERMI =   0.00
   ISMEAR =     0;   SIGMA  =   0.00  broadening in eV -4-tet -1-fermi 0-gaus

 Electronic relaxation 2 (details)
   IALGO  =     38    algorithm
   LDIAG  =      T    sub-space diagonalisation (order eigenvalues)
   LSUBROT=      F    optimize rotation matrix (better conditioning)
   TURBO    =      0    0=normal 1=particle mesh
   IRESTART =      0    0=no restart 2=restart with 2 vectors
   NREBOOT  =      0    no. of reboots
   NMIN     =      0    reboot dimension
   EREF     =   0.00    reference energy to select bands
   IMIX   =      4    mixing-type and parameters
     AMIX     =   0.40;   BMIX     =  1.00
     AMIX_MAG =   1.60;   BMIX_MAG =  1.00
     AMIN     =   0.10
     WC   =   100.;   INIMIX=   1;  MIXPRE=   1;  MAXMIX=  50

 Intra band minimization:
   WEIMIN = 0.0000     energy-eigenvalue tresh-hold
   EBREAK =  0.39E-10  absolut break condition
   DEPER  =   0.30     relativ break condition  

   TIME   =   0.40     timestep for ELM

  volume/ion in A,a.u.               =      26.23       177.03
  Fermi-wavevector in a.u.,A,eV,Ry     =   1.261386  2.383673 21.648148  1.591094
  Thomas-Fermi vector in A             =   2.394847
 
 Write flags
   LWAVE        =      T    write WAVECAR
   LDOWNSAMPLE  =      F    k-point downsampling of WAVECAR
   LCHARG       =      T    write CHGCAR
   LVTOT        =      F    write LOCPOT, total local potential
   LVHAR        =      F    write LOCPOT, Hartree potential only
   LELF         =      F    write electronic localiz. function (ELF)
   LORBIT       =      0    0 simple, 1 ext, 2 COOP (PROOUT), +10 PAW based schemes


 Dipole corrections
   LMONO  =      F    monopole corrections only (constant potential shift)
   LDIPOL =      F    correct potential (dipole corrections)
   IDIPOL =      0    1-x, 2-y, 3-z, 4-all directions 
   EPSILON=  1.0000000 bulk dielectric constant

 Exchange correlation treatment:
   GGA     =    PE    GGA type
   LEXCH   =     8    internal setting for exchange type
   VOSKOWN=      0    Vosko Wilk Nusair interpolation
   LHFCALC =     F    Hartree Fock is set to
   LHFONE  =     F    Hartree Fock one center treatment
   AEXX    =    0.0000 exact exchange contribution

 Linear response parameters
   LEPSILON=     F    determine dielectric tensor
   LRPA    =     F    only Hartree local field effects (RPA)
   LNABLA  =     F    use nabla operator in PAW spheres
   LVEL    =     F    velocity operator in full k-point grid
   LINTERFAST=   F  fast interpolation
   KINTER  =     0    interpolate to denser k-point grid
   CSHIFT  =0.1000    complex shift for real part using Kramers Kronig
   OMEGAMAX=  -1.0    maximum frequency
   DEG_THRESHOLD= 0.2000000E-02 threshold for treating states as degnerate
   RTIME   =   -0.100 relaxation time in fs
  (WPLASMAI=    0.000 imaginary part of plasma frequency in eV, 0.658/RTIME)
   DFIELD  = 0.0000000 0.0000000 0.0000000 field for delta impulse in time
 
 Orbital magnetization related:
   ORBITALMAG=     F  switch on orbital magnetization
   LCHIMAG   =     F  perturbation theory with respect to B field
   DQ        =  0.001000  dq finite difference perturbation B field
   LLRAUG    =     F  two centre corrections for induced B field



--------------------------------------------------------------------------------------------------------


 Static calculation
 charge density and potential will be updated during run
 non collinear spin polarized calculation
 Variant of blocked Davidson
 Davidson routine will perform the subspace rotation
 perform sub-space diagonalisation
    after iterative eigenvector-optimisation
 modified Broyden-mixing scheme, WC =      100.0
 initial mixing is a Kerker type mixing with AMIX =  0.4000 and BMIX =      1.0000
 Hartree-type preconditioning will be used
 using additional bands           58
 reciprocal scheme for non local part
 use partial core corrections
 calculate Harris-corrections to forces 
   (improved forces if not selfconsistent)
 use gradient corrections 
 use of overlap-Matrix (Vanderbilt PP)
 Gauss-broadening in eV      SIGMA  =   0.00


--------------------------------------------------------------------------------------------------------


  energy-cutoff  :      300.00
  volume of cell :       26.23
      direct lattice vectors                 reciprocal lattice vectors
     3.242102804  0.000000000  0.000000000     0.308441792  0.109049309  0.188876893
    -1.080689200  3.056687986  0.000000000     0.000000000  0.327151481  0.188876893
    -1.080689200 -1.528319100  2.647183819     0.000000000  0.000000000  0.377759940

  length of vectors
     3.242102804  3.242102804  3.242102804     0.377759940  0.377759940  0.377759940


 
 old parameters found on file WAVECAR:
  energy-cutoff  :      300.00
  volume of cell :       26.23
      direct lattice vectors                 reciprocal lattice vectors
     3.242102804  0.000000000  0.000000000     0.308441792  0.109049309  0.188876893
    -1.080689200  3.056687986  0.000000000     0.000000000  0.327151481  0.188876893
    -1.080689200 -1.528319100  2.647183819     0.000000000  0.000000000  0.377759940

  length of vectors

 
 k-points in units of 2pi/SCALE and weight: k-points                                
   0.00000000  0.00000000  0.00000000       0.005
   0.05140697  0.01817488  0.03147948       0.005
   0.10281393  0.03634977  0.06295896       0.005
   0.15422090  0.05452465  0.09443845       0.005
  -0.10281393 -0.03634977 -0.06295896       0.005
  -0.05140697 -0.01817488 -0.03147948       0.005
   0.00000000  0.05452525  0.03147948       0.005
   0.05140697  0.07270013  0.06295896       0.005
   0.10281393  0.09087502  0.09443845       0.005
   0.15422090  0.10904990  0.12591793       0.005
  -0.10281393  0.01817548 -0.03147948       0.005
  -0.05140697  0.03635036  0.00000000       0.005
   0.00000000  0.10905049  0.06295896       0.005
   0.05140697  0.12722538  0.09443845       0.005
   0.10281393  0.14540026  0.12591793       0.005
   0.15422090  0.16357515  0.15739741       0.005
  -0.10281393  0.07270072  0.00000000       0.005
  -0.05140697  0.09087561  0.03147948       0.005
   0.00000000  0.16357574  0.09443845       0.005
   0.05140697  0.18175063  0.12591793       0.005
   0.10281393  0.19992551  0.15739741       0.005
   0.15422090  0.21810039  0.18887689       0.005
  -0.10281393  0.12722597  0.03147948       0.005
  -0.05140697  0.14540086  0.06295896       0.005
   0.00000000 -0.10905049 -0.06295896       0.005
   0.05140697 -0.09087561 -0.03147948       0.005
   0.10281393 -0.07270072 -0.00000000       0.005
   0.15422090 -0.05452584  0.03147948       0.005
  -0.10281393 -0.14540026 -0.12591793       0.005
  -0.05140697 -0.12722538 -0.09443845       0.005
   0.00000000 -0.05452525 -0.03147948       0.005
   0.05140697 -0.03635036 -0.00000000       0.005
   0.10281393 -0.01817548  0.03147948       0.005
   0.15422090 -0.00000059  0.06295896       0.005
  -0.10281393 -0.09087502 -0.09443845       0.005
  -0.05140697 -0.07270013 -0.06295896       0.005
   0.00000000  0.00000000  0.06295999       0.005
   0.05140697  0.01817488  0.09443947       0.005
   0.10281393  0.03634977  0.12591895       0.005
   0.15422090  0.05452465  0.15739844       0.005
  -0.10281393 -0.03634977  0.00000103       0.005
  -0.05140697 -0.01817488  0.03148051       0.005
   0.00000000  0.05452525  0.09443947       0.005
   0.05140697  0.07270013  0.12591895       0.005
   0.10281393  0.09087502  0.15739844       0.005
   0.15422090  0.10904990  0.18887792       0.005
  -0.10281393  0.01817548  0.03148051       0.005
  -0.05140697  0.03635036  0.06295999       0.005
   0.00000000  0.10905049  0.12591895       0.005
   0.05140697  0.12722538  0.15739844       0.005
   0.10281393  0.14540026  0.18887792       0.005
   0.15422090  0.16357515  0.22035740       0.005
  -0.10281393  0.07270072  0.06295999       0.005
  -0.05140697  0.09087561  0.09443947       0.005
   0.00000000  0.16357574  0.15739844       0.005
   0.05140697  0.18175063  0.18887792       0.005
   0.10281393  0.19992551  0.22035740       0.005
   0.15422090  0.21810039  0.25183688       0.005
  -0.10281393  0.12722597  0.09443947       0.005
  -0.05140697  0.14540086  0.12591895       0.005
   0.00000000 -0.10905049  0.00000103       0.005
   0.05140697 -0.09087561  0.03148051       0.005
   0.10281393 -0.07270072  0.06295999       0.005
   0.15422090 -0.05452584  0.09443947       0.005
  -0.10281393 -0.14540026 -0.06295794       0.005
  -0.05140697 -0.12722538 -0.03147846       0.005
   0.00000000 -0.05452525  0.03148051       0.005
   0.05140697 -0.03635036  0.06295999       0.005
   0.10281393 -0.01817548  0.09443947       0.005
   0.15422090 -0.00000059  0.12591895       0.005
  -0.10281393 -0.09087502 -0.03147846       0.005
  -0.05140697 -0.07270013  0.00000103       0.005
   0.00000000  0.00000000  0.12591998       0.005
   0.05140697  0.01817488  0.15739946       0.005
   0.10281393  0.03634977  0.18887894       0.005
   0.15422090  0.05452465  0.22035843       0.005
  -0.10281393 -0.03634977  0.06296102       0.005
  -0.05140697 -0.01817488  0.09444050       0.005
   0.00000000  0.05452525  0.15739946       0.005
   0.05140697  0.07270013  0.18887894       0.005
   0.10281393  0.09087502  0.22035843       0.005
   0.15422090  0.10904990  0.25183791       0.005
  -0.10281393  0.01817548  0.09444050       0.005
  -0.05140697  0.03635036  0.12591998       0.005
   0.00000000  0.10905049  0.18887894       0.005
   0.05140697  0.12722538  0.22035843       0.005
   0.10281393  0.14540026  0.25183791       0.005
   0.15422090  0.16357515  0.28331739       0.005
  -0.10281393  0.07270072  0.12591998       0.005
  -0.05140697  0.09087561  0.15739946       0.005
   0.00000000  0.16357574  0.22035843       0.005
   0.05140697  0.18175063  0.25183791       0.005
   0.10281393  0.19992551  0.28331739       0.005
   0.15422090  0.21810039  0.31479687       0.005
  -0.10281393  0.12722597  0.15739946       0.005
  -0.05140697  0.14540086  0.18887894       0.005
   0.00000000 -0.10905049  0.06296102       0.005
   0.05140697 -0.09087561  0.09444050       0.005
   0.10281393 -0.07270072  0.12591998       0.005
   0.15422090 -0.05452584  0.15739946       0.005
  -0.10281393 -0.14540026  0.00000205       0.005
  -0.05140697 -0.12722538  0.03148153       0.005
   0.00000000 -0.05452525  0.09444050       0.005
   0.05140697 -0.03635036  0.12591998       0.005
   0.10281393 -0.01817548  0.15739946       0.005
   0.15422090 -0.00000059  0.18887894       0.005
  -0.10281393 -0.09087502  0.03148153       0.005
  -0.05140697 -0.07270013  0.06296102       0.005
   0.00000000  0.00000000  0.18887997       0.005
   0.05140697  0.01817488  0.22035945       0.005
   0.10281393  0.03634977  0.25183893       0.005
   0.15422090  0.05452465  0.28331842       0.005
  -0.10281393 -0.03634977  0.12592101       0.005
  -0.05140697 -0.01817488  0.15740049       0.005
   0.00000000  0.05452525  0.22035945       0.005
   0.05140697  0.07270013  0.25183893       0.005
   0.10281393  0.09087502  0.28331842       0.005
   0.15422090  0.10904990  0.31479790       0.005
  -0.10281393  0.01817548  0.15740049       0.005
  -0.05140697  0.03635036  0.18887997       0.005
   0.00000000  0.10905049  0.25183893       0.005
   0.05140697  0.12722538  0.28331842       0.005
   0.10281393  0.14540026  0.31479790       0.005
   0.15422090  0.16357515  0.34627738       0.005
  -0.10281393  0.07270072  0.18887997       0.005
  -0.05140697  0.09087561  0.22035945       0.005
   0.00000000  0.16357574  0.28331842       0.005
   0.05140697  0.18175063  0.31479790       0.005
   0.10281393  0.19992551  0.34627738       0.005
   0.15422090  0.21810039  0.37775686       0.005
  -0.10281393  0.12722597  0.22035945       0.005
  -0.05140697  0.14540086  0.25183893       0.005
   0.00000000 -0.10905049  0.12592101       0.005
   0.05140697 -0.09087561  0.15740049       0.005
   0.10281393 -0.07270072  0.18887997       0.005
   0.15422090 -0.05452584  0.22035945       0.005
  -0.10281393 -0.14540026  0.06296204       0.005
  -0.05140697 -0.12722538  0.09444152       0.005
   0.00000000 -0.05452525  0.15740049       0.005
   0.05140697 -0.03635036  0.18887997       0.005
   0.10281393 -0.01817548  0.22035945       0.005
   0.15422090 -0.00000059  0.25183893       0.005
  -0.10281393 -0.09087502  0.09444152       0.005
  -0.05140697 -0.07270013  0.12592101       0.005
   0.00000000  0.00000000 -0.12591998       0.005
   0.05140697  0.01817488 -0.09444050       0.005
   0.10281393  0.03634977 -0.06296102       0.005
   0.15422090  0.05452465 -0.03148153       0.005
  -0.10281393 -0.03634977 -0.18887894       0.005
  -0.05140697 -0.01817488 -0.15739946       0.005
   0.00000000  0.05452525 -0.09444050       0.005
   0.05140697  0.07270013 -0.06296102       0.005
   0.10281393  0.09087502 -0.03148153       0.005
   0.15422090  0.10904990 -0.00000205       0.005
  -0.10281393  0.01817548 -0.15739946       0.005
  -0.05140697  0.03635036 -0.12591998       0.005
   0.00000000  0.10905049 -0.06296102       0.005
   0.05140697  0.12722538 -0.03148153       0.005
   0.10281393  0.14540026 -0.00000205       0.005
   0.15422090  0.16357515  0.03147743       0.005
  -0.10281393  0.07270072 -0.12591998       0.005
  -0.05140697  0.09087561 -0.09444050       0.005
   0.00000000  0.16357574 -0.03148153       0.005
   0.05140697  0.18175063 -0.00000205       0.005
   0.10281393  0.19992551  0.03147743       0.005
   0.15422090  0.21810039  0.06295691       0.005
  -0.10281393  0.12722597 -0.09444050       0.005
  -0.05140697  0.14540086 -0.06296102       0.005
   0.00000000 -0.10905049 -0.18887894       0.005
   0.05140697 -0.09087561 -0.15739946       0.005
   0.10281393 -0.07270072 -0.12591998       0.005
   0.15422090 -0.05452584 -0.09444050       0.005
  -0.10281393 -0.14540026 -0.25183791       0.005
  -0.05140697 -0.12722538 -0.22035843       0.005
   0.00000000 -0.05452525 -0.15739946       0.005
   0.05140697 -0.03635036 -0.12591998       0.005
   0.10281393 -0.01817548 -0.09444050       0.005
   0.15422090 -0.00000059 -0.06296102       0.005
  -0.10281393 -0.09087502 -0.22035843       0.005
  -0.05140697 -0.07270013 -0.18887894       0.005
   0.00000000  0.00000000 -0.06295999       0.005
   0.05140697  0.01817488 -0.03148051       0.005
   0.10281393  0.03634977 -0.00000103       0.005
   0.15422090  0.05452465  0.03147846       0.005
  -0.10281393 -0.03634977 -0.12591895       0.005
  -0.05140697 -0.01817488 -0.09443947       0.005
   0.00000000  0.05452525 -0.03148051       0.005
   0.05140697  0.07270013 -0.00000103       0.005
   0.10281393  0.09087502  0.03147846       0.005
   0.15422090  0.10904990  0.06295794       0.005
  -0.10281393  0.01817548 -0.09443947       0.005
  -0.05140697  0.03635036 -0.06295999       0.005
   0.00000000  0.10905049 -0.00000103       0.005
   0.05140697  0.12722538  0.03147846       0.005
   0.10281393  0.14540026  0.06295794       0.005
   0.15422090  0.16357515  0.09443742       0.005
  -0.10281393  0.07270072 -0.06295999       0.005
  -0.05140697  0.09087561 -0.03148051       0.005
   0.00000000  0.16357574  0.03147846       0.005
   0.05140697  0.18175063  0.06295794       0.005
   0.10281393  0.19992551  0.09443742       0.005
   0.15422090  0.21810039  0.12591690       0.005
  -0.10281393  0.12722597 -0.03148051       0.005
  -0.05140697  0.14540086 -0.00000103       0.005
   0.00000000 -0.10905049 -0.12591895       0.005
   0.05140697 -0.09087561 -0.09443947       0.005
   0.10281393 -0.07270072 -0.06295999       0.005
   0.15422090 -0.05452584 -0.03148051       0.005
  -0.10281393 -0.14540026 -0.18887792       0.005
  -0.05140697 -0.12722538 -0.15739844       0.005
   0.00000000 -0.05452525 -0.09443947       0.005
   0.05140697 -0.03635036 -0.06295999       0.005
   0.10281393 -0.01817548 -0.03148051       0.005
   0.15422090 -0.00000059 -0.00000103       0.005
  -0.10281393 -0.09087502 -0.15739844       0.005
  -0.05140697 -0.07270013 -0.12591895       0.005
 
 k-points in reciprocal lattice and weights: k-points                                
   0.00000000  0.00000000  0.00000000       0.005
   0.16666667  0.00000000  0.00000000       0.005
   0.33333333  0.00000000 -0.00000000       0.005
   0.50000000  0.00000000  0.00000000       0.005
  -0.33333333 -0.00000000  0.00000000       0.005
  -0.16666667  0.00000000  0.00000000       0.005
   0.00000000  0.16666667  0.00000000       0.005
   0.16666667  0.16666667  0.00000000       0.005
   0.33333333  0.16666667  0.00000000       0.005
   0.50000000  0.16666667  0.00000000       0.005
  -0.33333333  0.16666667 -0.00000000       0.005
  -0.16666667  0.16666667 -0.00000000       0.005
   0.00000000  0.33333333  0.00000000       0.005
   0.16666667  0.33333333  0.00000000       0.005
   0.33333333  0.33333333  0.00000000       0.005
   0.50000000  0.33333333  0.00000000       0.005
  -0.33333333  0.33333333  0.00000000       0.005
  -0.16666667  0.33333333  0.00000000       0.005
   0.00000000  0.50000000 -0.00000000       0.005
   0.16666667  0.50000000  0.00000000       0.005
   0.33333333  0.50000000  0.00000000       0.005
   0.50000000  0.50000000 -0.00000000       0.005
  -0.33333333  0.50000000 -0.00000000       0.005
  -0.16666667  0.50000000  0.00000000       0.005
   0.00000000 -0.33333333 -0.00000000       0.005
   0.16666667 -0.33333333 -0.00000000       0.005
   0.33333333 -0.33333333 -0.00000000       0.005
   0.50000000 -0.33333333 -0.00000000       0.005
  -0.33333333 -0.33333333  0.00000000       0.005
  -0.16666667 -0.33333333 -0.00000000       0.005
   0.00000000 -0.16666667 -0.00000000       0.005
   0.16666667 -0.16666667  0.00000000       0.005
   0.33333333 -0.16666667  0.00000000       0.005
   0.50000000 -0.16666667  0.00000000       0.005
  -0.33333333 -0.16666667 -0.00000000       0.005
  -0.16666667 -0.16666667 -0.00000000       0.005
   0.00000000  0.00000000  0.16666667       0.005
   0.16666667  0.00000000  0.16666667       0.005
   0.33333333  0.00000000  0.16666667       0.005
   0.50000000  0.00000000  0.16666667       0.005
  -0.33333333 -0.00000000  0.16666667       0.005
  -0.16666667  0.00000000  0.16666667       0.005
   0.00000000  0.16666667  0.16666667       0.005
   0.16666667  0.16666667  0.16666667       0.005
   0.33333333  0.16666667  0.16666667       0.005
   0.50000000  0.16666667  0.16666667       0.005
  -0.33333333  0.16666667  0.16666667       0.005
  -0.16666667  0.16666667  0.16666667       0.005
   0.00000000  0.33333333  0.16666667       0.005
   0.16666667  0.33333333  0.16666667       0.005
   0.33333333  0.33333333  0.16666667       0.005
   0.50000000  0.33333333  0.16666667       0.005
  -0.33333333  0.33333333  0.16666667       0.005
  -0.16666667  0.33333333  0.16666667       0.005
   0.00000000  0.50000000  0.16666667       0.005
   0.16666667  0.50000000  0.16666667       0.005
   0.33333333  0.50000000  0.16666667       0.005
   0.50000000  0.50000000  0.16666667       0.005
  -0.33333333  0.50000000  0.16666667       0.005
  -0.16666667  0.50000000  0.16666667       0.005
   0.00000000 -0.33333333  0.16666667       0.005
   0.16666667 -0.33333333  0.16666667       0.005
   0.33333333 -0.33333333  0.16666667       0.005
   0.50000000 -0.33333333  0.16666667       0.005
  -0.33333333 -0.33333333  0.16666667       0.005
  -0.16666667 -0.33333333  0.16666667       0.005
   0.00000000 -0.16666667  0.16666667       0.005
   0.16666667 -0.16666667  0.16666667       0.005
   0.33333333 -0.16666667  0.16666667       0.005
   0.50000000 -0.16666667  0.16666667       0.005
  -0.33333333 -0.16666667  0.16666667       0.005
  -0.16666667 -0.16666667  0.16666667       0.005
   0.00000000  0.00000000  0.33333333       0.005
   0.16666667  0.00000000  0.33333333       0.005
   0.33333333  0.00000000  0.33333333       0.005
   0.50000000  0.00000000  0.33333333       0.005
  -0.33333333 -0.00000000  0.33333333       0.005
  -0.16666667  0.00000000  0.33333333       0.005
   0.00000000  0.16666667  0.33333333       0.005
   0.16666667  0.16666667  0.33333333       0.005
   0.33333333  0.16666667  0.33333333       0.005
   0.50000000  0.16666667  0.33333333       0.005
  -0.33333333  0.16666667  0.33333333       0.005
  -0.16666667  0.16666667  0.33333333       0.005
   0.00000000  0.33333333  0.33333333       0.005
   0.16666667  0.33333333  0.33333333       0.005
   0.33333333  0.33333333  0.33333333       0.005
   0.50000000  0.33333333  0.33333333       0.005
  -0.33333333  0.33333333  0.33333333       0.005
  -0.16666667  0.33333333  0.33333333       0.005
   0.00000000  0.50000000  0.33333333       0.005
   0.16666667  0.50000000  0.33333333       0.005
   0.33333333  0.50000000  0.33333333       0.005
   0.50000000  0.50000000  0.33333333       0.005
  -0.33333333  0.50000000  0.33333333       0.005
  -0.16666667  0.50000000  0.33333333       0.005
   0.00000000 -0.33333333  0.33333333       0.005
   0.16666667 -0.33333333  0.33333333       0.005
   0.33333333 -0.33333333  0.33333333       0.005
   0.50000000 -0.33333333  0.33333333       0.005
  -0.33333333 -0.33333333  0.33333333       0.005
  -0.16666667 -0.33333333  0.33333333       0.005
   0.00000000 -0.16666667  0.33333333       0.005
   0.16666667 -0.16666667  0.33333333       0.005
   0.33333333 -0.16666667  0.33333333       0.005
   0.50000000 -0.16666667  0.33333333       0.005
  -0.33333333 -0.16666667  0.33333333       0.005
  -0.16666667 -0.16666667  0.33333333       0.005
   0.00000000  0.00000000  0.50000000       0.005
   0.16666667  0.00000000  0.50000000       0.005
   0.33333333  0.00000000  0.50000000       0.005
   0.50000000  0.00000000  0.50000000       0.005
  -0.33333333 -0.00000000  0.50000000       0.005
  -0.16666667  0.00000000  0.50000000       0.005
   0.00000000  0.16666667  0.50000000       0.005
   0.16666667  0.16666667  0.50000000       0.005
   0.33333333  0.16666667  0.50000000       0.005
   0.50000000  0.16666667  0.50000000       0.005
  -0.33333333  0.16666667  0.50000000       0.005
  -0.16666667  0.16666667  0.50000000       0.005
   0.00000000  0.33333333  0.50000000       0.005
   0.16666667  0.33333333  0.50000000       0.005
   0.33333333  0.33333333  0.50000000       0.005
   0.50000000  0.33333333  0.50000000       0.005
  -0.33333333  0.33333333  0.50000000       0.005
  -0.16666667  0.33333333  0.50000000       0.005
   0.00000000  0.50000000  0.50000000       0.005
   0.16666667  0.50000000  0.50000000       0.005
   0.33333333  0.50000000  0.50000000       0.005
   0.50000000  0.50000000  0.50000000       0.005
  -0.33333333  0.50000000  0.50000000       0.005
  -0.16666667  0.50000000  0.50000000       0.005
   0.00000000 -0.33333333  0.50000000       0.005
   0.16666667 -0.33333333  0.50000000       0.005
   0.33333333 -0.33333333  0.50000000       0.005
   0.50000000 -0.33333333  0.50000000       0.005
  -0.33333333 -0.33333333  0.50000000       0.005
  -0.16666667 -0.33333333  0.50000000       0.005
   0.00000000 -0.16666667  0.50000000       0.005
   0.16666667 -0.16666667  0.50000000       0.005
   0.33333333 -0.16666667  0.50000000       0.005
   0.50000000 -0.16666667  0.50000000       0.005
  -0.33333333 -0.16666667  0.50000000       0.005
  -0.16666667 -0.16666667  0.50000000       0.005
   0.00000000  0.00000000 -0.33333333       0.005
   0.16666667  0.00000000 -0.33333333       0.005
   0.33333333  0.00000000 -0.33333333       0.005
   0.50000000  0.00000000 -0.33333333       0.005
  -0.33333333 -0.00000000 -0.33333333       0.005
  -0.16666667  0.00000000 -0.33333333       0.005
   0.00000000  0.16666667 -0.33333333       0.005
   0.16666667  0.16666667 -0.33333333       0.005
   0.33333333  0.16666667 -0.33333333       0.005
   0.50000000  0.16666667 -0.33333333       0.005
  -0.33333333  0.16666667 -0.33333333       0.005
  -0.16666667  0.16666667 -0.33333333       0.005
   0.00000000  0.33333333 -0.33333333       0.005
   0.16666667  0.33333333 -0.33333333       0.005
   0.33333333  0.33333333 -0.33333333       0.005
   0.50000000  0.33333333 -0.33333333       0.005
  -0.33333333  0.33333333 -0.33333333       0.005
  -0.16666667  0.33333333 -0.33333333       0.005
   0.00000000  0.50000000 -0.33333333       0.005
   0.16666667  0.50000000 -0.33333333       0.005
   0.33333333  0.50000000 -0.33333333       0.005
   0.50000000  0.50000000 -0.33333333       0.005
  -0.33333333  0.50000000 -0.33333333       0.005
  -0.16666667  0.50000000 -0.33333333       0.005
   0.00000000 -0.33333333 -0.33333333       0.005
   0.16666667 -0.33333333 -0.33333333       0.005
   0.33333333 -0.33333333 -0.33333333       0.005
   0.50000000 -0.33333333 -0.33333333       0.005
  -0.33333333 -0.33333333 -0.33333333       0.005
  -0.16666667 -0.33333333 -0.33333333       0.005
   0.00000000 -0.16666667 -0.33333333       0.005
   0.16666667 -0.16666667 -0.33333333       0.005
   0.33333333 -0.16666667 -0.33333333       0.005
   0.50000000 -0.16666667 -0.33333333       0.005
  -0.33333333 -0.16666667 -0.33333333       0.005
  -0.16666667 -0.16666667 -0.33333333       0.005
   0.00000000  0.00000000 -0.16666667       0.005
   0.16666667  0.00000000 -0.16666667       0.005
   0.33333333  0.00000000 -0.16666667       0.005
   0.50000000  0.00000000 -0.16666667       0.005
  -0.33333333 -0.00000000 -0.16666667       0.005
  -0.16666667  0.00000000 -0.16666667       0.005
   0.00000000  0.16666667 -0.16666667       0.005
   0.16666667  0.16666667 -0.16666667       0.005
   0.33333333  0.16666667 -0.16666667       0.005
   0.50000000  0.16666667 -0.16666667       0.005
  -0.33333333  0.16666667 -0.16666667       0.005
  -0.16666667  0.16666667 -0.16666667       0.005
   0.00000000  0.33333333 -0.16666667       0.005
   0.16666667  0.33333333 -0.16666667       0.005
   0.33333333  0.33333333 -0.16666667       0.005
   0.50000000  0.33333333 -0.16666667       0.005
  -0.33333333  0.33333333 -0.16666667       0.005
  -0.16666667  0.33333333 -0.16666667       0.005
   0.00000000  0.50000000 -0.16666667       0.005
   0.16666667  0.50000000 -0.16666667       0.005
   0.33333333  0.50000000 -0.16666667       0.005
   0.50000000  0.50000000 -0.16666667       0.005
  -0.33333333  0.50000000 -0.16666667       0.005
  -0.16666667  0.50000000 -0.16666667       0.005
   0.00000000 -0.33333333 -0.16666667       0.005
   0.16666667 -0.33333333 -0.16666667       0.005
   0.33333333 -0.33333333 -0.16666667       0.005
   0.50000000 -0.33333333 -0.16666667       0.005
  -0.33333333 -0.33333333 -0.16666667       0.005
  -0.16666667 -0.33333333 -0.16666667       0.005
   0.00000000 -0.16666667 -0.16666667       0.005
   0.16666667 -0.16666667 -0.16666667       0.005
   0.33333333 -0.16666667 -0.16666667       0.005
   0.50000000 -0.16666667 -0.16666667       0.005
  -0.33333333 -0.16666667 -0.16666667       0.005
  -0.16666667 -0.16666667 -0.16666667       0.005
 
 position of ions in fractional coordinates (direct lattice) 
   0.00000000  0.00000000  0.00000000
 
 position of ions in cartesian coordinates  (Angst):
   0.00000000  0.00000000  0.00000000
 
 Euler angles ALPHA=     0.0000000  BETA=     0.0000000

 transformation matrix from SAXIS to cartesian coordinates
 ---------------------------------------------------------
     1.0000000 m_x     0.0000000 m_y     0.0000000 m_z
     0.0000000 m_x     1.0000000 m_y     0.0000000 m_z
     0.0000000 m_x     0.0000000 m_y     1.0000000 m_z

 transformation matrix from cartesian coordinates to SAXIS
 ---------------------------------------------------------
     1.0000000 m_x     0.0000000 m_y     0.0000000 m_z
     0.0000000 m_x     1.0000000 m_y     0.0000000 m_z
     0.0000000 m_x     0.0000000 m_y     1.0000000 m_z




--------------------------------------------------------------------------------------------------------


 k-point  1 :   0.0000 0.0000 0.0000  plane waves:     642
 k-point  2 :   0.1667 0.0000 0.0000  plane waves:     638
 k-point  3 :   0.3333 0.0000-0.0000  plane waves:     612
 k-point  4 :   0.5000 0.0000 0.0000  plane waves:     624
 k-point  5 :  -0.3333-0.0000 0.0000  plane waves:     612
 k-point  6 :  -0.1667 0.0000 0.0000  plane waves:     638
 k-point  7 :   0.0000 0.1667 0.0000  plane waves:     638
 k-point  8 :   0.1667 0.1667 0.0000  plane waves:     628
 k-point  9 :   0.3333 0.1667 0.0000  plane waves:     614
 k-point 10 :   0.5000 0.1667 0.0000  plane waves:     614
 k-point 11 :  -0.3333 0.1667-0.0000  plane waves:     628
 k-point 12 :  -0.1667 0.1667-0.0000  plane waves:     638
 k-point 13 :   0.0000 0.3333 0.0000  plane waves:     612
 k-point 14 :   0.1667 0.3333 0.0000  plane waves:     614
 k-point 15 :   0.3333 0.3333 0.0000  plane waves:     618
 k-point 16 :   0.5000 0.3333 0.0000  plane waves:     614
 k-point 17 :  -0.3333 0.3333 0.0000  plane waves:     612
 k-point 18 :  -0.1667 0.3333 0.0000  plane waves:     628
 k-point 19 :   0.0000 0.5000-0.0000  plane waves:     624
 k-point 20 :   0.1667 0.5000 0.0000  plane waves:     614
 k-point 21 :   0.3333 0.5000 0.0000  plane waves:     614
 k-point 22 :   0.5000 0.5000-0.0000  plane waves:     624
 k-point 23 :  -0.3333 0.5000-0.0000  plane waves:     614
 k-point 24 :  -0.1667 0.5000 0.0000  plane waves:     614
 k-point 25 :   0.0000-0.3333-0.0000  plane waves:     612
 k-point 26 :   0.1667-0.3333-0.0000  plane waves:     628
 k-point 27 :   0.3333-0.3333-0.0000  plane waves:     612
 k-point 28 :   0.5000-0.3333-0.0000  plane waves:     614
 k-point 29 :  -0.3333-0.3333 0.0000  plane waves:     618
 k-point 30 :  -0.1667-0.3333-0.0000  plane waves:     614
 k-point 31 :   0.0000-0.1667-0.0000  plane waves:     638
 k-point 32 :   0.1667-0.1667 0.0000  plane waves:     638
 k-point 33 :   0.3333-0.1667 0.0000  plane waves:     628
 k-point 34 :   0.5000-0.1667 0.0000  plane waves:     614
 k-point 35 :  -0.3333-0.1667-0.0000  plane waves:     614
 k-point 36 :  -0.1667-0.1667-0.0000  plane waves:     628
 k-point 37 :   0.0000 0.0000 0.1667  plane waves:     638
 k-point 38 :   0.1667 0.0000 0.1667  plane waves:     628
 k-point 39 :   0.3333 0.0000 0.1667  plane waves:     614
 k-point 40 :   0.5000 0.0000 0.1667  plane waves:     614
 k-point 41 :  -0.3333-0.0000 0.1667  plane waves:     628
 k-point 42 :  -0.1667 0.0000 0.1667  plane waves:     638
 k-point 43 :   0.0000 0.1667 0.1667  plane waves:     628
 k-point 44 :   0.1667 0.1667 0.1667  plane waves:     636
 k-point 45 :   0.3333 0.1667 0.1667  plane waves:     632
 k-point 46 :   0.5000 0.1667 0.1667  plane waves:     636
 k-point 47 :  -0.3333 0.1667 0.1667  plane waves:     628
 k-point 48 :  -0.1667 0.1667 0.1667  plane waves:     618
 k-point 49 :   0.0000 0.3333 0.1667  plane waves:     614
 k-point 50 :   0.1667 0.3333 0.1667  plane waves:     632
 k-point 51 :   0.3333 0.3333 0.1667  plane waves:     632
 k-point 52 :   0.5000 0.3333 0.1667  plane waves:     614
 k-point 53 :  -0.3333 0.3333 0.1667  plane waves:     622
 k-point 54 :  -0.1667 0.3333 0.1667  plane waves:     622
 k-point 55 :   0.0000 0.5000 0.1667  plane waves:     614
 k-point 56 :   0.1667 0.5000 0.1667  plane waves:     636
 k-point 57 :   0.3333 0.5000 0.1667  plane waves:     614
 k-point 58 :   0.5000 0.5000 0.1667  plane waves:     624
 k-point 59 :  -0.3333 0.5000 0.1667  plane waves:     608
 k-point 60 :  -0.1667 0.5000 0.1667  plane waves:     624
 k-point 61 :   0.0000-0.3333 0.1667  plane waves:     628
 k-point 62 :   0.1667-0.3333 0.1667  plane waves:     628
 k-point 63 :   0.3333-0.3333 0.1667  plane waves:     622
 k-point 64 :   0.5000-0.3333 0.1667  plane waves:     608
 k-point 65 :  -0.3333-0.3333 0.1667  plane waves:     608
 k-point 66 :  -0.1667-0.3333 0.1667  plane waves:     622
 k-point 67 :   0.0000-0.1667 0.1667  plane waves:     638
 k-point 68 :   0.1667-0.1667 0.1667  plane waves:     618
 k-point 69 :   0.3333-0.1667 0.1667  plane waves:     622
 k-point 70 :   0.5000-0.1667 0.1667  plane waves:     624
 k-point 71 :  -0.3333-0.1667 0.1667  plane waves:     622
 k-point 72 :  -0.1667-0.1667 0.1667  plane waves:     618
 k-point 73 :   0.0000 0.0000 0.3333  plane waves:     612
 k-point 74 :   0.1667 0.0000 0.3333  plane waves:     614
 k-point 75 :   0.3333 0.0000 0.3333  plane waves:     618
 k-point 76 :   0.5000 0.0000 0.3333  plane waves:     614
 k-point 77 :  -0.3333-0.0000 0.3333  plane waves:     612
 k-point 78 :  -0.1667 0.0000 0.3333  plane waves:     628
 k-point 79 :   0.0000 0.1667 0.3333  plane waves:     614
 k-point 80 :   0.1667 0.1667 0.3333  plane waves:     632
 k-point 81 :   0.3333 0.1667 0.3333  plane waves:     632
 k-point 82 :   0.5000 0.1667 0.3333  plane waves:     614
 k-point 83 :  -0.3333 0.1667 0.3333  plane waves:     622
 k-point 84 :  -0.1667 0.1667 0.3333  plane waves:     622
 k-point 85 :   0.0000 0.3333 0.3333  plane waves:     618
 k-point 86 :   0.1667 0.3333 0.3333  plane waves:     632
 k-point 87 :   0.3333 0.3333 0.3333  plane waves:     618
 k-point 88 :   0.5000 0.3333 0.3333  plane waves:     608
 k-point 89 :  -0.3333 0.3333 0.3333  plane waves:     642
 k-point 90 :  -0.1667 0.3333 0.3333  plane waves:     608
 k-point 91 :   0.0000 0.5000 0.3333  plane waves:     614
 k-point 92 :   0.1667 0.5000 0.3333  plane waves:     614
 k-point 93 :   0.3333 0.5000 0.3333  plane waves:     608
 k-point 94 :   0.5000 0.5000 0.3333  plane waves:     612
 k-point 95 :  -0.3333 0.5000 0.3333  plane waves:     612
 k-point 96 :  -0.1667 0.5000 0.3333  plane waves:     608
 k-point 97 :   0.0000-0.3333 0.3333  plane waves:     612
 k-point 98 :   0.1667-0.3333 0.3333  plane waves:     622
 k-point 99 :   0.3333-0.3333 0.3333  plane waves:     642
 k-point ** :   0.5000-0.3333 0.3333  plane waves:     612
 k-point ** :  -0.3333-0.3333 0.3333  plane waves:     642
 k-point ** :  -0.1667-0.3333 0.3333  plane waves:     622
 k-point ** :   0.0000-0.1667 0.3333  plane waves:     628
 k-point ** :   0.1667-0.1667 0.3333  plane waves:     622
 k-point ** :   0.3333-0.1667 0.3333  plane waves:     608
 k-point ** :   0.5000-0.1667 0.3333  plane waves:     608
 k-point ** :  -0.3333-0.1667 0.3333  plane waves:     622
 k-point ** :  -0.1667-0.1667 0.3333  plane waves:     628
 k-point ** :   0.0000 0.0000 0.5000  plane waves:     624
 k-point ** :   0.1667 0.0000 0.5000  plane waves:     614
 k-point ** :   0.3333 0.0000 0.5000  plane waves:     614
 k-point ** :   0.5000 0.0000 0.5000  plane waves:     624
 k-point ** :  -0.3333-0.0000 0.5000  plane waves:     614
 k-point ** :  -0.1667 0.0000 0.5000  plane waves:     614
 k-point ** :   0.0000 0.1667 0.5000  plane waves:     614
 k-point ** :   0.1667 0.1667 0.5000  plane waves:     636
 k-point ** :   0.3333 0.1667 0.5000  plane waves:     614
 k-point ** :   0.5000 0.1667 0.5000  plane waves:     624
 k-point ** :  -0.3333 0.1667 0.5000  plane waves:     608
 k-point ** :  -0.1667 0.1667 0.5000  plane waves:     624
 k-point ** :   0.0000 0.3333 0.5000  plane waves:     614
 k-point ** :   0.1667 0.3333 0.5000  plane waves:     614
 k-point ** :   0.3333 0.3333 0.5000  plane waves:     608
 k-point ** :   0.5000 0.3333 0.5000  plane waves:     612
 k-point ** :  -0.3333 0.3333 0.5000  plane waves:     612
 k-point ** :  -0.1667 0.3333 0.5000  plane waves:     608
 k-point ** :   0.0000 0.5000 0.5000  plane waves:     624
 k-point ** :   0.1667 0.5000 0.5000  plane waves:     624
 k-point ** :   0.3333 0.5000 0.5000  plane waves:     612
 k-point ** :   0.5000 0.5000 0.5000  plane waves:     596
 k-point ** :  -0.3333 0.5000 0.5000  plane waves:     612
 k-point ** :  -0.1667 0.5000 0.5000  plane waves:     624
 k-point ** :   0.0000-0.3333 0.5000  plane waves:     614
 k-point ** :   0.1667-0.3333 0.5000  plane waves:     608
 k-point ** :   0.3333-0.3333 0.5000  plane waves:     612
 k-point ** :   0.5000-0.3333 0.5000  plane waves:     612
 k-point ** :  -0.3333-0.3333 0.5000  plane waves:     608
 k-point ** :  -0.1667-0.3333 0.5000  plane waves:     614
 k-point ** :   0.0000-0.1667 0.5000  plane waves:     614
 k-point ** :   0.1667-0.1667 0.5000  plane waves:     624
 k-point ** :   0.3333-0.1667 0.5000  plane waves:     608
 k-point ** :   0.5000-0.1667 0.5000  plane waves:     624
 k-point ** :  -0.3333-0.1667 0.5000  plane waves:     614
 k-point ** :  -0.1667-0.1667 0.5000  plane waves:     636
 k-point ** :   0.0000 0.0000-0.3333  plane waves:     612
 k-point ** :   0.1667 0.0000-0.3333  plane waves:     628
 k-point ** :   0.3333 0.0000-0.3333  plane waves:     612
 k-point ** :   0.5000 0.0000-0.3333  plane waves:     614
 k-point ** :  -0.3333-0.0000-0.3333  plane waves:     618
 k-point ** :  -0.1667 0.0000-0.3333  plane waves:     614
 k-point ** :   0.0000 0.1667-0.3333  plane waves:     628
 k-point ** :   0.1667 0.1667-0.3333  plane waves:     628
 k-point ** :   0.3333 0.1667-0.3333  plane waves:     622
 k-point ** :   0.5000 0.1667-0.3333  plane waves:     608
 k-point ** :  -0.3333 0.1667-0.3333  plane waves:     608
 k-point ** :  -0.1667 0.1667-0.3333  plane waves:     622
 k-point ** :   0.0000 0.3333-0.3333  plane waves:     612
 k-point ** :   0.1667 0.3333-0.3333  plane waves:     622
 k-point ** :   0.3333 0.3333-0.3333  plane waves:     642
 k-point ** :   0.5000 0.3333-0.3333  plane waves:     612
 k-point ** :  -0.3333 0.3333-0.3333  plane waves:     642
 k-point ** :  -0.1667 0.3333-0.3333  plane waves:     622
 k-point ** :   0.0000 0.5000-0.3333  plane waves:     614
 k-point ** :   0.1667 0.5000-0.3333  plane waves:     608
 k-point ** :   0.3333 0.5000-0.3333  plane waves:     612
 k-point ** :   0.5000 0.5000-0.3333  plane waves:     612
 k-point ** :  -0.3333 0.5000-0.3333  plane waves:     608
 k-point ** :  -0.1667 0.5000-0.3333  plane waves:     614
 k-point ** :   0.0000-0.3333-0.3333  plane waves:     618
 k-point ** :   0.1667-0.3333-0.3333  plane waves:     608
 k-point ** :   0.3333-0.3333-0.3333  plane waves:     642
 k-point ** :   0.5000-0.3333-0.3333  plane waves:     608
 k-point ** :  -0.3333-0.3333-0.3333  plane waves:     618
 k-point ** :  -0.1667-0.3333-0.3333  plane waves:     632
 k-point ** :   0.0000-0.1667-0.3333  plane waves:     614
 k-point ** :   0.1667-0.1667-0.3333  plane waves:     622
 k-point ** :   0.3333-0.1667-0.3333  plane waves:     622
 k-point ** :   0.5000-0.1667-0.3333  plane waves:     614
 k-point ** :  -0.3333-0.1667-0.3333  plane waves:     632
 k-point ** :  -0.1667-0.1667-0.3333  plane waves:     632
 k-point ** :   0.0000 0.0000-0.1667  plane waves:     638
 k-point ** :   0.1667 0.0000-0.1667  plane waves:     638
 k-point ** :   0.3333 0.0000-0.1667  plane waves:     628
 k-point ** :   0.5000 0.0000-0.1667  plane waves:     614
 k-point ** :  -0.3333-0.0000-0.1667  plane waves:     614
 k-point ** :  -0.1667 0.0000-0.1667  plane waves:     628
 k-point ** :   0.0000 0.1667-0.1667  plane waves:     638
 k-point ** :   0.1667 0.1667-0.1667  plane waves:     618
 k-point ** :   0.3333 0.1667-0.1667  plane waves:     622
 k-point ** :   0.5000 0.1667-0.1667  plane waves:     624
 k-point ** :  -0.3333 0.1667-0.1667  plane waves:     622
 k-point ** :  -0.1667 0.1667-0.1667  plane waves:     618
 k-point ** :   0.0000 0.3333-0.1667  plane waves:     628
 k-point ** :   0.1667 0.3333-0.1667  plane waves:     622
 k-point ** :   0.3333 0.3333-0.1667  plane waves:     608
 k-point ** :   0.5000 0.3333-0.1667  plane waves:     608
 k-point ** :  -0.3333 0.3333-0.1667  plane waves:     622
 k-point ** :  -0.1667 0.3333-0.1667  plane waves:     628
 k-point ** :   0.0000 0.5000-0.1667  plane waves:     614
 k-point ** :   0.1667 0.5000-0.1667  plane waves:     624
 k-point ** :   0.3333 0.5000-0.1667  plane waves:     608
 k-point ** :   0.5000 0.5000-0.1667  plane waves:     624
 k-point ** :  -0.3333 0.5000-0.1667  plane waves:     614
 k-point ** :  -0.1667 0.5000-0.1667  plane waves:     636
 k-point ** :   0.0000-0.3333-0.1667  plane waves:     614
 k-point ** :   0.1667-0.3333-0.1667  plane waves:     622
 k-point ** :   0.3333-0.3333-0.1667  plane waves:     622
 k-point ** :   0.5000-0.3333-0.1667  plane waves:     614
 k-point ** :  -0.3333-0.3333-0.1667  plane waves:     632
 k-point ** :  -0.1667-0.3333-0.1667  plane waves:     632
 k-point ** :   0.0000-0.1667-0.1667  plane waves:     628
 k-point ** :   0.1667-0.1667-0.1667  plane waves:     618
 k-point ** :   0.3333-0.1667-0.1667  plane waves:     628
 k-point ** :   0.5000-0.1667-0.1667  plane waves:     636
 k-point ** :  -0.3333-0.1667-0.1667  plane waves:     632
 k-point ** :  -0.1667-0.1667-0.1667  plane waves:     636

 maximum and minimum number of plane-waves per node :       178      130

 maximum number of plane-waves:       642
 maximum index in each direction: 
   IXMAX=    4   IYMAX=    4   IZMAX=    4
   IXMIN=   -5   IYMIN=   -5   IZMIN=   -5


 parallel 3D FFT for wavefunctions:
    minimum data exchange during FFTs selected (reduces bandwidth)
 parallel 3D FFT for charge:
    minimum data exchange during FFTs selected (reduces bandwidth)


 total amount of memory used by VASP MPI-rank0    86433. kBytes
=======================================================================

   base      :      30000. kBytes
   nonl-proj :       2769. kBytes
   fftplans  :       3449. kBytes
   grid      :       2820. kBytes
   one-center:         62. kBytes
   wavefun   :      47333. kBytes
 
     INWAV:  cpu time    0.7720: real time    0.7894
 Broyden mixing: mesh for mixing (old mesh)
   NGX =  9   NGY =  9   NGZ =  9
  (NGX  = 36   NGY  = 36   NGZ  = 36)
  gives a total of    729 points

 charge density for first step will be calculated from the start-wavefunctions


--------------------------------------------------------------------------------------------------------


 Maximum index for augmentation-charges        25947 (set IRDMAX)


--------------------------------------------------------------------------------------------------------


 initial charge from wavefunction
 First call to EWALD:  gamma=   0.597
 Maximum number of real-space cells 3x 3x 3
 Maximum number of reciprocal cells 3x 3x 3

    FEWALD:  cpu time    0.0017: real time    0.0017


--------------------------------------- Iteration      1(   1)  ---------------------------------------


    POTLOK:  cpu time    0.0276: real time    0.0290
    SETDIJ:  cpu time    0.0517: real time    0.0517
     EDDAV:  cpu time    3.1558: real time    3.1548
       DOS:  cpu time    0.0018: real time    0.0018
    --------------------------------------------
      LOOP:  cpu time    3.2370: real time    3.2374

 eigenvalue-minimisations  : 31768
 total energy-change (2. order) :-0.1006565E+01  (-0.2281707E-01)
 number of electron      12.0000000 magnetization       0.0000000     -0.0000000      0.0000000
 augmentation part        1.6031054 magnetization      -0.0000000      0.0000000     -0.0000000

 Free energy of the ion-electron system (eV)
  ---------------------------------------------------
  alpha Z        PSCENC =        85.78503292
  Ewald energy   TEWEN  =     -1007.86219743
  -Hartree energ DENC   =      -127.83406599
  -exchange      EXHF   =         0.00000000
  -V(xc)+E(xc)   XCENC  =      -109.46974088
  PAW double counting   =      1070.82197927     -933.70797475
  entropy T*S    EENTRO =         0.00000000
  eigenvalues    EBANDS =        -0.44552874
  atomic energy  EATOM  =      1021.70593014
  Solvation  Ediel_sol  =         0.00000000
  ---------------------------------------------------
  free energy    TOTEN  =        -1.00656545 eV

  energy without entropy =       -1.00656545  energy(sigma->0) =       -1.00656545


--------------------------------------------------------------------------------------------------------




--------------------------------------- Iteration      1(   2)  ---------------------------------------


     EDDAV:  cpu time    3.3388: real time    3.3385
       DOS:  cpu time    0.0018: real time    0.0018
    --------------------------------------------
      LOOP:  cpu time    3.3415: real time    3.3402

 eigenvalue-minimisations  : 34472
 total energy-change (2. order) :-0.7091387E-03  (-0.7091366E-03)
 number of electron      12.0000000 magnetization       0.0000000     -0.0000000      0.0000000
 augmentation part        1.6031054 magnetization      -0.0000000      0.0000000     -0.0000000

 Free energy of the ion-electron system (eV)
  ---------------------------------------------------
  alpha Z        PSCENC =        85.78503292
  Ewald energy   TEWEN  =     -1007.86219743
  -Hartree energ DENC   =      -127.83406599
  -exchange      EXHF   =         0.00000000
  -V(xc)+E(xc)   XCENC  =      -109.46974088
  PAW double counting   =      1070.82197927     -933.70797475
  entropy T*S    EENTRO =         0.00000000
  eigenvalues    EBANDS =        -0.44623788
  atomic energy  EATOM  =      1021.70593014
  Solvation  Ediel_sol  =         0.00000000
  ---------------------------------------------------
  free energy    TOTEN  =        -1.00727459 eV

  energy without entropy =       -1.00727459  energy(sigma->0) =       -1.00727459


--------------------------------------------------------------------------------------------------------




--------------------------------------- Iteration      1(   3)  ---------------------------------------


     EDDAV:  cpu time    3.5020: real time    3.5007
       DOS:  cpu time    0.0017: real time    0.0017
    --------------------------------------------
      LOOP:  cpu time    3.5028: real time    3.5024

 eigenvalue-minimisations  : 37688
 total energy-change (2. order) :-0.1346559E-04  (-0.1346559E-04)
 number of electron      12.0000000 magnetization       0.0000000     -0.0000000      0.0000000
 augmentation part        1.6031054 magnetization      -0.0000000      0.0000000     -0.0000000

 Free energy of the ion-electron system (eV)
  ---------------------------------------------------
  alpha Z        PSCENC =        85.78503292
  Ewald energy   TEWEN  =     -1007.86219743
  -Hartree energ DENC   =      -127.83406599
  -exchange      EXHF   =         0.00000000
  -V(xc)+E(xc)   XCENC  =      -109.46974088
  PAW double counting   =      1070.82197927     -933.70797475
  entropy T*S    EENTRO =         0.00000000
  eigenvalues    EBANDS =        -0.44625134
  atomic energy  EATOM  =      1021.70593014
  Solvation  Ediel_sol  =         0.00000000
  ---------------------------------------------------
  free energy    TOTEN  =        -1.00728806 eV

  energy without entropy =       -1.00728806  energy(sigma->0) =       -1.00728806


--------------------------------------------------------------------------------------------------------




--------------------------------------- Iteration      1(   4)  ---------------------------------------


     EDDAV:  cpu time    3.4448: real time    3.4438
       DOS:  cpu time    0.0017: real time    0.0017
    --------------------------------------------
      LOOP:  cpu time    3.4465: real time    3.4455

 eigenvalue-minimisations  : 36024
 total energy-change (2. order) :-0.4014985E-06  (-0.4015038E-06)
 number of electron      12.0000000 magnetization       0.0000000     -0.0000000      0.0000000
 augmentation part        1.6031054 magnetization      -0.0000000      0.0000000     -0.0000000

 Free energy of the ion-electron system (eV)
  ---------------------------------------------------
  alpha Z        PSCENC =        85.78503292
  Ewald energy   TEWEN  =     -1007.86219743
  -Hartree energ DENC   =      -127.83406599
  -exchange      EXHF   =         0.00000000
  -V(xc)+E(xc)   XCENC  =      -109.46974088
  PAW double counting   =      1070.82197927     -933.70797475
  entropy T*S    EENTRO =         0.00000000
  eigenvalues    EBANDS =        -0.44625174
  atomic energy  EATOM  =      1021.70593014
  Solvation  Ediel_sol  =         0.00000000
  ---------------------------------------------------
  free energy    TOTEN  =        -1.00728846 eV

  energy without entropy =       -1.00728846  energy(sigma->0) =       -1.00728846


--------------------------------------------------------------------------------------------------------




--------------------------------------- Iteration      1(   5)  ---------------------------------------


[...]
  0.000  -0.000   0.612  -0.000   0.000   0.000   0.000   0.612  -0.000  -0.000  -0.000  -0.000  -0.614   0.000   0.000  -0.000
 -0.612  -0.000   0.000   0.000  -0.000   1.059   0.000   0.000   0.000   0.612   0.614   0.000  -0.000  -0.000   0.000  -1.063
  0.000   0.000  -0.000  -1.059   0.000  -0.000  -1.059  -0.000  -0.000   0.000   0.000  -0.000   0.000   1.063  -0.000  -0.000
  0.000  -0.612   0.000   0.000   1.059  -0.000   0.000   0.000  -0.612  -0.000   0.000   0.614  -0.000   0.000  -1.063   0.000
 -0.000  -0.000   0.000  -0.612  -0.000   0.000   0.612  -0.000   0.000   0.000   0.000   0.000  -0.000   0.614   0.000  -0.000
  0.000  -0.000  -0.000  -0.000  -0.000  -0.000  -0.000  -0.000   0.000  -0.000   0.000  -0.000  -0.000  -0.000  -0.000  -0.000
  0.000  -0.000  -0.000  -0.000  -0.000  -0.000  -0.000  -0.000   0.000  -0.000  -0.000   0.000   0.000   0.000   0.000   0.000
 -0.000  -0.000   0.000   0.000   0.000   0.000  -0.000   0.000   0.000   0.000   0.000   0.000   0.000  -0.000   0.000   0.000
 -0.000   0.000  -0.000   0.000   0.000   0.000  -0.000  -0.000  -0.000  -0.000  -0.000   0.000   0.000   0.000  -0.000   0.000
 -0.000   0.000  -0.000   0.000  -0.000  -0.000   0.000  -0.000  -0.000  -0.000  -0.000   0.000  -0.000   0.000  -0.000  -0.000
  0.000   0.000  -0.000  -0.000  -0.000  -0.000   0.000  -0.000  -0.000  -0.000   0.000   0.000  -0.000  -0.000  -0.000  -0.000
  0.000  -0.000   0.000  -0.000  -0.000  -0.000   0.000   0.000   0.000   0.000   0.000  -0.000   0.000  -0.000   0.000  -0.000
  0.000  -0.000   0.000  -0.000   0.000   0.000  -0.000   0.000   0.000   0.000   0.000  -0.000   0.000  -0.000   0.000   0.000
 pseudopotential strength for first ion, spin component:           4
 -9.881   0.000   0.000   0.000  -0.001   0.000   0.000   0.000  -0.000  -1.219  -0.206   0.000  -0.000   0.000   0.001   0.000
  0.000   0.000  -9.882   0.000   0.000   0.000  -0.001  -0.610  -0.000   0.000  -0.000   0.000  -0.205   0.000  -0.000   0.000
 -0.001   0.000   0.000   0.000  -9.882   0.000   0.000   0.000   0.000   0.000   0.001   0.000  -0.000   0.000  -0.205   0.000
  0.000   0.000  -0.001   0.610   0.000   0.000  -9.881   0.000  -0.000   0.000  -0.000   0.000   0.001  -0.612  -0.000   0.000
 -0.000   1.219  -0.000   0.000   0.000   0.000  -0.000   0.000  -9.882   0.000   0.001  -1.223   0.000   0.000  -0.000   0.000
 -0.206   0.000  -0.000   0.000   0.001   0.000  -0.000   0.000   0.001   1.223  18.079   0.000   0.000   0.000  -0.001   0.000
 -0.000   0.000  -0.205   0.000  -0.000   0.000   0.001   0.612   0.000   0.000   0.000   0.000  18.079   0.000   0.000   0.000
  0.001   0.000  -0.000   0.000  -0.205   0.000  -0.000   0.000  -0.000   0.000  -0.001   0.000   0.000   0.000  18.079   0.000
 -0.000   0.000   0.001  -0.612  -0.000   0.000  -0.206   0.000  -0.000   0.000   0.000   0.000  -0.001   0.614   0.000   0.000
  0.001  -1.223   0.000   0.000  -0.000   0.000  -0.000   0.000  -0.204   0.000  -0.000   1.227  -0.000   0.000   0.000   0.000
 -0.000   0.000  -0.000   0.000  -0.000   0.000  -0.000   0.000   0.000   0.000  -0.000   0.000  -0.000   0.000  -0.000   0.000
  0.000   0.000   0.000   0.000   0.000   0.000   0.000   0.000  -0.000   0.000   0.000   0.000   0.000   0.000   0.000   0.000
  0.000   0.000  -0.000   0.000   0.000   0.000  -0.000   0.000  -0.000   0.000   0.000   0.000  -0.000   0.000   0.000   0.000
 -0.000   0.000   0.000   0.000   0.000   0.000  -0.000   0.000  -0.000   0.000  -0.000   0.000   0.000   0.000   0.000   0.000
 -0.000   0.000  -0.000   0.000  -0.000   0.000  -0.000   0.000   0.000   0.000  -0.000   0.000  -0.000   0.000  -0.000   0.000
 -0.000   0.000   0.000   0.000  -0.000   0.000   0.000   0.000   0.000   0.000  -0.000   0.000   0.000   0.000  -0.000   0.000
  0.000   0.000  -0.000   0.000  -0.000   0.000   0.000   0.000   0.000   0.000   0.000   0.000  -0.000   0.000  -0.000   0.000
  0.000   0.000   0.000   0.000   0.000   0.000   0.000   0.000  -0.000   0.000   0.000   0.000   0.000   0.000   0.000   0.000
 total augmentation occupancy for first ion, spin component:           1
  1.961   0.000  -0.007   0.000  -0.004  -0.006   0.000   0.000   0.000   0.000   0.000   0.000   0.000   0.000   0.000   0.000
  0.000   1.956   0.000  -0.008  -0.000   0.000  -0.006   0.000   0.000   0.000   0.000   0.000  -0.000   0.000  -0.000  -0.000
 -0.007   0.000   1.954   0.000   0.002   0.000   0.000  -0.006   0.000  -0.000   0.000   0.000   0.000   0.000  -0.000   0.000
  0.000  -0.008   0.000   1.961   0.000   0.000   0.000   0.000  -0.006  -0.000   0.000   0.000  -0.000   0.000   0.000  -0.000
 -0.004  -0.000   0.002   0.000   1.951   0.000   0.000  -0.000  -0.000  -0.006  -0.000  -0.000  -0.000  -0.000  -0.000  -0.000
 -0.006   0.000   0.000   0.000   0.000   0.007  -0.000   0.001  -0.000   0.000  -0.000  -0.000  -0.000   0.000  -0.000  -0.000
  0.000  -0.006   0.000   0.000   0.000  -0.000   0.008  -0.000   0.001   0.000  -0.000  -0.000  -0.000   0.000  -0.000   0.000
  0.000   0.000  -0.006   0.000  -0.000   0.001  -0.000   0.008  -0.000  -0.000  -0.000  -0.000  -0.000  -0.000  -0.000  -0.000
  0.000   0.000   0.000  -0.006  -0.000  -0.000   0.001  -0.000   0.007  -0.000  -0.000  -0.000  -0.000  -0.000  -0.000  -0.000
  0.000   0.000  -0.000  -0.000  -0.006   0.000   0.000  -0.000  -0.000   0.008   0.000   0.000   0.000  -0.000   0.000   0.000
  0.000   0.000   0.000   0.000  -0.000  -0.000  -0.000  -0.000  -0.000   0.000   1.980  -0.008   0.000  -0.000  -0.000   0.000
  0.000   0.000   0.000   0.000  -0.000  -0.000  -0.000  -0.000  -0.000   0.000  -0.008   0.001  -0.000   0.000   0.000   0.000
  0.000  -0.000   0.000  -0.000  -0.000  -0.000  -0.000  -0.000  -0.000   0.000   0.000  -0.000   0.100  -0.000  -0.000  -0.009
  0.000   0.000   0.000   0.000  -0.000   0.000   0.000  -0.000  -0.000  -0.000  -0.000   0.000  -0.000   0.100  -0.000   0.000
  0.000  -0.000  -0.000   0.000  -0.000  -0.000  -0.000  -0.000  -0.000   0.000  -0.000   0.000  -0.000  -0.000   0.100   0.000
  0.000  -0.000   0.000  -0.000  -0.000  -0.000   0.000  -0.000  -0.000   0.000   0.000   0.000  -0.009   0.000   0.000   0.003
  0.000   0.000   0.000   0.000  -0.000   0.000   0.000  -0.000  -0.000  -0.000  -0.000  -0.000   0.000  -0.009   0.000   0.000
  0.000  -0.000  -0.000   0.000  -0.000  -0.000  -0.000  -0.000  -0.000   0.000  -0.000  -0.000   0.000   0.000  -0.009   0.000
 total augmentation occupancy for first ion, spin component:           2
 -0.000  -0.000   0.000   0.000   0.000  -0.000  -0.000   0.000   0.000   0.000   0.000   0.000  -0.000  -0.000  -0.000  -0.000
 -0.000   0.000  -0.000  -0.000   0.000  -0.000  -0.000  -0.000   0.000  -0.000  -0.000   0.000   0.000  -0.000  -0.000   0.000
  0.000  -0.000  -0.000   0.000  -0.000   0.000  -0.000  -0.000   0.000  -0.000  -0.000  -0.000   0.000   0.000   0.000   0.000
  0.000  -0.000   0.000  -0.000  -0.000   0.000   0.000   0.000  -0.000  -0.000  -0.000  -0.000  -0.000  -0.000   0.000  -0.000
  0.000   0.000  -0.000  -0.000   0.000   0.000   0.000  -0.000  -0.000   0.000   0.000   0.000   0.000   0.000  -0.000   0.000
 -0.000  -0.000   0.000   0.000   0.000  -0.000  -0.000   0.000   0.000   0.000   0.000   0.000  -0.000  -0.000   0.000   0.000
 -0.000  -0.000  -0.000   0.000   0.000  -0.000   0.000  -0.000   0.000  -0.000   0.000   0.000  -0.000  -0.000  -0.000  -0.000
  0.000  -0.000  -0.000   0.000  -0.000   0.000  -0.000   0.000   0.000  -0.000   0.000  -0.000   0.000   0.000   0.000   0.000
  0.000   0.000   0.000  -0.000  -0.000   0.000   0.000   0.000  -0.000  -0.000  -0.000   0.000  -0.000  -0.000  -0.000   0.000
  0.000  -0.000  -0.000  -0.000   0.000   0.000  -0.000  -0.000  -0.000   0.000   0.000   0.000   0.000  -0.000   0.000  -0.000
  0.000  -0.000  -0.000  -0.000   0.000   0.000   0.000   0.000  -0.000   0.000  -0.000   0.000  -0.000   0.000  -0.000  -0.000
  0.000   0.000  -0.000  -0.000   0.000   0.000   0.000  -0.000   0.000   0.000   0.000   0.000  -0.000  -0.000   0.000   0.000
 -0.000   0.000   0.000  -0.000   0.000  -0.000  -0.000   0.000  -0.000   0.000  -0.000  -0.000   0.000   0.000   0.000   0.000
 -0.000  -0.000   0.000  -0.000   0.000  -0.000  -0.000   0.000  -0.000  -0.000   0.000  -0.000   0.000   0.000  -0.000   0.000
 -0.000  -0.000   0.000   0.000  -0.000   0.000  -0.000   0.000  -0.000   0.000  -0.000   0.000   0.000  -0.000  -0.000  -0.000
 -0.000   0.000   0.000  -0.000   0.000   0.000  -0.000   0.000   0.000  -0.000  -0.000   0.000   0.000   0.000  -0.000   0.000
 -0.000  -0.000   0.000  -0.000  -0.000   0.000  -0.000   0.000  -0.000  -0.000   0.000  -0.000   0.000  -0.000  -0.000  -0.000
 -0.000  -0.000   0.000  -0.000  -0.000   0.000   0.000   0.000  -0.000  -0.000  -0.000   0.000   0.000   0.000  -0.000   0.000
 total augmentation occupancy for first ion, spin component:           3
 -0.000   0.000   0.000  -0.000  -0.000  -0.000   0.000   0.000  -0.000   0.000  -0.000  -0.000   0.000   0.000  -0.000   0.000
  0.000  -0.000  -0.000   0.000   0.000   0.000  -0.000  -0.000   0.000   0.000  -0.000  -0.000   0.000   0.000  -0.000   0.000
  0.000  -0.000  -0.000  -0.000  -0.000   0.000  -0.000   0.000  -0.000  -0.000   0.000   0.000   0.000   0.000  -0.000   0.000
 -0.000   0.000  -0.000   0.000  -0.000  -0.000  -0.000  -0.000   0.000  -0.000  -0.000   0.000  -0.000  -0.000  -0.000  -0.000
 -0.000   0.000  -0.000  -0.000   0.000  -0.000   0.000  -0.000  -0.000   0.000   0.000   0.000  -0.000  -0.000   0.000  -0.000
 -0.000   0.000   0.000  -0.000  -0.000  -0.000   0.000   0.000  -0.000   0.000  -0.000  -0.000  -0.000   0.000   0.000  -0.000
  0.000  -0.000  -0.000  -0.000   0.000   0.000  -0.000  -0.000   0.000  -0.000  -0.000   0.000   0.000   0.000  -0.000   0.000
  0.000  -0.000   0.000  -0.000  -0.000   0.000  -0.000  -0.000  -0.000   0.000  -0.000   0.000   0.000  -0.000   0.000   0.000
 -0.000   0.000  -0.000   0.000  -0.000  -0.000   0.000  -0.000   0.000   0.000   0.000   0.000   0.000  -0.000   0.000   0.000
  0.000   0.000  -0.000  -0.000   0.000   0.000  -0.000   0.000   0.000   0.000  -0.000   0.000  -0.000  -0.000  -0.000  -0.000
 -0.000  -0.000   0.000  -0.000   0.000  -0.000  -0.000  -0.000   0.000  -0.000  -0.000  -0.000  -0.000   0.000   0.000   0.000
 -0.000  -0.000   0.000   0.000   0.000  -0.000   0.000   0.000   0.000   0.000  -0.000  -0.000   0.000   0.000   0.000  -0.000
  0.000   0.000   0.000  -0.000  -0.000  -0.000   0.000   0.000   0.000  -0.000  -0.000   0.000  -0.000  -0.000  -0.000  -0.000
  0.000   0.000   0.000  -0.000  -0.000   0.000   0.000  -0.000  -0.000  -0.000   0.000   0.000  -0.000  -0.000   0.000   0.000
 -0.000  -0.000  -0.000  -0.000   0.000   0.000  -0.000   0.000   0.000  -0.000   0.000   0.000  -0.000   0.000  -0.000   0.000
  0.000   0.000   0.000  -0.000  -0.000  -0.000   0.000   0.000   0.000  -0.000   0.000  -0.000  -0.000   0.000   0.000   0.000
  0.000   0.000   0.000  -0.000  -0.000  -0.000   0.000  -0.000  -0.000  -0.000   0.000   0.000  -0.000  -0.000   0.000   0.000
 -0.000   0.000  -0.000  -0.000   0.000   0.000  -0.000   0.000  -0.000  -0.000   0.000  -0.000   0.000   0.000  -0.000   0.000
 total augmentation occupancy for first ion, spin component:           4
  0.000   0.000  -0.000   0.000  -0.000   0.000   0.000  -0.000   0.000  -0.000  -0.000   0.000  -0.000  -0.000   0.000  -0.000
  0.000   0.000  -0.000  -0.000   0.000   0.000   0.000  -0.000  -0.000   0.000   0.000   0.000   0.000  -0.000   0.000   0.000
 -0.000  -0.000   0.000  -0.000  -0.000  -0.000  -0.000   0.000  -0.000   0.000   0.000   0.000  -0.000   0.000   0.000  -0.000
  0.000  -0.000  -0.000   0.000  -0.000   0.000  -0.000  -0.000   0.000  -0.000  -0.000   0.000   0.000  -0.000   0.000   0.000
 -0.000   0.000  -0.000  -0.000   0.000  -0.000   0.000   0.000  -0.000   0.000  -0.000   0.000  -0.000  -0.000  -0.000  -0.000
  0.000   0.000  -0.000   0.000  -0.000  -0.000  -0.000  -0.000   0.000  -0.000   0.000   0.000  -0.000   0.000  -0.000  -0.000
  0.000   0.000  -0.000  -0.000   0.000  -0.000   0.000  -0.000  -0.000   0.000  -0.000   0.000   0.000   0.000   0.000   0.000
 -0.000  -0.000   0.000  -0.000   0.000  -0.000  -0.000   0.000   0.000   0.000   0.000   0.000  -0.000   0.000  -0.000  -0.000
  0.000  -0.000  -0.000   0.000  -0.000   0.000  -0.000   0.000   0.000  -0.000  -0.000  -0.000   0.000   0.000   0.000   0.000
 -0.000   0.000   0.000  -0.000   0.000  -0.000   0.000   0.000  -0.000  -0.000  -0.000   0.000  -0.000  -0.000   0.000  -0.000
 -0.000   0.000   0.000  -0.000  -0.000   0.000  -0.000   0.000  -0.000  -0.000   0.000  -0.000   0.000   0.000  -0.000   0.000
  0.000   0.000   0.000   0.000   0.000   0.000   0.000   0.000  -0.000   0.000  -0.000  -0.000   0.000   0.000  -0.000   0.000
 -0.000   0.000  -0.000   0.000  -0.000  -0.000   0.000  -0.000   0.000  -0.000   0.000   0.000  -0.000  -0.000  -0.000  -0.000
 -0.000  -0.000   0.000  -0.000  -0.000   0.000   0.000   0.000   0.000  -0.000   0.000   0.000  -0.000  -0.000  -0.000  -0.000
  0.000   0.000   0.000   0.000  -0.000  -0.000   0.000  -0.000   0.000   0.000  -0.000  -0.000  -0.000  -0.000  -0.000  -0.000
 -0.000   0.000  -0.000   0.000  -0.000  -0.000   0.000  -0.000   0.000  -0.000   0.000   0.000  -0.000  -0.000  -0.000   0.000
 -0.000  -0.000  -0.000  -0.000  -0.000  -0.000   0.000   0.000   0.000  -0.000   0.000   0.000   0.000  -0.000   0.000   0.000
  0.000   0.000   0.000   0.000  -0.000  -0.000  -0.000  -0.000   0.000   0.000  -0.000   0.000  -0.000   0.000  -0.000   0.000


------------------------ aborting loop because EDIFF is reached ----------------------------------------


    CHARGE:  cpu time    0.1150: real time    0.1149
    FORLOC:  cpu time    0.0005: real time    0.0005
    FORNL :  cpu time    0.4421: real time    0.4419
    STRESS:  cpu time    1.2281: real time    1.2275
    FORCOR:  cpu time    0.0241: real time    0.0241
    FORHAR:  cpu time    0.0022: real time    0.0022
    MIXING:  cpu time    0.0021: real time    0.0021
    OFIELD:  cpu time    0.0000: real time    0.0000

  FORCE on cell =-STRESS in cart. coord.  units (eV):
  Direction    XX          YY          ZZ          XY          YZ          ZX
  --------------------------------------------------------------------------------------
  Alpha Z    85.78503    85.78503    85.78503
  Ewald    -335.95294  -335.95350  -335.95573    -0.00079    -0.00193    -0.00137
  Hartree    43.03978    43.03954    43.03858    -0.00034    -0.00083    -0.00059
  E(xc)     -72.08989   -72.08989   -72.08990    -0.00000    -0.00001    -0.00001
  Local      45.47479    45.47557    45.47870     0.00111     0.00271     0.00192
  n-local   -47.31857   -47.31858   -47.31862    -0.00001    -0.00003    -0.00002
  augment    20.62990    20.62990    20.62991     0.00000     0.00001     0.00001
  Kinetic   261.50946   261.50947   261.50951     0.00002     0.00004     0.00003
  Fock        0.00000     0.00000     0.00000     0.00000     0.00000     0.00000
  -------------------------------------------------------------------------------------
  Total       1.07756     1.07755     1.07749    -0.00002    -0.00005    -0.00003
  in kB      65.80965    65.80881    65.80545    -0.00118    -0.00289    -0.00204
  external pressure =       65.81 kB  Pullay stress =        0.00 kB


 VOLUME and BASIS-vectors are now :
 -----------------------------------------------------------------------------
  energy-cutoff  :      300.00
  volume of cell :       26.23
      direct lattice vectors                 reciprocal lattice vectors
     3.242102804  0.000000000  0.000000000     0.308441792  0.109049309  0.188876893
    -1.080689200  3.056687986  0.000000000     0.000000000  0.327151481  0.188876893
    -1.080689200 -1.528319100  2.647183819     0.000000000  0.000000000  0.377759940

  length of vectors
     3.242102804  3.242102804  3.242102804     0.377759940  0.377759940  0.377759940


 FORCES acting on ions
    electron-ion (+dipol)            ewald-force                    non-local-force                 convergence-correction
 -----------------------------------------------------------------------------------------------
   0.939E-08 0.464E-08 0.193E-09   -.136E-14 -.342E-15 -.120E-14   -.331E-07 -.474E-07 -.161E-07   -.616E-08 0.258E-11 0.558E-09
 -----------------------------------------------------------------------------------------------
   0.939E-08 0.464E-08 0.193E-09   -.136E-14 -.342E-15 -.120E-14   -.331E-07 -.474E-07 -.161E-07   -.616E-08 0.258E-11 0.558E-09
 
 
 POSITION                                       TOTAL-FORCE (eV/Angst)
 -----------------------------------------------------------------------------------
      0.00000      0.00000      0.00000        -0.000000     -0.000000     -0.000000
 -----------------------------------------------------------------------------------
    total drift:                               -0.000000     -0.000000     -0.000000


--------------------------------------------------------------------------------------------------------



  FREE ENERGIE OF THE ION-ELECTRON SYSTEM (eV)
  ---------------------------------------------------
  free  energy   TOTEN  =        -1.00212656 eV

  energy  without entropy=       -1.00212656  energy(sigma->0) =       -1.00212656
 


--------------------------------------------------------------------------------------------------------


    POTLOK:  cpu time    0.0739: real time    0.0739


--------------------------------------------------------------------------------------------------------


 writing wavefunctions
     LOOP+:  cpu time   47.1479: real time   47.2442
    4ORBIT:  cpu time    0.0000: real time    0.0000

 Spin-Orbit-Coupling matrix elements

 Ion:    1  E_soc:     -2.7373698
 l=   1
     0.0000000    -0.1310062    -0.1310072
    -0.1310062     0.0000000    -0.1310064
    -0.1310072    -0.1310064     0.0000000
 l=   2
     0.0000000    -0.0642159     0.0000000    -0.0628354    -0.2610061
    -0.0642159     0.0000000    -0.1967895    -0.0642159    -0.0655966
     0.0000000    -0.1967895     0.0000000    -0.1947189     0.0000000
    -0.0628354    -0.0642159    -0.1947189     0.0000000    -0.0662868
    -0.2610061    -0.0655966     0.0000000    -0.0662868     0.0000000
 l=   3
     0.0000000     0.0000000     0.0000000     0.0000000     0.0000000     0.0000000     0.0000000
     0.0000000     0.0000000     0.0000000     0.0000000     0.0000000     0.0000000     0.0000000
     0.0000000     0.0000000     0.0000000     0.0000000     0.0000000     0.0000000     0.0000000
     0.0000000     0.0000000     0.0000000     0.0000000     0.0000000     0.0000000     0.0000000
     0.0000000     0.0000000     0.0000000     0.0000000     0.0000000     0.0000000     0.0000000
     0.0000000     0.0000000     0.0000000     0.0000000     0.0000000     0.0000000     0.0000000
     0.0000000     0.0000000     0.0000000     0.0000000     0.0000000     0.0000000     0.0000000

 total amount of memory used by VASP MPI-rank0    86433. kBytes
=======================================================================

   base      :      30000. kBytes
   nonl-proj :       2769. kBytes
   fftplans  :       3449. kBytes
   grid      :       2820. kBytes
   one-center:         62. kBytes
   wavefun   :      47333. kBytes
 
  
  
 General timing and accounting informations for this job:
 ========================================================
  
                  Total CPU time used (sec):       49.442
                            User time (sec):       48.962
                          System time (sec):        0.479
                         Elapsed time (sec):       49.652
  
                   Maximum memory used (kb):      131628.
                   Average memory used (kb):           0.
  
                          Minor page faults:        38997
                          Major page faults:            0
                 Voluntary context switches:         1275
