Og_FCC                                  
           1
     4.566655    0.000000    0.000000
     2.283328    3.954839   -0.000000
     2.283328    1.318280    3.728658
   Og
   1
Direct configuration=     1
   0.00000000  0.00000000  0.00000000
Og_FCC                                  
           1
     4.566901    0.000000    0.000000
     2.283450    3.955052   -0.000000
     2.283450    1.318351    3.728859
   Og
   1
Direct configuration=     2
   0.00000000  0.00000000  0.00000000
