Og_FCC                                  
           1
     4.347780    0.000000    0.000000
     2.173890    3.765288   -0.000000
     2.173890    1.255096    3.549948
   Og
   1
Direct configuration=     1
   0.00000000  0.00000000  0.00000000
Og_FCC                                  
           1
     4.366363    0.000000    0.000000
     2.183182    3.781381   -0.000000
     2.183182    1.260460    3.565121
   Og
   1
Direct configuration=     2
   0.00000000  0.00000000  0.00000000
Og_FCC                                  
           1
     4.505204    0.000000    0.000000
     2.252602    3.901621   -0.000000
     2.252602    1.300540    3.678483
   Og
   1
Direct configuration=     3
   0.00000000  0.00000000  0.00000000
Og_FCC                                  
           1
     4.520584    0.000000    0.000000
     2.260292    3.914940   -0.000000
     2.260292    1.304980    3.691041
   Og
   1
Direct configuration=     4
   0.00000000  0.00000000  0.00000000
