Og_FCC                                  
           1
     4.520584    0.000000    0.000000
     2.260292    3.914940   -0.000000
     2.260292    1.304980    3.691041
   Og
   1
Direct configuration=     1
   0.00000000  0.00000000  0.00000000
Og_FCC                                  
           1
     4.524054    0.000000    0.000000
     2.262027    3.917946   -0.000000
     2.262027    1.305982    3.693875
   Og
   1
Direct configuration=     2
   0.00000000  0.00000000  0.00000000
Og_FCC                                  
           1
     4.534465    0.000000    0.000000
     2.267233    3.926962   -0.000000
     2.267233    1.308987    3.702375
   Og
   1
Direct configuration=     3
   0.00000000  0.00000000  0.00000000
Og_FCC                                  
           1
     4.555287    0.000000    0.000000
     2.277643    3.944994   -0.000000
     2.277643    1.314998    3.719376
   Og
   1
Direct configuration=     4
   0.00000000  0.00000000  0.00000000
Og_FCC                                  
           1
     4.596931    0.000000    0.000000
     2.298465    3.981059   -0.000000
     2.298465    1.327020    3.753378
   Og
   1
Direct configuration=     5
   0.00000000  0.00000000  0.00000000
Og_FCC                                  
           1
     4.566655    0.000000    0.000000
     2.283328    3.954839   -0.000000
     2.283328    1.318280    3.728658
   Og
   1
Direct configuration=     6
   0.00000000  0.00000000  0.00000000
