   1   1   0   0
  0.6008441E+02  0.4396350E-09  0.4396350E-09  0.4396350E-09  0.1000000E-15
  1.000000000000000E-004
  CAR 
 Og_FCC                                  
     65.91620088   -276.19220894  301      2.34105472      1.00000000
   -276.192  0.0000E+00  0.0000E+00
   -275.052  0.0000E+00  0.0000E+00
   -273.911  0.0000E+00  0.0000E+00
   -272.771  0.0000E+00  0.0000E+00
   -271.631  0.0000E+00  0.0000E+00
   -270.490  0.0000E+00  0.0000E+00
   -269.350  0.0000E+00  0.0000E+00
   -268.210  0.0000E+00  0.0000E+00
   -267.069  0.0000E+00  0.0000E+00
   -265.929  0.0000E+00  0.0000E+00
   -264.789  0.0000E+00  0.0000E+00
   -263.648  0.0000E+00  0.0000E+00
   -262.508  0.0000E+00  0.0000E+00
   -261.368  0.0000E+00  0.0000E+00
   -260.227  0.0000E+00  0.2000E+01
   -259.087  0.0000E+00  0.2000E+01
   -257.946  0.0000E+00  0.2000E+01
   -256.806  0.0000E+00  0.2000E+01
   -255.666  0.0000E+00  0.2000E+01
   -254.525  0.0000E+00  0.2000E+01
   -253.385  0.0000E+00  0.2000E+01
   -252.245  0.0000E+00  0.2000E+01
   -251.104  0.0000E+00  0.2000E+01
   -249.964  0.0000E+00  0.2000E+01
   -248.824  0.0000E+00  0.2000E+01
   -247.683  0.0000E+00  0.2000E+01
   -246.543  0.0000E+00  0.2000E+01
   -245.402  0.0000E+00  0.2000E+01
   -244.262  0.0000E+00  0.2000E+01
   -243.122  0.0000E+00  0.2000E+01
   -241.981  0.0000E+00  0.2000E+01
   -240.841  0.0000E+00  0.2000E+01
   -239.701  0.0000E+00  0.2000E+01
   -238.560  0.0000E+00  0.2000E+01
   -237.420  0.0000E+00  0.2000E+01
   -236.280  0.0000E+00  0.2000E+01
   -235.139  0.0000E+00  0.2000E+01
   -233.999  0.0000E+00  0.2000E+01
   -232.858  0.0000E+00  0.2000E+01
   -231.718  0.0000E+00  0.2000E+01
   -230.578  0.0000E+00  0.2000E+01
   -229.437  0.0000E+00  0.2000E+01
   -228.297  0.0000E+00  0.2000E+01
   -227.157  0.0000E+00  0.2000E+01
   -226.016  0.0000E+00  0.2000E+01
   -224.876  0.0000E+00  0.2000E+01
   -223.736  0.0000E+00  0.2000E+01
   -222.595  0.0000E+00  0.2000E+01
   -221.455  0.0000E+00  0.2000E+01
   -220.315  0.0000E+00  0.2000E+01
   -219.174  0.0000E+00  0.2000E+01
   -218.034  0.0000E+00  0.2000E+01
   -216.893  0.0000E+00  0.2000E+01
   -215.753  0.0000E+00  0.2000E+01
   -214.613  0.0000E+00  0.2000E+01
   -213.472  0.0000E+00  0.2000E+01
   -212.332  0.0000E+00  0.2000E+01
   -211.192  0.0000E+00  0.2000E+01
   -210.051  0.0000E+00  0.2000E+01
   -208.911  0.0000E+00  0.2000E+01
   -207.771  0.0000E+00  0.2000E+01
   -206.630  0.0000E+00  0.2000E+01
   -205.490  0.0000E+00  0.2000E+01
   -204.349  0.0000E+00  0.2000E+01
   -203.209  0.0000E+00  0.2000E+01
   -202.069  0.0000E+00  0.2000E+01
   -200.928  0.0000E+00  0.2000E+01
   -199.788  0.0000E+00  0.2000E+01
   -198.648  0.0000E+00  0.2000E+01
   -197.507  0.0000E+00  0.2000E+01
   -196.367  0.0000E+00  0.2000E+01
   -195.227  0.0000E+00  0.2000E+01
   -194.086  0.0000E+00  0.2000E+01
   -192.946  0.0000E+00  0.2000E+01
   -191.805  0.0000E+00  0.2000E+01
   -190.665  0.0000E+00  0.2000E+01
   -189.525  0.0000E+00  0.2000E+01
   -188.384  0.0000E+00  0.2000E+01
   -187.244  0.0000E+00  0.2000E+01
   -186.104  0.0000E+00  0.2000E+01
   -184.963  0.0000E+00  0.2000E+01
   -183.823  0.0000E+00  0.2000E+01
   -182.683  0.0000E+00  0.2000E+01
   -181.542  0.0000E+00  0.2000E+01
   -180.402  0.0000E+00  0.2000E+01
   -179.261  0.0000E+00  0.2000E+01
   -178.121  0.0000E+00  0.2000E+01
   -176.981  0.0000E+00  0.2000E+01
   -175.840  0.0000E+00  0.2000E+01
   -174.700  0.0000E+00  0.2000E+01
   -173.560  0.0000E+00  0.2000E+01
   -172.419  0.0000E+00  0.2000E+01
   -171.279  0.0000E+00  0.2000E+01
   -170.139  0.0000E+00  0.2000E+01
   -168.998  0.0000E+00  0.2000E+01
   -167.858  0.0000E+00  0.2000E+01
   -166.718  0.0000E+00  0.2000E+01
   -165.577  0.0000E+00  0.2000E+01
   -164.437  0.0000E+00  0.2685E+01
   -163.296  0.0000E+00  0.4000E+01
   -162.156  0.0000E+00  0.4000E+01
   -161.016  0.0000E+00  0.4000E+01
   -159.875  0.0000E+00  0.4000E+01
   -158.735  0.0000E+00  0.4000E+01
   -157.595  0.0000E+00  0.4000E+01
   -156.454  0.0000E+00  0.4000E+01
   -155.314  0.0000E+00  0.4000E+01
   -154.174  0.0000E+00  0.4000E+01
   -153.033  0.0000E+00  0.4000E+01
   -151.893  0.0000E+00  0.4000E+01
   -150.752  0.0000E+00  0.4000E+01
   -149.612  0.0000E+00  0.4000E+01
   -148.472  0.0000E+00  0.4000E+01
   -147.331  0.0000E+00  0.4000E+01
   -146.191  0.0000E+00  0.4000E+01
   -145.051  0.0000E+00  0.4000E+01
   -143.910  0.0000E+00  0.4000E+01
   -142.770  0.0000E+00  0.4000E+01
   -141.630  0.0000E+00  0.4000E+01
   -140.489  0.0000E+00  0.4000E+01
   -139.349  0.0000E+00  0.4000E+01
   -138.208  0.0000E+00  0.4000E+01
   -137.068  0.0000E+00  0.4000E+01
   -135.928  0.0000E+00  0.4000E+01
   -134.787  0.0000E+00  0.4000E+01
   -133.647  0.0000E+00  0.4000E+01
   -132.507  0.0000E+00  0.4000E+01
   -131.366  0.0000E+00  0.4000E+01
   -130.226  0.0000E+00  0.4000E+01
   -129.086  0.0000E+00  0.4000E+01
   -127.945  0.0000E+00  0.4000E+01
   -126.805  0.0000E+00  0.4000E+01
   -125.665  0.0000E+00  0.4000E+01
   -124.524  0.0000E+00  0.4000E+01
   -123.384  0.0000E+00  0.4000E+01
   -122.243  0.0000E+00  0.4000E+01
   -121.103  0.0000E+00  0.4000E+01
   -119.963  0.0000E+00  0.4000E+01
   -118.822  0.0000E+00  0.4000E+01
   -117.682  0.0000E+00  0.4000E+01
   -116.542  0.0000E+00  0.4000E+01
   -115.401  0.0000E+00  0.4000E+01
   -114.261  0.0000E+00  0.4000E+01
   -113.121  0.0000E+00  0.4000E+01
   -111.980  0.0000E+00  0.4000E+01
   -110.840  0.0000E+00  0.4000E+01
   -109.699  0.0000E+00  0.8000E+01
   -108.559  0.0000E+00  0.8000E+01
   -107.419  0.0000E+00  0.8000E+01
   -106.278  0.0000E+00  0.8000E+01
   -105.138  0.0000E+00  0.8000E+01
   -103.998  0.0000E+00  0.8000E+01
   -102.857  0.0000E+00  0.8000E+01
   -101.717  0.0000E+00  0.8000E+01
   -100.577  0.0000E+00  0.8000E+01
    -99.436  0.0000E+00  0.8000E+01
    -98.296  0.0000E+00  0.8000E+01
    -97.155  0.0000E+00  0.8000E+01
    -96.015  0.0000E+00  0.8000E+01
    -94.875  0.0000E+00  0.8000E+01
    -93.734  0.0000E+00  0.8000E+01
    -92.594  0.0000E+00  0.8000E+01
    -91.454  0.0000E+00  0.8000E+01
    -90.313  0.0000E+00  0.8000E+01
    -89.173  0.0000E+00  0.8000E+01
    -88.033  0.0000E+00  0.8000E+01
    -86.892  0.0000E+00  0.8000E+01
    -85.752  0.0000E+00  0.8000E+01
    -84.611  0.0000E+00  0.8000E+01
    -83.471  0.0000E+00  0.8000E+01
    -82.331  0.0000E+00  0.8000E+01
    -81.190  0.0000E+00  0.8000E+01
    -80.050  0.0000E+00  0.8000E+01
    -78.910  0.0000E+00  0.8000E+01
    -77.769  0.0000E+00  0.8000E+01
    -76.629  0.0000E+00  0.8000E+01
    -75.489  0.0000E+00  0.8000E+01
    -74.348  0.0000E+00  0.8000E+01
    -73.208  0.0000E+00  0.8000E+01
    -72.068  0.0000E+00  0.8000E+01
    -70.927  0.0000E+00  0.8000E+01
    -69.787  0.0000E+00  0.8000E+01
    -68.646  0.0000E+00  0.8000E+01
    -67.506  0.0000E+00  0.8000E+01
    -66.366  0.0000E+00  0.8000E+01
    -65.225  0.0000E+00  0.8000E+01
    -64.085  0.0000E+00  0.8000E+01
    -62.945  0.0000E+00  0.8000E+01
    -61.804  0.0000E+00  0.8000E+01
    -60.664  0.0000E+00  0.8000E+01
    -59.524  0.0000E+00  0.8000E+01
    -58.383  0.0000E+00  0.8000E+01
    -57.243  0.0000E+00  0.8000E+01
    -56.102  0.0000E+00  0.8000E+01
    -54.962  0.0000E+00  0.8000E+01
    -53.822  0.0000E+00  0.8000E+01
    -52.681  0.0000E+00  0.8000E+01
    -51.541  0.0000E+00  0.8000E+01
    -50.401  0.0000E+00  0.8000E+01
    -49.260  0.0000E+00  0.8000E+01
    -48.120  0.0000E+00  0.8000E+01
    -46.980  0.0000E+00  0.8000E+01
    -45.839  0.0000E+00  0.8000E+01
    -44.699  0.0000E+00  0.8000E+01
    -43.558  0.0000E+00  0.8000E+01
    -42.418  0.0000E+00  0.1200E+02
    -41.278  0.0000E+00  0.1200E+02
    -40.137  0.0000E+00  0.1200E+02
    -38.997  0.0000E+00  0.1200E+02
    -37.857  0.0000E+00  0.1200E+02
    -36.716  0.0000E+00  0.1200E+02
    -35.576  0.0000E+00  0.1200E+02
    -34.436  0.0000E+00  0.1800E+02
    -33.295  0.0000E+00  0.1800E+02
    -32.155  0.0000E+00  0.1800E+02
    -31.015  0.0000E+00  0.1800E+02
    -29.874  0.0000E+00  0.1800E+02
    -28.734  0.0000E+00  0.1800E+02
    -27.593  0.0000E+00  0.1800E+02
    -26.453  0.0000E+00  0.2000E+02
    -25.313  0.0000E+00  0.2000E+02
    -24.172  0.0000E+00  0.2000E+02
    -23.032  0.0000E+00  0.2000E+02
    -21.892  0.0000E+00  0.2000E+02
    -20.751  0.0000E+00  0.2000E+02
    -19.611  0.0000E+00  0.2000E+02
    -18.471  0.0000E+00  0.2000E+02
    -17.330  0.0000E+00  0.2000E+02
    -16.190  0.0000E+00  0.2000E+02
    -15.049  0.0000E+00  0.2000E+02
    -13.909  0.0000E+00  0.2000E+02
    -12.769  0.0000E+00  0.2000E+02
    -11.628  0.0000E+00  0.2000E+02
    -10.488  0.0000E+00  0.2000E+02
     -9.348  0.0000E+00  0.2000E+02
     -8.207  0.0000E+00  0.2000E+02
     -7.067  0.0000E+00  0.2000E+02
     -5.927  0.0000E+00  0.2186E+02
     -4.786  0.0000E+00  0.2200E+02
     -3.646  0.0000E+00  0.2200E+02
     -2.505  0.0000E+00  0.2200E+02
     -1.365  0.1945E+00  0.2292E+02
     -0.225  0.0000E+00  0.2397E+02
      0.916  0.3219E-01  0.2544E+02
      2.056  0.0000E+00  0.2600E+02
      3.196  0.0000E+00  0.2600E+02
      4.337  0.0000E+00  0.2601E+02
      5.477  0.0000E+00  0.2601E+02
      6.617  0.0000E+00  0.2614E+02
      7.758  0.4872E-01  0.2667E+02
      8.898  0.0000E+00  0.2781E+02
     10.038  0.0000E+00  0.2853E+02
     11.179  0.0000E+00  0.3025E+02
     12.319  0.0000E+00  0.3168E+02
     13.460  0.0000E+00  0.3369E+02
     14.600  0.0000E+00  0.3504E+02
     15.740  0.0000E+00  0.3675E+02
     16.881  0.0000E+00  0.3850E+02
     18.021  0.9744E-01  0.4023E+02
     19.161  0.0000E+00  0.4279E+02
     20.302  0.0000E+00  0.4412E+02
     21.442  0.0000E+00  0.4731E+02
     22.582  0.1218E-01  0.5165E+02
     23.723  0.0000E+00  0.5502E+02
     24.863  0.1863E+00  0.6112E+02
     26.004  0.0000E+00  0.6538E+02
     27.144  0.0000E+00  0.6772E+02
     28.284  0.1949E+00  0.6991E+02
     29.425  0.0000E+00  0.7217E+02
     30.565  0.0000E+00  0.7447E+02
     31.705  0.0000E+00  0.7824E+02
     32.846  0.0000E+00  0.8125E+02
     33.986  0.0000E+00  0.8342E+02
     35.126  0.0000E+00  0.8724E+02
     36.267  0.0000E+00  0.9038E+02
     37.407  0.0000E+00  0.9260E+02
     38.548  0.0000E+00  0.9538E+02
     39.688  0.0000E+00  0.9836E+02
     40.828  0.0000E+00  0.1020E+03
     41.969  0.0000E+00  0.1056E+03
     43.109  0.0000E+00  0.1079E+03
     44.249  0.9015E-18  0.1113E+03
     45.390  0.0000E+00  0.1144E+03
     46.530  0.9742E-01  0.1183E+03
     47.670  0.0000E+00  0.1213E+03
     48.811  0.0000E+00  0.1245E+03
     49.951  0.0000E+00  0.1273E+03
     51.092  0.0000E+00  0.1280E+03
     52.232  0.0000E+00  0.1280E+03
     53.372  0.0000E+00  0.1280E+03
     54.513  0.0000E+00  0.1280E+03
     55.653  0.0000E+00  0.1280E+03
     56.793  0.0000E+00  0.1280E+03
     57.934  0.0000E+00  0.1280E+03
     59.074  0.0000E+00  0.1280E+03
     60.214  0.0000E+00  0.1280E+03
     61.355  0.0000E+00  0.1280E+03
     62.495  0.0000E+00  0.1280E+03
     63.635  0.0000E+00  0.1280E+03
     64.776  0.0000E+00  0.1280E+03
     65.916  0.0000E+00  0.1280E+03
