   1   1   0   0
  0.5789729E+02  0.4342346E-09  0.4342346E-09  0.4342346E-09  0.1000000E-15
  1.000000000000000E-004
  CAR 
 Og_FCC                                  
     98.30626437    -47.06239093  301      2.48409242      1.00000000
    -47.062  0.0000E+00  0.0000E+00
    -46.578  0.0000E+00  0.0000E+00
    -46.093  0.0000E+00  0.0000E+00
    -45.609  0.0000E+00  0.0000E+00
    -45.124  0.0000E+00  0.0000E+00
    -44.640  0.0000E+00  0.0000E+00
    -44.155  0.0000E+00  0.0000E+00
    -43.670  0.0000E+00  0.0000E+00
    -43.186  0.0000E+00  0.0000E+00
    -42.701  0.0000E+00  0.0000E+00
    -42.217  0.0000E+00  0.0000E+00
    -41.732  0.0000E+00  0.0000E+00
    -41.248  0.0000E+00  0.0000E+00
    -40.763  0.0000E+00  0.0000E+00
    -40.279  0.0000E+00  0.4000E+01
    -39.794  0.0000E+00  0.4000E+01
    -39.309  0.0000E+00  0.4000E+01
    -38.825  0.0000E+00  0.4000E+01
    -38.340  0.0000E+00  0.4000E+01
    -37.856  0.0000E+00  0.4000E+01
    -37.371  0.0000E+00  0.4000E+01
    -36.887  0.0000E+00  0.4000E+01
    -36.402  0.0000E+00  0.4000E+01
    -35.917  0.0000E+00  0.4000E+01
    -35.433  0.0000E+00  0.4000E+01
    -34.948  0.0000E+00  0.4000E+01
    -34.464  0.0000E+00  0.4000E+01
    -33.979  0.0000E+00  0.4000E+01
    -33.495  0.0000E+00  0.4000E+01
    -33.010  0.0000E+00  0.4000E+01
    -32.526  0.0000E+00  0.1000E+02
    -32.041  0.0000E+00  0.1000E+02
    -31.556  0.0000E+00  0.1000E+02
    -31.072  0.0000E+00  0.1000E+02
    -30.587  0.0000E+00  0.1000E+02
    -30.103  0.0000E+00  0.1000E+02
    -29.618  0.0000E+00  0.1000E+02
    -29.134  0.0000E+00  0.1000E+02
    -28.649  0.0000E+00  0.1000E+02
    -28.164  0.0000E+00  0.1000E+02
    -27.680  0.0000E+00  0.1000E+02
    -27.195  0.0000E+00  0.1000E+02
    -26.711  0.0000E+00  0.1000E+02
    -26.226  0.0000E+00  0.1000E+02
    -25.742  0.0000E+00  0.1000E+02
    -25.257  0.5512E+00  0.1052E+02
    -24.773  0.0000E+00  0.1200E+02
    -24.288  0.0000E+00  0.1200E+02
    -23.803  0.0000E+00  0.1200E+02
    -23.319  0.0000E+00  0.1200E+02
    -22.834  0.0000E+00  0.1200E+02
    -22.350  0.0000E+00  0.1200E+02
    -21.865  0.0000E+00  0.1200E+02
    -21.381  0.0000E+00  0.1200E+02
    -20.896  0.0000E+00  0.1200E+02
    -20.411  0.0000E+00  0.1200E+02
    -19.927  0.0000E+00  0.1200E+02
    -19.442  0.0000E+00  0.1200E+02
    -18.958  0.0000E+00  0.1200E+02
    -18.473  0.0000E+00  0.1200E+02
    -17.989  0.0000E+00  0.1200E+02
    -17.504  0.0000E+00  0.1200E+02
    -17.020  0.0000E+00  0.1200E+02
    -16.535  0.0000E+00  0.1200E+02
    -16.050  0.0000E+00  0.1200E+02
    -15.566  0.0000E+00  0.1200E+02
    -15.081  0.0000E+00  0.1200E+02
    -14.597  0.0000E+00  0.1200E+02
    -14.112  0.0000E+00  0.1200E+02
    -13.628  0.0000E+00  0.1200E+02
    -13.143  0.0000E+00  0.1200E+02
    -12.658  0.0000E+00  0.1200E+02
    -12.174  0.0000E+00  0.1200E+02
    -11.689  0.0000E+00  0.1200E+02
    -11.205  0.0000E+00  0.1200E+02
    -10.720  0.0000E+00  0.1200E+02
    -10.236  0.0000E+00  0.1386E+02
     -9.751  0.0000E+00  0.1400E+02
     -9.267  0.0000E+00  0.1400E+02
     -8.782  0.0000E+00  0.1400E+02
     -8.297  0.0000E+00  0.1400E+02
     -7.813  0.0000E+00  0.1400E+02
     -7.328  0.0000E+00  0.1400E+02
     -6.844  0.0000E+00  0.1400E+02
     -6.359  0.0000E+00  0.1400E+02
     -5.875  0.0000E+00  0.1400E+02
     -5.390  0.0000E+00  0.1400E+02
     -4.905  0.0000E+00  0.1400E+02
     -4.421  0.0000E+00  0.1400E+02
     -3.936  0.0000E+00  0.1400E+02
     -3.452  0.0000E+00  0.1400E+02
     -2.967  0.0000E+00  0.1400E+02
     -2.483  0.0000E+00  0.1400E+02
     -1.998  0.0000E+00  0.1400E+02
     -1.514  0.0000E+00  0.1400E+02
     -1.029  0.1151E+00  0.1495E+02
     -0.544  0.0000E+00  0.1575E+02
     -0.060  0.0000E+00  0.1586E+02
      0.425  0.0000E+00  0.1653E+02
      0.909  0.0000E+00  0.1696E+02
      1.394  0.0000E+00  0.1763E+02
      1.878  0.0000E+00  0.1791E+02
      2.363  0.0000E+00  0.1800E+02
      2.848  0.0000E+00  0.1800E+02
      3.332  0.0000E+00  0.1800E+02
      3.817  0.0000E+00  0.1801E+02
      4.301  0.0000E+00  0.1801E+02
      4.786  0.0000E+00  0.1801E+02
      5.270  0.0000E+00  0.1808E+02
      5.755  0.0000E+00  0.1814E+02
      6.239  0.0000E+00  0.1825E+02
      6.724  0.0000E+00  0.1839E+02
      7.209  0.0000E+00  0.1911E+02
      7.693  0.0000E+00  0.1978E+02
      8.178  0.0000E+00  0.2003E+02
      8.662  0.0000E+00  0.2031E+02
      9.147  0.0000E+00  0.2119E+02
      9.631  0.0000E+00  0.2169E+02
     10.116  0.0000E+00  0.2225E+02
     10.601  0.0000E+00  0.2256E+02
     11.085  0.0000E+00  0.2381E+02
     11.570  0.0000E+00  0.2423E+02
     12.054  0.2293E+00  0.2544E+02
     12.539  0.4134E-04  0.2594E+02
     13.023  0.0000E+00  0.2617E+02
     13.508  0.4156E+00  0.2724E+02
     13.992  0.0000E+00  0.2778E+02
     14.477  0.0000E+00  0.2888E+02
     14.962  0.0000E+00  0.2964E+02
     15.446  0.0000E+00  0.3047E+02
     15.931  0.0000E+00  0.3056E+02
     16.415  0.0000E+00  0.3131E+02
     16.900  0.0000E+00  0.3219E+02
     17.384  0.0000E+00  0.3330E+02
     17.869  0.4586E+00  0.3456E+02
     18.354  0.0000E+00  0.3492E+02
     18.838  0.0000E+00  0.3690E+02
     19.323  0.0000E+00  0.3812E+02
     19.807  0.1064E-04  0.4097E+02
     20.292  0.0000E+00  0.4381E+02
     20.776  0.2754E-11  0.4533E+02
     21.261  0.0000E+00  0.4630E+02
     21.745  0.0000E+00  0.4657E+02
     22.230  0.0000E+00  0.4718E+02
     22.715  0.0000E+00  0.4795E+02
     23.199  0.1503E-01  0.4883E+02
     23.684  0.0000E+00  0.4956E+02
     24.168  0.0000E+00  0.5083E+02
     24.653  0.0000E+00  0.5214E+02
     25.137  0.0000E+00  0.5377E+02
     25.622  0.0000E+00  0.5569E+02
     26.106  0.3705E+00  0.5669E+02
     26.591  0.0000E+00  0.5756E+02
     27.076  0.0000E+00  0.5804E+02
     27.560  0.0000E+00  0.5942E+02
     28.045  0.0000E+00  0.6035E+02
     28.529  0.2293E+00  0.6128E+02
     29.014  0.0000E+00  0.6224E+02
     29.498  0.0000E+00  0.6266E+02
     29.983  0.0000E+00  0.6426E+02
     30.468  0.4586E+00  0.6505E+02
     30.952  0.0000E+00  0.6593E+02
     31.437  0.0000E+00  0.6699E+02
     31.921  0.0000E+00  0.6883E+02
     32.406  0.0000E+00  0.6993E+02
     32.890  0.0000E+00  0.7150E+02
     33.375  0.0000E+00  0.7286E+02
     33.859  0.0000E+00  0.7398E+02
     34.344  0.0000E+00  0.7444E+02
     34.829  0.0000E+00  0.7589E+02
     35.313  0.4586E+00  0.7780E+02
     35.798  0.8770E+00  0.7911E+02
     36.282  0.0000E+00  0.8030E+02
     36.767  0.0000E+00  0.8142E+02
     37.251  0.0000E+00  0.8330E+02
     37.736  0.0000E+00  0.8399E+02
     38.221  0.0000E+00  0.8527E+02
     38.705  0.0000E+00  0.8607E+02
     39.190  0.0000E+00  0.8693E+02
     39.674  0.8314E-08  0.8872E+02
     40.159  0.0000E+00  0.8965E+02
     40.643  0.2293E+00  0.9081E+02
     41.128  0.1184E+00  0.9180E+02
     41.612  0.0000E+00  0.9364E+02
     42.097  0.2478E-01  0.9513E+02
     42.582  0.1911E-01  0.9627E+02
     43.066  0.0000E+00  0.9769E+02
     43.551  0.1147E+00  0.9862E+02
     44.035  0.0000E+00  0.1000E+03
     44.520  0.0000E+00  0.1010E+03
     45.004  0.0000E+00  0.1026E+03
     45.489  0.0000E+00  0.1038E+03
     45.974  0.0000E+00  0.1056E+03
     46.458  0.6292E-01  0.1069E+03
     46.943  0.4121E-09  0.1082E+03
     47.427  0.5733E-01  0.1099E+03
     47.912  0.1831E+00  0.1114E+03
     48.396  0.5733E-01  0.1125E+03
     48.881  0.4586E+00  0.1138E+03
     49.365  0.0000E+00  0.1149E+03
     49.850  0.3163E+00  0.1164E+03
     50.335  0.0000E+00  0.1177E+03
     50.819  0.0000E+00  0.1193E+03
     51.304  0.6851E-01  0.1207E+03
     51.788  0.0000E+00  0.1225E+03
     52.273  0.1702E-12  0.1247E+03
     52.757  0.0000E+00  0.1264E+03
     53.242  0.0000E+00  0.1271E+03
     53.727  0.0000E+00  0.1280E+03
     54.211  0.0000E+00  0.1299E+03
     54.696  0.0000E+00  0.1318E+03
     55.180  0.6534E-01  0.1328E+03
     55.665  0.0000E+00  0.1344E+03
     56.149  0.0000E+00  0.1362E+03
     56.634  0.0000E+00  0.1375E+03
     57.118  0.3057E+00  0.1387E+03
     57.603  0.5089E-02  0.1399E+03
     58.088  0.0000E+00  0.1420E+03
     58.572  0.0000E+00  0.1431E+03
     59.057  0.1667E-03  0.1449E+03
     59.541  0.6859E-02  0.1462E+03
     60.026  0.0000E+00  0.1480E+03
     60.510  0.0000E+00  0.1497E+03
     60.995  0.0000E+00  0.1512E+03
     61.480  0.4920E-10  0.1523E+03
     61.964  0.0000E+00  0.1540E+03
     62.449  0.0000E+00  0.1555E+03
     62.933  0.0000E+00  0.1568E+03
     63.418  0.0000E+00  0.1585E+03
     63.902  0.0000E+00  0.1599E+03
     64.387  0.4910E-02  0.1620E+03
     64.871  0.0000E+00  0.1637E+03
     65.356  0.0000E+00  0.1652E+03
     65.841  0.0000E+00  0.1671E+03
     66.325  0.0000E+00  0.1691E+03
     66.810  0.3509E-09  0.1703E+03
     67.294  0.0000E+00  0.1721E+03
     67.779  0.0000E+00  0.1735E+03
     68.263  0.0000E+00  0.1750E+03
     68.748  0.0000E+00  0.1770E+03
     69.233  0.0000E+00  0.1779E+03
     69.717  0.0000E+00  0.1793E+03
     70.202  0.0000E+00  0.1812E+03
     70.686  0.0000E+00  0.1829E+03
     71.171  0.0000E+00  0.1849E+03
     71.655  0.1147E+00  0.1868E+03
     72.140  0.0000E+00  0.1881E+03
     72.624  0.4586E+00  0.1899E+03
     73.109  0.0000E+00  0.1919E+03
     73.594  0.8052E-06  0.1939E+03
     74.078  0.0000E+00  0.1951E+03
     74.563  0.0000E+00  0.1968E+03
     75.047  0.3182E-17  0.1985E+03
     75.532  0.0000E+00  0.2002E+03
     76.016  0.0000E+00  0.2022E+03
     76.501  0.0000E+00  0.2036E+03
     76.986  0.0000E+00  0.2051E+03
     77.470  0.0000E+00  0.2071E+03
     77.955  0.4586E+00  0.2095E+03
     78.439  0.2866E-01  0.2124E+03
     78.924  0.0000E+00  0.2144E+03
     79.408  0.0000E+00  0.2160E+03
     79.893  0.1061E-16  0.2174E+03
     80.377  0.0000E+00  0.2195E+03
     80.862  0.5067E+00  0.2215E+03
     81.347  0.0000E+00  0.2236E+03
     81.831  0.7388E-01  0.2255E+03
     82.316  0.0000E+00  0.2273E+03
     82.800  0.4185E-01  0.2286E+03
     83.285  0.4586E+00  0.2307E+03
     83.769  0.0000E+00  0.2321E+03
     84.254  0.4586E+00  0.2338E+03
     84.739  0.0000E+00  0.2354E+03
     85.223  0.0000E+00  0.2373E+03
     85.708  0.0000E+00  0.2389E+03
     86.192  0.9308E-04  0.2406E+03
     86.677  0.0000E+00  0.2427E+03
     87.161  0.4586E+00  0.2449E+03
     87.646  0.0000E+00  0.2466E+03
     88.130  0.0000E+00  0.2487E+03
     88.615  0.0000E+00  0.2511E+03
     89.100  0.0000E+00  0.2524E+03
     89.584  0.0000E+00  0.2537E+03
     90.069  0.0000E+00  0.2551E+03
     90.553  0.4514E+00  0.2558E+03
     91.038  0.0000E+00  0.2559E+03
     91.522  0.0000E+00  0.2559E+03
     92.007  0.0000E+00  0.2560E+03
     92.492  0.0000E+00  0.2560E+03
     92.976  0.0000E+00  0.2560E+03
     93.461  0.0000E+00  0.2560E+03
     93.945  0.0000E+00  0.2560E+03
     94.430  0.0000E+00  0.2560E+03
     94.914  0.0000E+00  0.2560E+03
     95.399  0.0000E+00  0.2560E+03
     95.883  0.0000E+00  0.2560E+03
     96.368  0.0000E+00  0.2560E+03
     96.853  0.0000E+00  0.2560E+03
     97.337  0.0000E+00  0.2560E+03
     97.822  0.0000E+00  0.2560E+03
     98.306  0.0000E+00  0.2560E+03
