   1   1   0   0
  0.1860393E+02  0.2974221E-09  0.2974221E-09  0.2974221E-09  0.1000000E-15
  1.000000000000000E-004
  CAR 
 Og_FCC                                  
     24.32977819    -37.93667120  301    -10.27998993      1.00000000
    -37.937  0.0000E+00  0.0000E+00
    -37.729  0.0000E+00  0.0000E+00
    -37.522  0.0000E+00  0.0000E+00
    -37.314  0.0000E+00  0.0000E+00
    -37.106  0.0000E+00  0.0000E+00
    -36.899  0.0000E+00  0.0000E+00
    -36.691  0.0000E+00  0.0000E+00
    -36.484  0.0000E+00  0.0000E+00
    -36.276  0.0000E+00  0.0000E+00
    -36.069  0.0000E+00  0.0000E+00
    -35.861  0.0000E+00  0.0000E+00
    -35.654  0.0000E+00  0.0000E+00
    -35.446  0.0000E+00  0.0000E+00
    -35.238  0.0000E+00  0.0000E+00
    -35.031  0.2799E-07  0.1389E+00
    -34.823  0.0000E+00  0.2000E+01
    -34.616  0.0000E+00  0.2000E+01
    -34.408  0.0000E+00  0.2000E+01
    -34.201  0.0000E+00  0.2000E+01
    -33.993  0.0000E+00  0.2000E+01
    -33.786  0.0000E+00  0.2000E+01
    -33.578  0.0000E+00  0.2000E+01
    -33.370  0.0000E+00  0.2000E+01
    -33.163  0.0000E+00  0.2000E+01
    -32.955  0.0000E+00  0.2000E+01
    -32.748  0.0000E+00  0.2000E+01
    -32.540  0.0000E+00  0.2000E+01
    -32.333  0.0000E+00  0.2000E+01
    -32.125  0.0000E+00  0.2000E+01
    -31.918  0.0000E+00  0.2000E+01
    -31.710  0.0000E+00  0.2000E+01
    -31.502  0.0000E+00  0.2000E+01
    -31.295  0.0000E+00  0.2000E+01
    -31.087  0.0000E+00  0.2000E+01
    -30.880  0.0000E+00  0.2000E+01
    -30.672  0.0000E+00  0.2000E+01
    -30.465  0.0000E+00  0.2000E+01
    -30.257  0.0000E+00  0.2000E+01
    -30.050  0.0000E+00  0.2000E+01
    -29.842  0.0000E+00  0.2000E+01
    -29.634  0.0000E+00  0.2000E+01
    -29.427  0.0000E+00  0.2000E+01
    -29.219  0.0000E+00  0.2000E+01
    -29.012  0.0000E+00  0.2000E+01
    -28.804  0.0000E+00  0.2000E+01
    -28.597  0.0000E+00  0.2000E+01
    -28.389  0.0000E+00  0.2000E+01
    -28.182  0.0000E+00  0.2000E+01
    -27.974  0.0000E+00  0.2000E+01
    -27.766  0.0000E+00  0.2000E+01
    -27.559  0.0000E+00  0.2000E+01
    -27.351  0.0000E+00  0.2000E+01
    -27.144  0.0000E+00  0.2000E+01
    -26.936  0.0000E+00  0.2000E+01
    -26.729  0.0000E+00  0.2000E+01
    -26.521  0.0000E+00  0.2000E+01
    -26.314  0.0000E+00  0.2000E+01
    -26.106  0.0000E+00  0.2000E+01
    -25.898  0.0000E+00  0.2000E+01
    -25.691  0.0000E+00  0.2000E+01
    -25.483  0.0000E+00  0.2000E+01
    -25.276  0.0000E+00  0.2000E+01
    -25.068  0.0000E+00  0.2000E+01
    -24.861  0.0000E+00  0.2000E+01
    -24.653  0.0000E+00  0.2000E+01
    -24.446  0.0000E+00  0.2000E+01
    -24.238  0.0000E+00  0.2000E+01
    -24.030  0.0000E+00  0.2000E+01
    -23.823  0.0000E+00  0.2000E+01
    -23.615  0.0000E+00  0.2000E+01
    -23.408  0.0000E+00  0.2000E+01
    -23.200  0.0000E+00  0.2000E+01
    -22.993  0.0000E+00  0.2000E+01
    -22.785  0.0000E+00  0.2000E+01
    -22.578  0.0000E+00  0.2000E+01
    -22.370  0.0000E+00  0.2000E+01
    -22.163  0.0000E+00  0.2000E+01
    -21.955  0.0000E+00  0.2000E+01
    -21.747  0.0000E+00  0.2000E+01
    -21.540  0.0000E+00  0.2000E+01
    -21.332  0.0000E+00  0.2000E+01
    -21.125  0.0000E+00  0.2000E+01
    -20.917  0.0000E+00  0.2000E+01
    -20.710  0.0000E+00  0.2000E+01
    -20.502  0.0000E+00  0.2000E+01
    -20.295  0.0000E+00  0.2000E+01
    -20.087  0.0000E+00  0.2000E+01
    -19.879  0.0000E+00  0.2000E+01
    -19.672  0.0000E+00  0.2000E+01
    -19.464  0.0000E+00  0.2000E+01
    -19.257  0.0000E+00  0.2000E+01
    -19.049  0.0000E+00  0.2000E+01
    -18.842  0.0000E+00  0.2000E+01
    -18.634  0.0000E+00  0.2000E+01
    -18.427  0.0000E+00  0.2000E+01
    -18.219  0.0000E+00  0.2000E+01
    -18.011  0.0000E+00  0.2000E+01
    -17.804  0.0000E+00  0.2000E+01
    -17.596  0.0000E+00  0.2000E+01
    -17.389  0.0000E+00  0.2000E+01
    -17.181  0.0000E+00  0.2000E+01
    -16.974  0.0000E+00  0.2000E+01
    -16.766  0.0000E+00  0.2000E+01
    -16.559  0.0000E+00  0.2000E+01
    -16.351  0.0000E+00  0.2000E+01
    -16.143  0.0000E+00  0.2000E+01
    -15.936  0.0000E+00  0.2000E+01
    -15.728  0.0000E+00  0.2000E+01
    -15.521  0.0000E+00  0.2000E+01
    -15.313  0.0000E+00  0.2000E+01
    -15.106  0.0000E+00  0.2000E+01
    -14.898  0.0000E+00  0.2000E+01
    -14.691  0.0000E+00  0.2000E+01
    -14.483  0.0000E+00  0.2000E+01
    -14.275  0.0000E+00  0.2000E+01
    -14.068  0.0000E+00  0.2000E+01
    -13.860  0.0000E+00  0.2000E+01
    -13.653  0.0000E+00  0.2000E+01
    -13.445  0.0000E+00  0.2000E+01
    -13.238  0.0000E+00  0.2000E+01
    -13.030  0.0000E+00  0.2000E+01
    -12.823  0.0000E+00  0.2000E+01
    -12.615  0.0000E+00  0.2000E+01
    -12.407  0.0000E+00  0.2000E+01
    -12.200  0.0000E+00  0.2000E+01
    -11.992  0.0000E+00  0.2000E+01
    -11.785  0.0000E+00  0.2037E+01
    -11.577  0.0000E+00  0.2731E+01
    -11.370  0.0000E+00  0.3417E+01
    -11.162  0.0000E+00  0.4194E+01
    -10.955  0.1005E+01  0.4570E+01
    -10.747  0.2328E-15  0.6713E+01
    -10.539  0.0000E+00  0.7852E+01
    -10.332  0.0000E+00  0.8000E+01
    -10.124  0.0000E+00  0.8000E+01
     -9.917  0.0000E+00  0.8000E+01
     -9.709  0.0000E+00  0.8000E+01
     -9.502  0.0000E+00  0.8000E+01
     -9.294  0.0000E+00  0.8000E+01
     -9.087  0.0000E+00  0.8000E+01
     -8.879  0.0000E+00  0.8000E+01
     -8.671  0.0000E+00  0.8000E+01
     -8.464  0.0000E+00  0.8000E+01
     -8.256  0.0000E+00  0.8000E+01
     -8.049  0.0000E+00  0.8000E+01
     -7.841  0.0000E+00  0.8000E+01
     -7.634  0.0000E+00  0.8000E+01
     -7.426  0.0000E+00  0.8000E+01
     -7.219  0.0000E+00  0.8000E+01
     -7.011  0.0000E+00  0.8000E+01
     -6.803  0.0000E+00  0.8000E+01
     -6.596  0.0000E+00  0.8000E+01
     -6.388  0.0000E+00  0.8000E+01
     -6.181  0.0000E+00  0.8000E+01
     -5.973  0.0000E+00  0.8000E+01
     -5.766  0.0000E+00  0.8000E+01
     -5.558  0.0000E+00  0.8000E+01
     -5.351  0.0000E+00  0.8000E+01
     -5.143  0.0000E+00  0.8000E+01
     -4.935  0.0000E+00  0.8000E+01
     -4.728  0.0000E+00  0.8000E+01
     -4.520  0.0000E+00  0.8000E+01
     -4.313  0.0000E+00  0.8000E+01
     -4.105  0.0000E+00  0.8000E+01
     -3.898  0.0000E+00  0.8000E+01
     -3.690  0.0000E+00  0.8000E+01
     -3.483  0.0000E+00  0.8000E+01
     -3.275  0.0000E+00  0.8000E+01
     -3.067  0.0000E+00  0.8000E+01
     -2.860  0.0000E+00  0.8000E+01
     -2.652  0.0000E+00  0.8000E+01
     -2.445  0.0000E+00  0.8000E+01
     -2.237  0.0000E+00  0.8000E+01
     -2.030  0.0000E+00  0.8000E+01
     -1.822  0.0000E+00  0.8000E+01
     -1.615  0.0000E+00  0.8000E+01
     -1.407  0.0000E+00  0.8000E+01
     -1.199  0.0000E+00  0.8000E+01
     -0.992  0.0000E+00  0.8000E+01
     -0.784  0.0000E+00  0.8000E+01
     -0.577  0.0000E+00  0.8000E+01
     -0.369  0.0000E+00  0.8000E+01
     -0.162  0.0000E+00  0.8000E+01
      0.046  0.0000E+00  0.8000E+01
      0.253  0.0000E+00  0.8000E+01
      0.461  0.0000E+00  0.8000E+01
      0.669  0.0000E+00  0.8000E+01
      0.876  0.0000E+00  0.8000E+01
      1.084  0.0000E+00  0.8000E+01
      1.291  0.0000E+00  0.8009E+01
      1.499  0.0000E+00  0.8009E+01
      1.706  0.0000E+00  0.8009E+01
      1.914  0.0000E+00  0.8009E+01
      2.121  0.0000E+00  0.8009E+01
      2.329  0.0000E+00  0.8083E+01
      2.537  0.0000E+00  0.8139E+01
      2.744  0.0000E+00  0.8139E+01
      2.952  0.0000E+00  0.8139E+01
      3.159  0.0000E+00  0.8139E+01
      3.367  0.0000E+00  0.8139E+01
      3.574  0.0000E+00  0.8250E+01
      3.782  0.0000E+00  0.8250E+01
      3.989  0.0000E+00  0.8250E+01
      4.197  0.0000E+00  0.8250E+01
      4.405  0.0000E+00  0.8472E+01
      4.612  0.0000E+00  0.8546E+01
      4.820  0.0000E+00  0.8546E+01
      5.027  0.0000E+00  0.8546E+01
      5.235  0.0000E+00  0.8546E+01
      5.442  0.0000E+00  0.8602E+01
      5.650  0.0000E+00  0.8602E+01
      5.857  0.0000E+00  0.8602E+01
      6.065  0.1065E+01  0.8823E+01
      6.273  0.0000E+00  0.9046E+01
      6.480  0.0000E+00  0.9046E+01
      6.688  0.0000E+00  0.9046E+01
      6.895  0.0000E+00  0.9046E+01
      7.103  0.0000E+00  0.9046E+01
      7.310  0.0000E+00  0.9269E+01
      7.518  0.0000E+00  0.9269E+01
      7.725  0.0000E+00  0.9528E+01
      7.933  0.0000E+00  0.9565E+01
      8.141  0.0000E+00  0.9565E+01
      8.348  0.0000E+00  0.9565E+01
      8.556  0.0000E+00  0.9676E+01
      8.763  0.0000E+00  0.9926E+01
      8.971  0.0000E+00  0.9926E+01
      9.178  0.0000E+00  0.9926E+01
      9.386  0.0000E+00  0.1004E+02
      9.593  0.0000E+00  0.1026E+02
      9.801  0.0000E+00  0.1026E+02
     10.008  0.0000E+00  0.1051E+02
     10.216  0.0000E+00  0.1051E+02
     10.424  0.0000E+00  0.1051E+02
     10.631  0.0000E+00  0.1062E+02
     10.839  0.1071E+01  0.1084E+02
     11.046  0.0000E+00  0.1095E+02
     11.254  0.0000E+00  0.1095E+02
     11.461  0.0000E+00  0.1106E+02
     11.669  0.0000E+00  0.1129E+02
     11.876  0.0000E+00  0.1136E+02
     12.084  0.0000E+00  0.1147E+02
     12.292  0.0000E+00  0.1147E+02
     12.499  0.0000E+00  0.1147E+02
     12.707  0.0000E+00  0.1169E+02
     12.914  0.0000E+00  0.1214E+02
     13.122  0.0000E+00  0.1214E+02
     13.329  0.0000E+00  0.1236E+02
     13.537  0.0000E+00  0.1239E+02
     13.744  0.0000E+00  0.1261E+02
     13.952  0.0000E+00  0.1267E+02
     14.160  0.0000E+00  0.1267E+02
     14.367  0.0000E+00  0.1267E+02
     14.575  0.0000E+00  0.1272E+02
     14.782  0.0000E+00  0.1283E+02
     14.990  0.0000E+00  0.1283E+02
     15.197  0.0000E+00  0.1283E+02
     15.405  0.0000E+00  0.1306E+02
     15.612  0.0000E+00  0.1306E+02
     15.820  0.0000E+00  0.1328E+02
     16.028  0.0000E+00  0.1339E+02
     16.235  0.0000E+00  0.1339E+02
     16.443  0.0000E+00  0.1339E+02
     16.650  0.0000E+00  0.1357E+02
     16.858  0.0000E+00  0.1402E+02
     17.065  0.0000E+00  0.1402E+02
     17.273  0.0000E+00  0.1407E+02
     17.480  0.0000E+00  0.1407E+02
     17.688  0.1070E+01  0.1430E+02
     17.896  0.0000E+00  0.1430E+02
     18.103  0.0000E+00  0.1430E+02
     18.311  0.0000E+00  0.1432E+02
     18.518  0.0000E+00  0.1455E+02
     18.726  0.0000E+00  0.1460E+02
     18.933  0.0000E+00  0.1471E+02
     19.141  0.0000E+00  0.1516E+02
     19.348  0.1832E-07  0.1516E+02
     19.556  0.0000E+00  0.1523E+02
     19.764  0.0000E+00  0.1556E+02
     19.971  0.0000E+00  0.1571E+02
     20.179  0.0000E+00  0.1571E+02
     20.386  0.0000E+00  0.1571E+02
     20.594  0.0000E+00  0.1571E+02
     20.801  0.0000E+00  0.1586E+02
     21.009  0.0000E+00  0.1589E+02
     21.216  0.0000E+00  0.1589E+02
     21.424  0.0000E+00  0.1589E+02
     21.632  0.0000E+00  0.1600E+02
     21.839  0.0000E+00  0.1600E+02
     22.047  0.0000E+00  0.1600E+02
     22.254  0.0000E+00  0.1600E+02
     22.462  0.0000E+00  0.1600E+02
     22.669  0.0000E+00  0.1600E+02
     22.877  0.0000E+00  0.1600E+02
     23.084  0.0000E+00  0.1600E+02
     23.292  0.0000E+00  0.1600E+02
     23.500  0.0000E+00  0.1600E+02
     23.707  0.0000E+00  0.1600E+02
     23.915  0.0000E+00  0.1600E+02
     24.122  0.0000E+00  0.1600E+02
     24.330  0.0000E+00  0.1600E+02
