    1    1    1    1
  0.1860393E+02  0.2974221E-09  0.2974221E-09  0.2974221E-09  0.1000000E-15
  1.000000000000000E-004
  CAR 
 Og_FCC                                  
      8    112      8
 
  0.0000000E+00  0.0000000E+00  0.0000000E+00  0.4629630E-02
    1      -35.106378   1.000000
    2      -10.741422   1.000000
    3      -10.741421   1.000000
    4      -10.741421   1.000000
    5        1.200596   0.000000
    6       20.889174   0.000000
    7       20.889177   0.000000
    8       20.889190   0.000000
 
  0.1666667E+00  0.0000000E+00  0.6938894E-17  0.9259259E-02
    1      -35.055655   1.000000
    2      -10.884186   1.000000
    3      -10.389932   1.000000
    4      -10.389932   1.000000
    5        2.142842   0.000000
    6       16.514143   0.000000
    7       20.722529   0.000000
    8       20.722539   0.000000
 
  0.3333333E+00 -0.2775558E-16  0.0000000E+00  0.9259259E-02
    1      -35.013958   1.000000
    2      -11.472944   1.000000
    3      -10.798639   1.000000
    4      -10.798638   1.000000
    5        4.491451   0.000000
    6       11.735095   0.000000
    7       19.839192   0.000000
    8       19.839205   0.000000
 
  0.5000000E+00  0.0000000E+00 -0.2775558E-16  0.4629630E-02
    1      -34.992225   1.000000
    2      -11.926438   1.000000
    3      -10.884926   1.000000
    4      -10.884925   1.000000
    5        7.595146   0.000000
    6        7.795597   0.000000
    7       19.352219   0.000000
    8       19.352231   0.000000
 
  0.0000000E+00  0.1666667E+00  0.6938894E-17  0.9259259E-02
    1      -35.055655   1.000000
    2      -10.884187   1.000000
    3      -10.389932   1.000000
    4      -10.389931   1.000000
    5        2.142842   0.000000
    6       16.514142   0.000000
    7       20.722529   0.000000
    8       20.722539   0.000000
 
  0.1666667E+00  0.1666667E+00  0.0000000E+00  0.9259259E-02
    1      -35.055520   1.000000
    2      -10.871673   1.000000
    3      -10.628936   1.000000
    4      -10.628936   1.000000
    5        2.432648   0.000000
    6       17.182693   0.000000
    7       19.704640   0.000000
    8       19.704652   0.000000
 
  0.3333333E+00  0.1666667E+00  0.2775558E-16  0.9259259E-02
    1      -35.012273   1.000000
    2      -11.340689   1.000000
    3      -10.815443   1.000000
    4      -10.793578   1.000000
    5        4.244499   0.000000
    6       13.565008   0.000000
    7       16.836538   0.000000
    8       19.085887   0.000000
 
  0.5000000E+00  0.1666667E+00  0.5551115E-16  0.9259259E-02
    1      -34.959965   1.000000
    2      -11.659446   1.000000
    3      -10.694107   1.000000
    4      -10.687554   1.000000
    5        7.111108   0.000000
    6        9.557372   0.000000
    7       15.638457   0.000000
    8       18.972206   0.000000
 
 -0.3333333E+00  0.1666667E+00 -0.2081668E-16  0.9259259E-02
    1      -34.979442   1.000000
    2      -11.612915   1.000000
    3      -10.913225   1.000000
    4      -10.713885   1.000000
    5        6.063139   0.000000
    6       10.834008   0.000000
    7       15.273722   0.000000
    8       19.664866   0.000000
 
 -0.1666667E+00  0.1666667E+00 -0.5503056E-17  0.9259259E-02
    1      -35.027143   1.000000
    2      -11.192126   1.000000
    3      -10.759206   1.000000
    4      -10.568697   1.000000
    5        3.507383   0.000000
    6       14.632581   0.000000
    7       16.522802   0.000000
    8       21.499485   0.000000
 
  0.0000000E+00  0.3333333E+00  0.1387779E-16  0.9259259E-02
    1      -35.013958   1.000000
    2      -11.472944   1.000000
    3      -10.798639   1.000000
    4      -10.798638   1.000000
    5        4.491451   0.000000
    6       11.735095   0.000000
    7       19.839192   0.000000
    8       19.839203   0.000000
 
  0.1666667E+00  0.3333333E+00  0.2775558E-16  0.9259259E-02
    1      -35.012273   1.000000
    2      -11.340690   1.000000
    3      -10.815443   1.000000
    4      -10.793578   1.000000
    5        4.244499   0.000000
    6       13.565008   0.000000
    7       16.836538   0.000000
    8       19.085886   0.000000
 
  0.3333333E+00  0.3333333E+00  0.2775558E-16  0.9259259E-02
    1      -34.979545   1.000000
    2      -11.428472   1.000000
    3      -10.823271   1.000000
    4      -10.823270   1.000000
    5        5.373571   0.000000
    6       13.910112   0.000000
    7       14.408221   0.000000
    8       18.551585   0.000000
 
  0.5000000E+00  0.3333333E+00  0.5551115E-16  0.9259259E-02
    1      -34.945495   1.000000
    2      -11.465993   1.000000
    3      -10.943556   1.000000
    4      -10.941165   1.000000
    5        7.608909   0.000000
    6       11.481128   0.000000
    7       12.714491   0.000000
    8       18.387134   0.000000
 
 -0.3333333E+00  0.3333333E+00 -0.3137409E-17  0.9259259E-02
    1      -34.948201   1.000000
    2      -11.356143   1.000000
    3      -11.272673   1.000000
    4      -10.885140   1.000000
    5        8.492522   0.000000
    6       10.969474   0.000000
    7       11.390897   0.000000
    8       18.780047   0.000000
 
 -0.1666667E+00  0.3333333E+00  0.0000000E+00  0.9259259E-02
    1      -34.979442   1.000000
    2      -11.612915   1.000000
    3      -10.913225   1.000000
    4      -10.713885   1.000000
    5        6.063139   0.000000
    6       10.834007   0.000000
    7       15.273722   0.000000
    8       19.664864   0.000000
 
  0.0000000E+00  0.5000000E+00  0.2775558E-16  0.4629630E-02
    1      -34.992225   1.000000
    2      -11.926438   1.000000
    3      -10.884926   1.000000
    4      -10.884924   1.000000
    5        7.595147   0.000000
    6        7.795596   0.000000
    7       19.352218   0.000000
    8       19.352229   0.000000
 
  0.1666667E+00  0.5000000E+00  0.5551115E-16  0.9259259E-02
    1      -34.959965   1.000000
    2      -11.659446   1.000000
    3      -10.694107   1.000000
    4      -10.687554   1.000000
    5        7.111108   0.000000
    6        9.557371   0.000000
    7       15.638457   0.000000
    8       18.972205   0.000000
 
  0.3333333E+00  0.5000000E+00  0.0000000E+00  0.9259259E-02
    1      -34.945495   1.000000
    2      -11.465993   1.000000
    3      -10.943556   1.000000
    4      -10.941165   1.000000
    5        7.608909   0.000000
    6       11.481127   0.000000
    7       12.714492   0.000000
    8       18.387134   0.000000
 
  0.5000000E+00  0.5000000E+00  0.0000000E+00  0.4629630E-02
    1      -34.946815   1.000000
    2      -11.700864   1.000000
    3      -11.018865   1.000000
    4      -11.018864   1.000000
    5        8.593826   0.000000
    6        9.911827   0.000000
    7       13.473975   0.000000
    8       18.174611   0.000000
 
  0.0000000E+00  0.0000000E+00  0.1666667E+00  0.9259259E-02
    1      -35.055655   1.000000
    2      -10.884187   1.000000
    3      -10.389932   1.000000
    4      -10.389931   1.000000
    5        2.142842   0.000000
    6       16.514146   0.000000
    7       20.722522   0.000000
    8       20.722531   0.000000
 
  0.1666667E+00  0.0000000E+00  0.1666667E+00  0.9259259E-02
    1      -35.055520   1.000000
    2      -10.871673   1.000000
    3      -10.628936   1.000000
    4      -10.628936   1.000000
    5        2.432648   0.000000
    6       17.182691   0.000000
    7       19.704643   0.000000
    8       19.704652   0.000000
 
  0.3333333E+00 -0.2775558E-16  0.1666667E+00  0.9259259E-02
    1      -35.012273   1.000000
    2      -11.340690   1.000000
    3      -10.815443   1.000000
    4      -10.793578   1.000000
    5        4.244499   0.000000
    6       13.565006   0.000000
    7       16.836541   0.000000
    8       19.085880   0.000000
 
  0.5000000E+00  0.0000000E+00  0.1666667E+00  0.9259259E-02
    1      -34.959965   1.000000
    2      -11.659446   1.000000
    3      -10.694107   1.000000
    4      -10.687554   1.000000
    5        7.111108   0.000000
    6        9.557371   0.000000
    7       15.638458   0.000000
    8       18.972200   0.000000
 
 -0.3333333E+00  0.2775558E-16  0.1666667E+00  0.9259259E-02
    1      -34.979442   1.000000
    2      -11.612915   1.000000
    3      -10.913225   1.000000
    4      -10.713885   1.000000
    5        6.063139   0.000000
    6       10.834008   0.000000
    7       15.273722   0.000000
    8       19.664860   0.000000
 
 -0.1666667E+00  0.0000000E+00  0.1666667E+00  0.9259259E-02
    1      -35.027143   1.000000
    2      -11.192125   1.000000
    3      -10.759206   1.000000
    4      -10.568697   1.000000
    5        3.507382   0.000000
    6       14.632584   0.000000
    7       16.522799   0.000000
    8       21.499480   0.000000
 
  0.0000000E+00  0.1666667E+00  0.1666667E+00  0.9259259E-02
    1      -35.055520   1.000000
    2      -10.871673   1.000000
    3      -10.628936   1.000000
    4      -10.628936   1.000000
    5        2.432649   0.000000
    6       17.182693   0.000000
    7       19.704642   0.000000
    8       19.704651   0.000000
 
  0.1666667E+00  0.1666667E+00  0.1666667E+00  0.9259259E-02
    1      -35.055655   1.000000
    2      -10.884188   1.000000
    3      -10.389932   1.000000
    4      -10.389931   1.000000
    5        2.142843   0.000000
    6       16.514144   0.000000
    7       20.722533   0.000000
    8       20.722546   0.000000
 
  0.3333333E+00  0.1666667E+00  0.1666667E+00  0.9259259E-02
    1      -35.027143   1.000000
    2      -11.192127   1.000000
    3      -10.759206   1.000000
    4      -10.568696   1.000000
    5        3.507383   0.000000
    6       14.632581   0.000000
    7       16.522814   0.000000
    8       21.499485   0.000000
 
  0.5000000E+00  0.1666667E+00  0.1666667E+00  0.9259259E-02
    1      -34.979442   1.000000
    2      -11.612915   1.000000
    3      -10.913226   1.000000
    4      -10.713884   1.000000
    5        6.063139   0.000000
    6       10.834009   0.000000
    7       15.273731   0.000000
    8       19.664859   0.000000
 
 -0.3333333E+00  0.1666667E+00  0.1666667E+00  0.9259259E-02
    1      -34.959965   1.000000
    2      -11.659446   1.000000
    3      -10.694108   1.000000
    4      -10.687553   1.000000
    5        7.111109   0.000000
    6        9.557370   0.000000
    7       15.638466   0.000000
    8       18.972199   0.000000
 
 -0.1666667E+00  0.1666667E+00  0.1666667E+00  0.9259259E-02
    1      -35.012273   1.000000
    2      -11.340689   1.000000
    3      -10.815444   1.000000
    4      -10.793578   1.000000
    5        4.244499   0.000000
    6       13.565004   0.000000
    7       16.836544   0.000000
    8       19.085883   0.000000
 
  0.0000000E+00  0.3333333E+00  0.1666667E+00  0.9259259E-02
    1      -35.012273   1.000000
    2      -11.340690   1.000000
    3      -10.815443   1.000000
    4      -10.793578   1.000000
    5        4.244499   0.000000
    6       13.565007   0.000000
    7       16.836540   0.000000
    8       19.085878   0.000000
 
  0.1666667E+00  0.3333333E+00  0.1666667E+00  0.9259259E-02
    1      -35.027143   1.000000
    2      -11.192127   1.000000
    3      -10.759206   1.000000
    4      -10.568696   1.000000
    5        3.507383   0.000000
    6       14.632582   0.000000
    7       16.522811   0.000000
    8       21.499484   0.000000
 
  0.3333333E+00  0.3333333E+00  0.1666667E+00  0.9259259E-02
    1      -35.012273   1.000000
    2      -11.340690   1.000000
    3      -10.815443   1.000000
    4      -10.793578   1.000000
    5        4.244499   0.000000
    6       13.565008   0.000000
    7       16.836550   0.000000
    8       19.085881   0.000000
 
  0.5000000E+00  0.3333333E+00  0.1666667E+00  0.9259259E-02
    1      -34.974181   1.000000
    2      -11.641247   1.000000
    3      -10.955633   1.000000
    4      -10.872758   1.000000
    5        6.226341   0.000000
    6       12.586572   0.000000
    7       13.283900   0.000000
    8       17.685768   0.000000
 
 -0.3333333E+00  0.3333333E+00  0.1666667E+00  0.9259259E-02
    1      -34.946829   1.000000
    2      -11.524465   1.000000
    3      -11.207891   1.000000
    4      -10.734681   1.000000
    5        8.674728   0.000000
    6        9.864231   0.000000
    7       12.873894   0.000000
    8       16.735247   0.000000
 
 -0.1666667E+00  0.3333333E+00  0.1666667E+00  0.9259259E-02
    1      -34.974181   1.000000
    2      -11.641246   1.000000
    3      -10.955633   1.000000
    4      -10.872759   1.000000
    5        6.226342   0.000000
    6       12.586573   0.000000
    7       13.283888   0.000000
    8       17.685776   0.000000
 
  0.0000000E+00  0.5000000E+00  0.1666667E+00  0.9259259E-02
    1      -34.959965   1.000000
    2      -11.659446   1.000000
    3      -10.694107   1.000000
    4      -10.687554   1.000000
    5        7.111108   0.000000
    6        9.557371   0.000000
    7       15.638457   0.000000
    8       18.972199   0.000000
 
  0.1666667E+00  0.5000000E+00  0.1666667E+00  0.9259259E-02
    1      -34.979442   1.000000
    2      -11.612915   1.000000
    3      -10.913226   1.000000
    4      -10.713884   1.000000
    5        6.063139   0.000000
    6       10.834009   0.000000
    7       15.273730   0.000000
    8       19.664858   0.000000
 
  0.3333333E+00  0.5000000E+00  0.1666667E+00  0.9259259E-02
    1      -34.974181   1.000000
    2      -11.641247   1.000000
    3      -10.955633   1.000000
    4      -10.872758   1.000000
    5        6.226341   0.000000
    6       12.586573   0.000000
    7       13.283898   0.000000
    8       17.685767   0.000000
 
  0.5000000E+00  0.5000000E+00  0.1666667E+00  0.9259259E-02
    1      -34.945495   1.000000
    2      -11.465994   1.000000
    3      -10.943556   1.000000
    4      -10.941164   1.000000
    5        7.608908   0.000000
    6       11.481130   0.000000
    7       12.714497   0.000000
    8       18.387125   0.000000
 
 -0.3333333E+00  0.5000000E+00  0.1666667E+00  0.9259259E-02
    1      -34.931822   1.000000
    2      -11.444157   1.000000
    3      -10.967107   1.000000
    4      -10.904082   1.000000
    5        9.345638   0.000000
    6       10.434160   0.000000
    7       11.963131   0.000000
    8       15.834078   0.000000
 
 -0.1666667E+00  0.5000000E+00  0.1666667E+00  0.9259259E-02
    1      -34.946829   1.000000
    2      -11.524465   1.000000
    3      -11.207889   1.000000
    4      -10.734682   1.000000
    5        8.674731   0.000000
    6        9.864231   0.000000
    7       12.873882   0.000000
    8       16.735256   0.000000
 
  0.0000000E+00 -0.3333333E+00  0.1666667E+00  0.9259259E-02
    1      -34.979442   1.000000
    2      -11.612915   1.000000
    3      -10.913225   1.000000
    4      -10.713884   1.000000
    5        6.063139   0.000000
    6       10.834008   0.000000
    7       15.273722   0.000000
    8       19.664859   0.000000
 
  0.1666667E+00 -0.3333333E+00  0.1666667E+00  0.9259259E-02
    1      -34.959965   1.000000
    2      -11.659446   1.000000
    3      -10.694108   1.000000
    4      -10.687553   1.000000
    5        7.111109   0.000000
    6        9.557369   0.000000
    7       15.638465   0.000000
    8       18.972199   0.000000
 
  0.3333333E+00 -0.3333333E+00  0.1666667E+00  0.9259259E-02
    1      -34.946829   1.000000
    2      -11.524465   1.000000
    3      -11.207891   1.000000
    4      -10.734681   1.000000
    5        8.674729   0.000000
    6        9.864230   0.000000
    7       12.873894   0.000000
    8       16.735246   0.000000
 
  0.5000000E+00 -0.3333333E+00  0.1666667E+00  0.9259259E-02
    1      -34.931822   1.000000
    2      -11.444157   1.000000
    3      -10.967107   1.000000
    4      -10.904082   1.000000
    5        9.345638   0.000000
    6       10.434160   0.000000
    7       11.963132   0.000000
    8       15.834075   0.000000
 
 -0.3333333E+00 -0.3333333E+00  0.1666667E+00  0.9259259E-02
    1      -34.945495   1.000000
    2      -11.465993   1.000000
    3      -10.943557   1.000000
    4      -10.941164   1.000000
    5        7.608910   0.000000
    6       11.481116   0.000000
    7       12.714505   0.000000
    8       18.387123   0.000000
 
 -0.1666667E+00 -0.3333333E+00  0.1666667E+00  0.9259259E-02
    1      -34.974181   1.000000
    2      -11.641246   1.000000
    3      -10.955633   1.000000
    4      -10.872759   1.000000
    5        6.226342   0.000000
    6       12.586573   0.000000
    7       13.283887   0.000000
    8       17.685776   0.000000
 
  0.0000000E+00 -0.1666667E+00  0.1666667E+00  0.9259259E-02
    1      -35.027143   1.000000
    2      -11.192126   1.000000
    3      -10.759206   1.000000
    4      -10.568697   1.000000
    5        3.507382   0.000000
    6       14.632583   0.000000
    7       16.522800   0.000000
    8       21.499479   0.000000
 
  0.1666667E+00 -0.1666667E+00  0.1666667E+00  0.9259259E-02
    1      -35.012273   1.000000
    2      -11.340689   1.000000
    3      -10.815444   1.000000
    4      -10.793577   1.000000
    5        4.244499   0.000000
    6       13.565004   0.000000
    7       16.836543   0.000000
    8       19.085883   0.000000
 
  0.3333333E+00 -0.1666667E+00  0.1666667E+00  0.9259259E-02
    1      -34.974181   1.000000
    2      -11.641246   1.000000
    3      -10.955633   1.000000
    4      -10.872759   1.000000
    5        6.226342   0.000000
    6       12.586572   0.000000
    7       13.283889   0.000000
    8       17.685775   0.000000
 
  0.5000000E+00 -0.1666667E+00  0.1666667E+00  0.9259259E-02
    1      -34.946829   1.000000
    2      -11.524465   1.000000
    3      -11.207890   1.000000
    4      -10.734682   1.000000
    5        8.674730   0.000000
    6        9.864232   0.000000
    7       12.873883   0.000000
    8       16.735254   0.000000
 
 -0.3333333E+00 -0.1666667E+00  0.1666667E+00  0.9259259E-02
    1      -34.974181   1.000000
    2      -11.641245   1.000000
    3      -10.955633   1.000000
    4      -10.872759   1.000000
    5        6.226342   0.000000
    6       12.586574   0.000000
    7       13.283887   0.000000
    8       17.685774   0.000000
 
 -0.1666667E+00 -0.1666667E+00  0.1666667E+00  0.9259259E-02
    1      -35.012273   1.000000
    2      -11.340689   1.000000
    3      -10.815444   1.000000
    4      -10.793577   1.000000
    5        4.244498   0.000000
    6       13.565005   0.000000
    7       16.836544   0.000000
    8       19.085873   0.000000
 
  0.0000000E+00  0.0000000E+00  0.3333333E+00  0.9259259E-02
    1      -35.013958   1.000000
    2      -11.472944   1.000000
    3      -10.798639   1.000000
    4      -10.798638   1.000000
    5        4.491450   0.000000
    6       11.735095   0.000000
    7       19.839184   0.000000
    8       19.839199   0.000000
 
  0.1666667E+00  0.0000000E+00  0.3333333E+00  0.9259259E-02
    1      -35.012273   1.000000
    2      -11.340689   1.000000
    3      -10.815443   1.000000
    4      -10.793578   1.000000
    5        4.244498   0.000000
    6       13.565007   0.000000
    7       16.836539   0.000000
    8       19.085879   0.000000
 
  0.3333333E+00 -0.2775558E-16  0.3333333E+00  0.9259259E-02
    1      -34.979545   1.000000
    2      -11.428472   1.000000
    3      -10.823271   1.000000
    4      -10.823270   1.000000
    5        5.373571   0.000000
    6       13.910112   0.000000
    7       14.408219   0.000000
    8       18.551581   0.000000
 
  0.5000000E+00  0.0000000E+00  0.3333333E+00  0.9259259E-02
    1      -34.945495   1.000000
    2      -11.465994   1.000000
    3      -10.943556   1.000000
    4      -10.941165   1.000000
    5        7.608909   0.000000
    6       11.481128   0.000000
    7       12.714489   0.000000
    8       18.387127   0.000000
 
 -0.3333333E+00  0.2775558E-16  0.3333333E+00  0.9259259E-02
    1      -34.948201   1.000000
    2      -11.356143   1.000000
    3      -11.272673   1.000000
    4      -10.885139   1.000000
    5        8.492522   0.000000
    6       10.969475   0.000000
    7       11.390894   0.000000
    8       18.780041   0.000000
 
 -0.1666667E+00  0.0000000E+00  0.3333333E+00  0.9259259E-02
    1      -34.979442   1.000000
    2      -11.612914   1.000000
    3      -10.913225   1.000000
    4      -10.713885   1.000000
    5        6.063139   0.000000
    6       10.834008   0.000000
    7       15.273721   0.000000
    8       19.664858   0.000000
 
  0.0000000E+00  0.1666667E+00  0.3333333E+00  0.9259259E-02
    1      -35.012273   1.000000
    2      -11.340689   1.000000
    3      -10.815443   1.000000
    4      -10.793578   1.000000
    5        4.244498   0.000000
    6       13.565008   0.000000
    7       16.836538   0.000000
    8       19.085878   0.000000
 
  0.1666667E+00  0.1666667E+00  0.3333333E+00  0.9259259E-02
    1      -35.027143   1.000000
    2      -11.192127   1.000000
    3      -10.759206   1.000000
    4      -10.568696   1.000000
    5        3.507383   0.000000
    6       14.632583   0.000000
    7       16.522811   0.000000
    8       21.499478   0.000000
 
  0.3333333E+00  0.1666667E+00  0.3333333E+00  0.9259259E-02
    1      -35.012273   1.000000
    2      -11.340690   1.000000
    3      -10.815443   1.000000
    4      -10.793578   1.000000
    5        4.244499   0.000000
    6       13.565008   0.000000
    7       16.836547   0.000000
    8       19.085891   0.000000
 
  0.5000000E+00  0.1666667E+00  0.3333333E+00  0.9259259E-02
    1      -34.974181   1.000000
    2      -11.641247   1.000000
    3      -10.955633   1.000000
    4      -10.872758   1.000000
    5        6.226341   0.000000
    6       12.586572   0.000000
    7       13.283900   0.000000
    8       17.685768   0.000000
 
 -0.3333333E+00  0.1666667E+00  0.3333333E+00  0.9259259E-02
    1      -34.946829   1.000000
    2      -11.524465   1.000000
    3      -11.207891   1.000000
    4      -10.734681   1.000000
    5        8.674728   0.000000
    6        9.864231   0.000000
    7       12.873894   0.000000
    8       16.735246   0.000000
 
 -0.1666667E+00  0.1666667E+00  0.3333333E+00  0.9259259E-02
    1      -34.974181   1.000000
    2      -11.641245   1.000000
    3      -10.955633   1.000000
    4      -10.872759   1.000000
    5        6.226342   0.000000
    6       12.586574   0.000000
    7       13.283887   0.000000
    8       17.685775   0.000000
 
  0.0000000E+00  0.3333333E+00  0.3333333E+00  0.9259259E-02
    1      -34.979545   1.000000
    2      -11.428472   1.000000
    3      -10.823271   1.000000
    4      -10.823270   1.000000
    5        5.373571   0.000000
    6       13.910111   0.000000
    7       14.408221   0.000000
    8       18.551577   0.000000
 
  0.1666667E+00  0.3333333E+00  0.3333333E+00  0.9259259E-02
    1      -35.012273   1.000000
    2      -11.340690   1.000000
    3      -10.815443   1.000000
    4      -10.793578   1.000000
    5        4.244499   0.000000
    6       13.565009   0.000000
    7       16.836547   0.000000
    8       19.085890   0.000000
 
  0.3333333E+00  0.3333333E+00  0.3333333E+00  0.9259259E-02
    1      -35.013958   1.000000
    2      -11.472945   1.000000
    3      -10.798638   1.000000
    4      -10.798638   1.000000
    5        4.491452   0.000000
    6       11.735097   0.000000
    7       19.839205   0.000000
    8       19.839215   0.000000
 
  0.5000000E+00  0.3333333E+00  0.3333333E+00  0.9259259E-02
    1      -34.979442   1.000000
    2      -11.612917   1.000000
    3      -10.913225   1.000000
    4      -10.713884   1.000000
    5        6.063139   0.000000
    6       10.834012   0.000000
    7       15.273731   0.000000
    8       19.664870   0.000000
 
 -0.3333333E+00  0.3333333E+00  0.3333333E+00  0.9259259E-02
    1      -34.948201   1.000000
    2      -11.356144   1.000000
    3      -11.272673   1.000000
    4      -10.885139   1.000000
    5        8.492517   0.000000
    6       10.969473   0.000000
    7       11.390913   0.000000
    8       18.780047   0.000000
 
 -0.1666667E+00  0.3333333E+00  0.3333333E+00  0.9259259E-02
    1      -34.945495   1.000000
    2      -11.465993   1.000000
    3      -10.943557   1.000000
    4      -10.941165   1.000000
    5        7.608910   0.000000
    6       11.481117   0.000000
    7       12.714506   0.000000
    8       18.387132   0.000000
 
  0.0000000E+00  0.5000000E+00  0.3333333E+00  0.9259259E-02
    1      -34.945495   1.000000
    2      -11.465993   1.000000
    3      -10.943556   1.000000
    4      -10.941165   1.000000
    5        7.608909   0.000000
    6       11.481128   0.000000
    7       12.714490   0.000000
    8       18.387125   0.000000
 
  0.1666667E+00  0.5000000E+00  0.3333333E+00  0.9259259E-02
    1      -34.974181   1.000000
    2      -11.641247   1.000000
    3      -10.955633   1.000000
    4      -10.872758   1.000000
    5        6.226341   0.000000
    6       12.586573   0.000000
    7       13.283898   0.000000
    8       17.685768   0.000000
 
  0.3333333E+00  0.5000000E+00  0.3333333E+00  0.9259259E-02
    1      -34.979442   1.000000
    2      -11.612917   1.000000
    3      -10.913225   1.000000
    4      -10.713884   1.000000
    5        6.063139   0.000000
    6       10.834012   0.000000
    7       15.273729   0.000000
    8       19.664870   0.000000
 
  0.5000000E+00  0.5000000E+00  0.3333333E+00  0.9259259E-02
    1      -34.959965   1.000000
    2      -11.659448   1.000000
    3      -10.694107   1.000000
    4      -10.687553   1.000000
    5        7.111107   0.000000
    6        9.557376   0.000000
    7       15.638467   0.000000
    8       18.972203   0.000000
 
 -0.3333333E+00  0.5000000E+00  0.3333333E+00  0.9259259E-02
    1      -34.946829   1.000000
    2      -11.524467   1.000000
    3      -11.207890   1.000000
    4      -10.734681   1.000000
    5        8.674719   0.000000
    6        9.864245   0.000000
    7       12.873894   0.000000
    8       16.735245   0.000000
 
 -0.1666667E+00  0.5000000E+00  0.3333333E+00  0.9259259E-02
    1      -34.931822   1.000000
    2      -11.444157   1.000000
    3      -10.967107   1.000000
    4      -10.904082   1.000000
    5        9.345638   0.000000
    6       10.434160   0.000000
    7       11.963131   0.000000
    8       15.834078   0.000000
 
  0.0000000E+00 -0.3333333E+00  0.3333333E+00  0.9259259E-02
    1      -34.948201   1.000000
    2      -11.356143   1.000000
    3      -11.272673   1.000000
    4      -10.885139   1.000000
    5        8.492522   0.000000
    6       10.969474   0.000000
    7       11.390895   0.000000
    8       18.780040   0.000000
 
  0.1666667E+00 -0.3333333E+00  0.3333333E+00  0.9259259E-02
    1      -34.946829   1.000000
    2      -11.524465   1.000000
    3      -11.207891   1.000000
    4      -10.734681   1.000000
    5        8.674729   0.000000
    6        9.864230   0.000000
    7       12.873893   0.000000
    8       16.735247   0.000000
 
  0.3333333E+00 -0.3333333E+00  0.3333333E+00  0.9259259E-02
    1      -34.948201   1.000000
    2      -11.356144   1.000000
    3      -11.272673   1.000000
    4      -10.885139   1.000000
    5        8.492517   0.000000
    6       10.969475   0.000000
    7       11.390910   0.000000
    8       18.780047   0.000000
 
  0.5000000E+00 -0.3333333E+00  0.3333333E+00  0.9259259E-02
    1      -34.946829   1.000000
    2      -11.524467   1.000000
    3      -11.207890   1.000000
    4      -10.734681   1.000000
    5        8.674719   0.000000
    6        9.864245   0.000000
    7       12.873893   0.000000
    8       16.735244   0.000000
 
 -0.3333333E+00 -0.3333333E+00  0.3333333E+00  0.9259259E-02
    1      -34.948201   1.000000
    2      -11.356144   1.000000
    3      -11.272673   1.000000
    4      -10.885139   1.000000
    5        8.492517   0.000000
    6       10.969474   0.000000
    7       11.390910   0.000000
    8       18.780038   0.000000
 
 -0.1666667E+00 -0.3333333E+00  0.3333333E+00  0.9259259E-02
    1      -34.946829   1.000000
    2      -11.524465   1.000000
    3      -11.207891   1.000000
    4      -10.734681   1.000000
    5        8.674730   0.000000
    6        9.864228   0.000000
    7       12.873893   0.000000
    8       16.735247   0.000000
 
  0.0000000E+00 -0.1666667E+00  0.3333333E+00  0.9259259E-02
    1      -34.979442   1.000000
    2      -11.612915   1.000000
    3      -10.913225   1.000000
    4      -10.713884   1.000000
    5        6.063139   0.000000
    6       10.834007   0.000000
    7       15.273721   0.000000
    8       19.664858   0.000000
 
  0.1666667E+00 -0.1666667E+00  0.3333333E+00  0.9259259E-02
    1      -34.974181   1.000000
    2      -11.641246   1.000000
    3      -10.955633   1.000000
    4      -10.872759   1.000000
    5        6.226342   0.000000
    6       12.586573   0.000000
    7       13.283887   0.000000
    8       17.685776   0.000000
 
  0.3333333E+00 -0.1666667E+00  0.3333333E+00  0.9259259E-02
    1      -34.945495   1.000000
    2      -11.465993   1.000000
    3      -10.943557   1.000000
    4      -10.941164   1.000000
    5        7.608910   0.000000
    6       11.481117   0.000000
    7       12.714504   0.000000
    8       18.387132   0.000000
 
  0.5000000E+00 -0.1666667E+00  0.3333333E+00  0.9259259E-02
    1      -34.931822   1.000000
    2      -11.444157   1.000000
    3      -10.967107   1.000000
    4      -10.904082   1.000000
    5        9.345637   0.000000
    6       10.434161   0.000000
    7       11.963131   0.000000
    8       15.834076   0.000000
 
 -0.3333333E+00 -0.1666667E+00  0.3333333E+00  0.9259259E-02
    1      -34.946829   1.000000
    2      -11.524465   1.000000
    3      -11.207891   1.000000
    4      -10.734681   1.000000
    5        8.674729   0.000000
    6        9.864228   0.000000
    7       12.873894   0.000000
    8       16.735245   0.000000
 