   1   1   0   0
  0.2224118E+02  0.3156634E-09  0.3156634E-09  0.3156634E-09  0.1000000E-15
  1.000000000000000E-004
  CAR 
 Og_FCC                                  
    193.20965617    -46.39981342  301    -10.85774210      1.00000000
    -46.400  0.0000E+00  0.0000E+00
    -45.601  0.0000E+00  0.0000E+00
    -44.802  0.0000E+00  0.0000E+00
    -44.004  0.0000E+00  0.0000E+00
    -43.205  0.0000E+00  0.0000E+00
    -42.406  0.0000E+00  0.0000E+00
    -41.608  0.0000E+00  0.0000E+00
    -40.809  0.0000E+00  0.0000E+00
    -40.010  0.0000E+00  0.0000E+00
    -39.212  0.0000E+00  0.0000E+00
    -38.413  0.0000E+00  0.0000E+00
    -37.614  0.0000E+00  0.0000E+00
    -36.815  0.0000E+00  0.0000E+00
    -36.017  0.0000E+00  0.0000E+00
    -35.218  0.0000E+00  0.2000E+01
    -34.419  0.0000E+00  0.2000E+01
    -33.621  0.0000E+00  0.2000E+01
    -32.822  0.0000E+00  0.2000E+01
    -32.023  0.0000E+00  0.2000E+01
    -31.225  0.0000E+00  0.2000E+01
    -30.426  0.0000E+00  0.2000E+01
    -29.627  0.0000E+00  0.2000E+01
    -28.828  0.0000E+00  0.2000E+01
    -28.030  0.0000E+00  0.2000E+01
    -27.231  0.0000E+00  0.2000E+01
    -26.432  0.0000E+00  0.2000E+01
    -25.634  0.0000E+00  0.2000E+01
    -24.835  0.0000E+00  0.2000E+01
    -24.036  0.0000E+00  0.2000E+01
    -23.238  0.0000E+00  0.2000E+01
    -22.439  0.0000E+00  0.2000E+01
    -21.640  0.0000E+00  0.2000E+01
    -20.841  0.0000E+00  0.2000E+01
    -20.043  0.0000E+00  0.2000E+01
    -19.244  0.0000E+00  0.2000E+01
    -18.445  0.0000E+00  0.2000E+01
    -17.647  0.0000E+00  0.2000E+01
    -16.848  0.0000E+00  0.2000E+01
    -16.049  0.0000E+00  0.2000E+01
    -15.251  0.0000E+00  0.2000E+01
    -14.452  0.0000E+00  0.2000E+01
    -13.653  0.0000E+00  0.2000E+01
    -12.854  0.0000E+00  0.2000E+01
    -12.056  0.0000E+00  0.2000E+01
    -11.257  0.0000E+00  0.7983E+01
    -10.458  0.0000E+00  0.8000E+01
     -9.660  0.0000E+00  0.8000E+01
     -8.861  0.0000E+00  0.8000E+01
     -8.062  0.0000E+00  0.8000E+01
     -7.264  0.0000E+00  0.8000E+01
     -6.465  0.0000E+00  0.8000E+01
     -5.666  0.0000E+00  0.8000E+01
     -4.868  0.0000E+00  0.8000E+01
     -4.069  0.0000E+00  0.8000E+01
     -3.270  0.0000E+00  0.8000E+01
     -2.471  0.0000E+00  0.8000E+01
     -1.673  0.0000E+00  0.8000E+01
     -0.874  0.0000E+00  0.8000E+01
     -0.075  0.0000E+00  0.8000E+01
      0.723  0.0000E+00  0.8006E+01
      1.522  0.0000E+00  0.8087E+01
      2.321  0.0000E+00  0.8157E+01
      3.119  0.0000E+00  0.8344E+01
      3.918  0.0000E+00  0.8659E+01
      4.717  0.0000E+00  0.8799E+01
      5.516  0.0000E+00  0.8985E+01
      6.314  0.0000E+00  0.9510E+01
      7.113  0.0000E+00  0.9790E+01
      7.912  0.0000E+00  0.1019E+02
      8.710  0.0000E+00  0.1040E+02
      9.509  0.0000E+00  0.1096E+02
     10.308  0.0000E+00  0.1148E+02
     11.106  0.0000E+00  0.1204E+02
     11.905  0.0000E+00  0.1251E+02
     12.704  0.0000E+00  0.1296E+02
     13.503  0.0000E+00  0.1307E+02
     14.301  0.0000E+00  0.1366E+02
     15.100  0.0000E+00  0.1385E+02
     15.899  0.2697E-09  0.1458E+02
     16.697  0.0000E+00  0.1535E+02
     17.496  0.0000E+00  0.1601E+02
     18.295  0.0000E+00  0.1633E+02
     19.093  0.0000E+00  0.1706E+02
     19.892  0.0000E+00  0.1739E+02
     20.691  0.0000E+00  0.1785E+02
     21.490  0.0000E+00  0.1817E+02
     22.288  0.0000E+00  0.1891E+02
     23.087  0.0000E+00  0.1970E+02
     23.886  0.8861E-02  0.2047E+02
     24.684  0.0000E+00  0.2091E+02
     25.483  0.0000E+00  0.2166E+02
     26.282  0.0000E+00  0.2250E+02
     27.080  0.1752E+00  0.2348E+02
     27.879  0.0000E+00  0.2431E+02
     28.678  0.0000E+00  0.2495E+02
     29.477  0.0000E+00  0.2616E+02
     30.275  0.0000E+00  0.2690E+02
     31.074  0.0000E+00  0.2764E+02
     31.873  0.8761E-01  0.2813E+02
     32.671  0.0000E+00  0.2841E+02
     33.470  0.0000E+00  0.2927E+02
     34.269  0.1550E-03  0.2990E+02
     35.067  0.0000E+00  0.3107E+02
     35.866  0.0000E+00  0.3131E+02
     36.665  0.0000E+00  0.3190E+02
     37.464  0.0000E+00  0.3266E+02
     38.262  0.0000E+00  0.3354E+02
     39.061  0.0000E+00  0.3438E+02
     39.860  0.1315E+00  0.3515E+02
     40.658  0.0000E+00  0.3613E+02
     41.457  0.0000E+00  0.3693E+02
     42.256  0.0000E+00  0.3805E+02
     43.054  0.1752E+00  0.3871E+02
     43.853  0.0000E+00  0.3960E+02
     44.652  0.0000E+00  0.4016E+02
     45.450  0.0000E+00  0.4108E+02
     46.249  0.0000E+00  0.4183E+02
     47.048  0.0000E+00  0.4242E+02
     47.847  0.0000E+00  0.4405E+02
     48.645  0.0000E+00  0.4475E+02
     49.444  0.0000E+00  0.4536E+02
     50.243  0.0000E+00  0.4665E+02
     51.041  0.0000E+00  0.4735E+02
     51.840  0.0000E+00  0.4827E+02
     52.639  0.0000E+00  0.4899E+02
     53.437  0.0000E+00  0.4998E+02
     54.236  0.0000E+00  0.5081E+02
     55.035  0.0000E+00  0.5245E+02
     55.834  0.0000E+00  0.5315E+02
     56.632  0.0000E+00  0.5430E+02
     57.431  0.1139E+00  0.5492E+02
     58.230  0.0000E+00  0.5619E+02
     59.028  0.0000E+00  0.5744E+02
     59.827  0.0000E+00  0.5852E+02
     60.626  0.0000E+00  0.5957E+02
     61.424  0.0000E+00  0.6027E+02
     62.223  0.0000E+00  0.6121E+02
     63.022  0.0000E+00  0.6244E+02
     63.821  0.0000E+00  0.6317E+02
     64.619  0.0000E+00  0.6412E+02
     65.418  0.8761E-01  0.6533E+02
     66.217  0.0000E+00  0.6596E+02
     67.015  0.8761E-01  0.6696E+02
     67.814  0.0000E+00  0.6785E+02
     68.613  0.0000E+00  0.6910E+02
     69.411  0.9661E-15  0.7003E+02
     70.210  0.0000E+00  0.7108E+02
     71.009  0.0000E+00  0.7212E+02
     71.808  0.0000E+00  0.7304E+02
     72.606  0.0000E+00  0.7422E+02
     73.405  0.0000E+00  0.7554E+02
     74.204  0.0000E+00  0.7690E+02
     75.002  0.0000E+00  0.7770E+02
     75.801  0.0000E+00  0.7937E+02
     76.600  0.0000E+00  0.8005E+02
     77.398  0.0000E+00  0.8109E+02
     78.197  0.2744E-08  0.8183E+02
     78.996  0.5816E-01  0.8261E+02
     79.795  0.0000E+00  0.8336E+02
     80.593  0.0000E+00  0.8502E+02
     81.392  0.0000E+00  0.8669E+02
     82.191  0.0000E+00  0.8818E+02
     82.989  0.0000E+00  0.8888E+02
     83.788  0.0000E+00  0.9005E+02
     84.587  0.6540E-02  0.9084E+02
     85.385  0.0000E+00  0.9234E+02
     86.184  0.1752E+00  0.9371E+02
     86.983  0.0000E+00  0.9517E+02
     87.781  0.0000E+00  0.9622E+02
     88.580  0.0000E+00  0.9716E+02
     89.379  0.0000E+00  0.9849E+02
     90.178  0.0000E+00  0.1002E+03
     90.976  0.0000E+00  0.1006E+03
     91.775  0.0000E+00  0.1011E+03
     92.574  0.0000E+00  0.1026E+03
     93.372  0.0000E+00  0.1044E+03
     94.171  0.0000E+00  0.1063E+03
     94.970  0.1651E+00  0.1076E+03
     95.768  0.0000E+00  0.1084E+03
     96.567  0.0000E+00  0.1096E+03
     97.366  0.1750E+00  0.1108E+03
     98.165  0.0000E+00  0.1116E+03
     98.963  0.0000E+00  0.1125E+03
     99.762  0.0000E+00  0.1140E+03
    100.561  0.0000E+00  0.1156E+03
    101.359  0.1159E-15  0.1163E+03
    102.158  0.0000E+00  0.1176E+03
    102.957  0.1560E+00  0.1194E+03
    103.755  0.0000E+00  0.1204E+03
    104.554  0.0000E+00  0.1221E+03
    105.353  0.0000E+00  0.1239E+03
    106.152  0.4380E-01  0.1246E+03
    106.950  0.0000E+00  0.1254E+03
    107.749  0.0000E+00  0.1264E+03
    108.548  0.0000E+00  0.1281E+03
    109.346  0.0000E+00  0.1296E+03
    110.145  0.0000E+00  0.1306E+03
    110.944  0.0000E+00  0.1320E+03
    111.742  0.0000E+00  0.1333E+03
    112.541  0.0000E+00  0.1341E+03
    113.340  0.0000E+00  0.1356E+03
    114.139  0.0000E+00  0.1367E+03
    114.937  0.0000E+00  0.1382E+03
    115.736  0.0000E+00  0.1404E+03
    116.535  0.0000E+00  0.1416E+03
    117.333  0.7481E-15  0.1430E+03
    118.132  0.0000E+00  0.1446E+03
    118.931  0.0000E+00  0.1451E+03
    119.729  0.0000E+00  0.1466E+03
    120.528  0.1752E+00  0.1477E+03
    121.327  0.0000E+00  0.1499E+03
    122.126  0.5647E-01  0.1505E+03
    122.924  0.3504E+00  0.1517E+03
    123.723  0.0000E+00  0.1530E+03
    124.522  0.0000E+00  0.1551E+03
    125.320  0.0000E+00  0.1562E+03
    126.119  0.1752E+00  0.1575E+03
    126.918  0.0000E+00  0.1592E+03
    127.716  0.0000E+00  0.1612E+03
    128.515  0.0000E+00  0.1629E+03
    129.314  0.0000E+00  0.1639E+03
    130.112  0.0000E+00  0.1656E+03
    130.911  0.0000E+00  0.1666E+03
    131.710  0.0000E+00  0.1681E+03
    132.509  0.0000E+00  0.1689E+03
    133.307  0.1752E+00  0.1705E+03
    134.106  0.0000E+00  0.1715E+03
    134.905  0.2294E-02  0.1728E+03
    135.703  0.0000E+00  0.1743E+03
    136.502  0.0000E+00  0.1759E+03
    137.301  0.0000E+00  0.1780E+03
    138.099  0.0000E+00  0.1792E+03
    138.898  0.0000E+00  0.1809E+03
    139.697  0.4380E-01  0.1823E+03
    140.496  0.0000E+00  0.1836E+03
    141.294  0.0000E+00  0.1849E+03
    142.093  0.0000E+00  0.1859E+03
    142.892  0.0000E+00  0.1877E+03
    143.690  0.2759E-07  0.1896E+03
    144.489  0.0000E+00  0.1913E+03
    145.288  0.0000E+00  0.1930E+03
    146.086  0.8761E-01  0.1942E+03
    146.885  0.0000E+00  0.1952E+03
    147.684  0.0000E+00  0.1970E+03
    148.483  0.0000E+00  0.1983E+03
    149.281  0.8702E-01  0.1996E+03
    150.080  0.0000E+00  0.2004E+03
    150.879  0.0000E+00  0.2023E+03
    151.677  0.1752E+00  0.2046E+03
    152.476  0.0000E+00  0.2060E+03
    153.275  0.4380E-01  0.2079E+03
    154.073  0.1752E+00  0.2091E+03
    154.872  0.1481E-05  0.2107E+03
    155.671  0.3069E-01  0.2126E+03
    156.470  0.0000E+00  0.2144E+03
    157.268  0.0000E+00  0.2154E+03
    158.067  0.0000E+00  0.2168E+03
    158.866  0.0000E+00  0.2180E+03
    159.664  0.0000E+00  0.2200E+03
    160.463  0.0000E+00  0.2214E+03
    161.262  0.0000E+00  0.2228E+03
    162.060  0.0000E+00  0.2245E+03
    162.859  0.0000E+00  0.2255E+03
    163.658  0.9814E-14  0.2271E+03
    164.457  0.1240E-08  0.2287E+03
    165.255  0.0000E+00  0.2298E+03
    166.054  0.1752E+00  0.2316E+03
    166.853  0.0000E+00  0.2336E+03
    167.651  0.0000E+00  0.2354E+03
    168.450  0.0000E+00  0.2371E+03
    169.249  0.0000E+00  0.2390E+03
    170.047  0.0000E+00  0.2404E+03
    170.846  0.0000E+00  0.2426E+03
    171.645  0.0000E+00  0.2439E+03
    172.444  0.0000E+00  0.2452E+03
    173.242  0.0000E+00  0.2467E+03
    174.041  0.7625E-05  0.2482E+03
    174.840  0.0000E+00  0.2492E+03
    175.638  0.0000E+00  0.2509E+03
    176.437  0.0000E+00  0.2522E+03
    177.236  0.0000E+00  0.2526E+03
    178.034  0.0000E+00  0.2537E+03
    178.833  0.0000E+00  0.2541E+03
    179.632  0.0000E+00  0.2554E+03
    180.430  0.0000E+00  0.2557E+03
    181.229  0.0000E+00  0.2559E+03
    182.028  0.0000E+00  0.2560E+03
    182.827  0.0000E+00  0.2560E+03
    183.625  0.0000E+00  0.2560E+03
    184.424  0.0000E+00  0.2560E+03
    185.223  0.0000E+00  0.2560E+03
    186.021  0.0000E+00  0.2560E+03
    186.820  0.0000E+00  0.2560E+03
    187.619  0.0000E+00  0.2560E+03
    188.417  0.0000E+00  0.2560E+03
    189.216  0.0000E+00  0.2560E+03
    190.015  0.0000E+00  0.2560E+03
    190.814  0.0000E+00  0.2560E+03
    191.612  0.0000E+00  0.2560E+03
    192.411  0.0000E+00  0.2560E+03
    193.210  0.0000E+00  0.2560E+03
