    1    1    1    1
  0.2224118E+02  0.3156634E-09  0.3156634E-09  0.3156634E-09  0.1000000E-15
  1.000000000000000E-004
  CAR 
 Og_FCC                                  
      8    172    128
 
  0.0000000E+00  0.0000000E+00  0.0000000E+00  0.2915452E-02
    1      -35.501992   1.000000
    2      -11.146580   1.000000
    3      -11.146579   1.000000
    4      -11.146579   1.000000
    5        0.388565   0.000000
    6       18.451534   0.000000
    7       18.451539   0.000000
    8       18.451604   0.000000
    9       20.333770   0.000000
   10       22.938123   0.000000
   11       22.938135   0.000000
   12       22.938265   0.000000
   13       24.756925   0.000000
   14       24.756962   0.000000
   15       25.627751   0.000000
   16       31.398400   0.000000
   17       31.398420   0.000000
   18       31.398486   0.000000
   19       43.672042   0.000000
   20       52.405490   0.000000
   21       52.405513   0.000000
   22       52.405587   0.000000
   23       54.349827   0.000000
   24       54.349883   0.000000
   25       55.371165   0.000000
   26       55.371350   0.000000
   27       55.371352   0.000000
   28       62.393285   0.000000
   29       62.393531   0.000000
   30       62.393608   0.000000
   31       69.255424   0.000000
   32       71.184844   0.000000
   33       71.184876   0.000000
   34       73.876575   0.000000
   35       73.876768   0.000000
   36       73.876828   0.000000
   37       76.953084   0.000000
   38       76.953120   0.000000
   39       76.953227   0.000000
   40       77.981549   0.000000
   41       78.341038   0.000000
   42       78.341156   0.000000
   43       78.341236   0.000000
   44       78.368317   0.000000
   45       78.368593   0.000000
   46       78.368652   0.000000
   47       79.921990   0.000000
   48       79.922079   0.000000
   49       79.922126   0.000000
   50       80.309876   0.000000
   51       80.309919   0.000000
   52       85.151389   0.000000
   53       85.151841   0.000000
   54       85.151911   0.000000
   55       85.788213   0.000000
   56       85.788334   0.000000
   57       85.788511   0.000000
   58       85.981711   0.000000
   59       86.142616   0.000000
   60       96.733087   0.000000
   61       96.733100   0.000000
   62       96.733266   0.000000
   63      112.134066   0.000000
   64      112.134095   0.000000
   65      114.001637   0.000000
   66      117.804481   0.000000
   67      117.804713   0.000000
   68      117.804762   0.000000
   69      125.494236   0.000000
   70      125.494298   0.000000
   71      125.494377   0.000000
   72      129.146822   0.000000
   73      131.164897   0.000000
   74      131.164944   0.000000
   75      133.685750   0.000000
   76      133.685866   0.000000
   77      133.685897   0.000000
   78      137.204300   0.000000
   79      138.821892   0.000000
   80      138.822089   0.000000
   81      138.822182   0.000000
   82      139.278693   0.000000
   83      139.278743   0.000000
   84      139.278787   0.000000
   85      139.655099   0.000000
   86      139.655262   0.000000
   87      139.655318   0.000000
   88      139.778611   0.000000
   89      139.778702   0.000000
   90      142.753342   0.000000
   91      142.753370   0.000000
   92      142.881384   0.000000
   93      142.881855   0.000000
   94      142.881963   0.000000
   95      145.515037   0.000000
   96      145.712418   0.000000
   97      145.712821   0.000000
   98      145.712833   0.000000
   99      145.770907   0.000000
  100      145.770969   0.000000
  101      145.771329   0.000000
  102      145.921105   0.000000
  103      145.921372   0.000000
  104      145.921437   0.000000
  105      145.937225   0.000000
  106      145.937515   0.000000
  107      145.937655   0.000000
  108      146.623199   0.000000
  109      146.909020   0.000000
  110      146.909155   0.000000
  111      146.909256   0.000000
  112      147.060778   0.000000
  113      147.060875   0.000000
  114      160.553108   0.000000
  115      160.553896   0.000000
  116      160.553992   0.000000
  117      169.582816   0.000000
  118      169.582881   0.000000
  119      169.582952   0.000000
  120      172.772513   0.000000
  121      172.772678   0.000000
  122      172.921411   0.000000
  123      173.504559   0.000000
  124      175.337442   0.000000
  125      175.337516   0.000000
  126      175.337591   0.000000
  127      175.537817   0.000000
  128      175.537943   0.000000
 
  0.1428571E+00 -0.1387779E-16 -0.1387779E-16  0.5830904E-02
    1      -35.508474   1.000000
    2      -11.501380   1.000000
    3      -11.408376   1.000000
    4      -11.408374   1.000000
    5        0.953825   0.000000
    6       15.036378   0.000000
    7       18.275420   0.000000
    8       18.275465   0.000000
    9       20.714666   0.000000
   10       22.125499   0.000000
   11       22.125565   0.000000
   12       24.155379   0.000000
   13       25.722992   0.000000
   14       25.723028   0.000000
   15       28.191957   0.000000
   16       31.286642   0.000000
   17       32.743970   0.000000
   18       32.744013   0.000000
   19       44.683341   0.000000
   20       47.241358   0.000000
   21       47.241427   0.000000
   22       51.439959   0.000000
   23       53.779411   0.000000
   24       53.779501   0.000000
   25       55.809473   0.000000
   26       60.490090   0.000000
   27       60.522285   0.000000
   28       60.522386   0.000000
   29       62.956528   0.000000
   30       62.956553   0.000000
   31       67.924951   0.000000
   32       67.924959   0.000000
   33       68.633395   0.000000
   34       70.802425   0.000000
   35       70.802564   0.000000
   36       72.397057   0.000000
   37       72.502107   0.000000
   38       73.148920   0.000000
   39       73.148970   0.000000
   40       74.138664   0.000000
   41       75.874281   0.000000
   42       75.874328   0.000000
   43       76.198115   0.000000
   44       79.002026   0.000000
   45       81.009697   0.000000
   46       81.009800   0.000000
   47       82.633897   0.000000
   48       82.634063   0.000000
   49       83.264211   0.000000
   50       84.484029   0.000000
   51       84.484166   0.000000
   52       85.255154   0.000000
   53       86.092844   0.000000
   54       89.687082   0.000000
   55       89.687116   0.000000
   56       90.148307   0.000000
   57       90.148341   0.000000
   58       90.696663   0.000000
   59       94.466530   0.000000
   60       95.669420   0.000000
   61       95.669562   0.000000
   62       99.423248   0.000000
   63      108.385098   0.000000
   64      108.385166   0.000000
   65      108.583302   0.000000
   66      118.949634   0.000000
   67      118.949652   0.000000
   68      120.870824   0.000000
   69      123.657394   0.000000
   70      123.657458   0.000000
   71      124.338151   0.000000
   72      125.982822   0.000000
   73      125.982911   0.000000
   74      129.052197   0.000000
   75      129.630801   0.000000
   76      129.630894   0.000000
   77      130.433024   0.000000
   78      132.344409   0.000000
   79      132.344423   0.000000
   80      132.744758   0.000000
   81      134.206253   0.000000
   82      134.206311   0.000000
   83      134.295181   0.000000
   84      134.407405   0.000000
   85      137.739134   0.000000
   86      137.739297   0.000000
   87      138.549856   0.000000
   88      140.354703   0.000000
   89      140.354795   0.000000
   90      140.434378   0.000000
   91      141.217574   0.000000
   92      141.217650   0.000000
   93      142.665591   0.000000
   94      143.162320   0.000000
   95      143.162530   0.000000
   96      143.255615   0.000000
   97      143.715949   0.000000
   98      143.716076   0.000000
   99      148.131642   0.000000
  100      148.131683   0.000000
  101      148.930706   0.000000
  102      150.841422   0.000000
  103      150.887936   0.000000
  104      150.968911   0.000000
  105      150.969063   0.000000
  106      152.679978   0.000000
  107      153.429155   0.000000
  108      153.429223   0.000000
  109      156.421032   0.000000
  110      156.421296   0.000000
  111      157.812313   0.000000
  112      157.812345   0.000000
  113      158.780701   0.000000
  114      159.638274   0.000000
  115      159.751189   0.000000
  116      159.751251   0.000000
  117      160.509621   0.000000
  118      160.509756   0.000000
  119      164.004392   0.000000
  120      166.132303   0.000000
  121      166.132357   0.000000
  122      167.542024   0.000000
  123      170.036948   0.000000
  124      170.037045   0.000000
  125      172.573775   0.000000
  126      173.985632   0.000000
  127      173.985840   0.000000
  128      174.588232   0.000000
 
  0.2857143E+00 -0.2775558E-16 -0.1387779E-16  0.5830904E-02
    1      -35.473306   1.000000
    2      -11.672997   1.000000
    3      -11.414839   1.000000
    4      -11.414836   1.000000
    5        2.556704   0.000000
    6       11.185343   0.000000
    7       17.691414   0.000000
    8       17.691445   0.000000
    9       19.500490   0.000000
   10       21.731443   0.000000
   11       21.731513   0.000000
   12       25.592461   0.000000
   13       27.348764   0.000000
   14       27.348796   0.000000
   15       30.366416   0.000000
   16       36.142797   0.000000
   17       36.206017   0.000000
   18       36.206048   0.000000
   19       41.767477   0.000000
   20       41.767553   0.000000
   21       45.715241   0.000000
   22       49.038116   0.000000
   23       54.704144   0.000000
   24       54.704228   0.000000
   25       57.097038   0.000000
   26       57.202782   0.000000
   27       57.202882   0.000000
   28       58.767608   0.000000
   29       62.614052   0.000000
   30       62.614139   0.000000
   31       62.694507   0.000000
   32       65.210901   0.000000
   33       66.251780   0.000000
   34       66.251967   0.000000
   35       67.428428   0.000000
   36       68.853515   0.000000
   37       68.853616   0.000000
   38       74.465545   0.000000
   39       74.465586   0.000000
   40       74.806506   0.000000
   41       75.263711   0.000000
   42       75.263765   0.000000
   43       77.340656   0.000000
   44       78.993960   0.000000
   45       81.442902   0.000000
   46       81.442940   0.000000
   47       85.174804   0.000000
   48       86.351564   0.000000
   49       86.351682   0.000000
   50       91.597891   0.000000
   51       91.816005   0.000000
   52       91.816141   0.000000
   53       92.743606   0.000000
   54       92.743671   0.000000
   55       93.087487   0.000000
   56       96.237254   0.000000
   57       97.077823   0.000000
   58       97.077888   0.000000
   59       98.220145   0.000000
   60      100.993984   0.000000
   61      101.194376   0.000000
   62      101.194393   0.000000
   63      103.057436   0.000000
   64      103.057494   0.000000
   65      110.281652   0.000000
   66      110.281692   0.000000
   67      112.236075   0.000000
   68      114.770208   0.000000
   69      117.466157   0.000000
   70      117.466298   0.000000
   71      120.327856   0.000000
   72      120.327938   0.000000
   73      120.806275   0.000000
   74      122.124264   0.000000
   75      122.967462   0.000000
   76      122.967531   0.000000
   77      125.980771   0.000000
   78      127.977767   0.000000
   79      127.977847   0.000000
   80      128.122809   0.000000
   81      132.789148   0.000000
   82      133.113541   0.000000
   83      133.113552   0.000000
   84      135.917186   0.000000
   85      137.823155   0.000000
   86      137.823185   0.000000
   87      137.879523   0.000000
   88      139.586355   0.000000
   89      139.671323   0.000000
   90      139.671492   0.000000
   91      141.625645   0.000000
   92      141.625852   0.000000
   93      142.276307   0.000000
   94      142.672534   0.000000
   95      142.672601   0.000000
   96      144.350458   0.000000
   97      144.350559   0.000000
   98      144.635603   0.000000
   99      145.841879   0.000000
  100      149.629160   0.000000
  101      149.629290   0.000000
  102      154.664688   0.000000
  103      154.664698   0.000000
  104      154.933679   0.000000
  105      155.302866   0.000000
  106      155.302895   0.000000
  107      156.413641   0.000000
  108      157.705848   0.000000
  109      157.705915   0.000000
  110      158.673263   0.000000
  111      159.390346   0.000000
  112      159.390392   0.000000
  113      160.336053   0.000000
  114      160.398586   0.000000
  115      164.221712   0.000000
  116      165.206280   0.000000
  117      165.206473   0.000000
  118      167.179193   0.000000
  119      168.023933   0.000000
  120      168.024033   0.000000
  121      171.198959   0.000000
  122      171.199062   0.000000
  123      172.752587   0.000000
  124      172.752658   0.000000
  125      173.704225   0.000000
  126      173.942658   0.000000
  127      174.579106   0.000000
  128      174.579187   0.000000
 
  0.4285714E+00  0.0000000E+00  0.2775558E-16  0.5830904E-02
    1      -35.454738   1.000000
    2      -11.796297   1.000000
    3      -11.549856   1.000000
    4      -11.549853   1.000000
    5        4.914157   0.000000
    6        7.787877   0.000000
    7       17.155141   0.000000
    8       17.155184   0.000000
    9       19.080938   0.000000
   10       21.794139   0.000000
   11       21.794224   0.000000
   12       24.442357   0.000000
   13       29.248533   0.000000
   14       29.248550   0.000000
   15       34.780628   0.000000
   16       35.898601   0.000000
   17       35.898668   0.000000
   18       41.568297   0.000000
   19       42.978894   0.000000
   20       42.978936   0.000000
   21       43.698297   0.000000
   22       50.148154   0.000000
   23       50.148189   0.000000
   24       50.182968   0.000000
   25       53.187581   0.000000
   26       56.181540   0.000000
   27       56.292686   0.000000
   28       56.292723   0.000000
   29       58.963839   0.000000
   30       61.666765   0.000000
   31       61.666948   0.000000
   32       63.180527   0.000000
   33       63.180747   0.000000
   34       63.716113   0.000000
   35       65.323359   0.000000
   36       69.246032   0.000000
   37       69.246158   0.000000
   38       74.646364   0.000000
   39       74.646393   0.000000
   40       74.726875   0.000000
   41       75.851604   0.000000
   42       80.137443   0.000000
   43       80.137550   0.000000
   44       82.323753   0.000000
   45       85.081685   0.000000
   46       85.081801   0.000000
   47       87.704510   0.000000
   48       87.704635   0.000000
   49       87.721376   0.000000
   50       93.603420   0.000000
   51       94.669518   0.000000
   52       94.669651   0.000000
   53       94.772444   0.000000
   54       94.772501   0.000000
   55       95.789742   0.000000
   56      100.195930   0.000000
   57      100.196033   0.000000
   58      101.846363   0.000000
   59      102.394298   0.000000
   60      102.394360   0.000000
   61      103.182921   0.000000
   62      104.386962   0.000000
   63      104.387017   0.000000
   64      104.585885   0.000000
   65      109.320298   0.000000
   66      109.508480   0.000000
   67      109.508634   0.000000
   68      111.531949   0.000000
   69      112.037393   0.000000
   70      112.975329   0.000000
   71      112.975365   0.000000
   72      113.051200   0.000000
   73      113.051258   0.000000
   74      115.463007   0.000000
   75      115.463137   0.000000
   76      120.198136   0.000000
   77      126.239739   0.000000
   78      127.401779   0.000000
   79      127.401873   0.000000
   80      128.409899   0.000000
   81      128.409991   0.000000
   82      128.618762   0.000000
   83      132.408513   0.000000
   84      134.642133   0.000000
   85      137.354904   0.000000
   86      137.487889   0.000000
   87      137.488003   0.000000
   88      138.312738   0.000000
   89      138.313028   0.000000
   90      138.410949   0.000000
   91      140.701245   0.000000
   92      140.701322   0.000000
   93      144.054283   0.000000
   94      145.231687   0.000000
   95      145.231911   0.000000
   96      146.845731   0.000000
   97      147.106736   0.000000
   98      147.106967   0.000000
   99      148.744692   0.000000
  100      148.856472   0.000000
  101      148.856483   0.000000
  102      148.893771   0.000000
  103      152.557246   0.000000
  104      152.557318   0.000000
  105      154.008544   0.000000
  106      154.300438   0.000000
  107      155.805804   0.000000
  108      155.805918   0.000000
  109      158.296972   0.000000
  110      158.296997   0.000000
  111      159.268545   0.000000
  112      162.312854   0.000000
  113      162.313104   0.000000
  114      162.575097   0.000000
  115      162.950818   0.000000
  116      165.347479   0.000000
  117      165.347552   0.000000
  118      169.185537   0.000000
  119      169.185571   0.000000
  120      169.415263   0.000000
  121      169.908746   0.000000
  122      169.908979   0.000000
  123      170.443618   0.000000
  124      174.701672   0.000000
  125      174.701769   0.000000
  126      175.404905   0.000000
  127      177.037129   0.000000
  128      177.037304   0.000000
 
  0.0000000E+00  0.1428571E+00  0.6938894E-17  0.5830904E-02
    1      -35.508474   1.000000
    2      -11.501380   1.000000
    3      -11.408376   1.000000
    4      -11.408375   1.000000
    5        0.953826   0.000000
    6       15.036386   0.000000
    7       18.275413   0.000000
    8       18.275458   0.000000
    9       20.714739   0.000000
   10       22.125477   0.000000
   11       22.125491   0.000000
   12       24.155407   0.000000
   13       25.722988   0.000000
   14       25.723013   0.000000
   15       28.191964   0.000000
   16       31.286682   0.000000
   17       32.743947   0.000000
   18       32.744009   0.000000
   19       44.683343   0.000000
   20       47.241351   0.000000
   21       47.241375   0.000000
   22       51.440057   0.000000
   23       53.779423   0.000000
   24       53.779500   0.000000
   25       55.809453   0.000000
   26       60.490099   0.000000
   27       60.522306   0.000000
   28       60.522393   0.000000
   29       62.956469   0.000000
   30       62.956494   0.000000
   31       67.924940   0.000000
   32       67.924981   0.000000
   33       68.633407   0.000000
   34       70.802449   0.000000
   35       70.802495   0.000000
   36       72.397022   0.000000
   37       72.502163   0.000000
   38       73.148950   0.000000
   39       73.148987   0.000000
   40       74.138675   0.000000
   41       75.874280   0.000000
   42       75.874308   0.000000
   43       76.198119   0.000000
   44       79.002111   0.000000
   45       81.009735   0.000000
   46       81.009809   0.000000
   47       82.633840   0.000000
   48       82.634091   0.000000
   49       83.264156   0.000000
   50       84.484031   0.000000
   51       84.484144   0.000000
   52       85.255122   0.000000
   53       86.092846   0.000000
   54       89.687065   0.000000
   55       89.687118   0.000000
   56       90.148268   0.000000
   57       90.148378   0.000000
   58       90.696678   0.000000
   59       94.466518   0.000000
   60       95.669440   0.000000
   61       95.669535   0.000000
   62       99.423289   0.000000
   63      108.385086   0.000000
   64      108.385185   0.000000
   65      108.583306   0.000000
   66      118.949558   0.000000
   67      118.949661   0.000000
   68      120.870822   0.000000
   69      123.657410   0.000000
   70      123.657458   0.000000
   71      124.338121   0.000000
   72      125.982834   0.000000
   73      125.982872   0.000000
   74      129.052263   0.000000
   75      129.630855   0.000000
   76      129.630882   0.000000
   77      130.433010   0.000000
   78      132.344448   0.000000
   79      132.344479   0.000000
   80      132.744741   0.000000
   81      134.206232   0.000000
   82      134.206294   0.000000
   83      134.295131   0.000000
   84      134.407452   0.000000
   85      137.739137   0.000000
   86      137.739346   0.000000
   87      138.549792   0.000000
   88      140.354746   0.000000
   89      140.354789   0.000000
   90      140.434305   0.000000
   91      141.217634   0.000000
   92      141.217705   0.000000
   93      142.665559   0.000000
   94      143.162391   0.000000
   95      143.162537   0.000000
   96      143.255496   0.000000
   97      143.715975   0.000000
   98      143.716037   0.000000
   99      148.131658   0.000000
  100      148.131725   0.000000
  101      148.930688   0.000000
  102      150.841303   0.000000
  103      150.887941   0.000000
  104      150.968945   0.000000
  105      150.969057   0.000000
  106      152.679953   0.000000
  107      153.429190   0.000000
  108      153.429203   0.000000
  109      156.420992   0.000000
  110      156.421323   0.000000
  111      157.812343   0.000000
  112      157.812381   0.000000
  113      158.780746   0.000000
  114      159.638247   0.000000
  115      159.751193   0.000000
  116      159.751231   0.000000
  117      160.509612   0.000000
  118      160.509703   0.000000
  119      164.004356   0.000000
  120      166.132317   0.000000
  121      166.132431   0.000000
  122      167.541940   0.000000
  123      170.036996   0.000000
  124      170.037087   0.000000
  125      172.573795   0.000000
  126      173.985709   0.000000
  127      173.985789   0.000000
  128      174.588214   0.000000
 
  0.1428571E+00  0.1428571E+00  0.0000000E+00  0.5830904E-02
    1      -35.495073   1.000000
    2      -11.520444   1.000000
    3      -11.296428   1.000000
    4      -11.296426   1.000000
    5        1.134940   0.000000
    6       15.606550   0.000000
    7       17.351608   0.000000
    8       17.351645   0.000000
    9       18.379167   0.000000
   10       24.196464   0.000000
   11       24.403646   0.000000
   12       25.274223   0.000000
   13       25.274290   0.000000
   14       25.339926   0.000000
   15       27.937339   0.000000
   16       31.452601   0.000000
   17       31.452652   0.000000
   18       34.557370   0.000000
   19       45.012006   0.000000
   20       47.020125   0.000000
   21       47.928535   0.000000
   22       47.928582   0.000000
   23       52.903078   0.000000
   24       53.633114   0.000000
   25       59.097070   0.000000
   26       59.203002   0.000000
   27       59.203058   0.000000
   28       62.921456   0.000000
   29       62.921475   0.000000
   30       63.648358   0.000000
   31       66.939562   0.000000
   32       66.939666   0.000000
   33       66.981770   0.000000
   34       67.764012   0.000000
   35       69.980730   0.000000
   36       72.086565   0.000000
   37       73.360649   0.000000
   38       74.619882   0.000000
   39       74.619893   0.000000
   40       75.533094   0.000000
   41       76.688336   0.000000
   42       76.688418   0.000000
   43       78.521474   0.000000
   44       78.521647   0.000000
   45       78.745927   0.000000
   46       78.790001   0.000000
   47       80.993271   0.000000
   48       82.087963   0.000000
   49       82.147961   0.000000
   50       83.749576   0.000000
   51       83.749632   0.000000
   52       84.376502   0.000000
   53       89.246469   0.000000
   54       89.246486   0.000000
   55       91.892866   0.000000
   56       92.253568   0.000000
   57       94.001456   0.000000
   58       94.001535   0.000000
   59       95.482458   0.000000
   60       95.646111   0.000000
   61       97.370481   0.000000
   62       97.370558   0.000000
   63      103.601095   0.000000
   64      112.285835   0.000000
   65      113.855587   0.000000
   66      116.237137   0.000000
   67      116.237326   0.000000
   68      121.230420   0.000000
   69      122.754825   0.000000
   70      122.754869   0.000000
   71      122.862256   0.000000
   72      125.547102   0.000000
   73      126.907935   0.000000
   74      126.972119   0.000000
   75      126.972173   0.000000
   76      127.405506   0.000000
   77      128.652203   0.000000
   78      129.953639   0.000000
   79      129.953710   0.000000
   80      130.608259   0.000000
   81      131.019058   0.000000
   82      135.190956   0.000000
   83      135.191054   0.000000
   84      135.212377   0.000000
   85      136.166025   0.000000
   86      137.123182   0.000000
   87      137.123272   0.000000
   88      137.833092   0.000000
   89      139.693764   0.000000
   90      141.878827   0.000000
   91      142.881885   0.000000
   92      143.382295   0.000000
   93      143.382315   0.000000
   94      146.083189   0.000000
   95      146.083238   0.000000
   96      146.304861   0.000000
   97      146.971432   0.000000
   98      146.971530   0.000000
   99      147.007044   0.000000
  100      147.195572   0.000000
  101      147.543665   0.000000
  102      151.791853   0.000000
  103      152.760837   0.000000
  104      152.760880   0.000000
  105      152.933422   0.000000
  106      153.267347   0.000000
  107      154.085265   0.000000
  108      154.085513   0.000000
  109      155.309324   0.000000
  110      155.659035   0.000000
  111      155.700737   0.000000
  112      155.700773   0.000000
  113      157.937765   0.000000
  114      159.833824   0.000000
  115      161.820077   0.000000
  116      161.820087   0.000000
  117      163.358148   0.000000
  118      163.358275   0.000000
  119      164.566999   0.000000
  120      164.980580   0.000000
  121      165.474864   0.000000
  122      166.447966   0.000000
  123      167.695703   0.000000
  124      167.695839   0.000000
  125      168.039970   0.000000
  126      168.132117   0.000000
  127      173.865447   0.000000
  128      173.865543   0.000000
 
  0.2857143E+00  0.1428571E+00  0.0000000E+00  0.5830904E-02
    1      -35.471208   1.000000
    2      -11.601272   1.000000
    3      -11.423147   1.000000
    4      -11.387321   1.000000
    5        2.393119   0.000000
    6       12.582300   0.000000
    7       15.696844   0.000000
    8       16.779150   0.000000
    9       18.542272   0.000000
   10       23.361315   0.000000
   11       24.483817   0.000000
   12       24.949375   0.000000
   13       27.488471   0.000000
   14       28.273388   0.000000
   15       30.506959   0.000000
   16       33.038917   0.000000
   17       33.414211   0.000000
   18       38.537949   0.000000
   19       41.424411   0.000000
   20       43.724198   0.000000
   21       46.262746   0.000000
   22       48.484869   0.000000
   23       51.538704   0.000000
   24       53.391337   0.000000
   25       56.130767   0.000000
   26       58.940169   0.000000
   27       59.038117   0.000000
   28       60.357522   0.000000
   29       60.543636   0.000000
   30       64.100486   0.000000
   31       64.143006   0.000000
   32       65.832498   0.000000
   33       66.303581   0.000000
   34       67.433414   0.000000
   35       67.957881   0.000000
   36       69.416947   0.000000
   37       70.151045   0.000000
   38       72.844404   0.000000
   39       73.834716   0.000000
   40       75.138684   0.000000
   41       75.716903   0.000000
   42       76.750373   0.000000
   43       78.211157   0.000000
   44       79.527280   0.000000
   45       80.121715   0.000000
   46       81.635903   0.000000
   47       81.715843   0.000000
   48       84.587933   0.000000
   49       86.037402   0.000000
   50       86.153187   0.000000
   51       88.617377   0.000000
   52       90.760182   0.000000
   53       92.504336   0.000000
   54       93.069517   0.000000
   55       94.927222   0.000000
   56       94.968657   0.000000
   57       96.610189   0.000000
   58       97.363759   0.000000
   59       99.803958   0.000000
   60      100.672649   0.000000
   61      101.520337   0.000000
   62      102.908573   0.000000
   63      107.817901   0.000000
   64      108.436853   0.000000
   65      108.645521   0.000000
   66      110.884871   0.000000
   67      114.507291   0.000000
   68      115.249725   0.000000
   69      115.893752   0.000000
   70      117.265107   0.000000
   71      118.467949   0.000000
   72      121.018601   0.000000
   73      121.204828   0.000000
   74      124.034409   0.000000
   75      124.093317   0.000000
   76      125.055090   0.000000
   77      126.196338   0.000000
   78      126.789431   0.000000
   79      127.386379   0.000000
   80      127.870317   0.000000
   81      128.986911   0.000000
   82      129.532530   0.000000
   83      129.793680   0.000000
   84      133.237289   0.000000
   85      134.482052   0.000000
   86      136.279931   0.000000
   87      136.318394   0.000000
   88      139.930794   0.000000
   89      141.252895   0.000000
   90      141.600807   0.000000
   91      142.688085   0.000000
   92      143.028556   0.000000
   93      144.051442   0.000000
   94      144.600444   0.000000
   95      145.532699   0.000000
   96      146.983750   0.000000
   97      147.629869   0.000000
   98      147.639794   0.000000
   99      150.797142   0.000000
  100      151.101393   0.000000
  101      151.386982   0.000000
  102      151.672541   0.000000
  103      152.218177   0.000000
  104      152.707154   0.000000
  105      153.965448   0.000000
  106      154.069856   0.000000
  107      155.671525   0.000000
  108      156.460940   0.000000
  109      157.450512   0.000000
  110      157.453579   0.000000
  111      159.121052   0.000000
  112      159.750645   0.000000
  113      160.244624   0.000000
  114      161.870995   0.000000
  115      164.304028   0.000000
  116      165.443799   0.000000
  117      165.785724   0.000000
  118      166.048846   0.000000
  119      166.939773   0.000000
  120      167.257180   0.000000
  121      167.853331   0.000000