 vasp.5.4.4.18Apr17-6-g9f103f2a35 (build Nov 03 2018 10:20:46) complex          
  
 executed on             LinuxIFC date 2018.12.14  07:54:40
 running on   32 total cores
 distrk:  each k-point on    8 cores,    4 groups
 distr:  one band on NCORES_PER_BAND=   4 cores,    2 groups


--------------------------------------------------------------------------------------------------------


 INCAR:
 POTCAR:    PAW_PBE Ne_GW 22Sep2014               

 ----------------------------------------------------------------------------- 
|                                                                             |
|           W    W    AA    RRRRR   N    N  II  N    N   GGGG   !!!           |
|           W    W   A  A   R    R  NN   N  II  NN   N  G    G  !!!           |
|           W    W  A    A  R    R  N N  N  II  N N  N  G       !!!           |
|           W WW W  AAAAAA  RRRRR   N  N N  II  N  N N  G  GGG   !            |
|           WW  WW  A    A  R   R   N   NN  II  N   NN  G    G                |
|           W    W  A    A  R    R  N    N  II  N    N   GGGG   !!!           |
|                                                                             |
|      You have enabled k-point parallelism (KPAR>1).                         |
|      This developmental code was originally  written by Paul Kent at ORNL,  |
|      and carefully double checked in Vienna.                                |
|      GW as well as linear response parallelism added by Martijn Marsman     |
|      and Georg Kresse.                                                      |
|      Carefully verify results versus KPAR=1.                                |
|      Report problems to Paul Kent and Vienna.                               |
|                                                                             |
 ----------------------------------------------------------------------------- 

 POTCAR:    PAW_PBE Ne_GW 22Sep2014               
   VRHFIN =Ne: s2p6                                                             
   LEXCH  = PE                                                                  
   EATOM  =   955.3367 eV,   70.2153 Ry                                         
                                                                                
   TITEL  = PAW_PBE Ne_GW 22Sep2014                                             
   LULTRA =        F    use ultrasoft PP ?                                      
   IUNSCR =        1    unscreen: 0-lin 1-nonlin 2-no                           
   RPACOR =    0.800    partial core radius                                     
   POMASS =   20.180; ZVAL   =    8.000    mass and valenz                      
   RCORE  =    1.600    outmost cutoff radius                                   
   RWIGS  =    1.600; RWIGS  =    0.847    wigner-seitz radius (au A)           
   ENMAX  =  432.275; ENMIN  =  324.206 eV                                      
   RCLOC  =    1.003    cutoff for local pot                                    
   LCOR   =        T    correct aug charges                                     
   LPAW   =        T    paw PP                                                  
   EAUG   =  755.753                                                            
   RMAX   =    1.638    core radius for proj-oper                               
   RAUG   =    1.300    factor for augmentation sphere                          
   RDEP   =    1.674    radius for radial grids                                 
   RDEPT  =    1.500    core radius for aug-charge                              
                                                                                
   Atomic configuration                                                         
    5 entries                                                                   
     n  l   j            E        occ.                                          
     1  0  0.50      -830.7932   2.0000                                         
     2  0  0.50       -36.4050   2.0000                                         
     2  1  0.50       -13.3338   6.0000                                         
     3  2  1.50       -13.6058   0.0000                                         
     4  3  2.50        -1.3606   0.0000                                         
   Description                                                                  
     l       E           TYP  RCUT    TYP  RCUT                                 
     0    -36.4049700     23  1.400                                             
     0    -40.8174780     23  1.400                                             
     0    258.5106940     23  1.400                                             
     1    -13.3337612     23  1.500                                             
     1     -9.5240782     23  1.500                                             
     1    190.4815640     23  1.500                                             
     2     40.8174780     23  1.500                                             
     2    190.4815640     23  1.600                                             
  local pseudopotential read in
  partial core-charges read in
  partial kinetic energy density read in
  kinetic energy density of atom read in
  atomic valenz-charges read in
  non local Contribution for L=           0  read in
    real space projection operators read in
  non local Contribution for L=           0  read in
    real space projection operators read in
  non local Contribution for L=           0  read in
    real space projection operators read in
  non local Contribution for L=           1  read in
    real space projection operators read in
  non local Contribution for L=           1  read in
    real space projection operators read in
  non local Contribution for L=           1  read in
    real space projection operators read in
  non local Contribution for L=           2  read in
    real space projection operators read in
  non local Contribution for L=           2  read in
    real space projection operators read in
    PAW grid and wavefunctions read in
 
   number of l-projection  operators is LMAX  =           8
   number of lm-projection operators is LMMAX =          22
 
  PAW_PBE Ne_GW 22Sep2014               :
 energy of atom  1       EATOM= -955.3367
 kinetic energy error for atom=    2.6586 (will be added to EATOM!!)
 
 
 POSCAR: Ne_FCC                                  
  positions in direct lattice
  velocities in cartesian coordinates
 exchange correlation table for  LEXCH =        8
   RHO(1)=    0.500       N(1)  =     2000
   RHO(2)=  100.500       N(2)  =     4000
 


--------------------------------------------------------------------------------------------------------


 ion  position               nearest neighbor table
   1  0.000  0.000  0.000-
 

IMPORTANT INFORMATION: All symmetrisations will be switched off!
NOSYMM: (Re-)initialisation of all symmetry stuff for point group C_1.

 
 
 KPOINTS: k-points                                

Automatic generation of k-mesh.
Space group operators:
 irot       det(A)        alpha          n_x          n_y          n_z        tau_x        tau_y        tau_z
    1     1.000000     0.000000     1.000000     0.000000     0.000000     0.000000     0.000000     0.000000
 
 Subroutine IBZKPT returns following result:
 ===========================================
 
 Found    172 irreducible k-points:
 
 Following reciprocal coordinates:
            Coordinates               Weight
  0.000000  0.000000  0.000000      1.000000
  0.142857 -0.000000 -0.000000      2.000000
  0.285714 -0.000000 -0.000000      2.000000
  0.428571  0.000000  0.000000      2.000000
  0.000000  0.142857  0.000000      2.000000
  0.142857  0.142857  0.000000      2.000000
  0.285714  0.142857  0.000000      2.000000
  0.428571  0.142857 -0.000000      2.000000
 -0.428571  0.142857  0.000000      2.000000
 -0.285714  0.142857  0.000000      2.000000
 -0.142857  0.142857 -0.000000      2.000000
  0.000000  0.285714  0.000000      2.000000
  0.142857  0.285714 -0.000000      2.000000
  0.285714  0.285714 -0.000000      2.000000
  0.428571  0.285714 -0.000000      2.000000
 -0.428571  0.285714  0.000000      2.000000
 -0.285714  0.285714  0.000000      2.000000
 -0.142857  0.285714 -0.000000      2.000000
  0.000000  0.428571  0.000000      2.000000
  0.142857  0.428571 -0.000000      2.000000
  0.285714  0.428571  0.000000      2.000000
  0.428571  0.428571  0.000000      2.000000
 -0.428571  0.428571  0.000000      2.000000
 -0.285714  0.428571 -0.000000      2.000000
 -0.142857  0.428571 -0.000000      2.000000
  0.000000  0.000000  0.142857      2.000000
  0.142857 -0.000000  0.142857      2.000000
  0.285714 -0.000000  0.142857      2.000000
  0.428571  0.000000  0.142857      2.000000
 -0.428571  0.000000  0.142857      2.000000
 -0.285714  0.000000  0.142857      2.000000
 -0.142857 -0.000000  0.142857      2.000000
  0.000000  0.142857  0.142857      2.000000
  0.142857  0.142857  0.142857      2.000000
  0.285714  0.142857  0.142857      2.000000
  0.428571  0.142857  0.142857      2.000000
 -0.428571  0.142857  0.142857      2.000000
 -0.285714  0.142857  0.142857      2.000000
 -0.142857  0.142857  0.142857      2.000000
  0.000000  0.285714  0.142857      2.000000
  0.142857  0.285714  0.142857      2.000000
  0.285714  0.285714  0.142857      2.000000
  0.428571  0.285714  0.142857      2.000000
 -0.428571  0.285714  0.142857      2.000000
 -0.285714  0.285714  0.142857      2.000000
 -0.142857  0.285714  0.142857      2.000000
  0.000000  0.428571  0.142857      2.000000
  0.142857  0.428571  0.142857      2.000000
  0.285714  0.428571  0.142857      2.000000
  0.428571  0.428571  0.142857      2.000000
 -0.428571  0.428571  0.142857      2.000000
 -0.285714  0.428571  0.142857      2.000000
 -0.142857  0.428571  0.142857      2.000000
  0.000000 -0.428571  0.142857      2.000000
  0.142857 -0.428571  0.142857      2.000000
  0.285714 -0.428571  0.142857      2.000000
  0.428571 -0.428571  0.142857      2.000000
 -0.428571 -0.428571  0.142857      2.000000
 -0.285714 -0.428571  0.142857      2.000000
 -0.142857 -0.428571  0.142857      2.000000
  0.000000 -0.285714  0.142857      2.000000
  0.142857 -0.285714  0.142857      2.000000
  0.285714 -0.285714  0.142857      2.000000
  0.428571 -0.285714  0.142857      2.000000
 -0.428571 -0.285714  0.142857      2.000000
 -0.285714 -0.285714  0.142857      2.000000
 -0.142857 -0.285714  0.142857      2.000000
  0.000000 -0.142857  0.142857      2.000000
  0.142857 -0.142857  0.142857      2.000000
  0.285714 -0.142857  0.142857      2.000000
  0.428571 -0.142857  0.142857      2.000000
 -0.428571 -0.142857  0.142857      2.000000
 -0.285714 -0.142857  0.142857      2.000000
 -0.142857 -0.142857  0.142857      2.000000
  0.000000  0.000000  0.285714      2.000000
  0.142857 -0.000000  0.285714      2.000000
  0.285714 -0.000000  0.285714      2.000000
  0.428571  0.000000  0.285714      2.000000
 -0.428571  0.000000  0.285714      2.000000
 -0.285714  0.000000  0.285714      2.000000
 -0.142857 -0.000000  0.285714      2.000000
  0.000000  0.142857  0.285714      2.000000
  0.142857  0.142857  0.285714      2.000000
  0.285714  0.142857  0.285714      2.000000
  0.428571  0.142857  0.285714      2.000000
 -0.428571  0.142857  0.285714      2.000000
 -0.285714  0.142857  0.285714      2.000000
 -0.142857  0.142857  0.285714      2.000000
  0.000000  0.285714  0.285714      2.000000
  0.142857  0.285714  0.285714      2.000000
  0.285714  0.285714  0.285714      2.000000
  0.428571  0.285714  0.285714      2.000000
 -0.428571  0.285714  0.285714      2.000000
 -0.285714  0.285714  0.285714      2.000000
 -0.142857  0.285714  0.285714      2.000000
  0.000000  0.428571  0.285714      2.000000
  0.142857  0.428571  0.285714      2.000000
  0.285714  0.428571  0.285714      2.000000
  0.428571  0.428571  0.285714      2.000000
 -0.428571  0.428571  0.285714      2.000000
 -0.285714  0.428571  0.285714      2.000000
 -0.142857  0.428571  0.285714      2.000000
  0.000000 -0.428571  0.285714      2.000000
  0.142857 -0.428571  0.285714      2.000000
  0.285714 -0.428571  0.285714      2.000000
  0.428571 -0.428571  0.285714      2.000000
 -0.428571 -0.428571  0.285714      2.000000
 -0.285714 -0.428571  0.285714      2.000000
 -0.142857 -0.428571  0.285714      2.000000
  0.000000 -0.285714  0.285714      2.000000
  0.142857 -0.285714  0.285714      2.000000
  0.285714 -0.285714  0.285714      2.000000
  0.428571 -0.285714  0.285714      2.000000
 -0.428571 -0.285714  0.285714      2.000000
 -0.285714 -0.285714  0.285714      2.000000
 -0.142857 -0.285714  0.285714      2.000000
  0.000000 -0.142857  0.285714      2.000000
  0.142857 -0.142857  0.285714      2.000000
  0.285714 -0.142857  0.285714      2.000000
  0.428571 -0.142857  0.285714      2.000000
 -0.428571 -0.142857  0.285714      2.000000
 -0.285714 -0.142857  0.285714      2.000000
 -0.142857 -0.142857  0.285714      2.000000
  0.000000  0.000000  0.428571      2.000000
  0.142857 -0.000000  0.428571      2.000000
  0.285714 -0.000000  0.428571      2.000000
  0.428571  0.000000  0.428571      2.000000
 -0.428571  0.000000  0.428571      2.000000
 -0.285714  0.000000  0.428571      2.000000
 -0.142857 -0.000000  0.428571      2.000000
  0.000000  0.142857  0.428571      2.000000
  0.142857  0.142857  0.428571      2.000000
  0.285714  0.142857  0.428571      2.000000
  0.428571  0.142857  0.428571      2.000000
 -0.428571  0.142857  0.428571      2.000000
 -0.285714  0.142857  0.428571      2.000000
 -0.142857  0.142857  0.428571      2.000000
  0.000000  0.285714  0.428571      2.000000
  0.142857  0.285714  0.428571      2.000000
  0.285714  0.285714  0.428571      2.000000
  0.428571  0.285714  0.428571      2.000000
 -0.428571  0.285714  0.428571      2.000000
 -0.285714  0.285714  0.428571      2.000000
 -0.142857  0.285714  0.428571      2.000000
  0.000000  0.428571  0.428571      2.000000
  0.142857  0.428571  0.428571      2.000000
  0.285714  0.428571  0.428571      2.000000
  0.428571  0.428571  0.428571      2.000000
 -0.428571  0.428571  0.428571      2.000000
 -0.285714  0.428571  0.428571      2.000000
 -0.142857  0.428571  0.428571      2.000000
  0.000000 -0.428571  0.428571      2.000000
  0.142857 -0.428571  0.428571      2.000000
  0.285714 -0.428571  0.428571      2.000000
  0.428571 -0.428571  0.428571      2.000000
 -0.428571 -0.428571  0.428571      2.000000
 -0.285714 -0.428571  0.428571      2.000000
 -0.142857 -0.428571  0.428571      2.000000
  0.000000 -0.285714  0.428571      2.000000
  0.142857 -0.285714  0.428571      2.000000
  0.285714 -0.285714  0.428571      2.000000
  0.428571 -0.285714  0.428571      2.000000
 -0.428571 -0.285714  0.428571      2.000000
 -0.285714 -0.285714  0.428571      2.000000
 -0.142857 -0.285714  0.428571      2.000000
  0.000000 -0.142857  0.428571      2.000000
  0.142857 -0.142857  0.428571      2.000000
  0.285714 -0.142857  0.428571      2.000000
  0.428571 -0.142857  0.428571      2.000000
 -0.428571 -0.142857  0.428571      2.000000
 -0.285714 -0.142857  0.428571      2.000000
 -0.142857 -0.142857  0.428571      2.000000
 
 Following cartesian coordinates:
            Coordinates               Weight
  0.000000  0.000000  0.000000      1.000000
  0.048032 -0.027731 -0.019609      2.000000
  0.096064 -0.055462 -0.039218      2.000000
  0.144095 -0.083193 -0.058827      2.000000
  0.000000  0.055462 -0.019609      2.000000
  0.048032  0.027731 -0.039218      2.000000
  0.096064  0.000000 -0.058827      2.000000
  0.144095 -0.027731 -0.078436      2.000000
 -0.144095  0.138656  0.039218      2.000000
 -0.096064  0.110925  0.019609      2.000000
 -0.048032  0.083193  0.000000      2.000000
  0.000000  0.110925 -0.039218      2.000000
  0.048032  0.083193 -0.058827      2.000000
  0.096064  0.055462 -0.078436      2.000000
  0.144095  0.027731 -0.098044      2.000000
 -0.144095  0.194118  0.019609      2.000000
 -0.096064  0.166387  0.000000      2.000000
 -0.048032  0.138656 -0.019609      2.000000
  0.000000  0.166387 -0.058827      2.000000
  0.048032  0.138656 -0.078436      2.000000
  0.096064  0.110925 -0.098044      2.000000
  0.144095  0.083193 -0.117653      2.000000
 -0.144095  0.249580  0.000000      2.000000
 -0.096064  0.221849 -0.019609      2.000000
 -0.048032  0.194118 -0.039218      2.000000
  0.000000  0.000000  0.058827      2.000000
  0.048032 -0.027731  0.039218      2.000000
  0.096064 -0.055462  0.019609      2.000000
  0.144095 -0.083193 -0.000000      2.000000
 -0.144095  0.083193  0.117653      2.000000
 -0.096064  0.055462  0.098044      2.000000
 -0.048032  0.027731  0.078436      2.000000
  0.000000  0.055462  0.039218      2.000000
  0.048032  0.027731  0.019609      2.000000
  0.096064  0.000000  0.000000      2.000000
  0.144095 -0.027731 -0.019609      2.000000
 -0.144095  0.138656  0.098044      2.000000
 -0.096064  0.110925  0.078436      2.000000
 -0.048032  0.083193  0.058827      2.000000
  0.000000  0.110925  0.019609      2.000000
  0.048032  0.083193  0.000000      2.000000
  0.096064  0.055462 -0.019609      2.000000
  0.144095  0.027731 -0.039218      2.000000
 -0.144095  0.194118  0.078436      2.000000
 -0.096064  0.166387  0.058827      2.000000
 -0.048032  0.138656  0.039218      2.000000
  0.000000  0.166387  0.000000      2.000000
  0.048032  0.138656 -0.019609      2.000000
  0.096064  0.110925 -0.039218      2.000000
  0.144095  0.083193 -0.058827      2.000000
 -0.144095  0.249580  0.058827      2.000000
 -0.096064  0.221849  0.039218      2.000000
 -0.048032  0.194118  0.019609      2.000000
  0.000000 -0.166387  0.117653      2.000000
  0.048032 -0.194118  0.098044      2.000000
  0.096064 -0.221849  0.078436      2.000000
  0.144095 -0.249580  0.058827      2.000000
 -0.144095 -0.083193  0.176480      2.000000
 -0.096064 -0.110925  0.156871      2.000000
 -0.048032 -0.138656  0.137262      2.000000
  0.000000 -0.110925  0.098044      2.000000
  0.048032 -0.138656  0.078436      2.000000
  0.096064 -0.166387  0.058827      2.000000
  0.144095 -0.194118  0.039218      2.000000
 -0.144095 -0.027731  0.156871      2.000000
 -0.096064 -0.055462  0.137262      2.000000
 -0.048032 -0.083193  0.117653      2.000000
  0.000000 -0.055462  0.078436      2.000000
  0.048032 -0.083193  0.058827      2.000000
  0.096064 -0.110925  0.039218      2.000000
  0.144095 -0.138656  0.019609      2.000000
 -0.144095  0.027731  0.137262      2.000000
 -0.096064  0.000000  0.117653      2.000000
 -0.048032 -0.027731  0.098044      2.000000
  0.000000  0.000000  0.117653      2.000000
  0.048032 -0.027731  0.098044      2.000000
  0.096064 -0.055462  0.078436      2.000000
  0.144095 -0.083193  0.058827      2.000000
 -0.144095  0.083193  0.176480      2.000000
 -0.096064  0.055462  0.156871      2.000000
 -0.048032  0.027731  0.137262      2.000000
  0.000000  0.055462  0.098044      2.000000
  0.048032  0.027731  0.078436      2.000000
  0.096064  0.000000  0.058827      2.000000
  0.144095 -0.027731  0.039218      2.000000
 -0.144095  0.138656  0.156871      2.000000
 -0.096064  0.110925  0.137262      2.000000
 -0.048032  0.083193  0.117653      2.000000
  0.000000  0.110925  0.078436      2.000000
  0.048032  0.083193  0.058827      2.000000
  0.096064  0.055462  0.039218      2.000000
  0.144095  0.027731  0.019609      2.000000
 -0.144095  0.194118  0.137262      2.000000
 -0.096064  0.166387  0.117653      2.000000
 -0.048032  0.138656  0.098044      2.000000
  0.000000  0.166387  0.058827      2.000000
  0.048032  0.138656  0.039218      2.000000
  0.096064  0.110925  0.019609      2.000000
  0.144095  0.083193  0.000000      2.000000
 -0.144095  0.249580  0.117653      2.000000
 -0.096064  0.221849  0.098044      2.000000
 -0.048032  0.194118  0.078436      2.000000
  0.000000 -0.166387  0.176480      2.000000
  0.048032 -0.194118  0.156871      2.000000
  0.096064 -0.221849  0.137262      2.000000
  0.144095 -0.249580  0.117653      2.000000
 -0.144095 -0.083193  0.235307      2.000000
 -0.096064 -0.110925  0.215698      2.000000
 -0.048032 -0.138656  0.196089      2.000000
  0.000000 -0.110925  0.156871      2.000000
  0.048032 -0.138656  0.137262      2.000000
  0.096064 -0.166387  0.117653      2.000000
  0.144095 -0.194118  0.098044      2.000000
 -0.144095 -0.027731  0.215698      2.000000
 -0.096064 -0.055462  0.196089      2.000000
 -0.048032 -0.083193  0.176480      2.000000
  0.000000 -0.055462  0.137262      2.000000
  0.048032 -0.083193  0.117653      2.000000
  0.096064 -0.110925  0.098044      2.000000
  0.144095 -0.138656  0.078436      2.000000
 -0.144095  0.027731  0.196089      2.000000
 -0.096064  0.000000  0.176480      2.000000
 -0.048032 -0.027731  0.156871      2.000000
  0.000000  0.000000  0.176480      2.000000
  0.048032 -0.027731  0.156871      2.000000
  0.096064 -0.055462  0.137262      2.000000
  0.144095 -0.083193  0.117653      2.000000
 -0.144095  0.083193  0.235307      2.000000
 -0.096064  0.055462  0.215698      2.000000
 -0.048032  0.027731  0.196089      2.000000
  0.000000  0.055462  0.156871      2.000000
  0.048032  0.027731  0.137262      2.000000
  0.096064  0.000000  0.117653      2.000000
  0.144095 -0.027731  0.098044      2.000000
 -0.144095  0.138656  0.215698      2.000000
 -0.096064  0.110925  0.196089      2.000000
 -0.048032  0.083193  0.176480      2.000000
  0.000000  0.110925  0.137262      2.000000
  0.048032  0.083193  0.117653      2.000000
  0.096064  0.055462  0.098044      2.000000
  0.144095  0.027731  0.078436      2.000000
 -0.144095  0.194118  0.196089      2.000000
 -0.096064  0.166387  0.176480      2.000000
 -0.048032  0.138656  0.156871      2.000000
  0.000000  0.166387  0.117653      2.000000
  0.048032  0.138656  0.098044      2.000000
  0.096064  0.110925  0.078436      2.000000
  0.144095  0.083193  0.058827      2.000000
 -0.144095  0.249580  0.176480      2.000000
 -0.096064  0.221849  0.156871      2.000000
 -0.048032  0.194118  0.137262      2.000000
  0.000000 -0.166387  0.235307      2.000000
  0.048032 -0.194118  0.215698      2.000000
  0.096064 -0.221849  0.196089      2.000000
  0.144095 -0.249580  0.176480      2.000000
 -0.144095 -0.083193  0.294133      2.000000
 -0.096064 -0.110925  0.274525      2.000000
 -0.048032 -0.138656  0.254916      2.000000
  0.000000 -0.110925  0.215698      2.000000
  0.048032 -0.138656  0.196089      2.000000
  0.096064 -0.166387  0.176480      2.000000
  0.144095 -0.194118  0.156871      2.000000
 -0.144095 -0.027731  0.274525      2.000000
 -0.096064 -0.055462  0.254916      2.000000
 -0.048032 -0.083193  0.235307      2.000000
  0.000000 -0.055462  0.196089      2.000000
  0.048032 -0.083193  0.176480      2.000000
  0.096064 -0.110925  0.156871      2.000000
  0.144095 -0.138656  0.137262      2.000000
 -0.144095  0.027731  0.254916      2.000000
 -0.096064  0.000000  0.235307      2.000000
 -0.048032 -0.027731  0.215698      2.000000
 


--------------------------------------------------------------------------------------------------------




 Dimension of arrays:
   k-points           NKPTS =    172   k-points in BZ     NKDIM =    172   number of bands    NBANDS=    128
   number of dos      NEDOS =    301   number of ions     NIONS =      1
   non local maximal  LDIM  =      8   non local SUM 2l+1 LMDIM =     22
   total plane-waves  NPLWV =   5832
   max r-space proj   IRMAX =      1   max aug-charges    IRDMAX=  41786
   dimension x,y,z NGX =    18 NGY =   18 NGZ =   18
   dimension x,y,z NGXF=    36 NGYF=   36 NGZF=   36
   support grid    NGXF=    72 NGYF=   72 NGZF=   72
   ions per type =               1
   NGX,Y,Z   is equivalent  to a cutoff of   9.48,  9.48,  9.48 a.u.
   NGXF,Y,Z  is equivalent  to a cutoff of  18.96, 18.96, 18.96 a.u.

 SYSTEM =  Og_FCC                                  
 POSCAR =  Ne_FCC                                  

 Startparameter for this run:
   NWRITE =      2    write-flag & timer
   PREC   = accura    normal or accurate (medium, high low for compatibility)
   ISTART =      1    job   : 0-new  1-cont  2-samecut
   ICHARG =      0    charge: 1-file 2-atom 10-const
   ISPIN  =      1    spin polarized calculation?
   LNONCOLLINEAR =      F non collinear calculations
   LSORBIT =      F    spin-orbit coupling
   INIWAV =      1    electr: 0-lowe 1-rand  2-diag
   LASPH  =      F    aspherical Exc in radial PAW
   METAGGA=      F    non-selfconsistent MetaGGA calc.

 Electronic Relaxation 1
   ENCUT  =  300.0 eV  22.05 Ry    4.70 a.u.   4.46  4.46  4.46*2*pi/ulx,y,z
   ENINI  =  300.0     initial cutoff
   ENAUG  =  755.8 eV  augmentation charge cutoff
   NELM   =     50;   NELMIN=  2; NELMDL= -5     # of ELM steps 
   EDIFF  = 0.1E-07   stopping-criterion for ELM
   LREAL  =      F    real-space projection
   NLSPLINE    = F    spline interpolate recip. space projectors
   LCOMPAT=      F    compatible to vasp.4.4
   GGA_COMPAT  = F    GGA compatible to vasp.4.4-vasp.4.6
   LMAXPAW     = -100 max onsite density
   LMAXMIX     =    2 max onsite mixed and CHGCAR
   VOSKOWN=      0    Vosko Wilk Nusair interpolation
   ROPT   =    0.00000
 Ionic relaxation
   EDIFFG = 0.1E-04   stopping-criterion for IOM
   NSW    =      1    number of steps for IOM
   NBLOCK =      1;   KBLOCK =      1    inner block; outer block 
   IBRION =     -1    ionic relax: 0-MD 1-quasi-New 2-CG
   NFREE  =      5    steps in history (QN), initial steepest desc. (CG)
   ISIF   =      3    stress and relaxation
   IWAVPR =     10    prediction:  0-non 1-charg 2-wave 3-comb
   ISYM   =      0    0-nonsym 1-usesym 2-fastsym
   LCORR  =      T    Harris-Foulkes like correction to forces

   POTIM  = 0.1000    time-step for ionic-motion
   TEIN   =    0.0    initial temperature
   TEBEG  =    0.0;   TEEND  =   0.0 temperature during run
   SMASS  =  -3.00    Nose mass-parameter (am)
   estimated Nose-frequenzy (Omega)   =  0.10E-29 period in steps =****** mass=  -0.228E-27a.u.
   SCALEE = 1.0000    scale energy and forces
   NPACO  =    256;   APACO  = 16.0  distance and # of slots for P.C.
   PSTRESS=    0.0 pullay stress

  Mass of Ions in am
   POMASS =  20.18
  Ionic Valenz
   ZVAL   =   8.00
  Atomic Wigner-Seitz radii
   RWIGS  =  -1.00
  virtual crystal weights 
   VCA    =   1.00
   NELECT =       8.0000    total number of electrons
   NUPDOWN=      -1.0000    fix difference up-down

 DOS related values:
   EMIN   =  10.00;   EMAX   =-10.00  energy-range for DOS
   EFERMI =   0.00
   ISMEAR =     0;   SIGMA  =   0.00  broadening in eV -4-tet -1-fermi 0-gaus

 Electronic relaxation 2 (details)
   IALGO  =     90    algorithm
   LDIAG  =      T    sub-space diagonalisation (order eigenvalues)
   LSUBROT=      F    optimize rotation matrix (better conditioning)
   TURBO    =      0    0=normal 1=particle mesh
   IRESTART =      0    0=no restart 2=restart with 2 vectors
   NREBOOT  =      0    no. of reboots
   NMIN     =      0    reboot dimension
   EREF     =   0.00    reference energy to select bands
   IMIX   =      4    mixing-type and parameters
     AMIX     =   0.40;   BMIX     =  1.00
     AMIX_MAG =   1.60;   BMIX_MAG =  1.00
     AMIN     =   0.10
     WC   =   100.;   INIMIX=   1;  MIXPRE=   1;  MAXMIX=  50

 Intra band minimization:
   WEIMIN = 0.0000     energy-eigenvalue tresh-hold
   EBREAK =  0.20E-10  absolut break condition
   DEPER  =   0.30     relativ break condition  

   TIME   =   0.40     timestep for ELM

  volume/ion in A,a.u.               =      22.24       150.09
  Fermi-wavevector in a.u.,A,eV,Ry     =   1.164266  2.200144 18.442905  1.355515
  Thomas-Fermi vector in A             =   2.300806
 
 Write flags
   LWAVE        =      T    write WAVECAR
   LDOWNSAMPLE  =      F    k-point downsampling of WAVECAR
   LCHARG       =      F    write CHGCAR
   LVTOT        =      F    write LOCPOT, total local potential
   LVHAR        =      F    write LOCPOT, Hartree potential only
   LELF         =      F    write electronic localiz. function (ELF)
   LORBIT       =      0    0 simple, 1 ext, 2 COOP (PROOUT), +10 PAW based schemes


 Dipole corrections
   LMONO  =      F    monopole corrections only (constant potential shift)
   LDIPOL =      F    correct potential (dipole corrections)
   IDIPOL =      0    1-x, 2-y, 3-z, 4-all directions 
   EPSILON=  1.0000000 bulk dielectric constant

 Exchange correlation treatment:
   GGA     =    PE    GGA type
   LEXCH   =     8    internal setting for exchange type
   VOSKOWN=      0    Vosko Wilk Nusair interpolation
   LHFCALC =     F    Hartree Fock is set to
   LHFONE  =     F    Hartree Fock one center treatment
   AEXX    =    0.0000 exact exchange contribution

 Linear response parameters
   LEPSILON=     F    determine dielectric tensor
   LRPA    =     F    only Hartree local field effects (RPA)
   LNABLA  =     F    use nabla operator in PAW spheres
   LVEL    =     F    velocity operator in full k-point grid
   LINTERFAST=   F  fast interpolation
   KINTER  =     0    interpolate to denser k-point grid
   CSHIFT  =0.1000    complex shift for real part using Kramers Kronig
   OMEGAMAX=  -1.0    maximum frequency
   DEG_THRESHOLD= 0.2000000E-02 threshold for treating states as degnerate
   RTIME   =   -0.100 relaxation time in fs
  (WPLASMAI=    0.000 imaginary part of plasma frequency in eV, 0.658/RTIME)
   DFIELD  = 0.0000000 0.0000000 0.0000000 field for delta impulse in time
 
 Orbital magnetization related:
   ORBITALMAG=     F  switch on orbital magnetization
   LCHIMAG   =     F  perturbation theory with respect to B field
   DQ        =  0.001000  dq finite difference perturbation B field
   LLRAUG    =     F  two centre corrections for induced B field



--------------------------------------------------------------------------------------------------------


 Static calculation
 charge density and potential will be updated during run
 non-spin polarized calculation
 Exact diagonalization
 preconditioned conjugated gradient (Jacobi prec)
    charged. constant during bandupdate  
    band-by band algorithm
 perform sub-space diagonalisation
    after iterative eigenvector-optimisation
 modified Broyden-mixing scheme, WC =      100.0
 initial mixing is a Kerker type mixing with AMIX =  0.4000 and BMIX =      1.0000
 Hartree-type preconditioning will be used
 using additional bands          124
 reciprocal scheme for non local part
 use partial core corrections
 calculate Harris-corrections to forces 
   (improved forces if not selfconsistent)
 use gradient corrections 
 use of overlap-Matrix (Vanderbilt PP)
 Gauss-broadening in eV      SIGMA  =   0.00


--------------------------------------------------------------------------------------------------------


  energy-cutoff  :      300.00
  volume of cell :       22.24
      direct lattice vectors                 reciprocal lattice vectors
     3.156634414  0.000000000  0.000000000     0.316793100 -0.182900581 -0.129330241
     1.578317207  2.733725593  0.000000000     0.000000000  0.365801163 -0.129330241
     1.578317207  0.911241864  2.577381206     0.000000000  0.000000000  0.387990724

  length of vectors
     3.156634414  3.156634414  3.156634414     0.387990724  0.387990724  0.387990724


 
 old parameters found on file WAVECAR:
  energy-cutoff  :      300.00
  volume of cell :       22.24
      direct lattice vectors                 reciprocal lattice vectors
     3.156634414  0.000000000  0.000000000     0.316793100 -0.182900581 -0.129330241
     1.578317207  2.733725593  0.000000000     0.000000000  0.365801163 -0.129330241
     1.578317207  0.911241864  2.577381206     0.000000000  0.000000000  0.387990724

  length of vectors

 
 k-points in units of 2pi/SCALE and weight: k-points                                
   0.00000000  0.00000000  0.00000000       0.003
   0.04803179 -0.02773117 -0.01960889       0.006
   0.09606357 -0.05546233 -0.03921779       0.006
   0.14409536 -0.08319350 -0.05882668       0.006
   0.00000000  0.05546233 -0.01960889       0.006
   0.04803179  0.02773117 -0.03921779       0.006
   0.09606357  0.00000000 -0.05882668       0.006
   0.14409536 -0.02773117 -0.07843558       0.006
  -0.14409536  0.13865583  0.03921779       0.006
  -0.09606357  0.11092466  0.01960889       0.006
  -0.04803179  0.08319350  0.00000000       0.006
   0.00000000  0.11092466 -0.03921779       0.006
   0.04803179  0.08319350 -0.05882668       0.006
   0.09606357  0.05546233 -0.07843558       0.006
   0.14409536  0.02773117 -0.09804447       0.006
  -0.14409536  0.19411816  0.01960889       0.006
  -0.09606357  0.16638699  0.00000000       0.006
  -0.04803179  0.13865583 -0.01960889       0.006
   0.00000000  0.16638699 -0.05882668       0.006
   0.04803179  0.13865583 -0.07843558       0.006
   0.09606357  0.11092466 -0.09804447       0.006
   0.14409536  0.08319350 -0.11765337       0.006
  -0.14409536  0.24958049  0.00000000       0.006
  -0.09606357  0.22184932 -0.01960889       0.006
  -0.04803179  0.19411816 -0.03921779       0.006
   0.00000000  0.00000000  0.05882668       0.006
   0.04803179 -0.02773117  0.03921779       0.006
   0.09606357 -0.05546233  0.01960889       0.006
   0.14409536 -0.08319350 -0.00000000       0.006
  -0.14409536  0.08319350  0.11765337       0.006
  -0.09606357  0.05546233  0.09804447       0.006
  -0.04803179  0.02773117  0.07843558       0.006
   0.00000000  0.05546233  0.03921779       0.006
   0.04803179  0.02773117  0.01960889       0.006
   0.09606357  0.00000000  0.00000000       0.006
   0.14409536 -0.02773117 -0.01960889       0.006
  -0.14409536  0.13865583  0.09804447       0.006
  -0.09606357  0.11092466  0.07843558       0.006
  -0.04803179  0.08319350  0.05882668       0.006
   0.00000000  0.11092466  0.01960889       0.006
   0.04803179  0.08319350  0.00000000       0.006
   0.09606357  0.05546233 -0.01960889       0.006
   0.14409536  0.02773117 -0.03921779       0.006
  -0.14409536  0.19411816  0.07843558       0.006
  -0.09606357  0.16638699  0.05882668       0.006
  -0.04803179  0.13865583  0.03921779       0.006
   0.00000000  0.16638699  0.00000000       0.006
   0.04803179  0.13865583 -0.01960889       0.006
   0.09606357  0.11092466 -0.03921779       0.006
   0.14409536  0.08319350 -0.05882668       0.006
  -0.14409536  0.24958049  0.05882668       0.006
  -0.09606357  0.22184932  0.03921779       0.006
  -0.04803179  0.19411816  0.01960889       0.006
   0.00000000 -0.16638699  0.11765337       0.006
   0.04803179 -0.19411816  0.09804447       0.006
   0.09606357 -0.22184932  0.07843558       0.006
   0.14409536 -0.24958049  0.05882668       0.006
  -0.14409536 -0.08319350  0.17648005       0.006
  -0.09606357 -0.11092466  0.15687116       0.006
  -0.04803179 -0.13865583  0.13726226       0.006
   0.00000000 -0.11092466  0.09804447       0.006
   0.04803179 -0.13865583  0.07843558       0.006
   0.09606357 -0.16638699  0.05882668       0.006
   0.14409536 -0.19411816  0.03921779       0.006
  -0.14409536 -0.02773117  0.15687116       0.006
  -0.09606357 -0.05546233  0.13726226       0.006
  -0.04803179 -0.08319350  0.11765337       0.006
   0.00000000 -0.05546233  0.07843558       0.006
   0.04803179 -0.08319350  0.05882668       0.006
   0.09606357 -0.11092466  0.03921779       0.006
   0.14409536 -0.13865583  0.01960889       0.006
  -0.14409536  0.02773117  0.13726226       0.006
  -0.09606357  0.00000000  0.11765337       0.006
  -0.04803179 -0.02773117  0.09804447       0.006
   0.00000000  0.00000000  0.11765337       0.006
   0.04803179 -0.02773117  0.09804447       0.006
   0.09606357 -0.05546233  0.07843558       0.006
   0.14409536 -0.08319350  0.05882668       0.006
  -0.14409536  0.08319350  0.17648005       0.006
  -0.09606357  0.05546233  0.15687116       0.006
  -0.04803179  0.02773117  0.13726226       0.006
   0.00000000  0.05546233  0.09804447       0.006
   0.04803179  0.02773117  0.07843558       0.006
   0.09606357  0.00000000  0.05882668       0.006
   0.14409536 -0.02773117  0.03921779       0.006
  -0.14409536  0.13865583  0.15687116       0.006
  -0.09606357  0.11092466  0.13726226       0.006
  -0.04803179  0.08319350  0.11765337       0.006
   0.00000000  0.11092466  0.07843558       0.006
   0.04803179  0.08319350  0.05882668       0.006
   0.09606357  0.05546233  0.03921779       0.006
   0.14409536  0.02773117  0.01960889       0.006
  -0.14409536  0.19411816  0.13726226       0.006
  -0.09606357  0.16638699  0.11765337       0.006
  -0.04803179  0.13865583  0.09804447       0.006
   0.00000000  0.16638699  0.05882668       0.006
   0.04803179  0.13865583  0.03921779       0.006
   0.09606357  0.11092466  0.01960889       0.006
   0.14409536  0.08319350  0.00000000       0.006
  -0.14409536  0.24958049  0.11765337       0.006
  -0.09606357  0.22184932  0.09804447       0.006
  -0.04803179  0.19411816  0.07843558       0.006
   0.00000000 -0.16638699  0.17648005       0.006
   0.04803179 -0.19411816  0.15687116       0.006
   0.09606357 -0.22184932  0.13726226       0.006
   0.14409536 -0.24958049  0.11765337       0.006
  -0.14409536 -0.08319350  0.23530674       0.006
  -0.09606357 -0.11092466  0.21569784       0.006
  -0.04803179 -0.13865583  0.19608895       0.006
   0.00000000 -0.11092466  0.15687116       0.006
   0.04803179 -0.13865583  0.13726226       0.006
   0.09606357 -0.16638699  0.11765337       0.006
   0.14409536 -0.19411816  0.09804447       0.006
  -0.14409536 -0.02773117  0.21569784       0.006
  -0.09606357 -0.05546233  0.19608895       0.006
  -0.04803179 -0.08319350  0.17648005       0.006
   0.00000000 -0.05546233  0.13726226       0.006
   0.04803179 -0.08319350  0.11765337       0.006
   0.09606357 -0.11092466  0.09804447       0.006
   0.14409536 -0.13865583  0.07843558       0.006
  -0.14409536  0.02773117  0.19608895       0.006
  -0.09606357  0.00000000  0.17648005       0.006
  -0.04803179 -0.02773117  0.15687116       0.006
   0.00000000  0.00000000  0.17648005       0.006
   0.04803179 -0.02773117  0.15687116       0.006
   0.09606357 -0.05546233  0.13726226       0.006
   0.14409536 -0.08319350  0.11765337       0.006
  -0.14409536  0.08319350  0.23530674       0.006
  -0.09606357  0.05546233  0.21569784       0.006
  -0.04803179  0.02773117  0.19608895       0.006
   0.00000000  0.05546233  0.15687116       0.006
   0.04803179  0.02773117  0.13726226       0.006
   0.09606357  0.00000000  0.11765337       0.006
   0.14409536 -0.02773117  0.09804447       0.006
  -0.14409536  0.13865583  0.21569784       0.006
  -0.09606357  0.11092466  0.19608895       0.006
  -0.04803179  0.08319350  0.17648005       0.006
   0.00000000  0.11092466  0.13726226       0.006
   0.04803179  0.08319350  0.11765337       0.006
   0.09606357  0.05546233  0.09804447       0.006
   0.14409536  0.02773117  0.07843558       0.006
  -0.14409536  0.19411816  0.19608895       0.006
  -0.09606357  0.16638699  0.17648005       0.006
  -0.04803179  0.13865583  0.15687116       0.006
   0.00000000  0.16638699  0.11765337       0.006
   0.04803179  0.13865583  0.09804447       0.006
   0.09606357  0.11092466  0.07843558       0.006
   0.14409536  0.08319350  0.05882668       0.006
  -0.14409536  0.24958049  0.17648005       0.006
  -0.09606357  0.22184932  0.15687116       0.006
  -0.04803179  0.19411816  0.13726226       0.006
   0.00000000 -0.16638699  0.23530674       0.006
   0.04803179 -0.19411816  0.21569784       0.006
   0.09606357 -0.22184932  0.19608895       0.006
   0.14409536 -0.24958049  0.17648005       0.006
  -0.14409536 -0.08319350  0.29413342       0.006
  -0.09606357 -0.11092466  0.27452453       0.006
  -0.04803179 -0.13865583  0.25491563       0.006
   0.00000000 -0.11092466  0.21569784       0.006
   0.04803179 -0.13865583  0.19608895       0.006
   0.09606357 -0.16638699  0.17648005       0.006
   0.14409536 -0.19411816  0.15687116       0.006
  -0.14409536 -0.02773117  0.27452453       0.006
  -0.09606357 -0.05546233  0.25491563       0.006
  -0.04803179 -0.08319350  0.23530674       0.006
   0.00000000 -0.05546233  0.19608895       0.006
   0.04803179 -0.08319350  0.17648005       0.006
   0.09606357 -0.11092466  0.15687116       0.006
   0.14409536 -0.13865583  0.13726226       0.006
  -0.14409536  0.02773117  0.25491563       0.006
  -0.09606357  0.00000000  0.23530674       0.006
  -0.04803179 -0.02773117  0.21569784       0.006
 
 k-points in reciprocal lattice and weights: k-points                                
   0.00000000  0.00000000  0.00000000       0.003
   0.14285714 -0.00000000 -0.00000000       0.006
   0.28571429 -0.00000000 -0.00000000       0.006
   0.42857143  0.00000000  0.00000000       0.006
   0.00000000  0.14285714  0.00000000       0.006
   0.14285714  0.14285714  0.00000000       0.006
   0.28571429  0.14285714  0.00000000       0.006
   0.42857143  0.14285714 -0.00000000       0.006
  -0.42857143  0.14285714  0.00000000       0.006
  -0.28571429  0.14285714  0.00000000       0.006
  -0.14285714  0.14285714 -0.00000000       0.006
   0.00000000  0.28571429  0.00000000       0.006
   0.14285714  0.28571429 -0.00000000       0.006
   0.28571429  0.28571429 -0.00000000       0.006
   0.42857143  0.28571429 -0.00000000       0.006
  -0.42857143  0.28571429  0.00000000       0.006
  -0.28571429  0.28571429  0.00000000       0.006
  -0.14285714  0.28571429 -0.00000000       0.006
   0.00000000  0.42857143  0.00000000       0.006
   0.14285714  0.42857143 -0.00000000       0.006
   0.28571429  0.42857143  0.00000000       0.006
   0.42857143  0.42857143  0.00000000       0.006
  -0.42857143  0.42857143  0.00000000       0.006
  -0.28571429  0.42857143 -0.00000000       0.006
  -0.14285714  0.42857143 -0.00000000       0.006
   0.00000000  0.00000000  0.14285714       0.006
   0.14285714 -0.00000000  0.14285714       0.006
   0.28571429 -0.00000000  0.14285714       0.006
   0.42857143  0.00000000  0.14285714       0.006
  -0.42857143  0.00000000  0.14285714       0.006
  -0.28571429  0.00000000  0.14285714       0.006
  -0.14285714 -0.00000000  0.14285714       0.006
   0.00000000  0.14285714  0.14285714       0.006
   0.14285714  0.14285714  0.14285714       0.006
   0.28571429  0.14285714  0.14285714       0.006
   0.42857143  0.14285714  0.14285714       0.006
  -0.42857143  0.14285714  0.14285714       0.006
  -0.28571429  0.14285714  0.14285714       0.006
  -0.14285714  0.14285714  0.14285714       0.006
   0.00000000  0.28571429  0.14285714       0.006
   0.14285714  0.28571429  0.14285714       0.006
   0.28571429  0.28571429  0.14285714       0.006
   0.42857143  0.28571429  0.14285714       0.006
  -0.42857143  0.28571429  0.14285714       0.006
  -0.28571429  0.28571429  0.14285714       0.006
  -0.14285714  0.28571429  0.14285714       0.006
   0.00000000  0.42857143  0.14285714       0.006
   0.14285714  0.42857143  0.14285714       0.006
   0.28571429  0.42857143  0.14285714       0.006
   0.42857143  0.42857143  0.14285714       0.006
  -0.42857143  0.42857143  0.14285714       0.006
  -0.28571429  0.42857143  0.14285714       0.006
  -0.14285714  0.42857143  0.14285714       0.006
   0.00000000 -0.42857143  0.14285714       0.006
   0.14285714 -0.42857143  0.14285714       0.006
   0.28571429 -0.42857143  0.14285714       0.006
   0.42857143 -0.42857143  0.14285714       0.006
  -0.42857143 -0.42857143  0.14285714       0.006
  -0.28571429 -0.42857143  0.14285714       0.006
  -0.14285714 -0.42857143  0.14285714       0.006
   0.00000000 -0.28571429  0.14285714       0.006
   0.14285714 -0.28571429  0.14285714       0.006
   0.28571429 -0.28571429  0.14285714       0.006
   0.42857143 -0.28571429  0.14285714       0.006
  -0.42857143 -0.28571429  0.14285714       0.006
  -0.28571429 -0.28571429  0.14285714       0.006
  -0.14285714 -0.28571429  0.14285714       0.006
   0.00000000 -0.14285714  0.14285714       0.006
   0.14285714 -0.14285714  0.14285714       0.006
   0.28571429 -0.14285714  0.14285714       0.006
   0.42857143 -0.14285714  0.14285714       0.006
  -0.42857143 -0.14285714  0.14285714       0.006
  -0.28571429 -0.14285714  0.14285714       0.006
  -0.14285714 -0.14285714  0.14285714       0.006
   0.00000000  0.00000000  0.28571429       0.006
   0.14285714 -0.00000000  0.28571429       0.006
   0.28571429 -0.00000000  0.28571429       0.006
   0.42857143  0.00000000  0.28571429       0.006
  -0.42857143  0.00000000  0.28571429       0.006
  -0.28571429  0.00000000  0.28571429       0.006
  -0.14285714 -0.00000000  0.28571429       0.006
   0.00000000  0.14285714  0.28571429       0.006
   0.14285714  0.14285714  0.28571429       0.006
   0.28571429  0.14285714  0.28571429       0.006
   0.42857143  0.14285714  0.28571429       0.006
  -0.42857143  0.14285714  0.28571429       0.006
  -0.28571429  0.14285714  0.28571429       0.006
  -0.14285714  0.14285714  0.28571429       0.006
   0.00000000  0.28571429  0.28571429       0.006
   0.14285714  0.28571429  0.28571429       0.006
   0.28571429  0.28571429  0.28571429       0.006
   0.42857143  0.28571429  0.28571429       0.006
  -0.42857143  0.28571429  0.28571429       0.006
  -0.28571429  0.28571429  0.28571429       0.006
  -0.14285714  0.28571429  0.28571429       0.006
   0.00000000  0.42857143  0.28571429       0.006
   0.14285714  0.42857143  0.28571429       0.006
   0.28571429  0.42857143  0.28571429       0.006
   0.42857143  0.42857143  0.28571429       0.006
  -0.42857143  0.42857143  0.28571429       0.006
  -0.28571429  0.42857143  0.28571429       0.006
  -0.14285714  0.42857143  0.28571429       0.006
   0.00000000 -0.42857143  0.28571429       0.006
   0.14285714 -0.42857143  0.28571429       0.006
   0.28571429 -0.42857143  0.28571429       0.006
   0.42857143 -0.42857143  0.28571429       0.006
  -0.42857143 -0.42857143  0.28571429       0.006
  -0.28571429 -0.42857143  0.28571429       0.006
  -0.14285714 -0.42857143  0.28571429       0.006
   0.00000000 -0.28571429  0.28571429       0.006
   0.14285714 -0.28571429  0.28571429       0.006
   0.28571429 -0.28571429  0.28571429       0.006
   0.42857143 -0.28571429  0.28571429       0.006
  -0.42857143 -0.28571429  0.28571429       0.006
  -0.28571429 -0.28571429  0.28571429       0.006
  -0.14285714 -0.28571429  0.28571429       0.006
   0.00000000 -0.14285714  0.28571429       0.006
   0.14285714 -0.14285714  0.28571429       0.006
   0.28571429 -0.14285714  0.28571429       0.006
   0.42857143 -0.14285714  0.28571429       0.006
  -0.42857143 -0.14285714  0.28571429       0.006
  -0.28571429 -0.14285714  0.28571429       0.006
  -0.14285714 -0.14285714  0.28571429       0.006
   0.00000000  0.00000000  0.42857143       0.006
   0.14285714 -0.00000000  0.42857143       0.006
   0.28571429 -0.00000000  0.42857143       0.006
   0.42857143  0.00000000  0.42857143       0.006
  -0.42857143  0.00000000  0.42857143       0.006
  -0.28571429  0.00000000  0.42857143       0.006
  -0.14285714 -0.00000000  0.42857143       0.006
   0.00000000  0.14285714  0.42857143       0.006
   0.14285714  0.14285714  0.42857143       0.006
   0.28571429  0.14285714  0.42857143       0.006
   0.42857143  0.14285714  0.42857143       0.006
  -0.42857143  0.14285714  0.42857143       0.006
  -0.28571429  0.14285714  0.42857143       0.006
  -0.14285714  0.14285714  0.42857143       0.006
   0.00000000  0.28571429  0.42857143       0.006
   0.14285714  0.28571429  0.42857143       0.006
   0.28571429  0.28571429  0.42857143       0.006
   0.42857143  0.28571429  0.42857143       0.006
  -0.42857143  0.28571429  0.42857143       0.006
  -0.28571429  0.28571429  0.42857143       0.006
  -0.14285714  0.28571429  0.42857143       0.006
   0.00000000  0.42857143  0.42857143       0.006
   0.14285714  0.42857143  0.42857143       0.006
   0.28571429  0.42857143  0.42857143       0.006
   0.42857143  0.42857143  0.42857143       0.006
  -0.42857143  0.42857143  0.42857143       0.006
  -0.28571429  0.42857143  0.42857143       0.006
  -0.14285714  0.42857143  0.42857143       0.006
   0.00000000 -0.42857143  0.42857143       0.006
   0.14285714 -0.42857143  0.42857143       0.006
   0.28571429 -0.42857143  0.42857143       0.006
   0.42857143 -0.42857143  0.42857143       0.006
  -0.42857143 -0.42857143  0.42857143       0.006
  -0.28571429 -0.42857143  0.42857143       0.006
  -0.14285714 -0.42857143  0.42857143       0.006
   0.00000000 -0.28571429  0.42857143       0.006
   0.14285714 -0.28571429  0.42857143       0.006
   0.28571429 -0.28571429  0.42857143       0.006
   0.42857143 -0.28571429  0.42857143       0.006
  -0.42857143 -0.28571429  0.42857143       0.006
  -0.28571429 -0.28571429  0.42857143       0.006
  -0.14285714 -0.28571429  0.42857143       0.006
   0.00000000 -0.14285714  0.42857143       0.006
   0.14285714 -0.14285714  0.42857143       0.006
   0.28571429 -0.14285714  0.42857143       0.006
   0.42857143 -0.14285714  0.42857143       0.006
  -0.42857143 -0.14285714  0.42857143       0.006
  -0.28571429 -0.14285714  0.42857143       0.006
  -0.14285714 -0.14285714  0.42857143       0.006
 
 position of ions in fractional coordinates (direct lattice) 
   0.00000000  0.00000000  0.00000000
 
 position of ions in cartesian coordinates  (Angst):
   0.00000000  0.00000000  0.00000000
 


--------------------------------------------------------------------------------------------------------


 k-point  1 :   0.0000 0.0000 0.0000  plane waves:     259
 k-point  2 :   0.1429-0.0000-0.0000  plane waves:     271
 k-point  3 :   0.2857-0.0000-0.0000  plane waves:     268
 k-point  4 :   0.4286 0.0000 0.0000  plane waves:     269
 k-point  5 :   0.0000 0.1429 0.0000  plane waves:     271
 k-point  6 :   0.1429 0.1429 0.0000  plane waves:     267
 k-point  7 :   0.2857 0.1429 0.0000  plane waves:     267
 k-point  8 :   0.4286 0.1429-0.0000  plane waves:     262
 k-point  9 :  -0.4286 0.1429 0.0000  plane waves:     262
 k-point 10 :  -0.2857 0.1429 0.0000  plane waves:     264
 k-point 11 :  -0.1429 0.1429-0.0000  plane waves:     279
 k-point 12 :   0.0000 0.2857 0.0000  plane waves:     268
 k-point 13 :   0.1429 0.2857-0.0000  plane waves:     267
 k-point 14 :   0.2857 0.2857-0.0000  plane waves:     258
 k-point 15 :   0.4286 0.2857-0.0000  plane waves:     263
 k-point 16 :  -0.4286 0.2857 0.0000  plane waves:     257
 k-point 17 :  -0.2857 0.2857 0.0000  plane waves:     258
 k-point 18 :  -0.1429 0.2857-0.0000  plane waves:     264
 k-point 19 :   0.0000 0.4286 0.0000  plane waves:     269
 k-point 20 :   0.1429 0.4286-0.0000  plane waves:     262
 k-point 21 :   0.2857 0.4286 0.0000  plane waves:     263
 k-point 22 :   0.4286 0.4286 0.0000  plane waves:     258
 k-point 23 :  -0.4286 0.4286 0.0000  plane waves:     256
 k-point 24 :  -0.2857 0.4286-0.0000  plane waves:     257
 k-point 25 :  -0.1429 0.4286-0.0000  plane waves:     262
 k-point 26 :   0.0000 0.0000 0.1429  plane waves:     271
 k-point 27 :   0.1429-0.0000 0.1429  plane waves:     267
 k-point 28 :   0.2857-0.0000 0.1429  plane waves:     267
 k-point 29 :   0.4286 0.0000 0.1429  plane waves:     262
 k-point 30 :  -0.4286 0.0000 0.1429  plane waves:     262
 k-point 31 :  -0.2857 0.0000 0.1429  plane waves:     264
 k-point 32 :  -0.1429-0.0000 0.1429  plane waves:     279
 k-point 33 :   0.0000 0.1429 0.1429  plane waves:     267
 k-point 34 :   0.1429 0.1429 0.1429  plane waves:     271
 k-point 35 :   0.2857 0.1429 0.1429  plane waves:     279
 k-point 36 :   0.4286 0.1429 0.1429  plane waves:     264
 k-point 37 :  -0.4286 0.1429 0.1429  plane waves:     262
 k-point 38 :  -0.2857 0.1429 0.1429  plane waves:     262
 k-point 39 :  -0.1429 0.1429 0.1429  plane waves:     267
 k-point 40 :   0.0000 0.2857 0.1429  plane waves:     267
 k-point 41 :   0.1429 0.2857 0.1429  plane waves:     279
 k-point 42 :   0.2857 0.2857 0.1429  plane waves:     267
 k-point 43 :   0.4286 0.2857 0.1429  plane waves:     267
 k-point 44 :  -0.4286 0.2857 0.1429  plane waves:     260
 k-point 45 :  -0.2857 0.2857 0.1429  plane waves:     260
 k-point 46 :  -0.1429 0.2857 0.1429  plane waves:     267
 k-point 47 :   0.0000 0.4286 0.1429  plane waves:     262
 k-point 48 :   0.1429 0.4286 0.1429  plane waves:     264
 k-point 49 :   0.2857 0.4286 0.1429  plane waves:     267
 k-point 50 :   0.4286 0.4286 0.1429  plane waves:     263
 k-point 51 :  -0.4286 0.4286 0.1429  plane waves:     259
 k-point 52 :  -0.2857 0.4286 0.1429  plane waves:     262
 k-point 53 :  -0.1429 0.4286 0.1429  plane waves:     260
 k-point 54 :   0.0000-0.4286 0.1429  plane waves:     262
 k-point 55 :   0.1429-0.4286 0.1429  plane waves:     262
 k-point 56 :   0.2857-0.4286 0.1429  plane waves:     260
 k-point 57 :   0.4286-0.4286 0.1429  plane waves:     259
 k-point 58 :  -0.4286-0.4286 0.1429  plane waves:     256
 k-point 59 :  -0.2857-0.4286 0.1429  plane waves:     259
 k-point 60 :  -0.1429-0.4286 0.1429  plane waves:     260
 k-point 61 :   0.0000-0.2857 0.1429  plane waves:     264
 k-point 62 :   0.1429-0.2857 0.1429  plane waves:     262
 k-point 63 :   0.2857-0.2857 0.1429  plane waves:     260
 k-point 64 :   0.4286-0.2857 0.1429  plane waves:     262
 k-point 65 :  -0.4286-0.2857 0.1429  plane waves:     259
 k-point 66 :  -0.2857-0.2857 0.1429  plane waves:     263
 k-point 67 :  -0.1429-0.2857 0.1429  plane waves:     267
 k-point 68 :   0.0000-0.1429 0.1429  plane waves:     279
 k-point 69 :   0.1429-0.1429 0.1429  plane waves:     267
 k-point 70 :   0.2857-0.1429 0.1429  plane waves:     267
 k-point 71 :   0.4286-0.1429 0.1429  plane waves:     260
 k-point 72 :  -0.4286-0.1429 0.1429  plane waves:     260
 k-point 73 :  -0.2857-0.1429 0.1429  plane waves:     267
 k-point 74 :  -0.1429-0.1429 0.1429  plane waves:     267
 k-point 75 :   0.0000 0.0000 0.2857  plane waves:     268
 k-point 76 :   0.1429-0.0000 0.2857  plane waves:     267
 k-point 77 :   0.2857-0.0000 0.2857  plane waves:     258
 k-point 78 :   0.4286 0.0000 0.2857  plane waves:     263
 k-point 79 :  -0.4286 0.0000 0.2857  plane waves:     257
 k-point 80 :  -0.2857 0.0000 0.2857  plane waves:     258
 k-point 81 :  -0.1429-0.0000 0.2857  plane waves:     264
 k-point 82 :   0.0000 0.1429 0.2857  plane waves:     267
 k-point 83 :   0.1429 0.1429 0.2857  plane waves:     279
 k-point 84 :   0.2857 0.1429 0.2857  plane waves:     267
 k-point 85 :   0.4286 0.1429 0.2857  plane waves:     267
 k-point 86 :  -0.4286 0.1429 0.2857  plane waves:     260
 k-point 87 :  -0.2857 0.1429 0.2857  plane waves:     260
 k-point 88 :  -0.1429 0.1429 0.2857  plane waves:     267
 k-point 89 :   0.0000 0.2857 0.2857  plane waves:     258
 k-point 90 :   0.1429 0.2857 0.2857  plane waves:     267
 k-point 91 :   0.2857 0.2857 0.2857  plane waves:     268
 k-point 92 :   0.4286 0.2857 0.2857  plane waves:     264
 k-point 93 :  -0.4286 0.2857 0.2857  plane waves:     258
 k-point 94 :  -0.2857 0.2857 0.2857  plane waves:     257
 k-point 95 :  -0.1429 0.2857 0.2857  plane waves:     263
 k-point 96 :   0.0000 0.4286 0.2857  plane waves:     263
 k-point 97 :   0.1429 0.4286 0.2857  plane waves:     267
 k-point 98 :   0.2857 0.4286 0.2857  plane waves:     264
 k-point 99 :   0.4286 0.4286 0.2857  plane waves:     262
 k-point ** :  -0.4286 0.4286 0.2857  plane waves:     260
 k-point ** :  -0.2857 0.4286 0.2857  plane waves:     262
 k-point ** :  -0.1429 0.4286 0.2857  plane waves:     259
 k-point ** :   0.0000-0.4286 0.2857  plane waves:     257
 k-point ** :   0.1429-0.4286 0.2857  plane waves:     260
 k-point ** :   0.2857-0.4286 0.2857  plane waves:     258
 k-point ** :   0.4286-0.4286 0.2857  plane waves:     260
 k-point ** :  -0.4286-0.4286 0.2857  plane waves:     257
 k-point ** :  -0.2857-0.4286 0.2857  plane waves:     262
 k-point ** :  -0.1429-0.4286 0.2857  plane waves:     262
 k-point ** :   0.0000-0.2857 0.2857  plane waves:     258
 k-point ** :   0.1429-0.2857 0.2857  plane waves:     260
 k-point ** :   0.2857-0.2857 0.2857  plane waves:     257
 k-point ** :   0.4286-0.2857 0.2857  plane waves:     262
 k-point ** :  -0.4286-0.2857 0.2857  plane waves:     262
 k-point ** :  -0.2857-0.2857 0.2857  plane waves:     257
 k-point ** :  -0.1429-0.2857 0.2857  plane waves:     260
 k-point ** :   0.0000-0.1429 0.2857  plane waves:     264
 k-point ** :   0.1429-0.1429 0.2857  plane waves:     267
 k-point ** :   0.2857-0.1429 0.2857  plane waves:     263
 k-point ** :   0.4286-0.1429 0.2857  plane waves:     259
 k-point ** :  -0.4286-0.1429 0.2857  plane waves:     262
 k-point ** :  -0.2857-0.1429 0.2857  plane waves:     260
 k-point ** :  -0.1429-0.1429 0.2857  plane waves:     262
 k-point ** :   0.0000 0.0000 0.4286  plane waves:     269
 k-point ** :   0.1429-0.0000 0.4286  plane waves:     262
 k-point ** :   0.2857-0.0000 0.4286  plane waves:     263
 k-point ** :   0.4286 0.0000 0.4286  plane waves:     258
 k-point ** :  -0.4286 0.0000 0.4286  plane waves:     256
 k-point ** :  -0.2857 0.0000 0.4286  plane waves:     257
 k-point ** :  -0.1429-0.0000 0.4286  plane waves:     262
 k-point ** :   0.0000 0.1429 0.4286  plane waves:     262
 k-point ** :   0.1429 0.1429 0.4286  plane waves:     264
 k-point ** :   0.2857 0.1429 0.4286  plane waves:     267
 k-point ** :   0.4286 0.1429 0.4286  plane waves:     263
 k-point ** :  -0.4286 0.1429 0.4286  plane waves:     259
 k-point ** :  -0.2857 0.1429 0.4286  plane waves:     262
 k-point ** :  -0.1429 0.1429 0.4286  plane waves:     260
 k-point ** :   0.0000 0.2857 0.4286  plane waves:     263
 k-point ** :   0.1429 0.2857 0.4286  plane waves:     267
 k-point ** :   0.2857 0.2857 0.4286  plane waves:     264
 k-point ** :   0.4286 0.2857 0.4286  plane waves:     262
 k-point ** :  -0.4286 0.2857 0.4286  plane waves:     260
 k-point ** :  -0.2857 0.2857 0.4286  plane waves:     262
 k-point ** :  -0.1429 0.2857 0.4286  plane waves:     259
 k-point ** :   0.0000 0.4286 0.4286  plane waves:     258
 k-point ** :   0.1429 0.4286 0.4286  plane waves:     263
 k-point ** :   0.2857 0.4286 0.4286  plane waves:     262
 k-point ** :   0.4286 0.4286 0.4286  plane waves:     269
 k-point ** :  -0.4286 0.4286 0.4286  plane waves:     262
 k-point ** :  -0.2857 0.4286 0.4286  plane waves:     257
 k-point ** :  -0.1429 0.4286 0.4286  plane waves:     256
 k-point ** :   0.0000-0.4286 0.4286  plane waves:     256
 k-point ** :   0.1429-0.4286 0.4286  plane waves:     259
 k-point ** :   0.2857-0.4286 0.4286  plane waves:     260
 k-point ** :   0.4286-0.4286 0.4286  plane waves:     262
 k-point ** :  -0.4286-0.4286 0.4286  plane waves:     262
 k-point ** :  -0.2857-0.4286 0.4286  plane waves:     260
 k-point ** :  -0.1429-0.4286 0.4286  plane waves:     259
 k-point ** :   0.0000-0.2857 0.4286  plane waves:     257
 k-point ** :   0.1429-0.2857 0.4286  plane waves:     262
 k-point ** :   0.2857-0.2857 0.4286  plane waves:     262
 k-point ** :   0.4286-0.2857 0.4286  plane waves:     257
 k-point ** :  -0.4286-0.2857 0.4286  plane waves:     260
 k-point ** :  -0.2857-0.2857 0.4286  plane waves:     258
 k-point ** :  -0.1429-0.2857 0.4286  plane waves:     260
 k-point ** :   0.0000-0.1429 0.4286  plane waves:     262
 k-point ** :   0.1429-0.1429 0.4286  plane waves:     260
 k-point ** :   0.2857-0.1429 0.4286  plane waves:     259
 k-point ** :   0.4286-0.1429 0.4286  plane waves:     256
 k-point ** :  -0.4286-0.1429 0.4286  plane waves:     259
 k-point ** :  -0.2857-0.1429 0.4286  plane waves:     260
 k-point ** :  -0.1429-0.1429 0.4286  plane waves:     262

 maximum and minimum number of plane-waves per node :        75       55

 maximum number of plane-waves:       279
 maximum index in each direction: 
   IXMAX=    4   IYMAX=    4   IZMAX=    4
   IXMIN=   -4   IYMIN=   -4   IZMIN=   -4


 parallel 3D FFT for wavefunctions:
    minimum data exchange during FFTs selected (reduces bandwidth)
 parallel 3D FFT for charge:
    minimum data exchange during FFTs selected (reduces bandwidth)


 total amount of memory used by VASP MPI-rank0    51104. kBytes
=======================================================================

   base      :      30000. kBytes
   nonl-proj :       2180. kBytes
   fftplans  :       1775. kBytes
   grid      :        570. kBytes
   one-center:         23. kBytes
   wavefun   :      16556. kBytes
 
     INWAV:  cpu time    0.9225: real time    0.9226
 Broyden mixing: mesh for mixing (old mesh)
   NGX =  9   NGY =  9   NGZ =  9
  (NGX  = 36   NGY  = 36   NGZ  = 36)
  gives a total of    729 points

 charge density for first step will be calculated from the start-wavefunctions


--------------------------------------------------------------------------------------------------------


 Maximum index for augmentation-charges         4969 (set IRDMAX)


--------------------------------------------------------------------------------------------------------


 initial charge from wavefunction
 First call to EWALD:  gamma=   0.630
 Maximum number of real-space cells 3x 3x 3
 Maximum number of reciprocal cells 3x 3x 3

    FEWALD:  cpu time    0.0018: real time    0.0018


--------------------------------------- Iteration      1(   1)  ---------------------------------------


    POTLOK:  cpu time    0.0083: real time    0.0094
    SETDIJ:  cpu time    0.0046: real time    0.0046

 total amount of memory used by VASP MPI-rank0    87320. kBytes
=======================================================================

   base      :      30000. kBytes
   nonl-proj :       2180. kBytes
   fftplans  :       1775. kBytes
   grid      :        570. kBytes
   one-center:         23. kBytes
   wavefun   :      52772. kBytes
 
    EDDIAG:  cpu time    3.8689: real time    3.8682
       DOS:  cpu time    0.0021: real time    0.0021
    --------------------------------------------
      LOOP:  cpu time    3.8840: real time    3.8844

 eigenvalue-minimisations  :     0
 total energy-change (2. order) : 0.3087834E+01  ( 0.0000000E+00)
 number of electron       8.0000001 magnetization 
 augmentation part        2.1001245 magnetization 

 Free energy of the ion-electron system (eV)
  ---------------------------------------------------
  alpha Z        PSCENC =        13.95530511
  Ewald energy   TEWEN  =      -473.25263642
  -Hartree energ DENC   =      -354.48851741
  -exchange      EXHF   =         0.00000000
  -V(xc)+E(xc)   XCENC  =        45.52523867
  PAW double counting   =       736.68202017     -778.06068005
  entropy T*S    EENTRO =         0.00000000
  eigenvalues    EBANDS =      -139.95095692
  atomic energy  EATOM  =       952.67806118
  Solvation  Ediel_sol  =         0.00000000
  ---------------------------------------------------
  free energy    TOTEN  =         3.08783433 eV

  energy without entropy =        3.08783433  energy(sigma->0) =        3.08783433


--------------------------------------------------------------------------------------------------------




--------------------------------------- Iteration      1(   2)  ---------------------------------------



 total amount of memory used by VASP MPI-rank0    87320. kBytes
=======================================================================

   base      :      30000. kBytes
   nonl-proj :       2180. kBytes
   fftplans  :       1775. kBytes
   grid      :        570. kBytes
   one-center:         23. kBytes
   wavefun   :      52772. kBytes
 
    EDDIAG:  cpu time    3.8660: real time    3.8696
       DOS:  cpu time    0.0022: real time    0.0022
    --------------------------------------------
      LOOP:  cpu time    3.8682: real time    3.8718

 eigenvalue-minimisations  :     0
 total energy-change (2. order) : 0.7958079E-12  ( 0.0000000E+00)
 number of electron       8.0000001 magnetization 
 augmentation part        2.1001245 magnetization 

 Free energy of the ion-electron system (eV)
  ---------------------------------------------------
  alpha Z        PSCENC =        13.95530511
  Ewald energy   TEWEN  =      -473.25263642
  -Hartree energ DENC   =      -354.48851741
  -exchange      EXHF   =         0.00000000
  -V(xc)+E(xc)   XCENC  =        45.52523867
  PAW double counting   =       736.68202017     -778.06068005
  entropy T*S    EENTRO =         0.00000000
  eigenvalues    EBANDS =      -139.95095692
  atomic energy  EATOM  =       952.67806118
  Solvation  Ediel_sol  =         0.00000000
  ---------------------------------------------------
  free energy    TOTEN  =         3.08783433 eV

  energy without entropy =        3.08783433  energy(sigma->0) =        3.08783433


--------------------------------------------------------------------------------------------------------




--------------------------------------- Iteration      1(   3)  ---------------------------------------



 total amount of memory used by VASP MPI-rank0    87320. kBytes
=======================================================================

   base      :      30000. kBytes
   nonl-proj :       2180. kBytes
   fftplans  :       1775. kBytes
   grid      :        570. kBytes
   one-center:         23. kBytes
   wavefun   :      52772. kBytes
 
    EDDIAG:  cpu time    3.8525: real time    3.8518
       DOS:  cpu time    0.0022: real time    0.0022
    --------------------------------------------
      LOOP:  cpu time    3.8547: real time    3.8540

 eigenvalue-minimisations  :     0
 total energy-change (2. order) : 0.1148237E-10  ( 0.0000000E+00)
 number of electron       8.0000001 magnetization 
 augmentation part        2.1001245 magnetization 

 Free energy of the ion-electron system (eV)
  ---------------------------------------------------
  alpha Z        PSCENC =        13.95530511
  Ewald energy   TEWEN  =      -473.25263642
  -Hartree energ DENC   =      -354.48851741
  -exchange      EXHF   =         0.00000000
  -V(xc)+E(xc)   XCENC  =        45.52523867
  PAW double counting   =       736.68202017     -778.06068005
  entropy T*S    EENTRO =         0.00000000
  eigenvalues    EBANDS =      -139.95095692
  atomic energy  EATOM  =       952.67806118
  Solvation  Ediel_sol  =         0.00000000
  ---------------------------------------------------
  free energy    TOTEN  =         3.08783433 eV

  energy without entropy =        3.08783433  energy(sigma->0) =        3.08783433


--------------------------------------------------------------------------------------------------------




--------------------------------------- Iteration      1(   4)  ---------------------------------------



 total amount of memory used by VASP MPI-rank0    87320. kBytes
=======================================================================

   base      :      30000. kBytes
   nonl-proj :       2180. kBytes
   fftplans  :       1775. kBytes
   grid      :        570. kBytes
   one-center:         23. kBytes
   wavefun   :      52772. kBytes
 
    EDDIAG:  cpu time    3.8568: real time    3.8557
       DOS:  cpu time    0.0022: real time    0.0022
    --------------------------------------------
      LOOP:  cpu time    3.8590: real time    3.8579

 eigenvalue-minimisations  :     0
 total energy-change (2. order) :-0.3296918E-11  ( 0.0000000E+00)
 number of electron       8.0000001 magnetization 
 augmentation part        2.1001245 magnetization 

 Free energy of the ion-electron system (eV)
  ---------------------------------------------------
  alpha Z        PSCENC =        13.95530511
  Ewald energy   TEWEN  =      -473.25263642
  -Hartree energ DENC   =      -354.48851741
  -exchange      EXHF   =         0.00000000
  -V(xc)+E(xc)   XCENC  =        45.52523867
  PAW double counting   =       736.68202017     -778.06068005
  entropy T*S    EENTRO =         0.00000000
  eigenvalues    EBANDS =      -139.95095692
  atomic energy  EATOM  =       952.67806118
  Solvation  Ediel_sol  =         0.00000000
  ---------------------------------------------------
  free energy    TOTEN  =         3.08783433 eV

  energy without entropy =        3.08783433  energy(sigma->0) =        3.08783433


--------------------------------------------------------------------------------------------------------




--------------------------------------- Iteration      1(   5)  ---------------------------------------



 total amount of memory used by VASP MPI-rank0    87320. kBytes
=======================================================================

   base      :      30000. kBytes
   nonl-proj :       2180. kBytes
   fftplans  :       1775. kBytes
   grid      :        570. kBytes
   one-center:         23. kBytes
   wavefun   :      52772. kBytes
 
    EDDIAG:  cpu time    3.9222: real time    3.9712
       DOS:  cpu time    0.0020: real time    0.0020
    CHARGE:  cpu time    0.0116: real time    0.0123
    MIXING:  cpu time    0.0012: real time    0.0012
    --------------------------------------------
      LOOP:  cpu time    3.9370: real time    3.9867

 eigenvalue-minimisations  :     0
 total energy-change (2. order) :-0.1170974E-10  ( 0.0000000E+00)
 number of electron       8.0000001 magnetization 
 augmentation part        2.1001230 magnetization 

 Broyden mixing:
  rms(total) = 0.31879E-05    rms(broyden)= 0.31830E-05
  rms(prec ) = 0.84217E-05
  weight for this iteration     100.00

 Free energy of the ion-electron system (eV)
  ---------------------------------------------------
  alpha Z        PSCENC =        13.95530511
  Ewald energy   TEWEN  =      -473.25263642
  -Hartree energ DENC   =      -354.48851741
  -exchange      EXHF   =         0.00000000
  -V(xc)+E(xc)   XCENC  =        45.52523867
  PAW double counting   =       736.68202017     -778.06068005
  entropy T*S    EENTRO =         0.00000000
  eigenvalues    EBANDS =      -139.95095692
  atomic energy  EATOM  =       952.67806118
  Solvation  Ediel_sol  =         0.00000000
  ---------------------------------------------------
  free energy    TOTEN  =         3.08783433 eV

  energy without entropy =        3.08783433  energy(sigma->0) =        3.08783433


--------------------------------------------------------------------------------------------------------




--------------------------------------- Iteration      1(   6)  ---------------------------------------


    POTLOK:  cpu time    0.0053: real time    0.0054
    SETDIJ:  cpu time    0.0053: real time    0.0057

 total amount of memory used by VASP MPI-rank0    87320. kBytes
=======================================================================

   base      :      30000. kBytes
   nonl-proj :       2180. kBytes
   fftplans  :       1775. kBytes
   grid      :        570. kBytes
   one-center:         23. kBytes
   wavefun   :      52772. kBytes
 
    EDDIAG:  cpu time    3.9703: real time    4.0549
       DOS:  cpu time    0.0022: real time    0.0021
    --------------------------------------------
      LOOP:  cpu time    3.9831: real time    4.0682

 eigenvalue-minimisations  :     0
 total energy-change (2. order) :-0.4192771E-09  ( 0.0000000E+00)
 number of electron       8.0000001 magnetization 
 augmentation part        2.1001230 magnetization 

 Free energy of the ion-electron system (eV)
  ---------------------------------------------------
  alpha Z        PSCENC =        13.95530511
  Ewald energy   TEWEN  =      -473.25263642
  -Hartree energ DENC   =      -354.48842818
  -exchange      EXHF   =         0.00000000
  -V(xc)+E(xc)   XCENC  =        45.52523301
  PAW double counting   =       736.68194263     -778.06058039
  entropy T*S    EENTRO =         0.00000000
  eigenvalues    EBANDS =      -139.95106261
  atomic energy  EATOM  =       952.67806118
  Solvation  Ediel_sol  =         0.00000000
  ---------------------------------------------------
  free energy    TOTEN  =         3.08783433 eV

  energy without entropy =        3.08783433  energy(sigma->0) =        3.08783433


--------------------------------------------------------------------------------------------------------




 average (electrostatic) potential at core
  the test charge radii are     0.8311
  (the norm of the test charge is              1.0000)
       1 -72.5029
 
 
 
 E-fermi : -10.8577     XC(G=0):  -6.6331     alpha+bet : -2.1415


 k-point     1 :       0.0000    0.0000    0.0000
  band No.  band energies     occupation 
      1     -35.5020      2.00000
      2     -11.1466      2.00000
      3     -11.1466      2.00000
      4     -11.1466      2.00000
      5       0.3886      0.00000
      6      18.4515      0.00000
      7      18.4515      0.00000
      8      18.4516      0.00000
      9      20.3338      0.00000
     10      22.9381      0.00000
     11      22.9381      0.00000
     12      22.9383      0.00000
     13      24.7569      0.00000
     14      24.7570      0.00000
     15      25.6278      0.00000
     16      31.3984      0.00000
     17      31.3984      0.00000
     18      31.3985      0.00000
     19      43.6720      0.00000
     20      52.4055      0.00000
     21      52.4055      0.00000
     22      52.4056      0.00000
     23      54.3498      0.00000
     24      54.3499      0.00000
     25      55.3712      0.00000
     26      55.3713      0.00000
     27      55.3714      0.00000
     28      62.3933      0.00000
     29      62.3935      0.00000
     30      62.3936      0.00000
     31      69.2554      0.00000
     32      71.1848      0.00000
     33      71.1849      0.00000
     34      73.8766      0.00000
     35      73.8768      0.00000
     36      73.8768      0.00000
     37      76.9531      0.00000
     38      76.9531      0.00000
     39      76.9532      0.00000
     40      77.9815      0.00000
     41      78.3410      0.00000
     42      78.3412      0.00000
     43      78.3412      0.00000
     44      78.3683      0.00000
     45      78.3686      0.00000
     46      78.3687      0.00000
     47      79.9220      0.00000
     48      79.9221      0.00000
     49      79.9221      0.00000
     50      80.3099      0.00000
     51      80.3099      0.00000
     52      85.1514      0.00000
     53      85.1518      0.00000
     54      85.1519      0.00000
     55      85.7882      0.00000
     56      85.7883      0.00000
     57      85.7885      0.00000
     58      85.9817      0.00000
     59      86.1426      0.00000
     60      96.7331      0.00000
     61      96.7331      0.00000
     62      96.7333      0.00000
     63     112.1341      0.00000
     64     112.1341      0.00000
     65     114.0016      0.00000
     66     117.8045      0.00000
     67     117.8047      0.00000
     68     117.8048      0.00000
     69     125.4942      0.00000
     70     125.4943      0.00000
     71     125.4944      0.00000
     72     129.1468      0.00000
     73     131.1649      0.00000
     74     131.1649      0.00000
     75     133.6858      0.00000
     76     133.6859      0.00000
     77     133.6859      0.00000
     78     137.2043      0.00000
     79     138.8219      0.00000
     80     138.8221      0.00000
     81     138.8222      0.00000
     82     139.2787      0.00000
     83     139.2787      0.00000
     84     139.2788      0.00000
     85     139.6551      0.00000
     86     139.6553      0.00000
     87     139.6553      0.00000
     88     139.7786      0.00000
     89     139.7787      0.00000
     90     142.7533      0.00000
     91     142.7534      0.00000
     92     142.8814      0.00000
     93     142.8819      0.00000
     94     142.8820      0.00000
     95     145.5150      0.00000
     96     145.7124      0.00000
     97     145.7128      0.00000
     98     145.7128      0.00000
     99     145.7709      0.00000
    100     145.7710      0.00000
    101     145.7713      0.00000
    102     145.9211      0.00000
    103     145.9214      0.00000
    104     145.9214      0.00000
    105     145.9372      0.00000
    106     145.9375      0.00000
    107     145.9377      0.00000
    108     146.6232      0.00000
    109     146.9090      0.00000
    110     146.9092      0.00000
    111     146.9093      0.00000
    112     147.0608      0.00000
    113     147.0609      0.00000
    114     160.5531      0.00000
    115     160.5539      0.00000
    116     160.5540      0.00000
    117     169.5828      0.00000
    118     169.5829      0.00000
    119     169.5830      0.00000
    120     172.7725      0.00000
    121     172.7727      0.00000
    122     172.9214      0.00000
    123     173.5046      0.00000
    124     175.3374      0.00000
    125     175.3375      0.00000
    126     175.3376      0.00000
    127     175.5378      0.00000
    128     175.5379      0.00000

 k-point     2 :       0.1429   -0.0000   -0.0000
  band No.  band energies     occupation 
      1     -35.5085      2.00000
      2     -11.5014      2.00000
      3     -11.4084      2.00000
      4     -11.4084      2.00000
      5       0.9538      0.00000
      6      15.0364      0.00000
      7      18.2754      0.00000
      8      18.2755      0.00000
      9      20.7147      0.00000
     10      22.1255      0.00000
     11      22.1256      0.00000
     12      24.1554      0.00000
     13      25.7230      0.00000
     14      25.7230      0.00000
     15      28.1920      0.00000
     16      31.2866      0.00000
     17      32.7440      0.00000
     18      32.7440      0.00000
     19      44.6833      0.00000
     20      47.2414      0.00000
     21      47.2414      0.00000
     22      51.4400      0.00000
     23      53.7794      0.00000
     24      53.7795      0.00000
     25      55.8095      0.00000
     26      60.4901      0.00000
     27      60.5223      0.00000
     28      60.5224      0.00000
     29      62.9565      0.00000
     30      62.9566      0.00000
     31      67.9250      0.00000
     32      67.9250      0.00000
     33      68.6334      0.00000
     34      70.8024      0.00000
     35      70.8026      0.00000
     36      72.3971      0.00000
     37      72.5021      0.00000
     38      73.1489      0.00000
     39      73.1490      0.00000
     40      74.1387      0.00000
     41      75.8743      0.00000
     42      75.8743      0.00000
     43      76.1981      0.00000
     44      79.0020      0.00000
     45      81.0097      0.00000
     46      81.0098      0.00000
     47      82.6339      0.00000
     48      82.6341      0.00000
     49      83.2642      0.00000
     50      84.4840      0.00000
     51      84.4842      0.00000
     52      85.2552      0.00000
     53      86.0928      0.00000
     54      89.6871      0.00000
     55      89.6871      0.00000
     56      90.1483      0.00000
     57      90.1483      0.00000
     58      90.6967      0.00000
     59      94.4665      0.00000
     60      95.6694      0.00000
     61      95.6696      0.00000
     62      99.4232      0.00000
     63     108.3851      0.00000
     64     108.3852      0.00000
     65     108.5833      0.00000
     66     118.9496      0.00000
     67     118.9497      0.00000
     68     120.8708      0.00000
     69     123.6574      0.00000
     70     123.6575      0.00000
     71     124.3382      0.00000
     72     125.9828      0.00000
     73     125.9829      0.00000
     74     129.0522      0.00000
     75     129.6308      0.00000
     76     129.6309      0.00000
     77     130.4330      0.00000
     78     132.3444      0.00000
     79     132.3444      0.00000
     80     132.7448      0.00000
     81     134.2063      0.00000
     82     134.2063      0.00000
     83     134.2952      0.00000
     84     134.4074      0.00000
     85     137.7391      0.00000
     86     137.7393      0.00000
     87     138.5499      0.00000
     88     140.3547      0.00000
     89     140.3548      0.00000
     90     140.4344      0.00000
     91     141.2176      0.00000
     92     141.2176      0.00000
     93     142.6656      0.00000
     94     143.1623      0.00000
     95     143.1625      0.00000
[...]
  230.255355    0.990431    0.990431    0.990431   -0.000000   -0.000000    0.000000
  232.871893    0.990715    0.990715    0.990715   -0.000000   -0.000000    0.000000
  235.488432    0.990982    0.990982    0.990982   -0.000000   -0.000000    0.000000
  238.104970    0.991234    0.991234    0.991234   -0.000000   -0.000000    0.000000
  240.721508    0.991472    0.991472    0.991472   -0.000000   -0.000000    0.000000
  243.338046    0.991699    0.991699    0.991699   -0.000000   -0.000000    0.000000
  245.954584    0.991915    0.991915    0.991915   -0.000000   -0.000000    0.000000
  248.571122    0.992121    0.992121    0.992121   -0.000000   -0.000000    0.000000
  251.187660    0.992318    0.992318    0.992318   -0.000000   -0.000000    0.000000
  253.804198    0.992507    0.992507    0.992507   -0.000000   -0.000000    0.000000
  256.420737    0.992687    0.992687    0.992687   -0.000000   -0.000000    0.000000
  259.037275    0.992861    0.992861    0.992861   -0.000000   -0.000000    0.000000

  frequency dependent IMAGINARY DIELECTRIC FUNCTION (independent particle, no local field effects) current-current (2nd set in vasprun.xml)
     E(ev)      X         Y         Z        XY        YZ        ZX
  --------------------------------------------------------------------------------------------------------------
    0.000000    0.000000    0.000000    0.000000    0.000000    0.000000    0.000000
    2.616538    0.000000    0.000000    0.000000    0.000000    0.000000    0.000000
    5.233076    0.000000    0.000000    0.000000    0.000000    0.000000    0.000000
    7.849614    0.000000    0.000000    0.000000    0.000000    0.000000    0.000000
   10.466153    0.000000    0.000000    0.000000    0.000000    0.000000    0.000000
   13.082691    0.000000    0.000000    0.000000    0.000000    0.000000    0.000000
   15.699229    0.000000    0.000000    0.000000    0.000000    0.000000    0.000000
   18.315767    0.111573    0.111575    0.111576    0.000001   -0.000001    0.000001
   20.932305    0.525386    0.525389    0.525391    0.000002   -0.000002    0.000002
   23.548843    0.439026    0.439024    0.439024   -0.000000    0.000002   -0.000002
   26.165381    0.023678    0.023677    0.023678   -0.000000    0.000000   -0.000000
   28.781919    0.556573    0.556575    0.556572    0.000001    0.000000   -0.000001
   31.398458    0.214582    0.214582    0.214582   -0.000000    0.000001   -0.000001
   34.014996    0.171005    0.171005    0.171005    0.000000    0.000001   -0.000000
   36.631534    0.327423    0.327425    0.327419   -0.000003   -0.000003   -0.000001
   39.248072    0.169586    0.169585    0.169584    0.000000    0.000000    0.000000
   41.864610    0.535930    0.535937    0.535918   -0.000002   -0.000002   -0.000002
   44.481148    0.382904    0.382905    0.382906   -0.000000   -0.000002   -0.000001
   47.097686    0.022273    0.022273    0.022273   -0.000000   -0.000000   -0.000000
   49.714224    0.114710    0.114537    0.114281   -0.000001   -0.000035   -0.000001
   52.330763    0.060337    0.060359    0.060346    0.000000   -0.000010    0.000002
   54.947301    0.069878    0.069876    0.069896    0.000001   -0.000000    0.000001
   57.563839    0.088474    0.088474    0.088477   -0.000000   -0.000000    0.000000
   60.180377    0.020018    0.020019    0.020018   -0.000000   -0.000000   -0.000000
   62.796915    0.093295    0.093312    0.093295    0.000000   -0.000017    0.000003
   65.413453    0.072879    0.072881    0.072880    0.000000   -0.000000    0.000000
   68.029991    0.038011    0.038012    0.038012    0.000001   -0.000000    0.000001
   70.646529    0.154302    0.154300    0.154294   -0.000001    0.000001   -0.000001
   73.263068    0.063227    0.063227    0.063228   -0.000000   -0.000000    0.000000
   75.879606    0.013169    0.013169    0.013170   -0.000000    0.000000   -0.000000
   78.496144    0.073632    0.073628    0.073619    0.000005   -0.000007    0.000005
   81.112682    0.038753    0.038753    0.038752    0.000000    0.000000   -0.000000
   83.729220    0.004511    0.004511    0.004511    0.000000    0.000000   -0.000000
   86.345758    0.018856    0.018861    0.018869   -0.000001   -0.000002   -0.000000
   88.962296    0.013806    0.013805    0.013805   -0.000000    0.000000   -0.000000
   91.578834    0.060922    0.060922    0.060922    0.000000   -0.000000   -0.000000
   94.195373    0.051388    0.051388    0.051388    0.000000   -0.000000    0.000000
   96.811911    0.045070    0.045070    0.045066   -0.000000    0.000000   -0.000000
   99.428449    0.038908    0.038910    0.038909    0.000000    0.000001   -0.000001
  102.044987    0.002954    0.002954    0.002954    0.000000    0.000000   -0.000000
  104.661525    0.037824    0.037824    0.037824   -0.000000    0.000000   -0.000000
  107.278063    0.014266    0.014267    0.014268    0.000000   -0.000000    0.000000
  109.894601    0.007291    0.007291    0.007290    0.000000    0.000000    0.000000
  112.511140    0.005794    0.005794    0.005794    0.000000    0.000000   -0.000000
  115.127678    0.023220    0.023222    0.023225   -0.000001   -0.000000   -0.000001
  117.744216    0.013826    0.013826    0.013827    0.000000   -0.000000    0.000000
  120.360754    0.007413    0.007413    0.007413    0.000000    0.000000    0.000000
  122.977292    0.008944    0.008946    0.008945   -0.000001    0.000001    0.000002
  125.593830    0.005667    0.005670    0.005669    0.000000    0.000002   -0.000001
  128.210368    0.013073    0.013072    0.013073    0.000000   -0.000000    0.000000
  130.826906    0.005480    0.005480    0.005481    0.000000    0.000000    0.000000
  133.443445    0.002156    0.002156    0.002153    0.000000    0.000000    0.000000
  136.059983    0.012315    0.012315    0.012316   -0.000000   -0.000000    0.000000
  138.676521    0.012531    0.012530    0.012530   -0.000000   -0.000000    0.000000
  141.293059    0.012671    0.012671    0.012671   -0.000000    0.000000   -0.000000
  143.909597    0.008353    0.008353    0.008353    0.000000   -0.000000    0.000000
  146.526135    0.011938    0.011938    0.011939    0.000000    0.000000   -0.000000
  149.142673    0.002119    0.002119    0.002119    0.000000    0.000000   -0.000000
  151.759211    0.004176    0.004182    0.004161    0.000001   -0.000002    0.000001
  154.375750    0.005637    0.005637    0.005638   -0.000000    0.000000   -0.000000
  156.992288    0.002739    0.002739    0.002739   -0.000000   -0.000000   -0.000000
  159.608826    0.014920    0.014920    0.014920    0.000000    0.000000    0.000000
  162.225364    0.007916    0.007916    0.007914    0.000000    0.000000   -0.000000
  164.841902    0.003228    0.003229    0.003227   -0.000000    0.000000   -0.000000
  167.458440    0.005768    0.005768    0.005768   -0.000000   -0.000000    0.000000
  170.074978    0.003605    0.003605    0.003605    0.000000    0.000000   -0.000000
  172.691516    0.004730    0.004730    0.004730   -0.000001   -0.000000    0.000000
  175.308055    0.004396    0.004396    0.004396    0.000000    0.000000   -0.000000
  177.924593    0.008439    0.008439    0.008439   -0.000000   -0.000000    0.000000
  180.541131    0.006234    0.006245    0.006230    0.000004    0.000009   -0.000009
  183.157669    0.004397    0.004395    0.004399   -0.000001   -0.000002    0.000001
  185.774207    0.005043    0.005043    0.005043    0.000000    0.000000   -0.000000
  188.390745    0.001373    0.001373    0.001373    0.000000   -0.000000    0.000000
  191.007283    0.002258    0.002258    0.002259    0.000000    0.000000    0.000000
  193.623822    0.001544    0.001544    0.001543   -0.000000   -0.000000    0.000000
  196.240360    0.003074    0.003074    0.003075   -0.000000   -0.000000   -0.000000
  198.856898    0.001408    0.001408    0.001408   -0.000000   -0.000000    0.000000
  201.473436    0.000167    0.000167    0.000167   -0.000000    0.000000   -0.000000
  204.089974    0.000366    0.000366    0.000366    0.000000    0.000000   -0.000000
  206.706512    0.000516    0.000516    0.000516    0.000000   -0.000000   -0.000000
  209.323050    0.000950    0.000950    0.000950   -0.000000    0.000000   -0.000000
  211.939588    0.000638    0.000638    0.000638    0.000000   -0.000000    0.000000
  214.556127    0.000175    0.000175    0.000175   -0.000000    0.000000   -0.000000
  217.172665    0.000000    0.000000    0.000000    0.000000    0.000000    0.000000
  219.789203    0.000000    0.000000    0.000000    0.000000    0.000000    0.000000
  222.405741    0.000000    0.000000    0.000000    0.000000    0.000000    0.000000
  225.022279    0.000000    0.000000    0.000000    0.000000    0.000000    0.000000
  227.638817    0.000000    0.000000    0.000000    0.000000    0.000000    0.000000
  230.255355    0.000000    0.000000    0.000000    0.000000    0.000000    0.000000
  232.871893    0.000000    0.000000    0.000000    0.000000    0.000000    0.000000
  235.488432    0.000000    0.000000    0.000000    0.000000    0.000000    0.000000
  238.104970    0.000000    0.000000    0.000000    0.000000    0.000000    0.000000
  240.721508    0.000000    0.000000    0.000000    0.000000    0.000000    0.000000
  243.338046    0.000000    0.000000    0.000000    0.000000    0.000000    0.000000
  245.954584    0.000000    0.000000    0.000000    0.000000    0.000000    0.000000
  248.571122    0.000000    0.000000    0.000000    0.000000    0.000000    0.000000
  251.187660    0.000000    0.000000    0.000000    0.000000    0.000000    0.000000
  253.804198    0.000000    0.000000    0.000000    0.000000    0.000000    0.000000
  256.420737    0.000000    0.000000    0.000000    0.000000    0.000000    0.000000
  259.037275    0.000000    0.000000    0.000000    0.000000    0.000000    0.000000

  frequency dependent      REAL DIELECTRIC FUNCTION (independent particle, no local field effects) current-current (2nd set in vasprun.xml)
     E(ev)        X           Y           Z          XY          YZ          ZX
  --------------------------------------------------------------------------------------------------------------
    0.000000    1.283946    1.283946    1.283946    0.000000   -0.000000    0.000000
    2.616538    1.287980    1.287980    1.287975    0.000000   -0.000000    0.000000
    5.233076    1.301517    1.301519    1.301517    0.000000   -0.000000    0.000000
    7.849614    1.330427    1.330428    1.330428    0.000000   -0.000000    0.000000
   10.466153    1.402391    1.402393    1.402392    0.000000   -0.000000    0.000001
   13.082691    1.534385    1.534386    1.534386    0.000001   -0.000001    0.000001
   15.699229    1.290257    1.290257    1.290257    0.000000   -0.000000    0.000000
   18.315767    1.336251    1.336247    1.336247   -0.000002    0.000001   -0.000001
   20.932305    1.187157    1.187157    1.187156   -0.000000    0.000000   -0.000001
   23.548843    0.901992    0.901992    0.901991   -0.000000   -0.000000   -0.000000
   26.165381    1.100377    1.100377    1.100376   -0.000000   -0.000000   -0.000000
   28.781919    1.006493    1.006501    1.006495    0.000001   -0.000002   -0.000000
   31.398458    1.031147    1.031277    1.031182    0.000007   -0.000039    0.000000
   34.014996    1.098258    1.098261    1.098265   -0.000000   -0.000001   -0.000000
   36.631534    1.160521    1.160518    1.160657   -0.000003    0.000001   -0.000002
   39.248072    1.011065    1.011067    1.011073   -0.000000    0.000000   -0.000000
   41.864610    0.841544    0.841545    0.841545   -0.000001   -0.000001    0.000000
   44.481148    0.853848    0.853848    0.853850   -0.000000   -0.000000    0.000001
   47.097686    0.892940    0.892937    0.892938   -0.000003   -0.000002    0.000004
   49.714224    0.955837    0.955885    0.955958    0.000000    0.000009    0.000000
   52.330763    0.952177    0.952182    0.952179   -0.000000   -0.000003    0.000001
   54.947301    0.916288    0.916287    0.916295    0.000000    0.000000    0.000000
   57.563839    0.970043    0.970024    0.970039   -0.000002   -0.000008    0.000002
   60.180377    0.972489    0.972488    0.972488   -0.000000   -0.000000    0.000000
   62.796915    0.969706    0.969703    0.969713   -0.000000    0.000004   -0.000000
   65.413453    0.894970    0.894993    0.895109   -0.000007   -0.000020    0.000010
   68.029991    0.888200    0.888199    0.888200   -0.000003   -0.000001    0.000000
   70.646529    0.889283    0.889282    0.889282    0.000001    0.000000   -0.000003
   73.263068    0.936708    0.936707    0.936709   -0.000000   -0.000001   -0.000000
   75.879606    0.925277    0.925288    0.925261   -0.000004   -0.000002   -0.000003
   78.496144    0.950843    0.950840    0.950836   -0.000001   -0.000001   -0.000001
   81.112682    0.944223    0.944224    0.944224    0.000001    0.000001   -0.000000
   83.729220    0.976041    0.976040    0.976040   -0.000001   -0.000001    0.000001
   86.345758    0.952955    0.952954    0.952952    0.000001    0.000001   -0.000000
   88.962296    0.946356    0.946356    0.946342   -0.000000    0.000001    0.000000
   91.578834    0.982487    0.982487    0.982486    0.000000    0.000000    0.000000
   94.195373    0.955604    0.955604    0.955606   -0.000000   -0.000000    0.000000
   96.811911    0.961940    0.961941    0.961942    0.000000   -0.000000    0.000000
   99.428449    0.940676    0.940675    0.940675   -0.000000   -0.000000    0.000000
  102.044987    0.947271    0.947271    0.947271    0.000000    0.000000   -0.000000
  104.661525    0.957146    0.957143    0.957156    0.000002    0.000001    0.000001
  107.278063    0.955726    0.955726    0.955726    0.000000    0.000000    0.000000
  109.894601    0.969580    0.969579    0.969579    0.000000    0.000000    0.000000
  112.511140    0.959622    0.959619    0.959611    0.000001    0.000001   -0.000000
  115.127678    0.967372    0.967373    0.967374   -0.000000    0.000000   -0.000000
  117.744216    0.967817    0.967817    0.967818   -0.000000   -0.000000   -0.000000
  120.360754    0.973515    0.973515    0.973515   -0.000000   -0.000000    0.000000
  122.977292    0.970884    0.970883    0.970883    0.000000   -0.000000   -0.000001
  125.593830    0.969791    0.969790    0.969790   -0.000000   -0.000001    0.000000
  128.210368    0.976808    0.976807    0.976807   -0.000000   -0.000000    0.000000
  130.826906    0.973522    0.973522    0.973523    0.000000    0.000000   -0.000000
  133.443445    0.970724    0.970724    0.970723    0.000000    0.000000    0.000000
  136.059983    0.966236    0.966236    0.966236   -0.000000    0.000000   -0.000000
  138.676521    0.975480    0.975480    0.975480   -0.000000   -0.000000    0.000000
  141.293059    0.967962    0.967962    0.967963    0.000000    0.000000   -0.000000
  143.909597    0.975944    0.975944    0.975944    0.000000    0.000000   -0.000000
  146.526135    0.976362    0.976362    0.976362   -0.000000   -0.000000    0.000000
  149.142673    0.973707    0.973707    0.973706   -0.000000   -0.000000    0.000000
  151.759211    0.977516    0.977517    0.977512    0.000000   -0.000001    0.000001
  154.375750    0.978131    0.978131    0.978131    0.000000    0.000000   -0.000000
  156.992288    0.976752    0.976752    0.976752   -0.000000    0.000000   -0.000000
  159.608826    0.981000    0.981000    0.981000   -0.000000    0.000000   -0.000000
  162.225364    0.979542    0.979542    0.979542   -0.000000    0.000000   -0.000000
  164.841902    0.980640    0.980640    0.980640    0.000000   -0.000000    0.000000
  167.458440    0.978274    0.978274    0.978274   -0.000000   -0.000000    0.000000
  170.074978    0.980834    0.980834    0.980834    0.000000    0.000000    0.000000
  172.691516    0.980481    0.980481    0.980481    0.000000   -0.000000   -0.000000
  175.308055    0.982574    0.982574    0.982574   -0.000000   -0.000000    0.000000
  177.924593    0.981165    0.981165    0.981165   -0.000000    0.000000   -0.000000
  180.541131    0.985011    0.985008    0.985012   -0.000001   -0.000003    0.000003
  183.157669    0.982123    0.982122    0.982123   -0.000000   -0.000000   -0.000000
  185.774207    0.982131    0.982131    0.982131    0.000000    0.000000   -0.000000
  188.390745    0.983271    0.983271    0.983271    0.000000    0.000000   -0.000000
  191.007283    0.983030    0.983030    0.983030    0.000000    0.000000    0.000000
  193.623822    0.984275    0.984275    0.984275    0.000000    0.000000   -0.000000
  196.240360    0.985245    0.985245    0.985245    0.000000    0.000000    0.000000
  198.856898    0.986148    0.986148    0.986148   -0.000000    0.000000    0.000000
  201.473436    0.986650    0.986650    0.986650   -0.000000   -0.000000    0.000000
  204.089974    0.986408    0.986408    0.986408    0.000000   -0.000000    0.000000
  206.706512    0.987488    0.987488    0.987488    0.000000   -0.000000    0.000000
  209.323050    0.987453    0.987453    0.987453   -0.000000   -0.000000    0.000000
  211.939588    0.987151    0.987151    0.987151    0.000000   -0.000000    0.000000
  214.556127    0.987721    0.987721    0.987721   -0.000000   -0.000000   -0.000000
  217.172665    0.988517    0.988517    0.988517    0.000000   -0.000000    0.000000
  219.789203    0.989030    0.989030    0.989030    0.000000   -0.000000    0.000000
  222.405741    0.989438    0.989438    0.989438    0.000000   -0.000000    0.000000
  225.022279    0.989799    0.989799    0.989799    0.000000   -0.000000    0.000000
  227.638817    0.990127    0.990127    0.990127    0.000000   -0.000000    0.000000
  230.255355    0.990431    0.990431    0.990431    0.000000   -0.000000    0.000000
  232.871893    0.990715    0.990715    0.990715    0.000000   -0.000000    0.000000
  235.488432    0.990982    0.990982    0.990982    0.000000   -0.000000    0.000000
  238.104970    0.991234    0.991234    0.991234    0.000000   -0.000000    0.000000
  240.721508    0.991473    0.991473    0.991473    0.000000   -0.000000    0.000000
  243.338046    0.991699    0.991699    0.991699    0.000000   -0.000000    0.000000
  245.954584    0.991915    0.991915    0.991915    0.000000   -0.000000    0.000000
  248.571122    0.992121    0.992121    0.992121    0.000000   -0.000000    0.000000
  251.187660    0.992318    0.992318    0.992318    0.000000   -0.000000    0.000000
  253.804198    0.992507    0.992507    0.992507    0.000000   -0.000000    0.000000
  256.420737    0.992688    0.992688    0.992688    0.000000   -0.000000    0.000000
  259.037275    0.992861    0.992861    0.992861    0.000000   -0.000000    0.000000
 
 The outermost node in the dielectric function lies at epsilon=  -1.0


--------------------------------------------------------------------------------------------------------


    OPTICS:  cpu time    0.2174: real time    0.2303
    4ORBIT:  cpu time    0.0000: real time    0.0000

 total amount of memory used by VASP MPI-rank0    51104. kBytes
=======================================================================

   base      :      30000. kBytes
   nonl-proj :       2180. kBytes
   fftplans  :       1775. kBytes
   grid      :        570. kBytes
   one-center:         23. kBytes
   wavefun   :      16556. kBytes
 
  
  
 General timing and accounting informations for this job:
 ========================================================
  
                  Total CPU time used (sec):       27.024
                            User time (sec):       26.592
                          System time (sec):        0.432
                         Elapsed time (sec):       27.830
  
                   Maximum memory used (kb):      128512.
                   Average memory used (kb):           0.
  
                          Minor page faults:        40825
                          Major page faults:            0
                 Voluntary context switches:         1443
