   1   1   0   0
  0.4557239E+02  0.4009334E-09  0.4009334E-09  0.4009334E-09  0.1000000E-15
  1.000000000000000E-004
  CAR 
 Og_FCC                                  
     73.37131942    -26.45209463  301     -6.73697036      1.00000000
    -26.452  0.0000E+00  0.0000E+00
    -26.119  0.0000E+00  0.0000E+00
    -25.787  0.0000E+00  0.0000E+00
    -25.454  0.0000E+00  0.0000E+00
    -25.121  0.0000E+00  0.0000E+00
    -24.788  0.0000E+00  0.0000E+00
    -24.456  0.0000E+00  0.0000E+00
    -24.123  0.0000E+00  0.0000E+00
    -23.790  0.0000E+00  0.0000E+00
    -23.457  0.0000E+00  0.0000E+00
    -23.125  0.0000E+00  0.0000E+00
    -22.792  0.0000E+00  0.0000E+00
    -22.459  0.0000E+00  0.0000E+00
    -22.126  0.0000E+00  0.0000E+00
    -21.794  0.4214E+00  0.2977E+00
    -21.461  0.0000E+00  0.2000E+01
    -21.128  0.0000E+00  0.2000E+01
    -20.795  0.0000E+00  0.2000E+01
    -20.463  0.0000E+00  0.2000E+01
    -20.130  0.0000E+00  0.2000E+01
    -19.797  0.0000E+00  0.2000E+01
    -19.464  0.0000E+00  0.2000E+01
    -19.132  0.0000E+00  0.2000E+01
    -18.799  0.0000E+00  0.2000E+01
    -18.466  0.0000E+00  0.2000E+01
    -18.133  0.0000E+00  0.2000E+01
    -17.801  0.0000E+00  0.2000E+01
    -17.468  0.0000E+00  0.2000E+01
    -17.135  0.0000E+00  0.2000E+01
    -16.802  0.0000E+00  0.2000E+01
    -16.470  0.0000E+00  0.2000E+01
    -16.137  0.0000E+00  0.2000E+01
    -15.804  0.0000E+00  0.2000E+01
    -15.472  0.0000E+00  0.2000E+01
    -15.139  0.0000E+00  0.2000E+01
    -14.806  0.0000E+00  0.2000E+01
    -14.473  0.0000E+00  0.2000E+01
    -14.141  0.0000E+00  0.2000E+01
    -13.808  0.0000E+00  0.2000E+01
    -13.475  0.0000E+00  0.2000E+01
    -13.142  0.0000E+00  0.2000E+01
    -12.810  0.0000E+00  0.2000E+01
    -12.477  0.0000E+00  0.2000E+01
    -12.144  0.0000E+00  0.2000E+01
    -11.811  0.0000E+00  0.2000E+01
    -11.479  0.0000E+00  0.2000E+01
    -11.146  0.0000E+00  0.2000E+01
    -10.813  0.0000E+00  0.2000E+01
    -10.480  0.0000E+00  0.2000E+01
    -10.148  0.0000E+00  0.2000E+01
     -9.815  0.0000E+00  0.2000E+01
     -9.482  0.0000E+00  0.2000E+01
     -9.149  0.0000E+00  0.2000E+01
     -8.817  0.0000E+00  0.2187E+01
     -8.484  0.1955E-01  0.3488E+01
     -8.151  0.0000E+00  0.3843E+01
     -7.818  0.7891E-01  0.4778E+01
     -7.486  0.0000E+00  0.5959E+01
     -7.153  0.0000E+00  0.7382E+01
     -6.820  0.0000E+00  0.8000E+01
     -6.487  0.0000E+00  0.8000E+01
     -6.155  0.0000E+00  0.8000E+01
     -5.822  0.0000E+00  0.8000E+01
     -5.489  0.0000E+00  0.8000E+01
     -5.156  0.0000E+00  0.8000E+01
     -4.824  0.0000E+00  0.8000E+01
     -4.491  0.0000E+00  0.8000E+01
     -4.158  0.0000E+00  0.8000E+01
     -3.825  0.0000E+00  0.8000E+01
     -3.493  0.0000E+00  0.8000E+01
     -3.160  0.0000E+00  0.8000E+01
     -2.827  0.0000E+00  0.8000E+01
     -2.494  0.0000E+00  0.8000E+01
     -2.162  0.0000E+00  0.8000E+01
     -1.829  0.0000E+00  0.8000E+01
     -1.496  0.0000E+00  0.8000E+01
     -1.163  0.0000E+00  0.8000E+01
     -0.831  0.0000E+00  0.8000E+01
     -0.498  0.0000E+00  0.8000E+01
     -0.165  0.0000E+00  0.8000E+01
      0.167  0.0000E+00  0.8000E+01
      0.500  0.0000E+00  0.8000E+01
      0.833  0.0000E+00  0.8000E+01
      1.166  0.0000E+00  0.8000E+01
      1.498  0.0000E+00  0.8000E+01
      1.831  0.0000E+00  0.8000E+01
      2.164  0.0000E+00  0.8000E+01
      2.497  0.0000E+00  0.8000E+01
      2.829  0.0000E+00  0.8000E+01
      3.162  0.0000E+00  0.8000E+01
      3.495  0.0000E+00  0.8000E+01
      3.828  0.0000E+00  0.8000E+01
      4.160  0.0000E+00  0.8000E+01
      4.493  0.0000E+00  0.8000E+01
      4.826  0.0000E+00  0.8006E+01
      5.159  0.0000E+00  0.8006E+01
      5.491  0.0000E+00  0.8052E+01
      5.824  0.0000E+00  0.8087E+01
      6.157  0.0000E+00  0.8087E+01
      6.490  0.0000E+00  0.8157E+01
      6.822  0.0000E+00  0.8344E+01
      7.155  0.0000E+00  0.8414E+01
      7.488  0.0000E+00  0.8531E+01
      7.821  0.0000E+00  0.9230E+01
      8.153  0.0000E+00  0.9370E+01
      8.486  0.0000E+00  0.9650E+01
      8.819  0.0000E+00  0.1003E+02
      9.152  0.0000E+00  0.1010E+02
      9.484  0.0000E+00  0.1091E+02
      9.817  0.0000E+00  0.1147E+02
     10.150  0.0000E+00  0.1175E+02
     10.483  0.0000E+00  0.1233E+02
     10.815  0.1192E-03  0.1272E+02
     11.148  0.0000E+00  0.1360E+02
     11.481  0.0000E+00  0.1392E+02
     11.814  0.0000E+00  0.1433E+02
     12.146  0.0000E+00  0.1481E+02
     12.479  0.0000E+00  0.1557E+02
     12.812  0.0000E+00  0.1665E+02
     13.145  0.4206E+00  0.1742E+02
     13.477  0.0000E+00  0.1782E+02
     13.810  0.0000E+00  0.1840E+02
     14.143  0.0000E+00  0.1891E+02
     14.476  0.0000E+00  0.1983E+02
     14.808  0.0000E+00  0.2053E+02
     15.141  0.7125E-04  0.2053E+02
     15.474  0.0000E+00  0.2086E+02
     15.806  0.0000E+00  0.2149E+02
     16.139  0.4206E+00  0.2226E+02
     16.472  0.0000E+00  0.2271E+02
     16.805  0.0000E+00  0.2302E+02
     17.137  0.0000E+00  0.2365E+02
     17.470  0.0000E+00  0.2388E+02
     17.803  0.0000E+00  0.2508E+02
     18.136  0.0000E+00  0.2553E+02
     18.468  0.0000E+00  0.2609E+02
     18.801  0.0000E+00  0.2627E+02
     19.134  0.0000E+00  0.2676E+02
     19.467  0.0000E+00  0.2708E+02
     19.799  0.0000E+00  0.2761E+02
     20.132  0.0000E+00  0.2816E+02
     20.465  0.0000E+00  0.2869E+02
     20.798  0.1543E-09  0.2920E+02
     21.130  0.0000E+00  0.2963E+02
     21.463  0.0000E+00  0.3026E+02
     21.796  0.0000E+00  0.3054E+02
     22.129  0.0000E+00  0.3128E+02
     22.461  0.0000E+00  0.3135E+02
     22.794  0.4206E+00  0.3181E+02
     23.127  0.0000E+00  0.3272E+02
     23.460  0.0000E+00  0.3321E+02
     23.792  0.0000E+00  0.3352E+02
     24.125  0.0000E+00  0.3409E+02
     24.458  0.0000E+00  0.3482E+02
     24.791  0.0000E+00  0.3513E+02
     25.123  0.0000E+00  0.3597E+02
     25.456  0.0000E+00  0.3646E+02
     25.789  0.0000E+00  0.3737E+02
     26.122  0.0000E+00  0.3807E+02
     26.454  0.0000E+00  0.3861E+02
     26.787  0.0000E+00  0.3918E+02
     27.120  0.0000E+00  0.3973E+02
     27.453  0.0000E+00  0.4001E+02
     27.785  0.0000E+00  0.4024E+02
     28.118  0.0000E+00  0.4143E+02
     28.451  0.4118E+00  0.4194E+02
     28.784  0.0000E+00  0.4226E+02
     29.116  0.0000E+00  0.4240E+02
     29.449  0.0000E+00  0.4303E+02
     29.782  0.1402E+00  0.4445E+02
     30.115  0.0000E+00  0.4536E+02
     30.447  0.0000E+00  0.4571E+02
     30.780  0.1051E+00  0.4649E+02
     31.113  0.0000E+00  0.4719E+02
     31.445  0.0000E+00  0.4777E+02
     31.778  0.0000E+00  0.4854E+02
     32.111  0.3999E+00  0.4895E+02
     32.444  0.0000E+00  0.4918E+02
     32.776  0.0000E+00  0.4962E+02
     33.109  0.0000E+00  0.4990E+02
     33.442  0.0000E+00  0.5055E+02
     33.775  0.4206E+00  0.5152E+02
     34.107  0.0000E+00  0.5254E+02
     34.440  0.0000E+00  0.5314E+02
     34.773  0.0000E+00  0.5369E+02
     35.106  0.0000E+00  0.5445E+02
     35.438  0.0000E+00  0.5541E+02
     35.771  0.0000E+00  0.5618E+02
     36.104  0.0000E+00  0.5713E+02
     36.437  0.0000E+00  0.5744E+02
     36.769  0.0000E+00  0.5765E+02
     37.102  0.0000E+00  0.5826E+02
     37.435  0.0000E+00  0.5882E+02
     37.768  0.1402E+00  0.5914E+02
     38.100  0.0000E+00  0.5996E+02
     38.433  0.0000E+00  0.6130E+02
     38.766  0.1253E+00  0.6232E+02
     39.099  0.0000E+00  0.6317E+02
     39.431  0.0000E+00  0.6348E+02
     39.764  0.0000E+00  0.6419E+02
     40.097  0.0000E+00  0.6502E+02
     40.430  0.0000E+00  0.6535E+02
     40.762  0.0000E+00  0.6578E+02
     41.095  0.2262E-08  0.6645E+02
     41.428  0.0000E+00  0.6741E+02
     41.761  0.0000E+00  0.6803E+02
     42.093  0.0000E+00  0.6863E+02
     42.426  0.0000E+00  0.6949E+02
     42.759  0.0000E+00  0.7013E+02
     43.092  0.1196E-04  0.7103E+02
     43.424  0.5136E-14  0.7189E+02
     43.757  0.0000E+00  0.7240E+02
     44.090  0.0000E+00  0.7349E+02
     44.423  0.0000E+00  0.7433E+02
     44.755  0.0000E+00  0.7499E+02
     45.088  0.0000E+00  0.7554E+02
     45.421  0.0000E+00  0.7599E+02
     45.754  0.4206E+00  0.7641E+02
     46.086  0.0000E+00  0.7704E+02
     46.419  0.0000E+00  0.7820E+02
     46.752  0.0000E+00  0.7873E+02
     47.084  0.0000E+00  0.7947E+02
     47.417  0.0000E+00  0.8078E+02
     47.750  0.4206E+00  0.8164E+02
     48.083  0.0000E+00  0.8203E+02
     48.415  0.0000E+00  0.8277E+02
     48.748  0.0000E+00  0.8332E+02
     49.081  0.0000E+00  0.8451E+02
     49.414  0.2517E-08  0.8538E+02
     49.746  0.0000E+00  0.8652E+02
     50.079  0.0000E+00  0.8722E+02
     50.412  0.0000E+00  0.8801E+02
     50.745  0.0000E+00  0.8844E+02
     51.077  0.0000E+00  0.8904E+02
     51.410  0.0000E+00  0.8967E+02
     51.743  0.0000E+00  0.9056E+02
     52.076  0.0000E+00  0.9119E+02
     52.408  0.1051E+00  0.9189E+02
     52.741  0.4206E+00  0.9276E+02
     53.074  0.8411E+00  0.9337E+02
     53.407  0.1402E+00  0.9437E+02
     53.739  0.0000E+00  0.9560E+02
     54.072  0.4206E+00  0.9596E+02
     54.405  0.1052E+00  0.9696E+02
     54.738  0.0000E+00  0.9809E+02
     55.070  0.0000E+00  0.9876E+02
     55.403  0.0000E+00  0.9997E+02
     55.736  0.1200E-03  0.1006E+03
     56.069  0.0000E+00  0.1009E+03
     56.401  0.0000E+00  0.1021E+03
     56.734  0.0000E+00  0.1028E+03
     57.067  0.0000E+00  0.1035E+03
     57.400  0.0000E+00  0.1043E+03
     57.732  0.0000E+00  0.1048E+03
     58.065  0.0000E+00  0.1055E+03
     58.398  0.0000E+00  0.1062E+03
     58.731  0.0000E+00  0.1069E+03
     59.063  0.0000E+00  0.1078E+03
     59.396  0.4205E+00  0.1089E+03
     59.729  0.8114E-08  0.1098E+03
     60.062  0.0000E+00  0.1111E+03
     60.394  0.0000E+00  0.1121E+03
     60.727  0.0000E+00  0.1129E+03
     61.060  0.0000E+00  0.1135E+03
     61.393  0.0000E+00  0.1146E+03
     61.725  0.0000E+00  0.1155E+03
     62.058  0.0000E+00  0.1164E+03
     62.391  0.0000E+00  0.1169E+03
     62.723  0.0000E+00  0.1176E+03
     63.056  0.0000E+00  0.1182E+03
     63.389  0.0000E+00  0.1191E+03
     63.722  0.0000E+00  0.1200E+03
     64.054  0.0000E+00  0.1202E+03
     64.387  0.1407E-03  0.1216E+03
     64.720  0.0000E+00  0.1230E+03
     65.053  0.0000E+00  0.1239E+03
     65.385  0.0000E+00  0.1250E+03
     65.718  0.0000E+00  0.1254E+03
     66.051  0.0000E+00  0.1260E+03
     66.384  0.0000E+00  0.1267E+03
     66.716  0.0000E+00  0.1272E+03
     67.049  0.3111E+00  0.1277E+03
     67.382  0.0000E+00  0.1277E+03
     67.715  0.0000E+00  0.1279E+03
     68.047  0.0000E+00  0.1279E+03
     68.380  0.0000E+00  0.1279E+03
     68.713  0.0000E+00  0.1280E+03
     69.046  0.0000E+00  0.1280E+03
     69.378  0.0000E+00  0.1280E+03
     69.711  0.0000E+00  0.1280E+03
     70.044  0.0000E+00  0.1280E+03
     70.377  0.0000E+00  0.1280E+03
     70.709  0.0000E+00  0.1280E+03
     71.042  0.0000E+00  0.1280E+03
     71.375  0.0000E+00  0.1280E+03
     71.708  0.0000E+00  0.1280E+03
     72.040  0.0000E+00  0.1280E+03
     72.373  0.0000E+00  0.1280E+03
     72.706  0.0000E+00  0.1280E+03
     73.039  0.0000E+00  0.1280E+03
     73.371  0.0000E+00  0.1280E+03
