   1   1   0   0
  0.6008441E+02  0.4396350E-09  0.4396350E-09  0.4396350E-09  0.1000000E-15
  1.000000000000000E-004
  CAR 
 Og_FCC                                  
    131.97542376    -46.72775578  301     -0.71168705      1.00000000
    -46.728  0.0000E+00  0.0000E+00
    -46.132  0.0000E+00  0.0000E+00
    -45.536  0.0000E+00  0.0000E+00
    -44.941  0.0000E+00  0.0000E+00
    -44.345  0.0000E+00  0.0000E+00
    -43.749  0.0000E+00  0.0000E+00
    -43.154  0.0000E+00  0.0000E+00
    -42.558  0.0000E+00  0.0000E+00
    -41.962  0.0000E+00  0.0000E+00
    -41.367  0.0000E+00  0.0000E+00
    -40.771  0.0000E+00  0.0000E+00
    -40.175  0.0000E+00  0.0000E+00
    -39.580  0.0000E+00  0.0000E+00
    -38.984  0.0000E+00  0.0000E+00
    -38.388  0.0000E+00  0.1000E+02
    -37.793  0.0000E+00  0.1000E+02
    -37.197  0.0000E+00  0.1000E+02
    -36.601  0.0000E+00  0.1000E+02
    -36.006  0.0000E+00  0.1000E+02
    -35.410  0.0000E+00  0.1000E+02
    -34.814  0.0000E+00  0.1000E+02
    -34.219  0.0000E+00  0.1000E+02
    -33.623  0.0000E+00  0.1000E+02
    -33.027  0.0000E+00  0.1000E+02
    -32.432  0.0000E+00  0.1000E+02
    -31.836  0.0000E+00  0.1000E+02
    -31.240  0.0000E+00  0.1000E+02
    -30.644  0.0000E+00  0.1000E+02
    -30.049  0.0000E+00  0.1000E+02
    -29.453  0.0000E+00  0.1000E+02
    -28.857  0.0000E+00  0.1000E+02
    -28.262  0.0000E+00  0.1000E+02
    -27.666  0.0000E+00  0.1000E+02
    -27.070  0.0000E+00  0.1200E+02
    -26.475  0.0000E+00  0.1200E+02
    -25.879  0.0000E+00  0.1200E+02
    -25.283  0.0000E+00  0.1200E+02
    -24.688  0.0000E+00  0.1200E+02
    -24.092  0.0000E+00  0.1200E+02
    -23.496  0.0000E+00  0.1200E+02
    -22.901  0.0000E+00  0.1200E+02
    -22.305  0.0000E+00  0.1200E+02
    -21.709  0.0000E+00  0.1200E+02
    -21.114  0.0000E+00  0.1200E+02
    -20.518  0.0000E+00  0.1200E+02
    -19.922  0.0000E+00  0.1200E+02
    -19.327  0.0000E+00  0.1200E+02
    -18.731  0.0000E+00  0.1200E+02
    -18.135  0.0000E+00  0.1200E+02
    -17.540  0.0000E+00  0.1200E+02
    -16.944  0.0000E+00  0.1200E+02
    -16.348  0.0000E+00  0.1200E+02
    -15.753  0.0000E+00  0.1200E+02
    -15.157  0.0000E+00  0.1200E+02
    -14.561  0.0000E+00  0.1200E+02
    -13.966  0.0000E+00  0.1200E+02
    -13.370  0.0000E+00  0.1200E+02
    -12.774  0.0000E+00  0.1200E+02
    -12.178  0.0000E+00  0.1200E+02
    -11.583  0.0000E+00  0.1200E+02
    -10.987  0.0000E+00  0.1200E+02
    -10.391  0.0000E+00  0.1200E+02
     -9.796  0.0000E+00  0.1200E+02
     -9.200  0.0000E+00  0.1200E+02
     -8.604  0.0000E+00  0.1200E+02
     -8.009  0.0000E+00  0.1200E+02
     -7.413  0.0000E+00  0.1200E+02
     -6.817  0.0000E+00  0.1200E+02
     -6.222  0.0000E+00  0.1200E+02
     -5.626  0.0000E+00  0.1200E+02
     -5.030  0.0000E+00  0.1200E+02
     -4.435  0.0000E+00  0.1200E+02
     -3.839  0.0000E+00  0.1243E+02
     -3.243  0.8199E-02  0.1371E+02
     -2.648  0.2349E+00  0.1468E+02
     -2.052  0.2710E+00  0.1575E+02
     -1.456  0.0000E+00  0.1752E+02
     -0.861  0.0000E+00  0.1800E+02
     -0.265  0.0000E+00  0.1800E+02
      0.331  0.0000E+00  0.1800E+02
      0.926  0.0000E+00  0.1800E+02
      1.522  0.0000E+00  0.1800E+02
      2.118  0.0000E+00  0.1800E+02
      2.713  0.0000E+00  0.1800E+02
      3.309  0.0000E+00  0.1800E+02
      3.905  0.0000E+00  0.1800E+02
      4.500  0.0000E+00  0.1801E+02
      5.096  0.7831E-01  0.1805E+02
      5.692  0.0000E+00  0.1809E+02
      6.288  0.0000E+00  0.1816E+02
      6.883  0.0000E+00  0.1843E+02
      7.479  0.0000E+00  0.1909E+02
      8.075  0.0000E+00  0.1951E+02
      8.670  0.0000E+00  0.2010E+02
      9.266  0.0000E+00  0.2070E+02
      9.862  0.2349E+00  0.2161E+02
     10.457  0.3915E-01  0.2204E+02
     11.053  0.0000E+00  0.2320E+02
     11.649  0.0000E+00  0.2432E+02
     12.244  0.0000E+00  0.2489E+02
     12.840  0.0000E+00  0.2563E+02
     13.436  0.0000E+00  0.2690E+02
     14.031  0.0000E+00  0.2791E+02
     14.627  0.2349E+00  0.2885E+02
     15.223  0.0000E+00  0.2987E+02
     15.818  0.4699E+00  0.3091E+02
     16.414  0.2349E+00  0.3178E+02
     17.010  0.0000E+00  0.3248E+02
     17.605  0.0000E+00  0.3317E+02
     18.201  0.7510E-01  0.3553E+02
     18.797  0.0000E+00  0.3869E+02
     19.392  0.0000E+00  0.4108E+02
     19.988  0.0000E+00  0.4384E+02
     20.584  0.2949E+00  0.4552E+02
     21.179  0.0000E+00  0.4626E+02
     21.775  0.2349E+00  0.4710E+02
     22.371  0.3524E+00  0.4822E+02
     22.966  0.0000E+00  0.4938E+02
     23.562  0.0000E+00  0.5062E+02
     24.158  0.2349E+00  0.5287E+02
     24.754  0.0000E+00  0.5529E+02
     25.349  0.0000E+00  0.5672E+02
     25.945  0.0000E+00  0.5759E+02
     26.541  0.0000E+00  0.5880E+02
     27.136  0.0000E+00  0.6031E+02
     27.732  0.0000E+00  0.6082E+02
     28.328  0.2335E+00  0.6171E+02
     28.923  0.0000E+00  0.6340E+02
     29.519  0.0000E+00  0.6460E+02
     30.115  0.0000E+00  0.6591E+02
     30.710  0.9900E-01  0.6727E+02
     31.306  0.2608E-16  0.6935E+02
     31.902  0.0000E+00  0.7144E+02
     32.497  0.0000E+00  0.7278E+02
     33.093  0.0000E+00  0.7369E+02
     33.689  0.2310E+00  0.7558E+02
     34.284  0.0000E+00  0.7666E+02
     34.880  0.0000E+00  0.7879E+02
     35.476  0.0000E+00  0.8044E+02
     36.071  0.4697E+00  0.8264E+02
     36.667  0.0000E+00  0.8356E+02
     37.263  0.0000E+00  0.8427E+02
     37.858  0.0000E+00  0.8573E+02
     38.454  0.1433E-13  0.8821E+02
     39.050  0.0000E+00  0.8928E+02
     39.645  0.1278E-01  0.9030E+02
     40.241  0.1170E+00  0.9285E+02
     40.837  0.0000E+00  0.9434E+02
     41.432  0.3881E-01  0.9621E+02
     42.028  0.2676E-02  0.9765E+02
     42.624  0.0000E+00  0.9935E+02
     43.220  0.0000E+00  0.1004E+03
     43.815  0.0000E+00  0.1027E+03
     44.411  0.0000E+00  0.1038E+03
     45.007  0.8439E-12  0.1059E+03
     45.602  0.2421E+00  0.1083E+03
     46.198  0.6339E-02  0.1095E+03
     46.794  0.7238E-15  0.1113E+03
     47.389  0.0000E+00  0.1130E+03
     47.985  0.0000E+00  0.1149E+03
     48.581  0.0000E+00  0.1165E+03
     49.176  0.2556E+00  0.1189E+03
     49.772  0.5873E-01  0.1203E+03
     50.368  0.2541E-03  0.1219E+03
     50.963  0.0000E+00  0.1239E+03
     51.559  0.2349E+00  0.1258E+03
     52.155  0.0000E+00  0.1279E+03
     52.750  0.0000E+00  0.1301E+03
     53.346  0.0000E+00  0.1315E+03
     53.942  0.0000E+00  0.1331E+03
     54.537  0.0000E+00  0.1355E+03
     55.133  0.0000E+00  0.1372E+03
     55.729  0.0000E+00  0.1389E+03
     56.324  0.1471E-01  0.1404E+03
     56.920  0.0000E+00  0.1426E+03
     57.516  0.0000E+00  0.1439E+03
     58.111  0.0000E+00  0.1460E+03
     58.707  0.0000E+00  0.1485E+03
     59.303  0.0000E+00  0.1503E+03
     59.898  0.0000E+00  0.1527E+03
     60.494  0.8061E-14  0.1543E+03
     61.090  0.2169E-08  0.1561E+03
     61.686  0.1689E-13  0.1577E+03
     62.281  0.5873E-01  0.1602E+03
     62.877  0.3524E+00  0.1624E+03
     63.473  0.0000E+00  0.1646E+03
     64.068  0.2349E+00  0.1670E+03
     64.664  0.0000E+00  0.1683E+03
     65.260  0.0000E+00  0.1706E+03
     65.855  0.0000E+00  0.1727E+03
     66.451  0.6683E-01  0.1748E+03
     67.047  0.0000E+00  0.1768E+03
     67.642  0.2349E+00  0.1788E+03
     68.238  0.1566E+00  0.1805E+03
     68.834  0.4699E+00  0.1830E+03
     69.429  0.0000E+00  0.1853E+03
     70.025  0.0000E+00  0.1870E+03
     70.621  0.9631E-06  0.1885E+03
     71.216  0.5873E-01  0.1912E+03
     71.812  0.0000E+00  0.1939E+03
     72.408  0.1175E+00  0.1953E+03
     73.003  0.4655E+00  0.1978E+03
     73.599  0.9817E-01  0.2002E+03
     74.195  0.5788E+00  0.2027E+03
     74.790  0.0000E+00  0.2046E+03
     75.386  0.0000E+00  0.2068E+03
     75.982  0.1392E-09  0.2085E+03
     76.577  0.5873E-01  0.2116E+03
     77.173  0.2349E+00  0.2146E+03
     77.769  0.0000E+00  0.2171E+03
     78.364  0.0000E+00  0.2194E+03
     78.960  0.1453E-01  0.2226E+03
     79.556  0.3100E+00  0.2240E+03
     80.152  0.2349E+00  0.2263E+03
     80.747  0.0000E+00  0.2282E+03
     81.343  0.5449E-10  0.2304E+03
     81.939  0.0000E+00  0.2329E+03
     82.534  0.2349E+00  0.2355E+03
     83.130  0.0000E+00  0.2375E+03
     83.726  0.0000E+00  0.2401E+03
     84.321  0.6521E-17  0.2420E+03
     84.917  0.0000E+00  0.2437E+03
     85.513  0.0000E+00  0.2463E+03
     86.108  0.0000E+00  0.2492E+03
     86.704  0.0000E+00  0.2518E+03
     87.300  0.0000E+00  0.2537E+03
     87.895  0.0000E+00  0.2558E+03
     88.491  0.0000E+00  0.2584E+03
     89.087  0.0000E+00  0.2607E+03
     89.682  0.0000E+00  0.2625E+03
     90.278  0.0000E+00  0.2653E+03
     90.874  0.2349E+00  0.2676E+03
     91.469  0.0000E+00  0.2699E+03
     92.065  0.0000E+00  0.2728E+03
     92.661  0.0000E+00  0.2752E+03
     93.256  0.0000E+00  0.2780E+03
     93.852  0.0000E+00  0.2804E+03
     94.448  0.0000E+00  0.2824E+03
     95.043  0.2349E+00  0.2845E+03
     95.639  0.0000E+00  0.2869E+03
     96.235  0.2704E-04  0.2893E+03
     96.830  0.0000E+00  0.2916E+03
     97.426  0.0000E+00  0.2945E+03
     98.022  0.0000E+00  0.2969E+03
     98.617  0.0000E+00  0.2992E+03
     99.213  0.2349E+00  0.3015E+03
     99.809  0.5451E-11  0.3045E+03
    100.405  0.0000E+00  0.3072E+03
    101.000  0.9259E-01  0.3098E+03
    101.596  0.0000E+00  0.3129E+03
    102.192  0.0000E+00  0.3148E+03
    102.787  0.0000E+00  0.3166E+03
    103.383  0.1175E+00  0.3195E+03
    103.979  0.0000E+00  0.3215E+03
    104.574  0.3489E-02  0.3239E+03
    105.170  0.1232E-01  0.3268E+03
    105.766  0.3730E-01  0.3296E+03
    106.361  0.7766E-01  0.3323E+03
    106.957  0.0000E+00  0.3345E+03
    107.553  0.0000E+00  0.3372E+03
    108.148  0.0000E+00  0.3397E+03
    108.744  0.0000E+00  0.3429E+03
    109.340  0.7502E-07  0.3454E+03
    109.935  0.2304E+00  0.3478E+03
    110.531  0.0000E+00  0.3498E+03
    111.127  0.1116E-06  0.3523E+03
    111.722  0.2053E-01  0.3550E+03
    112.318  0.0000E+00  0.3575E+03
    112.914  0.0000E+00  0.3598E+03
    113.509  0.0000E+00  0.3629E+03
    114.105  0.2349E+00  0.3656E+03
    114.701  0.2848E-09  0.3686E+03
    115.296  0.0000E+00  0.3715E+03
    115.892  0.0000E+00  0.3745E+03
    116.488  0.8161E-01  0.3768E+03
    117.083  0.0000E+00  0.3797E+03
    117.679  0.0000E+00  0.3820E+03
    118.275  0.0000E+00  0.3849E+03
    118.871  0.0000E+00  0.3871E+03
    119.466  0.9134E-08  0.3890E+03
    120.062  0.0000E+00  0.3906E+03
    120.658  0.0000E+00  0.3914E+03
    121.253  0.0000E+00  0.3915E+03
    121.849  0.0000E+00  0.3917E+03
    122.445  0.0000E+00  0.3918E+03
    123.040  0.0000E+00  0.3920E+03
    123.636  0.0000E+00  0.3920E+03
    124.232  0.0000E+00  0.3920E+03
    124.827  0.0000E+00  0.3920E+03
    125.423  0.0000E+00  0.3920E+03
    126.019  0.0000E+00  0.3920E+03
    126.614  0.0000E+00  0.3920E+03
    127.210  0.0000E+00  0.3920E+03
    127.806  0.0000E+00  0.3920E+03
    128.401  0.0000E+00  0.3920E+03
    128.997  0.0000E+00  0.3920E+03
    129.593  0.0000E+00  0.3920E+03
    130.188  0.0000E+00  0.3920E+03
    130.784  0.0000E+00  0.3920E+03
    131.380  0.0000E+00  0.3920E+03
    131.975  0.0000E+00  0.3920E+03
