    1    1    1    1
  0.5494106E+02  0.4267144E-09  0.4267144E-09  0.4267144E-09  0.1000000E-15
  1.000000000000000E-004
  CAR 
 Og_FCC                                  
     18    504     28
 
  0.0000000E+00  0.0000000E+00  0.0000000E+00  0.1000000E-02
    1      -30.197751   1.000000
    2      -30.197751   1.000000
    3      -30.197750   1.000000
    4      -30.197750   1.000000
    5      -23.512775   1.000000
    6      -23.512775   1.000000
    7      -23.507648   1.000000
    8      -23.507648   1.000000
    9      -23.507647   1.000000
   10      -23.507647   1.000000
   11      -19.971702   1.000000
   12      -19.971701   1.000000
   13       -6.639373   1.000000
   14       -6.639372   1.000000
   15        3.892184   1.000000
   16        3.892190   1.000000
   17        4.423765   0.564162
   18        4.423765   0.564160
   19        4.423766   0.564158
   20        4.423766   0.564155
   21       11.231025   0.000000
   22       11.231026   0.000000
   23       11.231027   0.000000
   24       11.231028   0.000000
   25       11.299939   0.000000
   26       11.299941   0.000000
   27       11.676387   0.000000
   28       11.676388   0.000000
 
  0.1000000E+00  0.9375903E-18 -0.6938894E-17  0.2000000E-02
    1      -30.197665   1.000000
    2      -30.197665   1.000000
    3      -30.197390   1.000000
    4      -30.197390   1.000000
    5      -23.511957   1.000000
    6      -23.511957   1.000000
    7      -23.507783   1.000000
    8      -23.507783   1.000000
    9      -23.506710   1.000000
   10      -23.506710   1.000000
   11      -19.958950   1.000000
   12      -19.958949   1.000000
   13       -6.680023   1.000000
   14       -6.680023   1.000000
   15        3.043357   1.000000
   16        3.043360   1.000000
   17        4.354553   0.981454
   18        4.354553   0.981453
   19        5.290870  -0.000000
   20        5.290873  -0.000000
   21       10.371611   0.000000
   22       10.371612   0.000000
   23       11.343034   0.000000
   24       11.343035   0.000000
   25       11.627595   0.000000
   26       11.627604   0.000000
   27       12.567509   0.000000
   28       12.605190   0.000000
 
  0.2000000E+00  0.1575297E-16  0.1387779E-16  0.2000000E-02
    1      -30.197452   1.000000
    2      -30.197452   1.000000
    3      -30.196410   1.000000
    4      -30.196409   1.000000
    5      -23.510414   1.000000
    6      -23.510414   1.000000
    7      -23.507560   1.000000
    8      -23.507560   1.000000
    9      -23.504258   1.000000
   10      -23.504258   1.000000
   11      -19.925178   1.000000
   12      -19.925177   1.000000
   13       -6.786818   1.000000
   14       -6.786817   1.000000
   15        2.129620   1.000000
   16        2.129622   1.000000
   17        4.184169   1.001311
   18        4.184170   1.001311
   19        6.125309  -0.000000
   20        6.125311  -0.000000
   21       10.098399   0.000000
   22       10.098400   0.000000
   23       11.380537   0.000000
   24       11.380540   0.000000
   25       11.725696   0.000000
   26       11.725785   0.000000
   27       12.183933   0.000000
   28       12.197656   0.000000
 
  0.3000000E+00  0.2812771E-17 -0.1387779E-16  0.2000000E-02
    1      -30.197181   1.000000
    2      -30.197181   1.000000
    3      -30.195245   1.000000
    4      -30.195245   1.000000
    5      -23.510372   1.000000
    6      -23.510372   1.000000
    7      -23.505451   1.000000
    8      -23.505451   1.000000
    9      -23.501227   1.000000
   10      -23.501227   1.000000
   11      -19.882801   1.000000
   12      -19.882800   1.000000
   13       -6.919722   1.000000
   14       -6.919721   1.000000
   15        1.433023   1.000000
   16        1.433025   1.000000
   17        3.991564   1.000000
   18        3.991565   1.000000
   19        6.453671  -0.000000
   20        6.453673  -0.000000
   21       10.610935   0.000000
   22       10.610941   0.000000
   23       11.053865   0.000000
   24       11.053865   0.000000
   25       11.497758   0.000000
   26       11.497759   0.000000
   27       11.542552   0.000000
   28       11.542563   0.000000
 
  0.4000000E+00  0.3150594E-16  0.2775558E-16  0.2000000E-02
    1      -30.196954   1.000000
    2      -30.196953   1.000000
    3      -30.194281   1.000000
    4      -30.194281   1.000000
    5      -23.510898   1.000000
    6      -23.510897   1.000000
    7      -23.503199   1.000000
    8      -23.503199   1.000000
    9      -23.498771   1.000000
   10      -23.498771   1.000000
   11      -19.847941   1.000000
   12      -19.847940   1.000000
   13       -7.027915   1.000000
   14       -7.027914   1.000000
   15        1.001418   1.000000
   16        1.001419   1.000000
   17        3.847546   1.000000
   18        3.847547   1.000000
   19        6.460359  -0.000000
   20        6.460359  -0.000000
   21       10.743804   0.000000
   22       10.743804   0.000000
   23       10.853413   0.000000
   24       10.853433   0.000000
   25       11.160752   0.000000
   26       11.160753   0.000000
   27       11.994590   0.000000
   28       11.994591   0.000000
 
  0.5000000E+00  0.3244353E-16 -0.2775558E-16  0.1000000E-02
    1      -30.196881   1.000000
    2      -30.196881   1.000000
    3      -30.193916   1.000000
    4      -30.193916   1.000000
    5      -23.511134   1.000000
    6      -23.511134   1.000000
    7      -23.502311   1.000000
    8      -23.502311   1.000000
    9      -23.497832   1.000000
   10      -23.497832   1.000000
   11      -19.834524   1.000000
   12      -19.834523   1.000000
   13       -7.069436   1.000000
   14       -7.069435   1.000000
   15        0.855606   1.000000
   16        0.855607   1.000000
   17        3.794925   1.000000
   18        3.794926   1.000000
   19        6.434067  -0.000000
   20        6.434068  -0.000000
   21       10.630030   0.000000
   22       10.630030   0.000000
   23       10.761509   0.000000
   24       10.761529   0.000000
   25       11.052036   0.000000
   26       11.052036   0.000000
   27       12.553413   0.000000
   28       12.553414   0.000000
 
  0.1925930E-33  0.1000000E+00  0.0000000E+00  0.2000000E-02
    1      -30.197665   1.000000
    2      -30.197665   1.000000
    3      -30.197390   1.000000
    4      -30.197390   1.000000
    5      -23.511957   1.000000
    6      -23.511957   1.000000
    7      -23.507783   1.000000
    8      -23.507782   1.000000
    9      -23.506710   1.000000
   10      -23.506710   1.000000
   11      -19.958950   1.000000
   12      -19.958949   1.000000
   13       -6.680023   1.000000
   14       -6.680023   1.000000
   15        3.043357   1.000000
   16        3.043361   1.000000
   17        4.354553   0.981455
   18        4.354553   0.981453
   19        5.290870  -0.000000
   20        5.290873  -0.000000
   21       10.371611   0.000000
   22       10.371612   0.000000
   23       11.343034   0.000000
   24       11.343035   0.000000
   25       11.627599   0.000000
   26       11.627602   0.000000
   27       12.567628   0.000000
   28       12.578787   0.000000
 
  0.1000000E+00  0.1000000E+00  0.0000000E+00  0.2000000E-02
    1      -30.197547   1.000000
    2      -30.197547   1.000000
    3      -30.197363   1.000000
    4      -30.197363   1.000000
    5      -23.511788   1.000000
    6      -23.511788   1.000000
    7      -23.507234   1.000000
    8      -23.507233   1.000000
    9      -23.506894   1.000000
   10      -23.506893   1.000000
   11      -19.954704   1.000000
   12      -19.954703   1.000000
   13       -6.693110   1.000000
   14       -6.693110   1.000000
   15        2.933854   1.000000
   16        2.933857   1.000000
   17        4.184616   1.001337
   18        4.184617   1.001337
   19        5.573034  -0.000000
   20        5.573037  -0.000000
   21       10.102179   0.000000
   22       10.102181   0.000000
   23       11.368293   0.000000
   24       11.368296   0.000000
   25       11.922038   0.000000
   26       11.922134   0.000000
   27       12.143049   0.000000
   28       12.146574   0.000000
 
  0.2000000E+00  0.1000000E+00  0.0000000E+00  0.2000000E-02
    1      -30.197327   1.000000
    2      -30.197327   1.000000
    3      -30.196601   1.000000
    4      -30.196601   1.000000
    5      -23.510539   1.000000
    6      -23.510539   1.000000
    7      -23.507293   1.000000
    8      -23.507292   1.000000
    9      -23.504727   1.000000
   10      -23.504727   1.000000
   11      -19.927914   1.000000
   12      -19.927913   1.000000
   13       -6.776508   1.000000
   14       -6.776507   1.000000
   15        2.256201   1.000000
   16        2.256203   1.000000
   17        3.973381   1.000000
   18        3.973382   1.000000
   19        6.336344  -0.000000
   20        6.336347  -0.000000
   21        9.716281   0.000000
   22        9.716282   0.000000
   23       11.010079   0.000000
   24       11.010085   0.000000
   25       11.788025   0.000000
   26       11.788038   0.000000
   27       12.379968   0.000000
   28       12.380213   0.000000
 
  0.3000000E+00  0.1000000E+00  0.0000000E+00  0.2000000E-02
    1      -30.197063   1.000000
    2      -30.197063   1.000000
    3      -30.195535   1.000000
    4      -30.195535   1.000000
    5      -23.509745   1.000000
    6      -23.509745   1.000000
    7      -23.506184   1.000000
    8      -23.506184   1.000000
    9      -23.501771   1.000000
   10      -23.501771   1.000000
   11      -19.888424   1.000000
   12      -19.888423   1.000000
   13       -6.898781   1.000000
   14       -6.898780   1.000000
   15        1.584341   1.000000
   16        1.584343   1.000000
   17        3.737685   1.000000
   18        3.737686   1.000000
   19        6.831491  -0.000000
   20        6.831494  -0.000000
   21        9.977393   0.000000
   22        9.977394   0.000000
   23       10.345240   0.000000
   24       10.345247   0.000000
   25       11.727494   0.000000
   26       11.727506   0.000000
   27       12.895832   0.000000
   28       12.996877   0.000000
 
  0.4000000E+00  0.1000000E+00  0.0000000E+00  0.2000000E-02
    1      -30.196801   1.000000
    2      -30.196801   1.000000
    3      -30.194529   1.000000
    4      -30.194529   1.000000
    5      -23.510044   1.000000
    6      -23.510043   1.000000
    7      -23.503819   1.000000
    8      -23.503819   1.000000
    9      -23.499324   1.000000
   10      -23.499323   1.000000
   11      -19.851007   1.000000
   12      -19.851007   1.000000
   13       -7.013151   1.000000
   14       -7.013150   1.000000
   15        1.106286   1.000000
   16        1.106287   1.000000
   17        3.530757   1.000000
   18        3.530757   1.000000
   19        6.932722  -0.000000
   20        6.932723  -0.000000
   21        9.838363   0.000000
   22        9.838374   0.000000
   23       10.894783   0.000000
   24       10.894785   0.000000
   25       11.508947   0.000000
   26       11.508948   0.000000
   27       12.537391   0.000000
   28       12.537438   0.000000
 
  0.5000000E+00  0.1000000E+00 -0.2775558E-16  0.2000000E-02
    1      -30.196654   1.000000
    2      -30.196654   1.000000
    3      -30.193971   1.000000
    4      -30.193971   1.000000
    5      -23.510315   1.000000
    6      -23.510315   1.000000
    7      -23.502222   1.000000
    8      -23.502222   1.000000
    9      -23.498188   1.000000
   10      -23.498188   1.000000
   11      -19.830349   1.000000
   12      -19.830348   1.000000
   13       -7.075689   1.000000
   14       -7.075688   1.000000
   15        0.879719   1.000000
   16        0.879720   1.000000
   17        3.421111   1.000000
   18        3.421112   1.000000
   19        6.924804  -0.000000
   20        6.924805  -0.000000
   21        9.646509   0.000000
   22        9.646520   0.000000
   23       11.048529   0.000000
   24       11.048529   0.000000
   25       11.963602   0.000000
   26       11.963610   0.000000
   27       12.599560   0.000000
   28       12.599561   0.000000
 
 -0.4000000E+00  0.1000000E+00  0.0000000E+00  0.2000000E-02
    1      -30.196683   1.000000
    2      -30.196683   1.000000
    3      -30.194085   1.000000
    4      -30.194085   1.000000
    5      -23.510206   1.000000
    6      -23.510206   1.000000
    7      -23.502531   1.000000
    8      -23.502531   1.000000
    9      -23.498520   1.000000
   10      -23.498520   1.000000
   11      -19.834814   1.000000
   12      -19.834813   1.000000
   13       -7.062264   1.000000
   14       -7.062263   1.000000
   15        0.923743   1.000000
   16        0.923744   1.000000
   17        3.442637   1.000000
   18        3.442638   1.000000
   19        6.946691  -0.000000
   20        6.946692  -0.000000
   21        9.722711   0.000000
   22        9.722723   0.000000
   23       11.006040   0.000000
   24       11.006040   0.000000
   25       11.817568   0.000000
   26       11.817575   0.000000
   27       12.670376   0.000000
   28       12.670391   0.000000
 
 -0.3000000E+00  0.1000000E+00  0.1387779E-16  0.2000000E-02
    1      -30.196895   1.000000
    2      -30.196895   1.000000
    3      -30.194844   1.000000
    4      -30.194844   1.000000
    5      -23.509750   1.000000
    6      -23.509750   1.000000
    7      -23.504667   1.000000
    8      -23.504666   1.000000
    9      -23.500167   1.000000
   10      -23.500167   1.000000
   11      -19.862615   1.000000
   12      -19.862614   1.000000
   13       -6.978218   1.000000
   14       -6.978217   1.000000
   15        1.234338   1.000000
   16        1.234339   1.000000
   17        3.594374   1.000000
   18        3.594374   1.000000
   19        6.956090  -0.000000
   20        6.956091  -0.000000
   21       10.026839   0.000000
   22       10.026848   0.000000
   23       10.830508   0.000000
   24       10.830512   0.000000
   25       11.244826   0.000000
   26       11.244827   0.000000
   27       12.815630   0.000000
   28       13.152019   0.000000
 
 -0.2000000E+00  0.1000000E+00 -0.6938894E-17  0.2000000E-02
    1      -30.197190   1.000000
    2      -30.197190   1.000000
    3      -30.195888   1.000000
    4      -30.195888   1.000000
    5      -23.509445   1.000000
    6      -23.509445   1.000000
    7      -23.507236   1.000000
    8      -23.507236   1.000000
    9      -23.502749   1.000000
   10      -23.502749   1.000000
   11      -19.902521   1.000000
   12      -19.902520   1.000000
   13       -6.855925   1.000000
   14       -6.855924   1.000000
   15        1.779561   1.000000
   16        1.779563   1.000000
   17        3.844716   1.000000
   18        3.844716   1.000000
   19        6.709412  -0.000000
   20        6.709415  -0.000000
   21        9.935965   0.000000
   22        9.935966   0.000000
   23       10.775209   0.000000
   24       10.775218   0.000000
   25       11.569462   0.000000
   26       11.569467   0.000000
   27       12.360879   0.000000
   28       12.362698   0.000000
 
 -0.1000000E+00  0.1000000E+00  0.8741541E-17  0.2000000E-02
    1      -30.197492   1.000000
    2      -30.197491   1.000000
    3      -30.196863   1.000000
    4      -30.196863   1.000000
    5      -23.510809   1.000000
    6      -23.510809   1.000000
    7      -23.507822   1.000000
    8      -23.507822   1.000000
    9      -23.505341   1.000000
   10      -23.505341   1.000000
   11      -19.939175   1.000000
   12      -19.939175   1.000000
   13       -6.742148   1.000000
   14       -6.742147   1.000000
   15        2.470117   1.000000
   16        2.470120   1.000000
   17        4.137132   1.000128
   18        4.137133   1.000128
   19        5.999408  -0.000000
   20        5.999411  -0.000000
   21        9.974286   0.000000
   22        9.974287   0.000000
   23       11.304559   0.000000
   24       11.304564   0.000000
   25       11.730561   0.000000
   26       11.730735   0.000000
   27       12.387143   0.000000
   28       12.506540   0.000000
 
  0.3851860E-33  0.2000000E+00 -0.1387779E-16  0.2000000E-02
    1      -30.197452   1.000000
    2      -30.197452   1.000000
    3      -30.196409   1.000000
    4      -30.196409   1.000000
    5      -23.510414   1.000000
    6      -23.510414   1.000000
    7      -23.507560   1.000000
    8      -23.507560   1.000000
    9      -23.504259   1.000000
   10      -23.504258   1.000000
   11      -19.925178   1.000000
   12      -19.925177   1.000000
   13       -6.786818   1.000000
   14       -6.786817   1.000000
   15        2.129620   1.000000
   16        2.129623   1.000000
   17        4.184169   1.001311
   18        4.184170   1.001311
   19        6.125309  -0.000000
   20        6.125312  -0.000000
   21       10.098399   0.000000
   22       10.098400   0.000000
   23       11.380537   0.000000
   24       11.380540   0.000000
   25       11.725696   0.000000
   26       11.725937   0.000000
   27       12.183926   0.000000
   28       12.189413   0.000000
 
  0.1000000E+00  0.2000000E+00 -0.2775558E-16  0.2000000E-02
    1      -30.197328   1.000000
    2      -30.197327   1.000000
    3      -30.196601   1.000000
    4      -30.196601   1.000000
    5      -23.510539   1.000000
    6      -23.510539   1.000000
    7      -23.507293   1.000000
    8      -23.507292   1.000000
    9      -23.504727   1.000000
   10      -23.504726   1.000000
   11      -19.927914   1.000000
   12      -19.927913   1.000000
   13       -6.776508   1.000000
   14       -6.776507   1.000000
   15        2.256201   1.000000
   16        2.256203   1.000000
   17        3.973381   1.000000
   18        3.973382   1.000000
   19        6.336344  -0.000000
   20        6.336347  -0.000000
   21        9.716281   0.000000
   22        9.716282   0.000000
   23       11.010079   0.000000
   24       11.010085   0.000000
   25       11.788024   0.000000
   26       11.788025   0.000000
   27       12.379927   0.000000
   28       12.379966   0.000000
 
  0.2000000E+00  0.2000000E+00  0.0000000E+00  0.2000000E-02
    1      -30.197003   1.000000
    2      -30.197003   1.000000
    3      -30.196307   1.000000
    4      -30.196307   1.000000
    5      -23.510438   1.000000
    6      -23.510438   1.000000
    7      -23.506173   1.000000
    8      -23.506172   1.000000
    9      -23.503678   1.000000
   10      -23.503678   1.000000
   11      -19.909780   1.000000
   12      -19.909779   1.000000
   13       -6.829958   1.000000
   14       -6.829957   1.000000
   15        2.017211   1.000000
   16        2.017213   1.000000
   17        3.647523   1.000000
   18        3.647524   1.000000
   19        6.871541  -0.000000
   20        6.871546  -0.000000
   21        9.152990   0.000000
   22        9.152992   0.000000
   23       10.439724   0.000000
   24       10.439730   0.000000
   25       11.968402   0.000000
   26       11.968402   0.000000
   27       12.889209   0.000000
   28       12.889223   0.000000
 
  0.3000000E+00  0.2000000E+00 -0.2775558E-16  0.2000000E-02
    1      -30.196693   1.000000
    2      -30.196693   1.000000
    3      -30.195507   1.000000
    4      -30.195507   1.000000
    5      -23.509697   1.000000
    6      -23.509697   1.000000
    7      -23.505679   1.000000
    8      -23.505679   1.000000
    9      -23.500917   1.000000
   10      -23.500916   1.000000
   11      -19.877355   1.000000
   12      -19.877354   1.000000
   13       -6.926305   1.000000
   14       -6.926305   1.000000
   15        1.578024   1.000000
   16        1.578025   1.000000
   17        3.349235   1.000000
   18        3.349235   1.000000
   19        7.294228   0.000000
   20        7.294235   0.000000
   21        9.010255   0.000000
   22        9.010256   0.000000
   23        9.973648   0.000000
   24        9.973654   0.000000
   25       12.273203   0.000000
   26       12.273204   0.000000
   27       13.395690   0.000000
   28       13.395779   0.000000
 
  0.4000000E+00  0.2000000E+00  0.0000000E+00  0.2000000E-02
    1      -30.196369   1.000000
    2      -30.196368   1.000000
    3      -30.194638   1.000000
    4      -30.194638   1.000000
    5      -23.509008   1.000000
    6      -23.509007   1.000000
    7      -23.504411   1.000000
    8      -23.504411   1.000000
    9      -23.498684   1.000000
   10      -23.498684   1.000000
   11      -19.842738   1.000000
   12      -19.842737   1.000000
   13       -7.027652   1.000000
   14       -7.027651   1.000000
   15        1.184206   1.000000
   16        1.184207   1.000000
   17        3.037768   1.000000
   18        3.037768   1.000000
   19        7.466834   0.000000
   20        7.466840   0.000000
   21        9.189665   0.000000
   22        9.189671   0.000000
   23       10.033419   0.000000
   24       10.033421   0.000000
   25       12.164924   0.000000
   26       12.164924   0.000000
   27       13.803167   0.000000
   28       13.807595   0.000000
 
  0.5000000E+00  0.2000000E+00  0.0000000E+00  0.2000000E-02
    1      -30.196141   1.000000
    2      -30.196141   1.000000
    3      -30.194089   1.000000
    4      -30.194088   1.000000
    5      -23.508745   1.000000
    6      -23.508745   1.000000
    7      -23.502464   1.000000
    8      -23.502463   1.000000
    9      -23.498102   1.000000
   10      -23.498102   1.000000
   11      -19.819385   1.000000
   12      -19.819384   1.000000
   13       -7.095052   1.000000
   14       -7.095052   1.000000
   15        0.946083   1.000000
   16        0.946084   1.000000
   17        2.817419   1.000000
   18        2.817420   1.000000
   19        7.560547   0.000000
   20        7.560551   0.000000
   21        9.080148   0.000000
   22        9.080156   0.000000
   23       10.976827   0.000000
   24       10.976828   0.000000
   25       11.912614   0.000000
   26       11.912615   0.000000
   27       13.685357   0.000000
   28       13.703087   0.000000
 
 -0.4000000E+00  0.2000000E+00 -0.1387779E-16  0.2000000E-02
    1      -30.196111   1.000000
    2      -30.196111   1.000000
    3      -30.194036   1.000000
    4      -30.194036   1.000000
    5      -23.508509   1.000000
    6      -23.508509   1.000000
    7      -23.501491   1.000000
    8      -23.501491   1.000000
    9      -23.498985   1.000000
   10      -23.498985   1.000000
   11      -19.816551   1.000000
   12      -19.816550   1.000000
   13       -7.103518   1.000000
   14       -7.103517   1.000000
   15        0.903642   1.000000
   16        0.903642   1.000000
   17        2.780837   1.000000
   18        2.780837   1.000000
   19        7.714917   0.000000
   20        7.714918   0.000000
   21        9.028315   0.000000
   22        9.028326   0.000000
   23       11.335853   0.000000
   24       11.335854   0.000000
   25       12.167330   0.000000
   26       12.167331   0.000000
   27       13.299075   0.000000
   28       13.300731   0.000000
 
 -0.3000000E+00  0.2000000E+00  0.2081668E-16  0.2000000E-02
    1      -30.196312   1.000000
    2      -30.196312   1.000000
    3      -30.194443   1.000000
    4      -30.194442   1.000000
    5      -23.508143   1.000000
    6      -23.508143   1.000000
    7      -23.503472   1.000000
    8      -23.503472   1.000000
    9      -23.499622   1.000000
   10      -23.499622   1.000000
   11      -19.835317   1.000000
   12      -19.835316   1.000000
   13       -7.050634   1.000000
   14       -7.050633   1.000000
   15        1.060637   1.000000
   16        1.060638   1.000000
   17        2.959920   1.000000
   18        2.959921   1.000000
   19        7.825639   0.000000
   20        7.825640   0.000000
   21        9.187809   0.000000
   22        9.187821   0.000000
   23       10.801475   0.000000
   24       10.801478   0.000000
   25       11.755036   0.000000
   26       11.755038   0.000000
   27       13.092377   0.000000
   28       13.092556   0.000000
 
 -0.2000000E+00  0.2000000E+00 -0.1958487E-16  0.2000000E-02
    1      -30.196739   1.000000
    2      -30.196738   1.000000
    3      -30.195178   1.000000
    4      -30.195178   1.000000
    5      -23.507924   1.000000
    6      -23.507924   1.000000
    7      -23.506465   1.000000
    8      -23.506464   1.000000
    9      -23.500843   1.000000
   10      -23.500843   1.000000
   11      -19.868294   1.000000
   12      -19.868293   1.000000
   13       -6.956531   1.000000
   14       -6.956531   1.000000
   15        1.380722   1.000000
   16        1.380723   1.000000
   17        3.340045   1.000000
   18        3.340046   1.000000
   19        7.507951   0.000000
   20        7.507953   0.000000
   21        9.587577   0.000000
   22        9.587583   0.000000
   23       10.307038   0.000000
   24       10.307044   0.000000
   25       11.700723   0.000000
   26       11.700726   0.000000
   27       12.330001   0.000000
   28       12.330009   0.000000
 
 -0.1000000E+00  0.2000000E+00 -0.6938894E-17  0.2000000E-02
    1      -30.197191   1.000000
    2      -30.197190   1.000000
    3      -30.195888   1.000000
    4      -30.195888   1.000000
    5      -23.509446   1.000000
    6      -23.509445   1.000000
    7      -23.507236   1.000000
    8      -23.507236   1.000000
    9      -23.502749   1.000000
   10      -23.502749   1.000000
   11      -19.902521   1.000000
   12      -19.902520   1.000000
   13       -6.855925   1.000000
   14       -6.855924   1.000000
   15        1.779561   1.000000
   16        1.779563   1.000000
   17        3.844716   1.000000
   18        3.844716   1.000000
   19        6.709412  -0.000000
   20        6.709415  -0.000000
   21        9.935965   0.000000
   22        9.935966   0.000000
   23       10.775209   0.000000
   24       10.775218   0.000000
   25       11.569461   0.000000
   26       11.569472   0.000000
   27       12.361112   0.000000
   28       12.362294   0.000000
 
  0.3851860E-33  0.3000000E+00  0.0000000E+00  0.2000000E-02
    1      -30.197181   1.000000
    2      -30.197181   1.000000
    3      -30.195245   1.000000
    4      -30.195245   1.000000
    5      -23.510372   1.000000
    6      -23.510372   1.000000
    7      -23.505451   1.000000
    8      -23.505451   1.000000
    9      -23.501227   1.000000
   10      -23.501227   1.000000
   11      -19.882801   1.000000
   12      -19.882800   1.000000
   13       -6.919722   1.000000
   14       -6.919721   1.000000
   15        1.433023   1.000000
   16        1.433025   1.000000
   17        3.991564   1.000000
   18        3.991565   1.000000
   19        6.453671  -0.000000
   20        6.453672  -0.000000
   21       10.610935   0.000000
   22       10.610941   0.000000
   23       11.053865   0.000000
   24       11.053865   0.000000
   25       11.497758   0.000000
   26       11.497759   0.000000
   27       11.542555   0.000000
   28       11.542566   0.000000
 
  0.1000000E+00  0.3000000E+00  0.0000000E+00  0.2000000E-02
    1      -30.197063   1.000000
    2      -30.197063   1.000000
    3      -30.195535   1.000000
    4      -30.195535   1.000000
    5      -23.509745   1.000000
    6      -23.509745   1.000000
    7      -23.506184   1.000000
    8      -23.506184   1.000000
    9      -23.501771   1.000000
   10      -23.501771   1.000000
   11      -19.888424   1.000000
   12      -19.888423   1.000000
   13       -6.898781   1.000000
   14       -6.898780   1.000000
   15        1.584341   1.000000
   16        1.584343   1.000000
   17        3.737685   1.000000
   18        3.737686   1.000000
   19        6.831491  -0.000000
   20        6.831494  -0.000000
   21        9.977393   0.000000
   22        9.977394   0.000000
   23       10.345240   0.000000
   24       10.345247   0.000000
   25       11.727495   0.000000
   26       11.727522   0.000000
   27       12.912027   0.000000
   28       12.958730   0.000000
 
  0.2000000E+00  0.3000000E+00  0.0000000E+00  0.2000000E-02
    1      -30.196693   1.000000
    2      -30.196693   1.000000
    3      -30.195506   1.000000
    4      -30.195506   1.000000
    5      -23.509698   1.000000
    6      -23.509697   1.000000
    7      -23.505680   1.000000
    8      -23.505679   1.000000
    9      -23.500916   1.000000
   10      -23.500916   1.000000
   11      -19.877355   1.000000
   12      -19.877354   1.000000
   13       -6.926305   1.000000
   14       -6.926305   1.000000
   15        1.578023   1.000000
   16        1.578025   1.000000
   17        3.349235   1.000000
   18        3.349235   1.000000
   19        7.294228   0.000000
   20        7.294235   0.000000
   21        9.010255   0.000000
   22        9.010256   0.000000
   23        9.973648   0.000000
   24        9.973654   0.000000
   25       12.273203   0.000000
   26       12.273203   0.000000
   27       13.395690   0.000000
   28       13.395754   0.000000
 
  0.3000000E+00  0.3000000E+00  0.2775558E-16  0.2000000E-02
    1      -30.196340   1.000000
    2      -30.196340   1.000000
    3      -30.195037   1.000000
    4      -30.195037   1.000000
    5      -23.509904   1.000000
    6      -23.509903   1.000000
    7      -23.504910   1.000000
    8      -23.504910   1.000000
    9      -23.498557   1.000000
   10      -23.498557   1.000000
   11      -19.853635   1.000000
   12      -19.853635   1.000000
   13       -6.992189   1.000000
   14       -6.992189   1.000000
   15        1.377710   1.000000
   16        1.377711   1.000000
   17        3.100229   1.000000
   18        3.100230   1.000000
   19        7.230604   0.000000
   20        7.230615   0.000000
   21        8.472469   0.000000
   22        8.472471   0.000000
   23       10.151151   0.000000
   24       10.151153   0.000000
   25       12.884871   0.000000
   26       12.884872   0.000000
   27       14.010732   0.000000
   28       14.011241   0.000000
 
  0.4000000E+00  0.3000000E+00  0.2775558E-16  0.2000000E-02
    1      -30.195998   1.000000
    2      -30.195997   1.000000
    3      -30.194403   1.000000
    4      -30.194403   1.000000