 running on   16 total cores
 distrk:  each k-point on    4 cores,    4 groups
 distr:  one band on    4 cores,    1 groups
 using from now: INCAR     
 vasp.5.4.4.18Apr17-6-g9f103f2a35 (build Jul 09 2018 16:43:14) complex          
  
 POSCAR found type information on POSCAR  Og
 POSCAR found :  1 types and       1 ions
 scaLAPACK will be used

 ----------------------------------------------------------------------------- 
|                                                                             |
|           W    W    AA    RRRRR   N    N  II  N    N   GGGG   !!!           |
|           W    W   A  A   R    R  NN   N  II  NN   N  G    G  !!!           |
|           W    W  A    A  R    R  N N  N  II  N N  N  G       !!!           |
|           W WW W  AAAAAA  RRRRR   N  N N  II  N  N N  G  GGG   !            |
|           WW  WW  A    A  R   R   N   NN  II  N   NN  G    G                |
|           W    W  A    A  R    R  N    N  II  N    N   GGGG   !!!           |
|                                                                             |
|      You have enabled k-point parallelism (KPAR>1).                         |
|      This developmental code was originally  written by Paul Kent at ORNL,  |
|      and carefully double checked in Vienna.                                |
|      GW as well as linear response parallelism added by Martijn Marsman     |
|      and Georg Kresse.                                                      |
|      Carefully verify results versus KPAR=1.                                |
|      Report problems to Paul Kent and Vienna.                               |
|                                                                             |
 ----------------------------------------------------------------------------- 


 ----------------------------------------------------------------------------- 
|                                                                             |
|  ADVICE TO THIS USER RUNNING 'VASP/VAMP'   (HEAR YOUR MASTER'S VOICE ...):  |
|                                                                             |
|      You enforced a specific xc-type in the INCAR file,                     |
|      a different type was found on the POTCAR file                          |
|          I HOPE YOU KNOW, WHAT YOU ARE  DOING                               |
|                                                                             |
 ----------------------------------------------------------------------------- 

 LDA part: xc-table for Pade appr. of Perdew
 generate k-points for:   10   10   10
 POSCAR, INCAR and KPOINTS ok, starting setup
 FFT: planning ...
 WAVECAR not read
 entering main loop
       N       E                     dE             d eps       ncg     rms          rms(c)
DAV:   1     0.305268850044E+03    0.30527E+03   -0.97730E+03 29032   0.128E+03
DAV:   2     0.677576851505E+00   -0.30459E+03   -0.29547E+03 36712   0.461E+02
DAV:   3    -0.132596064241E+02   -0.13937E+02   -0.13881E+02 34228   0.122E+02
DAV:   4    -0.136882009351E+02   -0.42859E+00   -0.42834E+00 42464   0.260E+01
DAV:   5    -0.137027668956E+02   -0.14566E-01   -0.14565E-01 37748   0.397E+00    0.633E+00
RMM:   6    -0.135658799838E+02    0.13689E+00   -0.88108E-01 33679   0.113E+01    0.215E+00
RMM:   7    -0.135695123947E+02   -0.36324E-02   -0.17935E-01 32820   0.444E+00    0.858E-01
RMM:   8    -0.135793990252E+02   -0.98866E-02   -0.38428E-02 33158   0.262E+00    0.446E-01
RMM:   9    -0.135846918368E+02   -0.52928E-02   -0.70781E-03 37750   0.102E+00    0.279E-01
RMM:  10    -0.135856018877E+02   -0.91005E-03   -0.26938E-03 39192   0.693E-01    0.593E-02
RMM:  11    -0.135856378397E+02   -0.35952E-04   -0.46288E-04 38023   0.264E-01    0.145E-02
RMM:  12    -0.135856671916E+02   -0.29352E-04   -0.10468E-04 36517   0.149E-01    0.774E-03
RMM:  13    -0.135856739647E+02   -0.67731E-05   -0.22506E-05 40394   0.505E-02    0.281E-03
RMM:  14    -0.135856754508E+02   -0.14861E-05   -0.50787E-06 39852   0.289E-02    0.569E-04
RMM:  15    -0.135856758055E+02   -0.35478E-06   -0.99100E-07 40033   0.102E-02    0.490E-04
RMM:  16    -0.135856753888E+02    0.41674E-06   -0.22641E-07 32373   0.622E-03    0.203E-04
RMM:  17    -0.135856753158E+02    0.73042E-07   -0.68387E-08 25234   0.384E-03
   1 F= -.13585675E+02 E0= -.13585668E+02  d E =-.220331E-04  mag=    -0.0000     0.0000     0.0000
