Og_FCC                                  
           1
     4.347780    0.000000    0.000000
     2.173890    3.765288   -0.000000
     2.173890    1.255096    3.549948
   Og
   1
Direct configuration=     1
   0.00000000  0.00000000  0.00000000
Og_FCC                                  
           1
     4.434736    0.000000    0.000000
     2.217368    3.765288   -0.000000
     2.217368    1.255096    3.549948
   Og
   1
Direct configuration=     2
   0.00000000  0.00000000  0.00000000
Og_FCC                                  
           1
     4.260825    0.000000    0.000000
     2.130412    3.765288   -0.000000
     2.130412    1.255096    3.549948
   Og
   1
Direct configuration=     3
   0.00000000  0.00000000  0.00000000
