    1    1    1    1
  0.5899102E+02  0.4369519E-09  0.4369519E-09  0.4369519E-09  0.1000000E-15
  1.000000000000000E-004
  CAR 
 Og_FCC                                  
     18    365     28
