   1   1   0   0
  0.5789729E+02  0.4342346E-09  0.4342346E-09  0.4342346E-09  0.1000000E-15
  1.000000000000000E-004
  CAR 
 Og_FCC                                  
     17.38923890    -32.75641433  301      3.96099021      1.00000000
    -32.756  0.0000E+00  0.0000E+00
    -32.589  0.0000E+00  0.0000E+00
    -32.422  0.0000E+00  0.0000E+00
    -32.255  0.0000E+00  0.0000E+00
    -32.088  0.0000E+00  0.0000E+00
    -31.921  0.0000E+00  0.0000E+00
    -31.754  0.0000E+00  0.0000E+00
    -31.586  0.0000E+00  0.0000E+00
    -31.419  0.0000E+00  0.0000E+00
    -31.252  0.0000E+00  0.0000E+00
    -31.085  0.0000E+00  0.0000E+00
    -30.918  0.0000E+00  0.0000E+00
    -30.751  0.0000E+00  0.0000E+00
    -30.583  0.0000E+00  0.0000E+00
    -30.416  0.0000E+00  0.4000E+01
    -30.249  0.0000E+00  0.4000E+01
    -30.082  0.0000E+00  0.4000E+01
    -29.915  0.0000E+00  0.4000E+01
    -29.748  0.0000E+00  0.4000E+01
    -29.581  0.0000E+00  0.4000E+01
    -29.413  0.0000E+00  0.4000E+01
    -29.246  0.0000E+00  0.4000E+01
    -29.079  0.0000E+00  0.4000E+01
    -28.912  0.0000E+00  0.4000E+01
    -28.745  0.0000E+00  0.4000E+01
    -28.578  0.0000E+00  0.4000E+01
    -28.410  0.0000E+00  0.4000E+01
    -28.243  0.0000E+00  0.4000E+01
    -28.076  0.0000E+00  0.4000E+01
    -27.909  0.0000E+00  0.4000E+01
    -27.742  0.0000E+00  0.4000E+01
    -27.575  0.0000E+00  0.4000E+01
    -27.408  0.0000E+00  0.4000E+01
    -27.240  0.0000E+00  0.4000E+01
    -27.073  0.0000E+00  0.4000E+01
    -26.906  0.0000E+00  0.4000E+01
    -26.739  0.0000E+00  0.4000E+01
    -26.572  0.0000E+00  0.4000E+01
    -26.405  0.0000E+00  0.4000E+01
    -26.237  0.0000E+00  0.4000E+01
    -26.070  0.0000E+00  0.4000E+01
    -25.903  0.0000E+00  0.4000E+01
    -25.736  0.0000E+00  0.4000E+01
    -25.569  0.0000E+00  0.4000E+01
    -25.402  0.0000E+00  0.4000E+01
    -25.235  0.0000E+00  0.4000E+01
    -25.067  0.0000E+00  0.4000E+01
    -24.900  0.0000E+00  0.4000E+01
    -24.733  0.0000E+00  0.4000E+01
    -24.566  0.0000E+00  0.4000E+01
    -24.399  0.0000E+00  0.4000E+01
    -24.232  0.0000E+00  0.4000E+01
    -24.065  0.0000E+00  0.4000E+01
    -23.897  0.0000E+00  0.4000E+01
    -23.730  0.0000E+00  0.1000E+02
    -23.563  0.0000E+00  0.1000E+02
    -23.396  0.0000E+00  0.1000E+02
    -23.229  0.0000E+00  0.1000E+02
    -23.062  0.0000E+00  0.1000E+02
    -22.894  0.0000E+00  0.1000E+02
    -22.727  0.0000E+00  0.1000E+02
    -22.560  0.0000E+00  0.1000E+02
    -22.393  0.0000E+00  0.1000E+02
    -22.226  0.0000E+00  0.1000E+02
    -22.059  0.0000E+00  0.1000E+02
    -21.892  0.0000E+00  0.1000E+02
    -21.724  0.0000E+00  0.1000E+02
    -21.557  0.0000E+00  0.1000E+02
    -21.390  0.0000E+00  0.1000E+02
    -21.223  0.0000E+00  0.1000E+02
    -21.056  0.0000E+00  0.1000E+02
    -20.889  0.0000E+00  0.1000E+02
    -20.721  0.0000E+00  0.1000E+02
    -20.554  0.0000E+00  0.1000E+02
    -20.387  0.0000E+00  0.1000E+02
    -20.220  0.0000E+00  0.1000E+02
    -20.053  0.0000E+00  0.1200E+02
    -19.886  0.0000E+00  0.1200E+02
    -19.719  0.0000E+00  0.1200E+02
    -19.551  0.0000E+00  0.1200E+02
    -19.384  0.0000E+00  0.1200E+02
    -19.217  0.0000E+00  0.1200E+02
    -19.050  0.0000E+00  0.1200E+02
    -18.883  0.0000E+00  0.1200E+02
    -18.716  0.0000E+00  0.1200E+02
    -18.548  0.0000E+00  0.1200E+02
    -18.381  0.0000E+00  0.1200E+02
    -18.214  0.0000E+00  0.1200E+02
    -18.047  0.0000E+00  0.1200E+02
    -17.880  0.0000E+00  0.1200E+02
    -17.713  0.0000E+00  0.1200E+02
    -17.546  0.0000E+00  0.1200E+02
    -17.378  0.0000E+00  0.1200E+02
    -17.211  0.0000E+00  0.1200E+02
    -17.044  0.0000E+00  0.1200E+02
    -16.877  0.0000E+00  0.1200E+02
    -16.710  0.0000E+00  0.1200E+02
    -16.543  0.0000E+00  0.1200E+02
    -16.376  0.0000E+00  0.1200E+02
    -16.208  0.0000E+00  0.1200E+02
    -16.041  0.0000E+00  0.1200E+02
    -15.874  0.0000E+00  0.1200E+02
    -15.707  0.0000E+00  0.1200E+02
    -15.540  0.0000E+00  0.1200E+02
    -15.373  0.0000E+00  0.1200E+02
    -15.205  0.0000E+00  0.1200E+02
    -15.038  0.0000E+00  0.1200E+02
    -14.871  0.0000E+00  0.1200E+02
    -14.704  0.0000E+00  0.1200E+02
    -14.537  0.0000E+00  0.1200E+02
    -14.370  0.0000E+00  0.1200E+02
    -14.203  0.0000E+00  0.1200E+02
    -14.035  0.0000E+00  0.1200E+02
    -13.868  0.0000E+00  0.1200E+02
    -13.701  0.0000E+00  0.1200E+02
    -13.534  0.0000E+00  0.1200E+02
    -13.367  0.0000E+00  0.1200E+02
    -13.200  0.0000E+00  0.1200E+02
    -13.032  0.0000E+00  0.1200E+02
    -12.865  0.0000E+00  0.1200E+02
    -12.698  0.0000E+00  0.1200E+02
    -12.531  0.0000E+00  0.1200E+02
    -12.364  0.0000E+00  0.1200E+02
    -12.197  0.0000E+00  0.1200E+02
    -12.030  0.0000E+00  0.1200E+02
    -11.862  0.0000E+00  0.1200E+02
    -11.695  0.0000E+00  0.1200E+02
    -11.528  0.0000E+00  0.1200E+02
    -11.361  0.0000E+00  0.1200E+02
    -11.194  0.0000E+00  0.1200E+02
    -11.027  0.0000E+00  0.1200E+02
    -10.859  0.0000E+00  0.1200E+02
    -10.692  0.0000E+00  0.1200E+02
    -10.525  0.0000E+00  0.1200E+02
    -10.358  0.0000E+00  0.1200E+02
    -10.191  0.0000E+00  0.1200E+02
    -10.024  0.0000E+00  0.1200E+02
     -9.857  0.0000E+00  0.1200E+02
     -9.689  0.0000E+00  0.1200E+02
     -9.522  0.0000E+00  0.1200E+02
     -9.355  0.0000E+00  0.1200E+02
     -9.188  0.0000E+00  0.1200E+02
     -9.021  0.0000E+00  0.1200E+02
     -8.854  0.0000E+00  0.1200E+02
     -8.687  0.0000E+00  0.1200E+02
     -8.519  0.0000E+00  0.1200E+02
     -8.352  0.0000E+00  0.1200E+02
     -8.185  0.0000E+00  0.1200E+02
     -8.018  0.0000E+00  0.1200E+02
     -7.851  0.0000E+00  0.1200E+02
     -7.684  0.0000E+00  0.1200E+02
     -7.516  0.0000E+00  0.1200E+02
     -7.349  0.0000E+00  0.1214E+02
     -7.182  0.5083E+00  0.1354E+02
     -7.015  0.0000E+00  0.1392E+02
     -6.848  0.0000E+00  0.1400E+02
     -6.681  0.0000E+00  0.1400E+02
     -6.514  0.0000E+00  0.1400E+02
     -6.346  0.0000E+00  0.1400E+02
     -6.179  0.0000E+00  0.1400E+02
     -6.012  0.0000E+00  0.1400E+02
     -5.845  0.0000E+00  0.1400E+02
     -5.678  0.0000E+00  0.1400E+02
     -5.511  0.0000E+00  0.1400E+02
     -5.343  0.0000E+00  0.1400E+02
     -5.176  0.0000E+00  0.1400E+02
     -5.009  0.0000E+00  0.1400E+02
     -4.842  0.0000E+00  0.1400E+02
     -4.675  0.0000E+00  0.1400E+02
     -4.508  0.0000E+00  0.1400E+02
     -4.341  0.0000E+00  0.1400E+02
     -4.173  0.0000E+00  0.1400E+02
     -4.006  0.0000E+00  0.1400E+02
     -3.839  0.0000E+00  0.1400E+02
     -3.672  0.0000E+00  0.1400E+02
     -3.505  0.0000E+00  0.1400E+02
     -3.338  0.0000E+00  0.1400E+02
     -3.170  0.0000E+00  0.1400E+02
     -3.003  0.0000E+00  0.1400E+02
     -2.836  0.0000E+00  0.1400E+02
     -2.669  0.0000E+00  0.1400E+02
     -2.502  0.0000E+00  0.1400E+02
     -2.335  0.0000E+00  0.1400E+02
     -2.168  0.0000E+00  0.1400E+02
     -2.000  0.0000E+00  0.1400E+02
     -1.833  0.0000E+00  0.1400E+02
     -1.666  0.0000E+00  0.1400E+02
     -1.499  0.0000E+00  0.1400E+02
     -1.332  0.0000E+00  0.1400E+02
     -1.165  0.0000E+00  0.1400E+02
     -0.998  0.0000E+00  0.1400E+02
     -0.830  0.0000E+00  0.1400E+02
     -0.663  0.0000E+00  0.1400E+02
     -0.496  0.0000E+00  0.1400E+02
     -0.329  0.0000E+00  0.1400E+02
     -0.162  0.0000E+00  0.1400E+02
      0.005  0.0000E+00  0.1400E+02
      0.173  0.0000E+00  0.1400E+02
      0.340  0.0000E+00  0.1400E+02
      0.507  0.0000E+00  0.1400E+02
      0.674  0.0000E+00  0.1400E+02
      0.841  0.5223E-01  0.1441E+02
      1.008  0.0000E+00  0.1540E+02
      1.175  0.0000E+00  0.1553E+02
      1.343  0.0000E+00  0.1575E+02
      1.510  0.0000E+00  0.1586E+02
      1.677  0.0000E+00  0.1586E+02
      1.844  0.0000E+00  0.1597E+02
      2.011  0.0000E+00  0.1619E+02
      2.178  0.0000E+00  0.1636E+02
      2.346  0.0000E+00  0.1669E+02
      2.513  0.0000E+00  0.1691E+02
      2.680  0.0000E+00  0.1696E+02
      2.847  0.0000E+00  0.1741E+02
      3.014  0.0000E+00  0.1741E+02
      3.181  0.0000E+00  0.1763E+02
      3.348  0.0000E+00  0.1774E+02
      3.516  0.0000E+00  0.1783E+02
      3.683  0.0000E+00  0.1791E+02
      3.850  0.0000E+00  0.1799E+02
      4.017  0.0000E+00  0.1801E+02
      4.184  0.0000E+00  0.1801E+02
      4.351  0.0000E+00  0.1801E+02
      4.519  0.0000E+00  0.1801E+02
      4.686  0.0000E+00  0.1801E+02
      4.853  0.0000E+00  0.1801E+02
      5.020  0.0000E+00  0.1801E+02
      5.187  0.0000E+00  0.1801E+02
      5.354  0.0000E+00  0.1801E+02
      5.521  0.0000E+00  0.1801E+02
      5.689  0.0000E+00  0.1808E+02
      5.856  0.0000E+00  0.1808E+02
      6.023  0.0000E+00  0.1808E+02
      6.190  0.0000E+00  0.1814E+02
      6.357  0.0000E+00  0.1828E+02
      6.524  0.0000E+00  0.1828E+02
      6.691  0.0000E+00  0.1839E+02
      6.859  0.3324E+00  0.1844E+02
      7.026  0.0000E+00  0.1889E+02
      7.193  0.0000E+00  0.1911E+02
      7.360  0.0000E+00  0.1944E+02
      7.527  0.0000E+00  0.1956E+02
      7.694  0.0000E+00  0.1978E+02
      7.862  0.0000E+00  0.2003E+02
      8.029  0.0000E+00  0.2003E+02
      8.196  0.0000E+00  0.2008E+02
      8.363  0.0000E+00  0.2008E+02
      8.530  0.0000E+00  0.2031E+02
      8.697  0.0000E+00  0.2031E+02
      8.864  0.0000E+00  0.2064E+02
      9.032  0.0000E+00  0.2119E+02
      9.199  0.0000E+00  0.2164E+02
      9.366  0.0000E+00  0.2169E+02
      9.533  0.0000E+00  0.2203E+02
      9.700  0.0000E+00  0.2225E+02
      9.867  0.0000E+00  0.2232E+02
     10.035  0.0000E+00  0.2238E+02
     10.202  0.0000E+00  0.2238E+02
     10.369  0.0000E+00  0.2286E+02
     10.536  0.2216E+00  0.2319E+02
     10.703  0.0000E+00  0.2355E+02
     10.870  0.0000E+00  0.2381E+02
     11.037  0.8543E-02  0.2385E+02
     11.205  0.0000E+00  0.2401E+02
     11.372  0.1206E-05  0.2431E+02
     11.539  0.6573E+00  0.2500E+02
     11.706  0.0000E+00  0.2544E+02
     11.873  0.0000E+00  0.2567E+02
     12.040  0.0000E+00  0.2567E+02
     12.208  0.0000E+00  0.2606E+02
     12.375  0.0000E+00  0.2606E+02
     12.542  0.3380E+00  0.2611E+02
     12.709  0.0000E+00  0.2617E+02
     12.876  0.0000E+00  0.2667E+02
     13.043  0.1323E+01  0.2733E+02
     13.210  0.0000E+00  0.2733E+02
     13.378  0.0000E+00  0.2733E+02
     13.545  0.0000E+00  0.2756E+02
     13.712  0.0000E+00  0.2756E+02
     13.879  0.0000E+00  0.2761E+02
     14.046  0.0000E+00  0.2794E+02
     14.213  0.0000E+00  0.2794E+02
     14.380  0.0000E+00  0.2794E+02
     14.548  0.0000E+00  0.2794E+02
     14.715  0.0000E+00  0.2794E+02
     14.882  0.0000E+00  0.2794E+02
     15.049  0.5212E-04  0.2794E+02
     15.216  0.0000E+00  0.2800E+02
     15.383  0.0000E+00  0.2800E+02
     15.551  0.0000E+00  0.2800E+02
     15.718  0.0000E+00  0.2800E+02
     15.885  0.0000E+00  0.2800E+02
     16.052  0.0000E+00  0.2800E+02
     16.219  0.0000E+00  0.2800E+02
     16.386  0.0000E+00  0.2800E+02
     16.553  0.0000E+00  0.2800E+02
     16.721  0.0000E+00  0.2800E+02
     16.888  0.0000E+00  0.2800E+02
     17.055  0.0000E+00  0.2800E+02
     17.222  0.0000E+00  0.2800E+02
     17.389  0.0000E+00  0.2800E+02
