   1   1   0   0
  0.4928368E+02  0.4115343E-09  0.4115343E-09  0.4115343E-09  0.1000000E-15
  1.000000000000000E-004
  CAR 
 Og_FCC                                  
     14.48370365    -20.22117987  301     -4.19909198      1.00000000
    -20.221  0.0000E+00  0.0000E+00
    -20.105  0.0000E+00  0.0000E+00
    -19.990  0.0000E+00  0.0000E+00
    -19.874  0.0000E+00  0.0000E+00
    -19.758  0.0000E+00  0.0000E+00
    -19.643  0.0000E+00  0.0000E+00
    -19.527  0.0000E+00  0.0000E+00
    -19.411  0.0000E+00  0.0000E+00
    -19.296  0.0000E+00  0.0000E+00
    -19.180  0.0000E+00  0.0000E+00
    -19.064  0.0000E+00  0.0000E+00
    -18.949  0.0000E+00  0.0000E+00
    -18.833  0.0000E+00  0.0000E+00
    -18.717  0.0000E+00  0.0000E+00
    -18.602  0.2248E-03  0.8336E-01
    -18.486  0.0000E+00  0.1306E+01
    -18.370  0.0000E+00  0.2000E+01
    -18.255  0.0000E+00  0.2000E+01
    -18.139  0.0000E+00  0.2000E+01
    -18.023  0.0000E+00  0.2000E+01
    -17.908  0.0000E+00  0.2000E+01
    -17.792  0.0000E+00  0.2000E+01
    -17.676  0.0000E+00  0.2000E+01
    -17.560  0.0000E+00  0.2000E+01
    -17.445  0.0000E+00  0.2000E+01
    -17.329  0.0000E+00  0.2000E+01
    -17.213  0.0000E+00  0.2000E+01
    -17.098  0.0000E+00  0.2000E+01
    -16.982  0.0000E+00  0.2000E+01
    -16.866  0.0000E+00  0.2000E+01
    -16.751  0.0000E+00  0.2000E+01
    -16.635  0.0000E+00  0.2000E+01
    -16.519  0.0000E+00  0.2000E+01
    -16.404  0.0000E+00  0.2000E+01
    -16.288  0.0000E+00  0.2000E+01
    -16.172  0.0000E+00  0.2000E+01
    -16.057  0.0000E+00  0.2000E+01
    -15.941  0.0000E+00  0.2000E+01
    -15.825  0.0000E+00  0.2000E+01
    -15.710  0.0000E+00  0.2000E+01
    -15.594  0.0000E+00  0.2000E+01
    -15.478  0.0000E+00  0.2000E+01
    -15.362  0.0000E+00  0.2000E+01
    -15.247  0.0000E+00  0.2000E+01
    -15.131  0.0000E+00  0.2000E+01
    -15.015  0.0000E+00  0.2000E+01
    -14.900  0.0000E+00  0.2000E+01
    -14.784  0.0000E+00  0.2000E+01
    -14.668  0.0000E+00  0.2000E+01
    -14.553  0.0000E+00  0.2000E+01
    -14.437  0.0000E+00  0.2000E+01
    -14.321  0.0000E+00  0.2000E+01
    -14.206  0.0000E+00  0.2000E+01
    -14.090  0.0000E+00  0.2000E+01
    -13.974  0.0000E+00  0.2000E+01
    -13.859  0.0000E+00  0.2000E+01
    -13.743  0.0000E+00  0.2000E+01
    -13.627  0.0000E+00  0.2000E+01
    -13.512  0.0000E+00  0.2000E+01
    -13.396  0.0000E+00  0.2000E+01
    -13.280  0.0000E+00  0.2000E+01
    -13.165  0.0000E+00  0.2000E+01
    -13.049  0.0000E+00  0.2000E+01
    -12.933  0.0000E+00  0.2000E+01
    -12.817  0.0000E+00  0.2000E+01
    -12.702  0.0000E+00  0.2000E+01
    -12.586  0.0000E+00  0.2000E+01
    -12.470  0.0000E+00  0.2000E+01
    -12.355  0.0000E+00  0.2000E+01
    -12.239  0.0000E+00  0.2000E+01
    -12.123  0.0000E+00  0.2000E+01
    -12.008  0.0000E+00  0.2000E+01
    -11.892  0.0000E+00  0.2000E+01
    -11.776  0.0000E+00  0.2000E+01
    -11.661  0.0000E+00  0.2000E+01
    -11.545  0.0000E+00  0.2000E+01
    -11.429  0.0000E+00  0.2000E+01
    -11.314  0.0000E+00  0.2000E+01
    -11.198  0.0000E+00  0.2000E+01
    -11.082  0.0000E+00  0.2000E+01
    -10.967  0.0000E+00  0.2000E+01
    -10.851  0.0000E+00  0.2000E+01
    -10.735  0.0000E+00  0.2000E+01
    -10.619  0.0000E+00  0.2000E+01
    -10.504  0.0000E+00  0.2000E+01
    -10.388  0.0000E+00  0.2000E+01
    -10.272  0.0000E+00  0.2000E+01
    -10.157  0.0000E+00  0.2000E+01
    -10.041  0.0000E+00  0.2000E+01
     -9.925  0.0000E+00  0.2000E+01
     -9.810  0.0000E+00  0.2000E+01
     -9.694  0.0000E+00  0.2000E+01
     -9.578  0.0000E+00  0.2000E+01
     -9.463  0.0000E+00  0.2000E+01
     -9.347  0.0000E+00  0.2000E+01
     -9.231  0.0000E+00  0.2000E+01
     -9.116  0.0000E+00  0.2000E+01
     -9.000  0.0000E+00  0.2000E+01
     -8.884  0.0000E+00  0.2000E+01
     -8.769  0.0000E+00  0.2000E+01
     -8.653  0.0000E+00  0.2000E+01
     -8.537  0.0000E+00  0.2000E+01
     -8.422  0.0000E+00  0.2000E+01
     -8.306  0.0000E+00  0.2000E+01
     -8.190  0.0000E+00  0.2000E+01
     -8.074  0.0000E+00  0.2000E+01
     -7.959  0.0000E+00  0.2000E+01
     -7.843  0.0000E+00  0.2000E+01
     -7.727  0.0000E+00  0.2000E+01
     -7.612  0.0000E+00  0.2000E+01
     -7.496  0.0000E+00  0.2000E+01
     -7.380  0.0000E+00  0.2000E+01
     -7.265  0.0000E+00  0.2000E+01
     -7.149  0.0000E+00  0.2000E+01
     -7.033  0.0000E+00  0.2000E+01
     -6.918  0.0000E+00  0.2000E+01
     -6.802  0.0000E+00  0.2000E+01
     -6.686  0.0000E+00  0.2000E+01
     -6.571  0.0000E+00  0.2000E+01
     -6.455  0.0000E+00  0.2000E+01
     -6.339  0.0000E+00  0.2000E+01
     -6.224  0.0000E+00  0.2000E+01
     -6.108  0.0000E+00  0.2000E+01
     -5.992  0.0000E+00  0.2000E+01
     -5.876  0.0000E+00  0.2000E+01
     -5.761  0.0000E+00  0.2000E+01
     -5.645  0.0000E+00  0.2000E+01
     -5.529  0.0000E+00  0.2000E+01
     -5.414  0.0000E+00  0.2037E+01
     -5.298  0.0000E+00  0.2287E+01
     -5.182  0.0000E+00  0.2731E+01
     -5.067  0.0000E+00  0.3417E+01
     -4.951  0.0000E+00  0.3861E+01
     -4.835  0.0000E+00  0.4194E+01
     -4.720  0.1921E+01  0.4528E+01
     -4.604  0.0000E+00  0.4917E+01
     -4.488  0.0000E+00  0.6046E+01
     -4.373  0.0000E+00  0.7157E+01
     -4.257  0.7398E-12  0.7824E+01
     -4.141  0.0000E+00  0.8000E+01
     -4.026  0.0000E+00  0.8000E+01
     -3.910  0.0000E+00  0.8000E+01
     -3.794  0.0000E+00  0.8000E+01
     -3.679  0.0000E+00  0.8000E+01
     -3.563  0.0000E+00  0.8000E+01
     -3.447  0.0000E+00  0.8000E+01
     -3.331  0.0000E+00  0.8000E+01
     -3.216  0.0000E+00  0.8000E+01
     -3.100  0.0000E+00  0.8000E+01
     -2.984  0.0000E+00  0.8000E+01
     -2.869  0.0000E+00  0.8000E+01
     -2.753  0.0000E+00  0.8000E+01
     -2.637  0.0000E+00  0.8000E+01
     -2.522  0.0000E+00  0.8000E+01
     -2.406  0.0000E+00  0.8000E+01
     -2.290  0.0000E+00  0.8000E+01
     -2.175  0.0000E+00  0.8000E+01
     -2.059  0.0000E+00  0.8000E+01
     -1.943  0.0000E+00  0.8000E+01
     -1.828  0.0000E+00  0.8000E+01
     -1.712  0.0000E+00  0.8000E+01
     -1.596  0.0000E+00  0.8000E+01
     -1.481  0.0000E+00  0.8000E+01
     -1.365  0.0000E+00  0.8000E+01
     -1.249  0.0000E+00  0.8000E+01
     -1.133  0.0000E+00  0.8000E+01
     -1.018  0.0000E+00  0.8000E+01
     -0.902  0.0000E+00  0.8000E+01
     -0.786  0.0000E+00  0.8000E+01
     -0.671  0.0000E+00  0.8000E+01
     -0.555  0.0000E+00  0.8000E+01
     -0.439  0.0000E+00  0.8000E+01
     -0.324  0.0000E+00  0.8000E+01
     -0.208  0.0000E+00  0.8000E+01
     -0.092  0.0000E+00  0.8000E+01
      0.023  0.0000E+00  0.8000E+01
      0.139  0.0000E+00  0.8000E+01
      0.255  0.0000E+00  0.8000E+01
      0.370  0.0000E+00  0.8000E+01
      0.486  0.0000E+00  0.8000E+01
      0.602  0.0000E+00  0.8000E+01
      0.717  0.0000E+00  0.8000E+01
      0.833  0.0000E+00  0.8000E+01
      0.949  0.0000E+00  0.8000E+01
      1.064  0.0000E+00  0.8000E+01
      1.180  0.0000E+00  0.8000E+01
      1.296  0.0000E+00  0.8000E+01
      1.412  0.0000E+00  0.8000E+01
      1.527  0.0000E+00  0.8000E+01
      1.643  0.0000E+00  0.8000E+01
      1.759  0.0000E+00  0.8000E+01
      1.874  0.0000E+00  0.8000E+01
      1.990  0.0000E+00  0.8000E+01
      2.106  0.0000E+00  0.8000E+01
      2.221  0.0000E+00  0.8000E+01
      2.337  0.0000E+00  0.8000E+01
      2.453  0.0000E+00  0.8000E+01
      2.568  0.0000E+00  0.8000E+01
      2.684  0.0000E+00  0.8000E+01
      2.800  0.0000E+00  0.8000E+01
      2.915  0.0000E+00  0.8000E+01
      3.031  0.0000E+00  0.8009E+01
      3.147  0.0000E+00  0.8009E+01
      3.262  0.0000E+00  0.8009E+01
      3.378  0.0000E+00  0.8009E+01
      3.494  0.0000E+00  0.8009E+01
      3.610  0.0000E+00  0.8009E+01
      3.725  0.0000E+00  0.8083E+01
      3.841  0.0000E+00  0.8083E+01
      3.957  0.0000E+00  0.8139E+01
      4.072  0.0000E+00  0.8139E+01
      4.188  0.0000E+00  0.8139E+01
      4.304  0.0000E+00  0.8139E+01
      4.419  0.0000E+00  0.8139E+01
      4.535  0.0000E+00  0.8139E+01
      4.651  0.0000E+00  0.8250E+01
      4.766  0.0000E+00  0.8250E+01
      4.882  0.0000E+00  0.8250E+01
      4.998  0.0000E+00  0.8324E+01
      5.113  0.0000E+00  0.8546E+01
      5.229  0.0000E+00  0.8546E+01
      5.345  0.0000E+00  0.8630E+01
      5.460  0.0000E+00  0.8667E+01
      5.576  0.0000E+00  0.8667E+01
      5.692  0.0000E+00  0.8667E+01
      5.807  0.1921E+01  0.9111E+01
      5.923  0.1921E+01  0.9333E+01
      6.039  0.0000E+00  0.9667E+01
      6.155  0.0000E+00  0.9667E+01
      6.270  0.0000E+00  0.9667E+01
      6.386  0.0000E+00  0.9667E+01
      6.502  0.0000E+00  0.9667E+01
      6.617  0.0000E+00  0.9806E+01
      6.733  0.0000E+00  0.1003E+02
      6.849  0.0000E+00  0.1003E+02
      6.964  0.0000E+00  0.1025E+02
      7.080  0.0000E+00  0.1064E+02
      7.196  0.0000E+00  0.1075E+02
      7.311  0.1062E-01  0.1075E+02
      7.427  0.0000E+00  0.1097E+02
      7.543  0.0000E+00  0.1142E+02
      7.658  0.0000E+00  0.1164E+02
      7.774  0.0000E+00  0.1186E+02
      7.890  0.0000E+00  0.1194E+02
      8.005  0.0000E+00  0.1208E+02
      8.121  0.0000E+00  0.1231E+02
      8.237  0.4666E+00  0.1247E+02
      8.353  0.0000E+00  0.1269E+02
      8.468  0.0000E+00  0.1269E+02
      8.584  0.0000E+00  0.1338E+02
      8.700  0.0000E+00  0.1360E+02
      8.815  0.0000E+00  0.1360E+02
      8.931  0.0000E+00  0.1371E+02
      9.047  0.0000E+00  0.1379E+02
      9.162  0.0000E+00  0.1379E+02
      9.278  0.2401E+00  0.1396E+02
      9.394  0.0000E+00  0.1399E+02
      9.509  0.0000E+00  0.1399E+02
      9.625  0.0000E+00  0.1458E+02
      9.741  0.0000E+00  0.1458E+02
      9.856  0.0000E+00  0.1469E+02
      9.972  0.1918E+01  0.1514E+02
     10.088  0.0000E+00  0.1525E+02
     10.203  0.0000E+00  0.1536E+02
     10.319  0.1344E-13  0.1536E+02
     10.435  0.0000E+00  0.1569E+02
     10.550  0.0000E+00  0.1569E+02
     10.666  0.0000E+00  0.1569E+02
     10.782  0.0000E+00  0.1569E+02
     10.898  0.0000E+00  0.1569E+02
     11.013  0.0000E+00  0.1569E+02
     11.129  0.0000E+00  0.1592E+02
     11.245  0.0000E+00  0.1597E+02
     11.360  0.0000E+00  0.1597E+02
     11.476  0.0000E+00  0.1597E+02
     11.592  0.0000E+00  0.1597E+02
     11.707  0.0000E+00  0.1597E+02
     11.823  0.0000E+00  0.1597E+02
     11.939  0.0000E+00  0.1597E+02
     12.054  0.0000E+00  0.1597E+02
     12.170  0.0000E+00  0.1597E+02
     12.286  0.0000E+00  0.1597E+02
     12.401  0.0000E+00  0.1597E+02
     12.517  0.0000E+00  0.1597E+02
     12.633  0.0000E+00  0.1597E+02
     12.748  0.0000E+00  0.1597E+02
     12.864  0.0000E+00  0.1597E+02
     12.980  0.0000E+00  0.1600E+02
     13.096  0.0000E+00  0.1600E+02
     13.211  0.0000E+00  0.1600E+02
     13.327  0.0000E+00  0.1600E+02
     13.443  0.0000E+00  0.1600E+02
     13.558  0.0000E+00  0.1600E+02
     13.674  0.0000E+00  0.1600E+02
     13.790  0.0000E+00  0.1600E+02
     13.905  0.0000E+00  0.1600E+02
     14.021  0.0000E+00  0.1600E+02
     14.137  0.0000E+00  0.1600E+02
     14.252  0.0000E+00  0.1600E+02
     14.368  0.0000E+00  0.1600E+02
     14.484  0.0000E+00  0.1600E+02
