    1    1    1    1
  0.4928368E+02  0.4115343E-09  0.4115343E-09  0.4115343E-09  0.1000000E-15
  1.000000000000000E-004
  CAR 
 Og_FCC                                  
      8    112      8
 
  0.0000000E+00  0.0000000E+00  0.0000000E+00  0.4629630E-02
    1      -18.643685   1.000000
    2       -4.215711   1.000000
    3       -4.215711   1.000000
    4       -4.215711   1.000000
    5        3.022912   0.000000
    6        9.364328   0.000000
    7        9.364328   0.000000
    8        9.364328   0.000000
 
  0.1666667E+00 -0.1222443E-16 -0.6938894E-17  0.9259259E-02
    1      -18.610310   1.000000
    2       -4.568240   1.000000
    3       -4.251905   1.000000
    4       -4.251905   1.000000
    5        3.696950   0.000000
    6        8.532310   0.000000
    7        9.573937   0.000000
    8        9.573937   0.000000
 
  0.3333333E+00  0.3306717E-17  0.0000000E+00  0.9259259E-02
    1      -18.542236   1.000000
    2       -5.170486   1.000000
    3       -4.322185   1.000000
    4       -4.322185   1.000000
    5        4.941586   0.000000
    6        7.840044   0.000000
    7        9.269234   0.000000
    8        9.269234   0.000000
 
  0.5000000E+00  0.3271565E-16  0.0000000E+00  0.4629630E-02
    1      -18.507504   1.000000
    2       -5.436155   1.000000
    3       -4.356350   1.000000
    4       -4.356350   1.000000
    5        5.406343   0.000000
    6        7.912137   0.000000
    7        8.992751   0.000000
    8        8.992751   0.000000
 
  0.5777790E-33  0.1666667E+00  0.1387779E-16  0.9259259E-02
    1      -18.610310   1.000000
    2       -4.568240   1.000000
    3       -4.251905   1.000000
    4       -4.251905   1.000000
    5        3.696950   0.000000
    6        8.532310   0.000000
    7        9.573937   0.000000
    8        9.573937   0.000000
 
  0.1666667E+00  0.1666667E+00  0.1387779E-16  0.9259259E-02
    1      -18.599279   1.000000
    2       -4.561525   1.000000
    3       -4.322960   1.000000
    4       -4.322960   1.000000
    5        3.915425   0.000000
    6        8.235478   0.000000
    7        9.839795   0.000000
    8        9.842981   0.000000
 
  0.3333333E+00  0.1666667E+00  0.2775558E-16  0.9259259E-02
    1      -18.542830   1.000000
    2       -5.000689   1.000000
    3       -4.420303   1.000000
    4       -4.409537   1.000000
    5        5.013133   0.000000
    6        7.611492   0.000000
    7        8.607251   0.000000
    8        9.969977   0.000000
 
  0.5000000E+00  0.1666667E+00  0.0000000E+00  0.9259259E-02
    1      -18.496684   1.000000
    2       -5.314787   1.000000
    3       -4.553915   1.000000
    4       -4.426528   1.000000
    5        5.918999   0.000000
    6        7.313158   0.000000
    7        8.483369   0.000000
    8        9.563245   0.000000
 
 -0.3333333E+00  0.1666667E+00  0.2081668E-16  0.9259259E-02
    1      -18.508164   1.000000
    2       -5.232464   1.000000
    3       -4.596890   1.000000
    4       -4.358416   1.000000
    5        5.804054   0.000000
    6        7.533538   0.000000
    7        8.307238   0.000000
    8        9.529584   0.000000
 
 -0.1666667E+00  0.1666667E+00  0.3112085E-16  0.9259259E-02
    1      -18.565336   1.000000
    2       -4.868205   1.000000
    3       -4.453926   1.000000
    4       -4.270381   1.000000
    5        4.621010   0.000000
    6        7.993866   0.000000
    7        8.897258   0.000000
    8       10.109935   0.000000
 
  0.3851860E-33  0.3333333E+00 -0.1387779E-16  0.9259259E-02
    1      -18.542236   1.000000
    2       -5.170486   1.000000
    3       -4.322185   1.000000
    4       -4.322185   1.000000
    5        4.941586   0.000000
    6        7.840044   0.000000
    7        9.269234   0.000000
    8        9.269234   0.000000
 
  0.1666667E+00  0.3333333E+00  0.0000000E+00  0.9259259E-02
    1      -18.542830   1.000000
    2       -5.000689   1.000000
    3       -4.420303   1.000000
    4       -4.409537   1.000000
    5        5.013133   0.000000
    6        7.611492   0.000000
    7        8.607251   0.000000
    8        9.969977   0.000000
 
  0.3333333E+00  0.3333333E+00 -0.5551115E-16  0.9259259E-02
    1      -18.509268   1.000000
    2       -5.105824   1.000000
    3       -4.527917   1.000000
    4       -4.527917   1.000000
    5        5.300779   0.000000
    6        7.009786   0.000000
    7        8.488617   0.000000
    8       11.218336   0.000000
 
  0.5000000E+00  0.3333333E+00 -0.5551115E-16  0.9259259E-02
    1      -18.474751   1.000000
    2       -5.226179   1.000000
    3       -4.722826   1.000000
    4       -4.561340   1.000000
    5        5.739701   0.000000
    6        6.939010   0.000000
    7        8.526588   0.000000
    8       11.117257   0.000000
 
 -0.3333333E+00  0.3333333E+00 -0.6961073E-17  0.9259259E-02
    1      -18.474246   1.000000
    2       -5.046552   1.000000
    3       -5.020240   1.000000
    4       -4.478986   1.000000
    5        6.534437   0.000000
    6        6.980838   0.000000
    7        8.194638   0.000000
    8       10.348960   0.000000
 
 -0.1666667E+00  0.3333333E+00  0.0000000E+00  0.9259259E-02
    1      -18.508164   1.000000
    2       -5.232464   1.000000
    3       -4.596890   1.000000
    4       -4.358416   1.000000
    5        5.804054   0.000000
    6        7.533538   0.000000
    7        8.307238   0.000000
    8        9.529584   0.000000
 
  0.1540744E-32  0.5000000E+00  0.0000000E+00  0.4629630E-02
    1      -18.507504   1.000000
    2       -5.436155   1.000000
    3       -4.356350   1.000000
    4       -4.356350   1.000000
    5        5.406343   0.000000
    6        7.912137   0.000000
    7        8.992751   0.000000
    8        8.992751   0.000000
 
  0.1666667E+00  0.5000000E+00  0.0000000E+00  0.9259259E-02
    1      -18.496684   1.000000
    2       -5.314787   1.000000
    3       -4.553915   1.000000
    4       -4.426528   1.000000
    5        5.918999   0.000000
    6        7.313158   0.000000
    7        8.483369   0.000000
    8        9.563245   0.000000
 
  0.3333333E+00  0.5000000E+00  0.0000000E+00  0.9259259E-02
    1      -18.474751   1.000000
    2       -5.226179   1.000000
    3       -4.722826   1.000000
    4       -4.561340   1.000000
    5        5.739701   0.000000
    6        6.939010   0.000000
    7        8.526588   0.000000
    8       11.117257   0.000000
 
  0.5000000E+00  0.5000000E+00  0.0000000E+00  0.4629630E-02
    1      -18.463645   1.000000
    2       -5.328998   1.000000
    3       -4.626099   1.000000
    4       -4.626099   1.000000
    5        5.323477   0.000000
    6        6.572809   0.000000
    7        9.275200   0.000000
    8       12.906209   0.000000
 
  0.0000000E+00  0.7703720E-33  0.1666667E+00  0.9259259E-02
    1      -18.610310   1.000000
    2       -4.568240   1.000000
    3       -4.251905   1.000000
    4       -4.251905   1.000000
    5        3.696950   0.000000
    6        8.532310   0.000000
    7        9.573937   0.000000
    8        9.573937   0.000000
 
  0.1666667E+00  0.1057107E-16  0.1666667E+00  0.9259259E-02
    1      -18.599279   1.000000
    2       -4.561525   1.000000
    3       -4.322960   1.000000
    4       -4.322960   1.000000
    5        3.915425   0.000000
    6        8.235478   0.000000
    7        9.839795   0.000000
    8        9.843204   0.000000
 
  0.3333333E+00 -0.1653359E-17  0.1666667E+00  0.9259259E-02
    1      -18.542830   1.000000
    2       -5.000689   1.000000
    3       -4.420303   1.000000
    4       -4.409537   1.000000
    5        5.013133   0.000000
    6        7.611492   0.000000
    7        8.607251   0.000000
    8        9.969977   0.000000
 
  0.5000000E+00  0.2775558E-16  0.1666667E+00  0.9259259E-02
    1      -18.496684   1.000000
    2       -5.314787   1.000000
    3       -4.553915   1.000000
    4       -4.426528   1.000000
    5        5.918999   0.000000
    6        7.313158   0.000000
    7        8.483369   0.000000
    8        9.563245   0.000000
 
 -0.3333333E+00 -0.8266794E-17  0.1666667E+00  0.9259259E-02
    1      -18.508164   1.000000
    2       -5.232464   1.000000
    3       -4.596890   1.000000
    4       -4.358416   1.000000
    5        5.804054   0.000000
    6        7.533538   0.000000
    7        8.307238   0.000000
    8        9.529584   0.000000
 
 -0.1666667E+00  0.2114214E-16  0.1666667E+00  0.9259259E-02
    1      -18.565336   1.000000
    2       -4.868205   1.000000
    3       -4.453926   1.000000
    4       -4.270381   1.000000
    5        4.621010   0.000000
    6        7.993866   0.000000
    7        8.897258   0.000000
    8       10.109931   0.000000
 
  0.7703720E-33  0.1666667E+00  0.1666667E+00  0.9259259E-02
    1      -18.599279   1.000000
    2       -4.561525   1.000000
    3       -4.322960   1.000000
    4       -4.322960   1.000000
    5        3.915425   0.000000
    6        8.235478   0.000000
    7        9.839795   0.000000
    8        9.841160   0.000000
 
  0.1666667E+00  0.1666667E+00  0.1666667E+00  0.9259259E-02
    1      -18.610310   1.000000
    2       -4.568240   1.000000
    3       -4.251905   1.000000
    4       -4.251905   1.000000
    5        3.696950   0.000000
    6        8.532310   0.000000
    7        9.573938   0.000000
    8        9.573938   0.000000
 
  0.3333333E+00  0.1666667E+00  0.1666667E+00  0.9259259E-02
    1      -18.565336   1.000000
    2       -4.868205   1.000000
    3       -4.453926   1.000000
    4       -4.270381   1.000000
    5        4.621010   0.000000
    6        7.993866   0.000000
    7        8.897258   0.000000
    8       10.109932   0.000000
 
  0.5000000E+00  0.1666667E+00  0.1666667E+00  0.9259259E-02
    1      -18.508164   1.000000
    2       -5.232464   1.000000
    3       -4.596890   1.000000
    4       -4.358416   1.000000
    5        5.804054   0.000000
    6        7.533538   0.000000
    7        8.307238   0.000000
    8        9.529584   0.000000
 
 -0.3333333E+00  0.1666667E+00  0.1666667E+00  0.9259259E-02
    1      -18.496684   1.000000
    2       -5.314787   1.000000
    3       -4.553915   1.000000
    4       -4.426528   1.000000
    5        5.918999   0.000000
    6        7.313158   0.000000
    7        8.483369   0.000000
    8        9.563245   0.000000
 
 -0.1666667E+00  0.1666667E+00  0.1666667E+00  0.9259259E-02
    1      -18.542830   1.000000
    2       -5.000689   1.000000
    3       -4.420303   1.000000
    4       -4.409537   1.000000
    5        5.013133   0.000000
    6        7.611492   0.000000
    7        8.607251   0.000000
    8        9.969977   0.000000
 
  0.3851860E-33  0.3333333E+00  0.1666667E+00  0.9259259E-02
    1      -18.542830   1.000000
    2       -5.000689   1.000000
    3       -4.420303   1.000000
    4       -4.409537   1.000000
    5        5.013133   0.000000
    6        7.611492   0.000000
    7        8.607251   0.000000
    8        9.969977   0.000000
 
  0.1666667E+00  0.3333333E+00  0.1666667E+00  0.9259259E-02
    1      -18.565336   1.000000
    2       -4.868205   1.000000
    3       -4.453926   1.000000
    4       -4.270381   1.000000
    5        4.621010   0.000000
    6        7.993866   0.000000
    7        8.897258   0.000000
    8       10.109933   0.000000
 
  0.3333333E+00  0.3333333E+00  0.1666667E+00  0.9259259E-02
    1      -18.542830   1.000000
    2       -5.000689   1.000000
    3       -4.420303   1.000000
    4       -4.409537   1.000000
    5        5.013133   0.000000
    6        7.611492   0.000000
    7        8.607251   0.000000
    8        9.969977   0.000000
 
  0.5000000E+00  0.3333333E+00  0.1666667E+00  0.9259259E-02
    1      -18.497290   1.000000
    2       -5.137231   1.000000
    3       -4.701175   1.000000
    4       -4.470061   1.000000
    5        5.988065   0.000000
    6        7.437532   0.000000
    7        7.724733   0.000000
    8       10.324560   0.000000
 
 -0.3333333E+00  0.3333333E+00  0.1666667E+00  0.9259259E-02
    1      -18.474251   1.000000
    2       -5.158992   1.000000
    3       -4.849916   1.000000
    4       -4.538678   1.000000
    5        6.669448   0.000000
    6        6.976120   0.000000
    7        8.044272   0.000000
    8        9.886186   0.000000
 
 -0.1666667E+00  0.3333333E+00  0.1666667E+00  0.9259259E-02
    1      -18.497290   1.000000
    2       -5.137231   1.000000
    3       -4.701175   1.000000
    4       -4.470061   1.000000
    5        5.988065   0.000000
    6        7.437532   0.000000
    7        7.724733   0.000000
    8       10.324560   0.000000
 
  0.2860749E-33  0.5000000E+00  0.1666667E+00  0.9259259E-02
    1      -18.496684   1.000000
    2       -5.314787   1.000000
    3       -4.553915   1.000000
    4       -4.426528   1.000000
    5        5.918999   0.000000
    6        7.313158   0.000000
    7        8.483369   0.000000
    8        9.563245   0.000000
 
  0.1666667E+00  0.5000000E+00  0.1666667E+00  0.9259259E-02
    1      -18.508164   1.000000
    2       -5.232464   1.000000
    3       -4.596890   1.000000
    4       -4.358416   1.000000
    5        5.804054   0.000000
    6        7.533538   0.000000
    7        8.307238   0.000000
    8        9.529584   0.000000
 
  0.3333333E+00  0.5000000E+00  0.1666667E+00  0.9259259E-02
    1      -18.497290   1.000000
    2       -5.137231   1.000000
    3       -4.701175   1.000000
    4       -4.470061   1.000000
    5        5.988065   0.000000
    6        7.437532   0.000000
    7        7.724733   0.000000
    8       10.324560   0.000000
 
  0.5000000E+00  0.5000000E+00  0.1666667E+00  0.9259259E-02
    1      -18.474751   1.000000
    2       -5.226180   1.000000
    3       -4.722826   1.000000
    4       -4.561340   1.000000
    5        5.739701   0.000000
    6        6.939010   0.000000
    7        8.526588   0.000000
    8       11.117257   0.000000
 
 -0.3333333E+00  0.5000000E+00  0.1666667E+00  0.9259259E-02
    1      -18.463182   1.000000
    2       -5.168242   1.000000
    3       -4.818288   1.000000
    4       -4.657496   1.000000
    5        6.020533   0.000000
    6        7.174583   0.000000
    7        8.494457   0.000000
    8       10.036638   0.000000
 
 -0.1666667E+00  0.5000000E+00  0.1666667E+00  0.9259259E-02
    1      -18.474251   1.000000
    2       -5.158992   1.000000
    3       -4.849916   1.000000
    4       -4.538678   1.000000
    5        6.669448   0.000000
    6        6.976120   0.000000
    7        8.044272   0.000000
    8        9.886186   0.000000
 
  0.0000000E+00 -0.3333333E+00  0.1666667E+00  0.9259259E-02
    1      -18.508164   1.000000
    2       -5.232464   1.000000
    3       -4.596890   1.000000
    4       -4.358416   1.000000
    5        5.804054   0.000000
    6        7.533538   0.000000
    7        8.307238   0.000000
    8        9.529584   0.000000
 
  0.1666667E+00 -0.3333333E+00  0.1666667E+00  0.9259259E-02
    1      -18.496684   1.000000
    2       -5.314787   1.000000
    3       -4.553915   1.000000
    4       -4.426528   1.000000
    5        5.918999   0.000000
    6        7.313158   0.000000
    7        8.483369   0.000000
    8        9.563245   0.000000
 
  0.3333333E+00 -0.3333333E+00  0.1666667E+00  0.9259259E-02
    1      -18.474251   1.000000
    2       -5.158992   1.000000
    3       -4.849916   1.000000
    4       -4.538678   1.000000
    5        6.669448   0.000000
    6        6.976120   0.000000
    7        8.044272   0.000000
    8        9.886186   0.000000
 
  0.5000000E+00 -0.3333333E+00  0.1666667E+00  0.9259259E-02
    1      -18.463182   1.000000
    2       -5.168242   1.000000
    3       -4.818288   1.000000
    4       -4.657496   1.000000
    5        6.020533   0.000000
    6        7.174583   0.000000
    7        8.494457   0.000000
    8       10.036638   0.000000
 
 -0.3333333E+00 -0.3333333E+00  0.1666667E+00  0.9259259E-02
    1      -18.474751   1.000000
    2       -5.226179   1.000000
    3       -4.722826   1.000000
    4       -4.561340   1.000000
    5        5.739701   0.000000
    6        6.939010   0.000000
    7        8.526588   0.000000
    8       11.117257   0.000000
 
 -0.1666667E+00 -0.3333333E+00  0.1666667E+00  0.9259259E-02
    1      -18.497290   1.000000
    2       -5.137231   1.000000
    3       -4.701175   1.000000
    4       -4.470061   1.000000
    5        5.988065   0.000000
    6        7.437532   0.000000
    7        7.724733   0.000000
    8       10.324560   0.000000
 
  0.7703720E-33 -0.1666667E+00  0.1666667E+00  0.9259259E-02
    1      -18.565336   1.000000
    2       -4.868205   1.000000
    3       -4.453926   1.000000
    4       -4.270381   1.000000
    5        4.621010   0.000000
    6        7.993866   0.000000
    7        8.897258   0.000000
    8       10.109932   0.000000
 
  0.1666667E+00 -0.1666667E+00  0.1666667E+00  0.9259259E-02
    1      -18.542830   1.000000
    2       -5.000689   1.000000
    3       -4.420303   1.000000
    4       -4.409537   1.000000
    5        5.013133   0.000000
    6        7.611492   0.000000
    7        8.607251   0.000000
    8        9.969977   0.000000
 
  0.3333333E+00 -0.1666667E+00  0.1666667E+00  0.9259259E-02
    1      -18.497290   1.000000
    2       -5.137231   1.000000
    3       -4.701175   1.000000
    4       -4.470061   1.000000
    5        5.988065   0.000000
    6        7.437532   0.000000
    7        7.724733   0.000000
    8       10.324560   0.000000
 
  0.5000000E+00 -0.1666667E+00  0.1666667E+00  0.9259259E-02
    1      -18.474251   1.000000
    2       -5.158992   1.000000
    3       -4.849916   1.000000
    4       -4.538678   1.000000
    5        6.669448   0.000000
    6        6.976120   0.000000
    7        8.044272   0.000000
    8        9.886186   0.000000
 
 -0.3333333E+00 -0.1666667E+00  0.1666667E+00  0.9259259E-02
    1      -18.497290   1.000000
    2       -5.137231   1.000000
    3       -4.701175   1.000000
    4       -4.470061   1.000000
    5        5.988065   0.000000
    6        7.437532   0.000000
    7        7.724733   0.000000
    8       10.324560   0.000000
 
 -0.1666667E+00 -0.1666667E+00  0.1666667E+00  0.9259259E-02
    1      -18.542830   1.000000
    2       -5.000689   1.000000
    3       -4.420303   1.000000
    4       -4.409537   1.000000
    5        5.013133   0.000000
    6        7.611492   0.000000
    7        8.607251   0.000000
    8        9.969977   0.000000
 
  0.0000000E+00  0.3081488E-32  0.3333333E+00  0.9259259E-02
    1      -18.542236   1.000000
    2       -5.170486   1.000000
    3       -4.322185   1.000000
    4       -4.322185   1.000000
    5        4.941586   0.000000
    6        7.840044   0.000000
    7        9.269234   0.000000
    8        9.269234   0.000000
 
  0.1666667E+00 -0.8266794E-17  0.3333333E+00  0.9259259E-02
    1      -18.542830   1.000000
    2       -5.000689   1.000000
    3       -4.420303   1.000000
    4       -4.409537   1.000000
    5        5.013133   0.000000
    6        7.611492   0.000000
    7        8.607251   0.000000
    8        9.969977   0.000000
 
  0.3333333E+00  0.2114214E-16  0.3333333E+00  0.9259259E-02
    1      -18.509268   1.000000
    2       -5.105824   1.000000
    3       -4.527917   1.000000
    4       -4.527917   1.000000
    5        5.300779   0.000000
    6        7.009786   0.000000
    7        8.488617   0.000000
    8       11.218336   0.000000
 
  0.5000000E+00  0.2279550E-16  0.3333333E+00  0.9259259E-02
    1      -18.474751   1.000000
    2       -5.226179   1.000000
    3       -4.722826   1.000000
    4       -4.561340   1.000000
    5        5.739701   0.000000
    6        6.939010   0.000000
    7        8.526588   0.000000
    8       11.117257   0.000000
 
 -0.3333333E+00  0.4228428E-16  0.3333333E+00  0.9259259E-02
    1      -18.474246   1.000000
    2       -5.046552   1.000000
    3       -5.020240   1.000000
    4       -4.478986   1.000000
    5        6.534437   0.000000
    6        6.980838   0.000000
    7        8.194638   0.000000
    8       10.348960   0.000000
 
 -0.1666667E+00  0.1618206E-16  0.3333333E+00  0.9259259E-02
    1      -18.508164   1.000000
    2       -5.232464   1.000000
    3       -4.596890   1.000000
    4       -4.358416   1.000000
    5        5.804054   0.000000
    6        7.533538   0.000000
    7        8.307238   0.000000
    8        9.529584   0.000000
 
 -0.1540744E-32  0.1666667E+00  0.3333333E+00  0.9259259E-02
    1      -18.542830   1.000000
    2       -5.000689   1.000000
    3       -4.420303   1.000000
    4       -4.409537   1.000000
    5        5.013133   0.000000
    6        7.611492   0.000000
    7        8.607251   0.000000
    8        9.969977   0.000000
 
  0.1666667E+00  0.1666667E+00  0.3333333E+00  0.9259259E-02
    1      -18.565336   1.000000
    2       -4.868205   1.000000
    3       -4.453926   1.000000
    4       -4.270381   1.000000
    5        4.621010   0.000000
    6        7.993866   0.000000
    7        8.897258   0.000000
    8       10.109931   0.000000
 
  0.3333333E+00  0.1666667E+00  0.3333333E+00  0.9259259E-02
    1      -18.542830   1.000000
    2       -5.000689   1.000000
    3       -4.420303   1.000000
    4       -4.409537   1.000000
    5        5.013133   0.000000
    6        7.611492   0.000000
    7        8.607251   0.000000
    8        9.969977   0.000000
 
  0.5000000E+00  0.1666667E+00  0.3333333E+00  0.9259259E-02
    1      -18.497290   1.000000
    2       -5.137231   1.000000
    3       -4.701175   1.000000
    4       -4.470061   1.000000
    5        5.988065   0.000000
    6        7.437532   0.000000
    7        7.724733   0.000000
    8       10.324560   0.000000
 
 -0.3333333E+00  0.1666667E+00  0.3333333E+00  0.9259259E-02
    1      -18.474251   1.000000
    2       -5.158992   1.000000
    3       -4.849916   1.000000
    4       -4.538678   1.000000
    5        6.669448   0.000000
    6        6.976120   0.000000
    7        8.044272   0.000000
    8        9.886186   0.000000
 
 -0.1666667E+00  0.1666667E+00  0.3333333E+00  0.9259259E-02
    1      -18.497290   1.000000
    2       -5.137231   1.000000
    3       -4.701175   1.000000
    4       -4.470061   1.000000
    5        5.988065   0.000000
    6        7.437532   0.000000
    7        7.724733   0.000000
    8       10.324560   0.000000
 
  0.0000000E+00  0.3333333E+00  0.3333333E+00  0.9259259E-02
    1      -18.509268   1.000000
    2       -5.105824   1.000000
    3       -4.527917   1.000000
    4       -4.527917   1.000000
    5        5.300779   0.000000
    6        7.009786   0.000000
    7        8.488617   0.000000
    8       11.218336   0.000000
 
  0.1666667E+00  0.3333333E+00  0.3333333E+00  0.9259259E-02
    1      -18.542830   1.000000
    2       -5.000689   1.000000
    3       -4.420303   1.000000
    4       -4.409537   1.000000
    5        5.013134   0.000000
    6        7.611492   0.000000
    7        8.607251   0.000000
    8        9.969977   0.000000
 
  0.3333333E+00  0.3333333E+00  0.3333333E+00  0.9259259E-02
    1      -18.542236   1.000000
    2       -5.170486   1.000000
    3       -4.322185   1.000000
    4       -4.322185   1.000000
    5        4.941586   0.000000
    6        7.840044   0.000000
    7        9.269234   0.000000
    8        9.269234   0.000000
 
  0.5000000E+00  0.3333333E+00  0.3333333E+00  0.9259259E-02
    1      -18.508164   1.000000
    2       -5.232464   1.000000
    3       -4.596890   1.000000
    4       -4.358416   1.000000
    5        5.804054   0.000000
    6        7.533538   0.000000
    7        8.307238   0.000000
    8        9.529584   0.000000
 
 -0.3333333E+00  0.3333333E+00  0.3333333E+00  0.9259259E-02
    1      -18.474246   1.000000
    2       -5.046552   1.000000
    3       -5.020240   1.000000
    4       -4.478986   1.000000
    5        6.534437   0.000000
    6        6.980838   0.000000
    7        8.194637   0.000000
    8       10.348960   0.000000
 
 -0.1666667E+00  0.3333333E+00  0.3333333E+00  0.9259259E-02
    1      -18.474751   1.000000
    2       -5.226179   1.000000
    3       -4.722826   1.000000
    4       -4.561340   1.000000
    5        5.739701   0.000000
    6        6.939010   0.000000
    7        8.526588   0.000000
    8       11.117257   0.000000
 
  0.1540744E-32  0.5000000E+00  0.3333333E+00  0.9259259E-02
    1      -18.474751   1.000000
    2       -5.226179   1.000000
    3       -4.722826   1.000000
    4       -4.561340   1.000000
    5        5.739701   0.000000
    6        6.939010   0.000000
    7        8.526588   0.000000
    8       11.117257   0.000000
 
  0.1666667E+00  0.5000000E+00  0.3333333E+00  0.9259259E-02
    1      -18.497290   1.000000
    2       -5.137231   1.000000
    3       -4.701175   1.000000
    4       -4.470061   1.000000
    5        5.988065   0.000000
    6        7.437532   0.000000
    7        7.724733   0.000000
    8       10.324560   0.000000
 
  0.3333333E+00  0.5000000E+00  0.3333333E+00  0.9259259E-02
    1      -18.508164   1.000000
    2       -5.232464   1.000000
    3       -4.596890   1.000000
    4       -4.358416   1.000000
    5        5.804054   0.000000
    6        7.533538   0.000000
    7        8.307238   0.000000
    8        9.529584   0.000000
 
  0.5000000E+00  0.5000000E+00  0.3333333E+00  0.9259259E-02
    1      -18.496684   1.000000
    2       -5.314787   1.000000
    3       -4.553915   1.000000
    4       -4.426528   1.000000
    5        5.918999   0.000000
    6        7.313158   0.000000
    7        8.483369   0.000000
    8        9.563245   0.000000
 
 -0.3333333E+00  0.5000000E+00  0.3333333E+00  0.9259259E-02
    1      -18.474251   1.000000
    2       -5.158992   1.000000
    3       -4.849916   1.000000
    4       -4.538678   1.000000
    5        6.669448   0.000000
    6        6.976120   0.000000
    7        8.044272   0.000000
    8        9.886186   0.000000
 
 -0.1666667E+00  0.5000000E+00  0.3333333E+00  0.9259259E-02
    1      -18.463182   1.000000
    2       -5.168242   1.000000
    3       -4.818288   1.000000
    4       -4.657496   1.000000
    5        6.020533   0.000000
    6        7.174583   0.000000
    7        8.494457   0.000000
    8       10.036638   0.000000
 
 -0.3081488E-32 -0.3333333E+00  0.3333333E+00  0.9259259E-02
    1      -18.474246   1.000000
    2       -5.046552   1.000000
    3       -5.020240   1.000000
    4       -4.478986   1.000000
    5        6.534437   0.000000
    6        6.980838   0.000000
    7        8.194638   0.000000
    8       10.348960   0.000000
 
  0.1666667E+00 -0.3333333E+00  0.3333333E+00  0.9259259E-02
    1      -18.474251   1.000000
    2       -5.158992   1.000000
    3       -4.849916   1.000000
    4       -4.538678   1.000000
    5        6.669448   0.000000
    6        6.976120   0.000000
    7        8.044272   0.000000
    8        9.886186   0.000000
 
  0.3333333E+00 -0.3333333E+00  0.3333333E+00  0.9259259E-02
    1      -18.474246   1.000000
    2       -5.046552   1.000000
    3       -5.020240   1.000000
    4       -4.478986   1.000000
    5        6.534437   0.000000
    6        6.980838   0.000000
    7        8.194638   0.000000
    8       10.348960   0.000000
 
  0.5000000E+00 -0.3333333E+00  0.3333333E+00  0.9259259E-02
    1      -18.474251   1.000000
    2       -5.158992   1.000000
    3       -4.849916   1.000000
    4       -4.538678   1.000000
    5        6.669448   0.000000
    6        6.976120   0.000000
    7        8.044272   0.000000
    8        9.886186   0.000000
 
 -0.3333333E+00 -0.3333333E+00  0.3333333E+00  0.9259259E-02
    1      -18.474246   1.000000
    2       -5.046552   1.000000
    3       -5.020240   1.000000
    4       -4.478986   1.000000
    5        6.534437   0.000000
    6        6.980838   0.000000
    7        8.194638   0.000000
    8       10.348960   0.000000
 
 -0.1666667E+00 -0.3333333E+00  0.3333333E+00  0.9259259E-02
    1      -18.474251   1.000000
    2       -5.158992   1.000000
    3       -4.849916   1.000000
    4       -4.538678   1.000000
    5        6.669448   0.000000
    6        6.976120   0.000000
    7        8.044272   0.000000
    8        9.886186   0.000000
 
  0.1540744E-32 -0.1666667E+00  0.3333333E+00  0.9259259E-02
    1      -18.508164   1.000000
    2       -5.232464   1.000000
    3       -4.596890   1.000000
    4       -4.358416   1.000000
    5        5.804054   0.000000
    6        7.533538   0.000000
    7        8.307238   0.000000
    8        9.529584   0.000000
 
  0.1666667E+00 -0.1666667E+00  0.3333333E+00  0.9259259E-02
    1      -18.497290   1.000000
    2       -5.137231   1.000000
    3       -4.701175   1.000000
    4       -4.470061   1.000000
    5        5.988065   0.000000
    6        7.437532   0.000000
    7        7.724733   0.000000
    8       10.324560   0.000000
 
  0.3333333E+00 -0.1666667E+00  0.3333333E+00  0.9259259E-02
    1      -18.474751   1.000000
    2       -5.226179   1.000000
    3       -4.722826   1.000000
    4       -4.561340   1.000000
    5        5.739701   0.000000
    6        6.939010   0.000000
    7        8.526588   0.000000
    8       11.117257   0.000000
 
  0.5000000E+00 -0.1666667E+00  0.3333333E+00  0.9259259E-02
    1      -18.463182   1.000000
    2       -5.168242   1.000000
    3       -4.818288   1.000000
    4       -4.657496   1.000000
    5        6.020533   0.000000
    6        7.174583   0.000000
    7        8.494457   0.000000
    8       10.036638   0.000000
 
 -0.3333333E+00 -0.1666667E+00  0.3333333E+00  0.9259259E-02
    1      -18.474251   1.000000
    2       -5.158992   1.000000
    3       -4.849916   1.000000
    4       -4.538678   1.000000
    5        6.669448   0.000000
    6        6.976120   0.000000
    7        8.044272   0.000000
    8        9.886186   0.000000
 