   1   1   0   0
  0.5789729E+02  0.4342346E-09  0.4342346E-09  0.4342346E-09  0.1000000E-15
  1.000000000000000E-004
  CAR 
 Og_FCC                                  
     17.80527406    -32.76715224  301      3.96107236      1.00000000
    -32.767  0.0000E+00  0.0000E+00
    -32.599  0.0000E+00  0.0000E+00
    -32.430  0.0000E+00  0.0000E+00
    -32.261  0.0000E+00  0.0000E+00
    -32.093  0.0000E+00  0.0000E+00
    -31.924  0.0000E+00  0.0000E+00
    -31.756  0.0000E+00  0.0000E+00
    -31.587  0.0000E+00  0.0000E+00
    -31.419  0.0000E+00  0.0000E+00
    -31.250  0.0000E+00  0.0000E+00
    -31.081  0.0000E+00  0.0000E+00
    -30.913  0.0000E+00  0.0000E+00
    -30.744  0.0000E+00  0.0000E+00
    -30.576  0.0000E+00  0.0000E+00
    -30.407  0.0000E+00  0.4000E+01
    -30.239  0.0000E+00  0.4000E+01
    -30.070  0.0000E+00  0.4000E+01
    -29.901  0.0000E+00  0.4000E+01
    -29.733  0.0000E+00  0.4000E+01
    -29.564  0.0000E+00  0.4000E+01
    -29.396  0.0000E+00  0.4000E+01
    -29.227  0.0000E+00  0.4000E+01
    -29.059  0.0000E+00  0.4000E+01
    -28.890  0.0000E+00  0.4000E+01
    -28.721  0.0000E+00  0.4000E+01
    -28.553  0.0000E+00  0.4000E+01
    -28.384  0.0000E+00  0.4000E+01
    -28.216  0.0000E+00  0.4000E+01
    -28.047  0.0000E+00  0.4000E+01
    -27.878  0.0000E+00  0.4000E+01
    -27.710  0.0000E+00  0.4000E+01
    -27.541  0.0000E+00  0.4000E+01
    -27.373  0.0000E+00  0.4000E+01
    -27.204  0.0000E+00  0.4000E+01
    -27.036  0.0000E+00  0.4000E+01
    -26.867  0.0000E+00  0.4000E+01
    -26.698  0.0000E+00  0.4000E+01
    -26.530  0.0000E+00  0.4000E+01
    -26.361  0.0000E+00  0.4000E+01
    -26.193  0.0000E+00  0.4000E+01
    -26.024  0.0000E+00  0.4000E+01
    -25.856  0.0000E+00  0.4000E+01
    -25.687  0.0000E+00  0.4000E+01
    -25.518  0.0000E+00  0.4000E+01
    -25.350  0.0000E+00  0.4000E+01
    -25.181  0.0000E+00  0.4000E+01
    -25.013  0.0000E+00  0.4000E+01
    -24.844  0.0000E+00  0.4000E+01
    -24.676  0.0000E+00  0.4000E+01
    -24.507  0.0000E+00  0.4000E+01
    -24.338  0.0000E+00  0.4000E+01
    -24.170  0.0000E+00  0.4000E+01
    -24.001  0.0000E+00  0.4000E+01
    -23.833  0.0000E+00  0.4000E+01
    -23.664  0.0000E+00  0.1000E+02
    -23.496  0.0000E+00  0.1000E+02
    -23.327  0.0000E+00  0.1000E+02
    -23.158  0.0000E+00  0.1000E+02
    -22.990  0.0000E+00  0.1000E+02
    -22.821  0.0000E+00  0.1000E+02
    -22.653  0.0000E+00  0.1000E+02
    -22.484  0.0000E+00  0.1000E+02
    -22.316  0.0000E+00  0.1000E+02
    -22.147  0.0000E+00  0.1000E+02
    -21.978  0.0000E+00  0.1000E+02
    -21.810  0.0000E+00  0.1000E+02
    -21.641  0.0000E+00  0.1000E+02
    -21.473  0.0000E+00  0.1000E+02
    -21.304  0.0000E+00  0.1000E+02
    -21.135  0.0000E+00  0.1000E+02
    -20.967  0.0000E+00  0.1000E+02
    -20.798  0.0000E+00  0.1000E+02
    -20.630  0.0000E+00  0.1000E+02
    -20.461  0.0000E+00  0.1000E+02
    -20.293  0.0000E+00  0.1000E+02
    -20.124  0.1112E+01  0.1047E+02
    -19.955  0.0000E+00  0.1200E+02
    -19.787  0.0000E+00  0.1200E+02
    -19.618  0.0000E+00  0.1200E+02
    -19.450  0.0000E+00  0.1200E+02
    -19.281  0.0000E+00  0.1200E+02
    -19.113  0.0000E+00  0.1200E+02
    -18.944  0.0000E+00  0.1200E+02
    -18.775  0.0000E+00  0.1200E+02
    -18.607  0.0000E+00  0.1200E+02
    -18.438  0.0000E+00  0.1200E+02
    -18.270  0.0000E+00  0.1200E+02
    -18.101  0.0000E+00  0.1200E+02
    -17.933  0.0000E+00  0.1200E+02
    -17.764  0.0000E+00  0.1200E+02
    -17.595  0.0000E+00  0.1200E+02
    -17.427  0.0000E+00  0.1200E+02
    -17.258  0.0000E+00  0.1200E+02
    -17.090  0.0000E+00  0.1200E+02
    -16.921  0.0000E+00  0.1200E+02
    -16.753  0.0000E+00  0.1200E+02
    -16.584  0.0000E+00  0.1200E+02
    -16.415  0.0000E+00  0.1200E+02
    -16.247  0.0000E+00  0.1200E+02
    -16.078  0.0000E+00  0.1200E+02
    -15.910  0.0000E+00  0.1200E+02
    -15.741  0.0000E+00  0.1200E+02
    -15.573  0.0000E+00  0.1200E+02
    -15.404  0.0000E+00  0.1200E+02
    -15.235  0.0000E+00  0.1200E+02
    -15.067  0.0000E+00  0.1200E+02
    -14.898  0.0000E+00  0.1200E+02
    -14.730  0.0000E+00  0.1200E+02
    -14.561  0.0000E+00  0.1200E+02
    -14.393  0.0000E+00  0.1200E+02
    -14.224  0.0000E+00  0.1200E+02
    -14.055  0.0000E+00  0.1200E+02
    -13.887  0.0000E+00  0.1200E+02
    -13.718  0.0000E+00  0.1200E+02
    -13.550  0.0000E+00  0.1200E+02
    -13.381  0.0000E+00  0.1200E+02
    -13.212  0.0000E+00  0.1200E+02
    -13.044  0.0000E+00  0.1200E+02
    -12.875  0.0000E+00  0.1200E+02
    -12.707  0.0000E+00  0.1200E+02
    -12.538  0.0000E+00  0.1200E+02
    -12.370  0.0000E+00  0.1200E+02
    -12.201  0.0000E+00  0.1200E+02
    -12.032  0.0000E+00  0.1200E+02
    -11.864  0.0000E+00  0.1200E+02
    -11.695  0.0000E+00  0.1200E+02
    -11.527  0.0000E+00  0.1200E+02
    -11.358  0.0000E+00  0.1200E+02
    -11.190  0.0000E+00  0.1200E+02
    -11.021  0.0000E+00  0.1200E+02
    -10.852  0.0000E+00  0.1200E+02
    -10.684  0.0000E+00  0.1200E+02
    -10.515  0.0000E+00  0.1200E+02
    -10.347  0.0000E+00  0.1200E+02
    -10.178  0.0000E+00  0.1200E+02
    -10.010  0.0000E+00  0.1200E+02
     -9.841  0.0000E+00  0.1200E+02
     -9.672  0.0000E+00  0.1200E+02
     -9.504  0.0000E+00  0.1200E+02
     -9.335  0.0000E+00  0.1200E+02
     -9.167  0.0000E+00  0.1200E+02
     -8.998  0.0000E+00  0.1200E+02
     -8.830  0.0000E+00  0.1200E+02
     -8.661  0.0000E+00  0.1200E+02
     -8.492  0.0000E+00  0.1200E+02
     -8.324  0.0000E+00  0.1200E+02
     -8.155  0.0000E+00  0.1200E+02
     -7.987  0.0000E+00  0.1200E+02
     -7.818  0.0000E+00  0.1200E+02
     -7.650  0.0000E+00  0.1200E+02
     -7.481  0.0000E+00  0.1200E+02
     -7.312  0.2412E+01  0.1269E+02
     -7.144  0.5556E+00  0.1362E+02
     -6.975  0.0000E+00  0.1397E+02
     -6.807  0.0000E+00  0.1400E+02
     -6.638  0.0000E+00  0.1400E+02
     -6.469  0.0000E+00  0.1400E+02
     -6.301  0.0000E+00  0.1400E+02
     -6.132  0.0000E+00  0.1400E+02
     -5.964  0.0000E+00  0.1400E+02
     -5.795  0.0000E+00  0.1400E+02
     -5.627  0.0000E+00  0.1400E+02
     -5.458  0.0000E+00  0.1400E+02
     -5.289  0.0000E+00  0.1400E+02
     -5.121  0.0000E+00  0.1400E+02
     -4.952  0.0000E+00  0.1400E+02
     -4.784  0.0000E+00  0.1400E+02
     -4.615  0.0000E+00  0.1400E+02
     -4.447  0.0000E+00  0.1400E+02
     -4.278  0.0000E+00  0.1400E+02
     -4.109  0.0000E+00  0.1400E+02
     -3.941  0.0000E+00  0.1400E+02
     -3.772  0.0000E+00  0.1400E+02
     -3.604  0.0000E+00  0.1400E+02
     -3.435  0.0000E+00  0.1400E+02
     -3.267  0.0000E+00  0.1400E+02
     -3.098  0.0000E+00  0.1400E+02
     -2.929  0.0000E+00  0.1400E+02
     -2.761  0.0000E+00  0.1400E+02
     -2.592  0.0000E+00  0.1400E+02
     -2.424  0.0000E+00  0.1400E+02
     -2.255  0.0000E+00  0.1400E+02
     -2.087  0.0000E+00  0.1400E+02
     -1.918  0.0000E+00  0.1400E+02
     -1.749  0.0000E+00  0.1400E+02
     -1.581  0.0000E+00  0.1400E+02
     -1.412  0.0000E+00  0.1400E+02
     -1.244  0.0000E+00  0.1400E+02
     -1.075  0.0000E+00  0.1400E+02
     -0.907  0.0000E+00  0.1400E+02
     -0.738  0.0000E+00  0.1400E+02
     -0.569  0.0000E+00  0.1400E+02
     -0.401  0.0000E+00  0.1400E+02
     -0.232  0.0000E+00  0.1400E+02
     -0.064  0.0000E+00  0.1400E+02
      0.105  0.0000E+00  0.1400E+02
      0.273  0.0000E+00  0.1400E+02
      0.442  0.0000E+00  0.1400E+02
      0.611  0.0000E+00  0.1400E+02
      0.779  0.0000E+00  0.1422E+02
      0.948  0.4876E+00  0.1505E+02
      1.116  0.0000E+00  0.1553E+02
      1.285  0.0000E+00  0.1553E+02
      1.454  0.0000E+00  0.1553E+02
      1.622  0.0000E+00  0.1616E+02
      1.791  0.0000E+00  0.1616E+02
      1.959  0.0000E+00  0.1616E+02
      2.128  0.0000E+00  0.1616E+02
      2.296  0.0000E+00  0.1616E+02
      2.465  0.0000E+00  0.1700E+02
      2.634  0.0000E+00  0.1738E+02
      2.802  0.0000E+00  0.1738E+02
      2.971  0.0000E+00  0.1738E+02
      3.139  0.0000E+00  0.1756E+02
      3.308  0.0000E+00  0.1756E+02
      3.476  0.0000E+00  0.1769E+02
      3.645  0.0000E+00  0.1769E+02
      3.814  0.0000E+00  0.1797E+02
      3.982  0.0000E+00  0.1803E+02
      4.151  0.0000E+00  0.1803E+02
      4.319  0.0000E+00  0.1803E+02
      4.488  0.0000E+00  0.1803E+02
      4.656  0.0000E+00  0.1803E+02
      4.825  0.0000E+00  0.1803E+02
      4.994  0.0000E+00  0.1803E+02
      5.162  0.0000E+00  0.1803E+02
      5.331  0.0000E+00  0.1803E+02
      5.499  0.0000E+00  0.1803E+02
      5.668  0.0000E+00  0.1803E+02
      5.836  0.0000E+00  0.1803E+02
      6.005  0.0000E+00  0.1803E+02
      6.174  0.0000E+00  0.1828E+02
      6.342  0.0000E+00  0.1850E+02
      6.511  0.0000E+00  0.1850E+02
      6.679  0.0000E+00  0.1850E+02
      6.848  0.0000E+00  0.1850E+02
      7.016  0.0000E+00  0.1869E+02
      7.185  0.0000E+00  0.1869E+02
      7.354  0.0000E+00  0.1944E+02
      7.522  0.0000E+00  0.1944E+02
      7.691  0.0000E+00  0.2000E+02
      7.859  0.0000E+00  0.2009E+02
      8.028  0.0000E+00  0.2009E+02
      8.197  0.0000E+00  0.2009E+02
      8.365  0.0000E+00  0.2009E+02
      8.534  0.0000E+00  0.2009E+02
      8.702  0.0000E+00  0.2028E+02
      8.871  0.0000E+00  0.2141E+02
      9.039  0.0000E+00  0.2141E+02
      9.208  0.0000E+00  0.2141E+02
      9.377  0.0000E+00  0.2141E+02
      9.545  0.0000E+00  0.2141E+02
      9.714  0.0000E+00  0.2159E+02
      9.882  0.0000E+00  0.2178E+02
     10.051  0.0000E+00  0.2222E+02
     10.219  0.0000E+00  0.2222E+02
     10.388  0.0000E+00  0.2347E+02
     10.557  0.0000E+00  0.2359E+02
     10.725  0.6456E+00  0.2391E+02
     10.894  0.5504E+00  0.2406E+02
     11.062  0.0000E+00  0.2431E+02
     11.231  0.0000E+00  0.2434E+02
     11.399  0.0000E+00  0.2462E+02
     11.568  0.0000E+00  0.2500E+02
     11.737  0.0000E+00  0.2525E+02
     11.905  0.0000E+00  0.2525E+02
     12.074  0.0000E+00  0.2619E+02
     12.242  0.0000E+00  0.2631E+02
     12.411  0.0000E+00  0.2631E+02
     12.579  0.0000E+00  0.2669E+02
     12.748  0.0000E+00  0.2694E+02
     12.917  0.0000E+00  0.2694E+02
     13.085  0.0000E+00  0.2712E+02
     13.254  0.0000E+00  0.2716E+02
     13.422  0.0000E+00  0.2716E+02
     13.591  0.0000E+00  0.2791E+02
     13.759  0.0000E+00  0.2809E+02
     13.928  0.0000E+00  0.2847E+02
     14.097  0.0000E+00  0.2847E+02
     14.265  0.0000E+00  0.2847E+02
     14.434  0.0000E+00  0.2847E+02
     14.602  0.0000E+00  0.2847E+02
     14.771  0.0000E+00  0.2953E+02
     14.940  0.0000E+00  0.2953E+02
     15.108  0.5056E+00  0.2971E+02
     15.277  0.0000E+00  0.2972E+02
     15.445  0.0000E+00  0.2981E+02
     15.614  0.0000E+00  0.3000E+02
     15.782  0.0000E+00  0.3000E+02
     15.951  0.0000E+00  0.3000E+02
     16.120  0.0000E+00  0.3000E+02
     16.288  0.0000E+00  0.3000E+02
     16.457  0.0000E+00  0.3000E+02
     16.625  0.0000E+00  0.3000E+02
     16.794  0.0000E+00  0.3000E+02
     16.962  0.0000E+00  0.3000E+02
     17.131  0.0000E+00  0.3000E+02
     17.300  0.0000E+00  0.3000E+02
     17.468  0.0000E+00  0.3000E+02
     17.637  0.0000E+00  0.3000E+02
     17.805  0.0000E+00  0.3000E+02
