   1   1   0   0
  0.8549903E+02  0.4944914E-09  0.4944914E-09  0.4944914E-09  0.1000000E-15
  1.000000000000000E-004
  CAR 
 Og_FCC                                  
     11.65608984    -32.54110799  301     -1.32891589      1.00000000
    -32.541  0.0000E+00  0.0000E+00
    -32.394  0.0000E+00  0.0000E+00
    -32.246  0.0000E+00  0.0000E+00
    -32.099  0.0000E+00  0.0000E+00
    -31.952  0.0000E+00  0.0000E+00
    -31.804  0.0000E+00  0.0000E+00
    -31.657  0.0000E+00  0.0000E+00
    -31.510  0.0000E+00  0.0000E+00
    -31.363 -0.1542E-27 -0.2271E-28
    -31.215 -0.6287E-18 -0.9262E-19
    -31.068 -0.3076E-10 -0.4532E-11
    -30.921 -0.1819E-04 -0.2680E-05
    -30.773 -0.1113E+00 -0.1640E-01
    -30.626 -0.1160E+01 -0.1873E+00
    -30.479  0.6128E+02  0.8841E+01
    -30.331  0.8413E+01  0.1008E+02
    -30.184 -0.5435E+00  0.1000E+02
    -30.037 -0.3546E-03  0.1000E+02
    -29.889 -0.2166E-08  0.1000E+02
    -29.742  0.0000E+00  0.1000E+02
    -29.595  0.0000E+00  0.1000E+02
    -29.447  0.0000E+00  0.1000E+02
    -29.300  0.0000E+00  0.1000E+02
    -29.153  0.0000E+00  0.1000E+02
    -29.005  0.0000E+00  0.1000E+02
    -28.858  0.0000E+00  0.1000E+02
    -28.711  0.0000E+00  0.1000E+02
    -28.563  0.0000E+00  0.1000E+02
    -28.416  0.0000E+00  0.1000E+02
    -28.269  0.0000E+00  0.1000E+02
    -28.121  0.0000E+00  0.1000E+02
    -27.974  0.0000E+00  0.1000E+02
    -27.827  0.0000E+00  0.1000E+02
    -27.679  0.0000E+00  0.1000E+02
    -27.532  0.0000E+00  0.1000E+02
    -27.385  0.0000E+00  0.1000E+02
    -27.237  0.0000E+00  0.1000E+02
    -27.090  0.0000E+00  0.1000E+02
    -26.943  0.0000E+00  0.1000E+02
    -26.795  0.0000E+00  0.1000E+02
    -26.648  0.0000E+00  0.1000E+02
    -26.501  0.0000E+00  0.1000E+02
    -26.354  0.0000E+00  0.1000E+02
    -26.206  0.0000E+00  0.1000E+02
    -26.059  0.0000E+00  0.1000E+02
    -25.912  0.0000E+00  0.1000E+02
    -25.764  0.0000E+00  0.1000E+02
    -25.617  0.0000E+00  0.1000E+02
    -25.470  0.0000E+00  0.1000E+02
    -25.322  0.0000E+00  0.1000E+02
    -25.175  0.0000E+00  0.1000E+02
    -25.028  0.0000E+00  0.1000E+02
    -24.880  0.0000E+00  0.1000E+02
    -24.733  0.0000E+00  0.1000E+02
    -24.586  0.0000E+00  0.1000E+02
    -24.438  0.0000E+00  0.1000E+02
    -24.291 -0.1322E-28  0.1000E+02
    -24.144 -0.5785E-19  0.1000E+02
    -23.996 -0.3160E-11  0.1000E+02
    -23.849 -0.2170E-05  0.1000E+02
    -23.702 -0.1613E-01  0.9998E+01
    -23.554 -0.3484E+00  0.9946E+01
    -23.407  0.1174E+02  0.1168E+02
    -23.260  0.2336E+01  0.1202E+02
    -23.112 -0.1403E+00  0.1200E+02
    -22.965 -0.1244E-03  0.1200E+02
    -22.818 -0.1019E-08  0.1200E+02
    -22.670  0.0000E+00  0.1200E+02
    -22.523  0.0000E+00  0.1200E+02
    -22.376  0.0000E+00  0.1200E+02
    -22.228  0.0000E+00  0.1200E+02
    -22.081  0.0000E+00  0.1200E+02
    -21.934  0.0000E+00  0.1200E+02
    -21.786  0.0000E+00  0.1200E+02
    -21.639  0.0000E+00  0.1200E+02
    -21.492  0.0000E+00  0.1200E+02
    -21.344  0.0000E+00  0.1200E+02
    -21.197  0.0000E+00  0.1200E+02
    -21.050  0.0000E+00  0.1200E+02
    -20.903  0.0000E+00  0.1200E+02
    -20.755  0.0000E+00  0.1200E+02
    -20.608  0.0000E+00  0.1200E+02
    -20.461  0.0000E+00  0.1200E+02
    -20.313  0.0000E+00  0.1200E+02
    -20.166  0.0000E+00  0.1200E+02
    -20.019  0.0000E+00  0.1200E+02
    -19.871  0.0000E+00  0.1200E+02
    -19.724  0.0000E+00  0.1200E+02
    -19.577  0.0000E+00  0.1200E+02
    -19.429  0.0000E+00  0.1200E+02
    -19.282  0.0000E+00  0.1200E+02
    -19.135  0.0000E+00  0.1200E+02
    -18.987  0.0000E+00  0.1200E+02
    -18.840  0.0000E+00  0.1200E+02
    -18.693  0.0000E+00  0.1200E+02
    -18.545  0.0000E+00  0.1200E+02
    -18.398  0.0000E+00  0.1200E+02
    -18.251  0.0000E+00  0.1200E+02
    -18.103  0.0000E+00  0.1200E+02
    -17.956  0.0000E+00  0.1200E+02
    -17.809  0.0000E+00  0.1200E+02
    -17.661  0.0000E+00  0.1200E+02
    -17.514  0.0000E+00  0.1200E+02
    -17.367  0.0000E+00  0.1200E+02
    -17.219  0.0000E+00  0.1200E+02
    -17.072  0.0000E+00  0.1200E+02
    -16.925  0.0000E+00  0.1200E+02
    -16.777  0.0000E+00  0.1200E+02
    -16.630  0.0000E+00  0.1200E+02
    -16.483  0.0000E+00  0.1200E+02
    -16.335  0.0000E+00  0.1200E+02
    -16.188  0.0000E+00  0.1200E+02
    -16.041  0.0000E+00  0.1200E+02
    -15.893  0.0000E+00  0.1200E+02
    -15.746  0.0000E+00  0.1200E+02
    -15.599  0.0000E+00  0.1200E+02
    -15.452  0.0000E+00  0.1200E+02
    -15.304  0.0000E+00  0.1200E+02
    -15.157  0.0000E+00  0.1200E+02
    -15.010  0.0000E+00  0.1200E+02
    -14.862  0.0000E+00  0.1200E+02
    -14.715  0.0000E+00  0.1200E+02
    -14.568  0.0000E+00  0.1200E+02
    -14.420  0.0000E+00  0.1200E+02
    -14.273  0.0000E+00  0.1200E+02
    -14.126  0.0000E+00  0.1200E+02
    -13.978  0.0000E+00  0.1200E+02
    -13.831  0.0000E+00  0.1200E+02
    -13.684  0.0000E+00  0.1200E+02
    -13.536  0.0000E+00  0.1200E+02
    -13.389  0.0000E+00  0.1200E+02
    -13.242  0.0000E+00  0.1200E+02
    -13.094  0.0000E+00  0.1200E+02
    -12.947  0.0000E+00  0.1200E+02
    -12.800  0.0000E+00  0.1200E+02
    -12.652  0.0000E+00  0.1200E+02
    -12.505  0.0000E+00  0.1200E+02
    -12.358  0.0000E+00  0.1200E+02
    -12.210  0.0000E+00  0.1200E+02
    -12.063  0.0000E+00  0.1200E+02
    -11.916  0.0000E+00  0.1200E+02
    -11.768  0.0000E+00  0.1200E+02
    -11.621  0.0000E+00  0.1200E+02
    -11.474  0.0000E+00  0.1200E+02
    -11.326  0.0000E+00  0.1200E+02
    -11.179  0.0000E+00  0.1200E+02
    -11.032  0.0000E+00  0.1200E+02
    -10.884  0.0000E+00  0.1200E+02
    -10.737  0.0000E+00  0.1200E+02
    -10.590  0.0000E+00  0.1200E+02
    -10.443  0.0000E+00  0.1200E+02
    -10.295  0.0000E+00  0.1200E+02
    -10.148  0.0000E+00  0.1200E+02
    -10.001  0.0000E+00  0.1200E+02
     -9.853  0.0000E+00  0.1200E+02
     -9.706  0.0000E+00  0.1200E+02
     -9.559  0.0000E+00  0.1200E+02
     -9.411  0.0000E+00  0.1200E+02
     -9.264  0.0000E+00  0.1200E+02
     -9.117  0.0000E+00  0.1200E+02
     -8.969  0.0000E+00  0.1200E+02
     -8.822  0.0000E+00  0.1200E+02
     -8.675  0.0000E+00  0.1200E+02
     -8.527  0.0000E+00  0.1200E+02
     -8.380  0.0000E+00  0.1200E+02
     -8.233  0.0000E+00  0.1200E+02
     -8.085  0.0000E+00  0.1200E+02
     -7.938  0.0000E+00  0.1200E+02
     -7.791  0.0000E+00  0.1200E+02
     -7.643  0.0000E+00  0.1200E+02
     -7.496  0.0000E+00  0.1200E+02
     -7.349  0.0000E+00  0.1200E+02
     -7.201  0.0000E+00  0.1200E+02
     -7.054  0.0000E+00  0.1200E+02
     -6.907  0.0000E+00  0.1200E+02
     -6.759  0.0000E+00  0.1200E+02
     -6.612  0.0000E+00  0.1200E+02
     -6.465  0.0000E+00  0.1200E+02
     -6.317  0.0000E+00  0.1200E+02
     -6.170  0.0000E+00  0.1200E+02
     -6.023  0.0000E+00  0.1200E+02
     -5.875  0.0000E+00  0.1200E+02
     -5.728  0.0000E+00  0.1200E+02
     -5.581  0.0000E+00  0.1200E+02
     -5.433  0.0000E+00  0.1200E+02
     -5.286  0.0000E+00  0.1200E+02
     -5.139  0.0000E+00  0.1200E+02
     -4.992  0.0000E+00  0.1200E+02
     -4.844  0.0000E+00  0.1200E+02
     -4.697  0.0000E+00  0.1200E+02
     -4.550  0.0000E+00  0.1200E+02
     -4.402  0.0000E+00  0.1200E+02
     -4.255  0.0000E+00  0.1200E+02
     -4.108  0.0000E+00  0.1200E+02
     -3.960  0.0000E+00  0.1200E+02
     -3.813  0.0000E+00  0.1200E+02
     -3.666 -0.4308E-37  0.1200E+02
     -3.518 -0.2490E-26  0.1200E+02
     -3.371 -0.1807E-17  0.1200E+02
     -3.224 -0.1549E-10  0.1200E+02
     -3.076 -0.1603E-05  0.1200E+02
     -2.929 -0.1967E-02  0.1200E+02
     -2.782 -0.2596E-01  0.1200E+02
     -2.634  0.9311E+00  0.1213E+02
     -2.487  0.4921E+01  0.1286E+02
     -2.340  0.5107E+01  0.1361E+02
     -2.192  0.1858E+01  0.1388E+02
     -2.045  0.2742E+01  0.1429E+02
     -1.898  0.3948E+01  0.1487E+02
     -1.750  0.5279E+01  0.1565E+02
     -1.603  0.7914E+01  0.1681E+02
     -1.456  0.6340E+01  0.1775E+02
     -1.308  0.1757E+01  0.1801E+02
     -1.161 -0.4015E-01  0.1800E+02
     -1.014 -0.3485E-02  0.1800E+02
     -0.866 -0.1273E-05  0.1800E+02
     -0.719 -0.5937E-11  0.1800E+02
     -0.572  0.0000E+00  0.1800E+02
     -0.424  0.0000E+00  0.1800E+02
     -0.277  0.0000E+00  0.1800E+02
     -0.130  0.0000E+00  0.1800E+02
      0.017  0.0000E+00  0.1800E+02
      0.165  0.0000E+00  0.1800E+02
      0.312  0.0000E+00  0.1800E+02
      0.459  0.0000E+00  0.1800E+02
      0.607  0.0000E+00  0.1800E+02
      0.754  0.0000E+00  0.1800E+02
      0.901 -0.3350E-31  0.1800E+02
      1.049 -0.1518E-21  0.1800E+02
      1.196 -0.8265E-14  0.1800E+02
      1.343 -0.5444E-08  0.1800E+02
      1.491 -0.3733E-04  0.1800E+02
      1.638 -0.5781E-03  0.1800E+02
      1.785  0.2355E-01  0.1800E+02
      1.933  0.3676E-02  0.1800E+02
      2.080 -0.7451E-02  0.1800E+02
      2.227  0.1633E+00  0.1803E+02
      2.375  0.1672E+00  0.1805E+02
      2.522  0.5108E-01  0.1806E+02
      2.669 -0.1383E-01  0.1806E+02
      2.817  0.2107E+00  0.1809E+02
      2.964  0.1014E+00  0.1810E+02
      3.111  0.4705E+00  0.1817E+02
      3.259  0.4177E+00  0.1823E+02
      3.406 -0.2424E-01  0.1823E+02
      3.553 -0.1132E-01  0.1823E+02
      3.701  0.7867E+00  0.1834E+02
      3.848  0.5943E+00  0.1843E+02
      3.995  0.1048E+01  0.1859E+02
      4.143  0.1975E+00  0.1862E+02
      4.290  0.1548E+01  0.1884E+02
      4.437  0.3303E+00  0.1889E+02
      4.585  0.9409E+00  0.1903E+02
      4.732  0.1769E+01  0.1929E+02
      4.879  0.1589E+01  0.1953E+02
      5.027  0.1078E+01  0.1968E+02
      5.174  0.1161E+00  0.1970E+02
      5.321  0.1175E+01  0.1987E+02
      5.468  0.4121E+00  0.1994E+02
      5.616  0.3527E+00  0.1999E+02
      5.763  0.2808E+00  0.2003E+02
      5.910  0.7122E+00  0.2013E+02
      6.058  0.9869E+00  0.2028E+02
      6.205  0.1467E+01  0.2050E+02
      6.352  0.3036E+01  0.2094E+02
      6.500  0.2387E+01  0.2129E+02
      6.647  0.4874E+00  0.2137E+02
      6.794  0.2804E+01  0.2178E+02
      6.942  0.5585E+01  0.2260E+02
      7.089  0.2143E+01  0.2292E+02
      7.236  0.7311E+00  0.2303E+02
      7.384  0.7835E+00  0.2314E+02
      7.531  0.1475E+01  0.2336E+02
      7.678  0.2072E+01  0.2366E+02
      7.826  0.2791E+01  0.2407E+02
      7.973  0.2182E+01  0.2440E+02
      8.120  0.2340E+01  0.2474E+02
      8.268  0.3310E+01  0.2523E+02
      8.415  0.1599E+01  0.2546E+02
      8.562  0.8179E+00  0.2558E+02
      8.710  0.5163E+00  0.2566E+02
      8.857  0.6671E+00  0.2576E+02
      9.004  0.1171E+00  0.2578E+02
      9.152  0.5147E+00  0.2585E+02
      9.299  0.1408E+00  0.2587E+02
      9.446 -0.9276E-02  0.2587E+02
      9.594  0.6373E+00  0.2596E+02
      9.741  0.2504E+00  0.2600E+02
      9.888 -0.9804E-02  0.2600E+02
     10.036 -0.2756E-03  0.2600E+02
     10.183 -0.3718E-07  0.2600E+02
     10.330 -0.5548E-13  0.2600E+02
     10.477  0.0000E+00  0.2600E+02
     10.625  0.0000E+00  0.2600E+02
     10.772  0.0000E+00  0.2600E+02
     10.919  0.0000E+00  0.2600E+02
     11.067  0.0000E+00  0.2600E+02
     11.214  0.0000E+00  0.2600E+02
     11.361  0.0000E+00  0.2600E+02
     11.509  0.0000E+00  0.2600E+02
     11.656  0.0000E+00  0.2600E+02
