    1    1    1    1
  0.8549903E+02  0.4944914E-09  0.4944914E-09  0.4944914E-09  0.1000000E-15
  1.000000000000000E-004
  CAR 
 Og_FCC                                  
     18     29     13
 
  0.0000000E+00  0.0000000E+00  0.0000000E+00  0.1953125E-02
    1      -30.531764   1.000000
    2      -30.531764   1.000000
    3      -30.531764   1.000000
    4      -30.531328   1.000000
    5      -30.531328   1.000000
    6      -23.469396   1.000000
    7       -1.356636   0.724894
    8       -1.356636   0.724894
    9       -1.356636   0.724894
   10        1.736306   0.000000
   11        7.804423   0.000000
   12        7.804423   0.000000
   13        7.804424   0.000000
 
  0.1250000E+00 -0.1284580E-16 -0.6938894E-17  0.1562500E-01
    1      -30.531712   1.000000
    2      -30.531673   1.000000
    3      -30.531673   1.000000
    4      -30.531291   1.000000
    5      -30.531291   1.000000
    6      -23.466765   1.000000
    7       -1.659464   1.000015
    8       -1.383137   0.892394
    9       -1.383137   0.892394
   10        2.194586   0.000000
   11        7.266384   0.000000
   12        7.917156   0.000000
   13        7.917156   0.000000
 
  0.2500000E+00 -0.2569159E-16 -0.1387779E-16  0.1562500E-01
    1      -30.531622   1.000000
    2      -30.531621   1.000000
    3      -30.531573   1.000000
    4      -30.531062   1.000000
    5      -30.531062   1.000000
    6      -23.460550   1.000000
    7       -2.196608   1.000000
    8       -1.445506   1.034880
    9       -1.445506   1.034880
   10        3.076799   0.000000
   11        6.939953   0.000000
   12        7.892153   0.000000
   13        7.892154   0.000000
 
  0.3750000E+00 -0.2465960E-16  0.1387779E-16  0.1562500E-01
    1      -30.531674   1.000000
    2      -30.531674   1.000000
    3      -30.531417   1.000000
    4      -30.530725   1.000000
    5      -30.530725   1.000000
    6      -23.454288   1.000000
    7       -2.600472   1.000000
    8       -1.505773   1.015668
    9       -1.505773   1.015668
   10        3.688967   0.000000
   11        7.312995   0.000000
   12        7.613711   0.000000
   13        7.613711   0.000000
 
  0.5000000E+00 -0.5138319E-16 -0.2775558E-16  0.7812500E-02
    1      -30.531703   1.000000
    2      -30.531703   1.000000
    3      -30.531374   1.000000
    4      -30.530589   1.000000
    5      -30.530589   1.000000
    6      -23.451733   1.000000
    7       -2.745016   1.000000
    8       -1.530167   1.007676
    9       -1.530167   1.007676
   10        3.850165   0.000000
   11        7.492759   0.000000
   12        7.492759   0.000000
   13        7.664137   0.000000
 
  0.1250000E+00  0.1250000E+00  0.0000000E+00  0.1171875E-01
    1      -30.531818   1.000000
    2      -30.531558   1.000000
    3      -30.531558   1.000000
    4      -30.531378   1.000000
    5      -30.531233   1.000000
    6      -23.465914   1.000000
    7       -1.668333   1.000009
    8       -1.436209   1.031134
    9       -1.436209   1.031134
   10        2.353072   0.000000
   11        7.039876   0.000000
   12        8.048106   0.000000
   13        8.049848   0.000000
 
  0.2500000E+00  0.1250000E+00 -0.1387779E-16  0.4687500E-01
    1      -30.531783   1.000000
    2      -30.531482   1.000000
    3      -30.531440   1.000000
    4      -30.531238   1.000000
    5      -30.531028   1.000000
    6      -23.460909   1.000000
    7       -2.069839   1.000000
    8       -1.515782   1.011935
    9       -1.498351   1.018794
   10        3.116664   0.000000
   11        6.676480   0.000000
   12        7.538985   0.000000
   13        8.209847   0.000000
 
  0.3750000E+00  0.1250000E+00  0.2775558E-16  0.4687500E-01
    1      -30.531705   1.000000
    2      -30.531479   1.000000
    3      -30.531433   1.000000
    4      -30.530930   1.000000
    5      -30.530698   1.000000
    6      -23.454658   1.000000
    7       -2.469102   1.000000
    8       -1.593716   1.000583
    9       -1.574747   1.001392
   10        3.882646   0.000000
   11        6.798611   0.000000
   12        7.072364   0.000000
   13        8.007145   0.000000
 
  0.5000000E+00  0.1250000E+00  0.2775558E-16  0.4687500E-01
    1      -30.531703   1.000000
    2      -30.531523   1.000000
    3      -30.531302   1.000000
    4      -30.530710   1.000000
    5      -30.530567   1.000000
    6      -23.450834   1.000000
    7       -2.671704   1.000000
    8       -1.684707   1.000003
    9       -1.581141   1.001048
   10        4.210492   0.000000
   11        6.722096   0.000000
   12        7.744101   0.000000
   13        7.768080   0.000000
 
 -0.3750000E+00  0.1250000E+00  0.0000000E+00  0.4687500E-01
    1      -30.531668   1.000000
    2      -30.531529   1.000000
    3      -30.531322   1.000000
    4      -30.530737   1.000000
    5      -30.530651   1.000000
    6      -23.451699   1.000000
    7       -2.625073   1.000000
    8       -1.716235   1.000000
    9       -1.531784   1.007279
   10        4.161155   0.000000
   11        6.812938   0.000000
   12        7.537733   0.000000
   13        7.731994   0.000000
 
 -0.2500000E+00  0.1250000E+00  0.0000000E+00  0.4687500E-01
    1      -30.531608   1.000000
    2      -30.531495   1.000000
    3      -30.531491   1.000000
    4      -30.531106   1.000000
    5      -30.530801   1.000000
    6      -23.456747   1.000000
    7       -2.348468   1.000000
    8       -1.661684   1.000013
    9       -1.453110   1.035413
   10        3.662679   0.000000
   11        6.840915   0.000000
   12        7.243194   0.000000
   13        7.954505   0.000000
 
 -0.1250000E+00  0.1250000E+00 -0.1561471E-17  0.2343750E-01
    1      -30.531666   1.000000
    2      -30.531579   1.000000
    3      -30.531543   1.000000
    4      -30.531334   1.000000
    5      -30.531086   1.000000
    6      -23.462975   1.000000
    7       -1.950021   1.000000
    8       -1.525838   1.008819
    9       -1.390407   0.926595
   10        2.801264   0.000000
   11        6.909813   0.000000
   12        7.776113   0.000000
   13        8.117865   0.000000
 
  0.2500000E+00  0.2500000E+00  0.0000000E+00  0.1171875E-01
    1      -30.531963   1.000000
    2      -30.531489   1.000000
    3      -30.531075   1.000000
    4      -30.531075   1.000000
    5      -30.531022   1.000000
    6      -23.457633   1.000000
    7       -2.173703   1.000000
    8       -1.618140   1.000168
    9       -1.618140   1.000168
   10        3.610504   0.000000
   11        6.230393   0.000000
   12        7.138745   0.000000
   13        8.713289   0.000000
 
  0.3750000E+00  0.2500000E+00  0.2775558E-16  0.4687500E-01
    1      -30.531915   1.000000
    2      -30.531505   1.000000
    3      -30.531083   1.000000
    4      -30.530818   1.000000
    5      -30.530675   1.000000
    6      -23.452585   1.000000
    7       -2.408654   1.000000
    8       -1.746776   1.000000
    9       -1.692305   1.000002
   10        4.259205   0.000000
   11        6.118281   0.000000
   12        6.806591   0.000000
   13        8.815519   0.000000
 
  0.5000000E+00  0.2500000E+00 -0.2775558E-16  0.4687500E-01
    1      -30.531792   1.000000
    2      -30.531341   1.000000
    3      -30.531136   1.000000
    4      -30.530751   1.000000
    5      -30.530532   1.000000
    6      -23.448761   1.000000
    7       -2.531710   1.000000
    8       -1.943261   1.000000
    9       -1.698996   1.000001
   10        4.765920   0.000000
   11        6.334310   0.000000
   12        6.900085   0.000000
   13        8.532161   0.000000
 
 -0.3750000E+00  0.2500000E+00  0.2775558E-16  0.4687500E-01
    1      -30.531723   1.000000
    2      -30.531170   1.000000
    3      -30.531078   1.000000
    4      -30.530841   1.000000
    5      -30.530704   1.000000
    6      -23.448412   1.000000
    7       -2.497369   1.000000
    8       -2.085042   1.000000
    9       -1.634893   1.000067
   10        4.976622   0.000000
   11        6.276984   0.000000
   12        7.481590   0.000000
   13        8.296289   0.000000
 
 -0.2500000E+00  0.2500000E+00 -0.3122941E-17  0.2343750E-01
    1      -30.531641   1.000000
    2      -30.531261   1.000000
    3      -30.531216   1.000000
    4      -30.531053   1.000000
    5      -30.530730   1.000000
    6      -23.451708   1.000000
    7       -2.429443   1.000000
    8       -1.974504   1.000000
    9       -1.533422   1.006893
   10        4.564222   0.000000
   11        6.524645   0.000000
   12        6.894616   0.000000
   13        8.169161   0.000000
 
  0.3750000E+00  0.3750000E+00  0.2775558E-16  0.1171875E-01
    1      -30.532092   1.000000
    2      -30.531592   1.000000
    3      -30.530799   1.000000
    4      -30.530571   1.000000
    5      -30.530571   1.000000
    6      -23.449287   1.000000
    7       -2.519569   1.000000
    8       -1.787620   1.000000
    9       -1.787620   1.000000
   10        4.353353   0.000000
   11        5.728614   0.000000
   12        7.350583   0.000000
   13        9.631854   0.000000
 
  0.5000000E+00  0.3750000E+00 -0.1110223E-15  0.4687500E-01
    1      -30.532006   1.000000
    2      -30.531576   1.000000
    3      -30.530803   1.000000
    4      -30.530494   1.000000
    5      -30.530440   1.000000
    6      -23.446692   1.000000
    7       -2.567978   1.000000
    8       -1.935684   1.000000
    9       -1.810268   1.000000
   10        4.569269   0.000000
   11        5.814038   0.000000
   12        7.723807   0.000000
   13        9.530492   0.000000
 
 -0.3750000E+00  0.3750000E+00 -0.3270023E-16  0.2343750E-01
    1      -30.531828   1.000000
    2      -30.531315   1.000000
    3      -30.530900   1.000000
    4      -30.530663   1.000000
    5      -30.530567   1.000000
    6      -23.446323   1.000000
    7       -2.443083   1.000000
    8       -2.195815   1.000000
    9       -1.749095   1.000000
   10        4.944517   0.000000
   11        6.328694   0.000000
   12        7.829710   0.000000
   13        7.914301   0.000000
 
  0.5000000E+00  0.5000000E+00  0.0000000E+00  0.5859375E-02
    1      -30.532144   1.000000
    2      -30.531651   1.000000
    3      -30.530711   1.000000
    4      -30.530371   1.000000
    5      -30.530371   1.000000
    6      -23.445867   1.000000
    7       -2.636233   1.000000
    8       -1.854633   1.000000
    9       -1.854633   1.000000
   10        4.359122   0.000000
   11        5.559979   0.000000
   12        8.824356   0.000000
   13        9.647126   0.000000
 
  0.3750000E+00  0.2500000E+00  0.1250000E+00  0.4687500E-01
    1      -30.531725   1.000000
    2      -30.531514   1.000000
    3      -30.531271   1.000000
    4      -30.531085   1.000000
    5      -30.530784   1.000000
    6      -23.455879   1.000000
    7       -2.299535   1.000000
    8       -1.728838   1.000000
    9       -1.536889   1.006127
   10        3.880361   0.000000
   11        6.474839   0.000000
   12        6.917203   0.000000
   13        8.553566   0.000000
 
  0.5000000E+00  0.2500000E+00  0.1250000E+00  0.9375000E-01
    1      -30.531621   1.000000
    2      -30.531458   1.000000
    3      -30.531229   1.000000
    4      -30.530835   1.000000
    5      -30.530645   1.000000
    6      -23.450839   1.000000
    7       -2.495336   1.000000
    8       -1.891408   1.000000
    9       -1.615798   1.000191
   10        4.616413   0.000000
   11        6.406474   0.000000
   12        6.824216   0.000000
   13        8.317602   0.000000
 
 -0.3750000E+00  0.2500000E+00  0.1250000E+00  0.4687500E-01
    1      -30.531626   1.000000
    2      -30.531407   1.000000
    3      -30.531091   1.000000
    4      -30.530830   1.000000
    5      -30.530581   1.000000
    6      -23.448743   1.000000
    7       -2.571135   1.000000
    8       -1.944541   1.000000
    9       -1.658322   1.000016
   10        4.865161   0.000000
   11        6.219169   0.000000
   12        7.568558   0.000000
   13        8.136218   0.000000
 
  0.5000000E+00  0.3750000E+00  0.1250000E+00  0.4687500E-01
    1      -30.531831   1.000000
    2      -30.531524   1.000000
    3      -30.531009   1.000000
    4      -30.530615   1.000000
    5      -30.530577   1.000000
    6      -23.448776   1.000000
    7       -2.491526   1.000000
    8       -1.915826   1.000000
    9       -1.767710   1.000000
   10        4.746993   0.000000
   11        6.099273   0.000000
   12        6.740224   0.000000
   13        9.114802   0.000000
 
 -0.3750000E+00  0.3750000E+00  0.1250000E+00  0.9375000E-01
    1      -30.531658   1.000000
    2      -30.531344   1.000000
    3      -30.531023   1.000000
    4      -30.530812   1.000000
    5      -30.530465   1.000000
    6      -23.446678   1.000000
    7       -2.441833   1.000000
    8       -2.132946   1.000000
    9       -1.800486   1.000000
   10        5.247399   0.000000
   11        6.308420   0.000000
   12        6.900002   0.000000
   13        8.129344   0.000000
 
 -0.2500000E+00  0.3750000E+00  0.1250000E+00  0.4687500E-01
    1      -30.531586   1.000000
    2      -30.531222   1.000000
    3      -30.531121   1.000000
    4      -30.530876   1.000000
    5      -30.530583   1.000000
    6      -23.447532   1.000000
    7       -2.391743   1.000000
    8       -2.195653   1.000000
    9       -1.724375   1.000000
   10        5.461988   0.000000
   11        6.008569   0.000000
   12        7.014747   0.000000
   13        8.147780   0.000000
 
 -0.3750000E+00  0.5000000E+00  0.1250000E+00  0.2343750E-01
    1      -30.531879   1.000000
    2      -30.531546   1.000000
    3      -30.530809   1.000000
    4      -30.530630   1.000000
    5      -30.530368   1.000000
    6      -23.445839   1.000000
    7       -2.538047   1.000000
    8       -1.989265   1.000000
    9       -1.880593   1.000000
   10        4.798020   0.000000
   11        5.962763   0.000000
   12        7.923689   0.000000
   13        8.224881   0.000000
 
 -0.2500000E+00  0.5000000E+00  0.2500000E+00  0.1171875E-01
    1      -30.531405   1.000000
    2      -30.531236   1.000000
    3      -30.531236   1.000000
    4      -30.530928   1.000000
    5      -30.530361   1.000000
    6      -23.445779   1.000000
    7       -2.281376   1.000000
    8       -2.281376   1.000000
    9       -1.905893   1.000000
   10        5.766864   0.000000
   11        6.384007   0.000000
   12        7.001578   0.000000
   13        7.001578   0.000000
