       N       E                     dE             d eps       ncg     rms          rms(c)
DAV:   1     0.317217900574E+03    0.31722E+03   -0.87888E+03   754   0.127E+03
DAV:   2     0.132410535004E+02   -0.30398E+03   -0.29167E+03  1142   0.417E+02
DAV:   3     0.211480885413E+00   -0.13030E+02   -0.13009E+02   934   0.111E+02
DAV:   4    -0.802121093557E-02   -0.21950E+00   -0.21928E+00  1085   0.181E+01
DAV:   5    -0.145651917542E-01   -0.65440E-02   -0.65439E-02   957   0.252E+00    0.136E-01
RMM:   6    -0.152080341222E-01   -0.64284E-03   -0.50162E-03   910   0.811E-01    0.671E-02
RMM:   7    -0.155464311347E-01   -0.33840E-03   -0.14686E-03   989   0.342E-01    0.111E-02
RMM:   8    -0.155651855607E-01   -0.18754E-04   -0.10844E-04   990   0.128E-01    0.656E-03
RMM:   9    -0.155759362606E-01   -0.10751E-04   -0.30592E-05  1007   0.526E-02    0.222E-03
RMM:  10    -0.155763195935E-01   -0.38333E-06   -0.44257E-06  1040   0.228E-02    0.392E-04
RMM:  11    -0.155767967090E-01   -0.47712E-06   -0.11114E-06   832   0.989E-03    0.284E-04
RMM:  12    -0.155767258348E-01    0.70874E-07   -0.16968E-07   641   0.663E-03
   1 F= -.15576726E-01 E0= -.16291532E-01  d E =0.214442E-02
