Og_FCC                                  
           1
     4.489975    0.000000    0.000000
     2.244987    3.888432   -0.000000
     2.244987    1.296144    3.666049
   Og
   1
Direct configuration=     1
   0.00000000  0.00000000  0.00000000
