<?xml version="1.0" encoding="ISO-8859-1"?>
<modeling>
 <generator>
  <i name="program" type="string">vasp </i>
  <i name="version" type="string">5.4.4.18Apr17-6-g9f103f2a35  </i>
  <i name="subversion" type="string">(build Nov 03 2018 10:20:46) complex            parallel </i>
  <i name="platform" type="string">LinuxIFC </i>
  <i name="date" type="string">2019 01 03 </i>
  <i name="time" type="string">21:21:30 </i>
 </generator>
 <incar>
  <i type="string" name="SYSTEM">   Og_FCC</i>
  <i type="string" name="PREC">accurate</i>
  <i type="string" name="ALGO">   QPGW</i>
  <i type="logical" name="ADDGRID"> T  </i>
  <i type="logical" name="LSORBIT"> T  </i>
  <i type="int" name="ISPIN">     1</i>
  <i type="int" name="MAXMIX">    50</i>
  <i type="int" name="NELM">     1</i>
  <i type="int" name="IBRION">    -1</i>
  <i type="int" name="NFREE">     5</i>
  <i name="EDIFF">      0.00000001</i>
  <i name="EDIFFG">      0.00001000</i>
  <i type="int" name="NSW">     1</i>
  <i type="int" name="ISIF">     3</i>
  <i type="int" name="ISYM">     0</i>
  <i name="SYMPREC">      0.00000010</i>
  <i name="ENCUT">    300.00000000</i>
  <i type="int" name="NBANDS">   256</i>
  <i name="POTIM">      0.10000000</i>
  <i type="logical" name="LREAL"> F  </i>
  <i type="int" name="ISMEAR">     0</i>
  <i name="SIGMA">      0.00100000</i>
  <i type="int" name="NWRITE">     1</i>
  <i type="logical" name="LWAVE"> T  </i>
  <i type="logical" name="LCHARG"> F  </i>
  <i type="logical" name="LVTOT"> F  </i>
  <i type="logical" name="GGA_COMPAT"> F  </i>
  <i type="int" name="NOMEGA">    50</i>
  <v type="int" name="KPOINT_BSE">    -1     0     0     0</v>
  <i type="logical" name="LSPECTRAL"> T  </i>
  <i type="int" name="NELM">     1</i>
  <i type="string" name="GGA"> PE</i>
 </incar>
 <structure name="primitive_cell" >
  <crystal>
   <varray name="basis" >
    <v>       4.39635018       0.00000000       0.00000000 </v>
    <v>       2.19817509       3.80735094      -0.00000000 </v>
    <v>       2.19817509       1.26911698       3.58960489 </v>
   </varray>
   <i name="volume">     60.08441465 </i>
   <varray name="rec_basis" >
    <v>       0.22746141      -0.13132490      -0.09286073 </v>
    <v>       0.00000000       0.26264981      -0.09286073 </v>
    <v>      -0.00000000       0.00000000       0.27858219 </v>
   </varray>
  </crystal>
  <varray name="positions" >
   <v>       0.00000000       0.00000000       0.00000000 </v>
  </varray>
 </structure>
 <varray name="primitive_index" >
  <v type="int" >        1 </v>
 </varray>
 <kpoints>
  <generation param="Gamma">
   <v type="int" name="divisions">       6        6        6 </v>
   <v name="usershift">      0.00000000       0.00000000       0.00000000 </v>
   <v name="genvec1">      0.16666667       0.00000000       0.00000000 </v>
   <v name="genvec2">      0.00000000       0.16666667       0.00000000 </v>
   <v name="genvec3">      0.00000000      -0.00000000       0.16666667 </v>
   <v name="shift">      0.00000000       0.00000000       0.00000000 </v>
  </generation>
  <varray name="kpointlist" >
   <v>       0.00000000       0.00000000       0.00000000 </v>
   <v>       0.16666667      -0.00000000      -0.00000000 </v>
   <v>       0.33333333      -0.00000000       0.00000000 </v>
   <v>       0.50000000      -0.00000000       0.00000000 </v>
   <v>      -0.33333333       0.00000000      -0.00000000 </v>
   <v>      -0.16666667       0.00000000       0.00000000 </v>
   <v>      -0.00000000       0.16666667       0.00000000 </v>
   <v>       0.16666667       0.16666667       0.00000000 </v>
   <v>       0.33333333       0.16666667       0.00000000 </v>
   <v>       0.50000000       0.16666667       0.00000000 </v>
   <v>      -0.33333333       0.16666667      -0.00000000 </v>
   <v>      -0.16666667       0.16666667      -0.00000000 </v>
   <v>      -0.00000000       0.33333333      -0.00000000 </v>
   <v>       0.16666667       0.33333333      -0.00000000 </v>
   <v>       0.33333333       0.33333333       0.00000000 </v>
   <v>       0.50000000       0.33333333      -0.00000000 </v>
   <v>      -0.33333333       0.33333333      -0.00000000 </v>
   <v>      -0.16666667       0.33333333      -0.00000000 </v>
   <v>       0.00000000       0.50000000      -0.00000000 </v>
   <v>       0.16666667       0.50000000      -0.00000000 </v>
   <v>       0.33333333       0.50000000       0.00000000 </v>
   <v>       0.50000000       0.50000000       0.00000000 </v>
   <v>      -0.33333333       0.50000000      -0.00000000 </v>
   <v>      -0.16666667       0.50000000      -0.00000000 </v>
   <v>       0.00000000      -0.33333333       0.00000000 </v>
   <v>       0.16666667      -0.33333333       0.00000000 </v>
   <v>       0.33333333      -0.33333333       0.00000000 </v>
   <v>       0.50000000      -0.33333333       0.00000000 </v>
   <v>      -0.33333333      -0.33333333      -0.00000000 </v>
   <v>      -0.16666667      -0.33333333       0.00000000 </v>
   <v>       0.00000000      -0.16666667       0.00000000 </v>
   <v>       0.16666667      -0.16666667       0.00000000 </v>
   <v>       0.33333333      -0.16666667       0.00000000 </v>
   <v>       0.50000000      -0.16666667       0.00000000 </v>
   <v>      -0.33333333      -0.16666667       0.00000000 </v>
   <v>      -0.16666667      -0.16666667       0.00000000 </v>
   <v>       0.00000000       0.00000000       0.16666667 </v>
   <v>       0.16666667      -0.00000000       0.16666667 </v>
   <v>       0.33333333      -0.00000000       0.16666667 </v>
   <v>       0.50000000      -0.00000000       0.16666667 </v>
   <v>      -0.33333333       0.00000000       0.16666667 </v>
   <v>      -0.16666667       0.00000000       0.16666667 </v>
   <v>      -0.00000000       0.16666667       0.16666667 </v>
   <v>       0.16666667       0.16666667       0.16666667 </v>
   <v>       0.33333333       0.16666667       0.16666667 </v>
   <v>       0.50000000       0.16666667       0.16666667 </v>
   <v>      -0.33333333       0.16666667       0.16666667 </v>
   <v>      -0.16666667       0.16666667       0.16666667 </v>
   <v>       0.00000000       0.33333333       0.16666667 </v>
   <v>       0.16666667       0.33333333       0.16666667 </v>
   <v>       0.33333333       0.33333333       0.16666667 </v>
   <v>       0.50000000       0.33333333       0.16666667 </v>
   <v>      -0.33333333       0.33333333       0.16666667 </v>
   <v>      -0.16666667       0.33333333       0.16666667 </v>
   <v>       0.00000000       0.50000000       0.16666667 </v>
   <v>       0.16666667       0.50000000       0.16666667 </v>
   <v>       0.33333333       0.50000000       0.16666667 </v>
   <v>       0.50000000       0.50000000       0.16666667 </v>
   <v>      -0.33333333       0.50000000       0.16666667 </v>
   <v>      -0.16666667       0.50000000       0.16666667 </v>
   <v>       0.00000000      -0.33333333       0.16666667 </v>
   <v>       0.16666667      -0.33333333       0.16666667 </v>
   <v>       0.33333333      -0.33333333       0.16666667 </v>
   <v>       0.50000000      -0.33333333       0.16666667 </v>
   <v>      -0.33333333      -0.33333333       0.16666667 </v>
   <v>      -0.16666667      -0.33333333       0.16666667 </v>
   <v>       0.00000000      -0.16666667       0.16666667 </v>
   <v>       0.16666667      -0.16666667       0.16666667 </v>
   <v>       0.33333333      -0.16666667       0.16666667 </v>
   <v>       0.50000000      -0.16666667       0.16666667 </v>
   <v>      -0.33333333      -0.16666667       0.16666667 </v>
   <v>      -0.16666667      -0.16666667       0.16666667 </v>
   <v>       0.00000000       0.00000000       0.33333333 </v>
   <v>       0.16666667      -0.00000000       0.33333333 </v>
   <v>       0.33333333      -0.00000000       0.33333333 </v>
   <v>       0.50000000      -0.00000000       0.33333333 </v>
   <v>      -0.33333333       0.00000000       0.33333333 </v>
   <v>      -0.16666667       0.00000000       0.33333333 </v>
   <v>      -0.00000000       0.16666667       0.33333333 </v>
   <v>       0.16666667       0.16666667       0.33333333 </v>
   <v>       0.33333333       0.16666667       0.33333333 </v>
   <v>       0.50000000       0.16666667       0.33333333 </v>
   <v>      -0.33333333       0.16666667       0.33333333 </v>
   <v>      -0.16666667       0.16666667       0.33333333 </v>
   <v>       0.00000000       0.33333333       0.33333333 </v>
   <v>       0.16666667       0.33333333       0.33333333 </v>
   <v>       0.33333333       0.33333333       0.33333333 </v>
   <v>       0.50000000       0.33333333       0.33333333 </v>
   <v>      -0.33333333       0.33333333       0.33333333 </v>
   <v>      -0.16666667       0.33333333       0.33333333 </v>
   <v>       0.00000000       0.50000000       0.33333333 </v>
   <v>       0.16666667       0.50000000       0.33333333 </v>
   <v>       0.33333333       0.50000000       0.33333333 </v>
   <v>       0.50000000       0.50000000       0.33333333 </v>
   <v>      -0.33333333       0.50000000       0.33333333 </v>
   <v>      -0.16666667       0.50000000       0.33333333 </v>
   <v>      -0.00000000      -0.33333333       0.33333333 </v>
   <v>       0.16666667      -0.33333333       0.33333333 </v>
   <v>       0.33333333      -0.33333333       0.33333333 </v>
   <v>       0.50000000      -0.33333333       0.33333333 </v>
   <v>      -0.33333333      -0.33333333       0.33333333 </v>
   <v>      -0.16666667      -0.33333333       0.33333333 </v>
   <v>       0.00000000      -0.16666667       0.33333333 </v>
   <v>       0.16666667      -0.16666667       0.33333333 </v>
   <v>       0.33333333      -0.16666667       0.33333333 </v>
   <v>       0.50000000      -0.16666667       0.33333333 </v>
   <v>      -0.33333333      -0.16666667       0.33333333 </v>
   <v>      -0.16666667      -0.16666667       0.33333333 </v>
   <v>       0.00000000       0.00000000       0.50000000 </v>
   <v>       0.16666667       0.00000000       0.50000000 </v>
   <v>       0.33333333      -0.00000000       0.50000000 </v>
   <v>       0.50000000      -0.00000000       0.50000000 </v>
   <v>      -0.33333333       0.00000000       0.50000000 </v>
   <v>      -0.16666667       0.00000000       0.50000000 </v>
   <v>      -0.00000000       0.16666667       0.50000000 </v>
   <v>       0.16666667       0.16666667       0.50000000 </v>
   <v>       0.33333333       0.16666667       0.50000000 </v>
   <v>       0.50000000       0.16666667       0.50000000 </v>
   <v>      -0.33333333       0.16666667       0.50000000 </v>
   <v>      -0.16666667       0.16666667       0.50000000 </v>
   <v>       0.00000000       0.33333333       0.50000000 </v>
   <v>       0.16666667       0.33333333       0.50000000 </v>
   <v>       0.33333333       0.33333333       0.50000000 </v>
   <v>       0.50000000       0.33333333       0.50000000 </v>
   <v>      -0.33333333       0.33333333       0.50000000 </v>
   <v>      -0.16666667       0.33333333       0.50000000 </v>
   <v>       0.00000000       0.50000000       0.50000000 </v>
   <v>       0.16666667       0.50000000       0.50000000 </v>
   <v>       0.33333333       0.50000000       0.50000000 </v>
   <v>       0.50000000       0.50000000       0.50000000 </v>
   <v>      -0.33333333       0.50000000       0.50000000 </v>
   <v>      -0.16666667       0.50000000       0.50000000 </v>
   <v>       0.00000000      -0.33333333       0.50000000 </v>
   <v>       0.16666667      -0.33333333       0.50000000 </v>
   <v>       0.33333333      -0.33333333       0.50000000 </v>
   <v>       0.50000000      -0.33333333       0.50000000 </v>
   <v>      -0.33333333      -0.33333333       0.50000000 </v>
   <v>      -0.16666667      -0.33333333       0.50000000 </v>
   <v>       0.00000000      -0.16666667       0.50000000 </v>
   <v>       0.16666667      -0.16666667       0.50000000 </v>
   <v>       0.33333333      -0.16666667       0.50000000 </v>
   <v>       0.50000000      -0.16666667       0.50000000 </v>
   <v>      -0.33333333      -0.16666667       0.50000000 </v>
   <v>      -0.16666667      -0.16666667       0.50000000 </v>
   <v>       0.00000000      -0.00000000      -0.33333333 </v>
   <v>       0.16666667      -0.00000000      -0.33333333 </v>
   <v>       0.33333333      -0.00000000      -0.33333333 </v>
   <v>       0.50000000      -0.00000000      -0.33333333 </v>
   <v>      -0.33333333       0.00000000      -0.33333333 </v>
   <v>      -0.16666667       0.00000000      -0.33333333 </v>
   <v>      -0.00000000       0.16666667      -0.33333333 </v>
   <v>       0.16666667       0.16666667      -0.33333333 </v>
   <v>       0.33333333       0.16666667      -0.33333333 </v>
   <v>       0.50000000       0.16666667      -0.33333333 </v>
   <v>      -0.33333333       0.16666667      -0.33333333 </v>
   <v>      -0.16666667       0.16666667      -0.33333333 </v>
   <v>       0.00000000       0.33333333      -0.33333333 </v>
   <v>       0.16666667       0.33333333      -0.33333333 </v>
   <v>       0.33333333       0.33333333      -0.33333333 </v>
   <v>       0.50000000       0.33333333      -0.33333333 </v>
   <v>      -0.33333333       0.33333333      -0.33333333 </v>
   <v>      -0.16666667       0.33333333      -0.33333333 </v>
   <v>       0.00000000       0.50000000      -0.33333333 </v>
   <v>       0.16666667       0.50000000      -0.33333333 </v>
   <v>       0.33333333       0.50000000      -0.33333333 </v>
   <v>       0.50000000       0.50000000      -0.33333333 </v>
   <v>      -0.33333333       0.50000000      -0.33333333 </v>
   <v>      -0.16666667       0.50000000      -0.33333333 </v>
   <v>       0.00000000      -0.33333333      -0.33333333 </v>
   <v>       0.16666667      -0.33333333      -0.33333333 </v>
   <v>       0.33333333      -0.33333333      -0.33333333 </v>
   <v>       0.50000000      -0.33333333      -0.33333333 </v>
   <v>      -0.33333333      -0.33333333      -0.33333333 </v>
   <v>      -0.16666667      -0.33333333      -0.33333333 </v>
   <v>       0.00000000      -0.16666667      -0.33333333 </v>
   <v>       0.16666667      -0.16666667      -0.33333333 </v>
   <v>       0.33333333      -0.16666667      -0.33333333 </v>
   <v>       0.50000000      -0.16666667      -0.33333333 </v>
   <v>      -0.33333333      -0.16666667      -0.33333333 </v>
   <v>      -0.16666667      -0.16666667      -0.33333333 </v>
   <v>       0.00000000      -0.00000000      -0.16666667 </v>
   <v>       0.16666667      -0.00000000      -0.16666667 </v>
   <v>       0.33333333      -0.00000000      -0.16666667 </v>
   <v>       0.50000000      -0.00000000      -0.16666667 </v>
   <v>      -0.33333333       0.00000000      -0.16666667 </v>
   <v>      -0.16666667       0.00000000      -0.16666667 </v>
   <v>       0.00000000       0.16666667      -0.16666667 </v>
   <v>       0.16666667       0.16666667      -0.16666667 </v>
   <v>       0.33333333       0.16666667      -0.16666667 </v>
   <v>       0.50000000       0.16666667      -0.16666667 </v>
   <v>      -0.33333333       0.16666667      -0.16666667 </v>
   <v>      -0.16666667       0.16666667      -0.16666667 </v>
   <v>       0.00000000       0.33333333      -0.16666667 </v>
   <v>       0.16666667       0.33333333      -0.16666667 </v>
   <v>       0.33333333       0.33333333      -0.16666667 </v>
   <v>       0.50000000       0.33333333      -0.16666667 </v>
   <v>      -0.33333333       0.33333333      -0.16666667 </v>
   <v>      -0.16666667       0.33333333      -0.16666667 </v>
   <v>       0.00000000       0.50000000      -0.16666667 </v>
   <v>       0.16666667       0.50000000      -0.16666667 </v>
   <v>       0.33333333       0.50000000      -0.16666667 </v>
   <v>       0.50000000       0.50000000      -0.16666667 </v>
   <v>      -0.33333333       0.50000000      -0.16666667 </v>
   <v>      -0.16666667       0.50000000      -0.16666667 </v>
   <v>      -0.00000000      -0.33333333      -0.16666667 </v>
   <v>       0.16666667      -0.33333333      -0.16666667 </v>
   <v>       0.33333333      -0.33333333      -0.16666667 </v>
   <v>       0.50000000      -0.33333333      -0.16666667 </v>
   <v>      -0.33333333      -0.33333333      -0.16666667 </v>
   <v>      -0.16666667      -0.33333333      -0.16666667 </v>
   <v>       0.00000000      -0.16666667      -0.16666667 </v>
   <v>       0.16666667      -0.16666667      -0.16666667 </v>
   <v>       0.33333333      -0.16666667      -0.16666667 </v>
   <v>       0.50000000      -0.16666667      -0.16666667 </v>
   <v>      -0.33333333      -0.16666667      -0.16666667 </v>
   <v>      -0.16666667      -0.16666667      -0.16666667 </v>
  </varray>
  <varray name="weights" >
   <v>       0.00462963 </v>
   <v>       0.00462963 </v>
   <v>       0.00462963 </v>
   <v>       0.00462963 </v>
   <v>       0.00462963 </v>
   <v>       0.00462963 </v>
   <v>       0.00462963 </v>
   <v>       0.00462963 </v>
   <v>       0.00462963 </v>
   <v>       0.00462963 </v>
   <v>       0.00462963 </v>
   <v>       0.00462963 </v>
   <v>       0.00462963 </v>
   <v>       0.00462963 </v>
   <v>       0.00462963 </v>
   <v>       0.00462963 </v>
   <v>       0.00462963 </v>
   <v>       0.00462963 </v>
   <v>       0.00462963 </v>
   <v>       0.00462963 </v>
   <v>       0.00462963 </v>
   <v>       0.00462963 </v>
   <v>       0.00462963 </v>
   <v>       0.00462963 </v>
   <v>       0.00462963 </v>
   <v>       0.00462963 </v>
   <v>       0.00462963 </v>
   <v>       0.00462963 </v>
   <v>       0.00462963 </v>
   <v>       0.00462963 </v>
   <v>       0.00462963 </v>
   <v>       0.00462963 </v>
   <v>       0.00462963 </v>
   <v>       0.00462963 </v>
   <v>       0.00462963 </v>
   <v>       0.00462963 </v>
   <v>       0.00462963 </v>
   <v>       0.00462963 </v>
   <v>       0.00462963 </v>
   <v>       0.00462963 </v>
   <v>       0.00462963 </v>
   <v>       0.00462963 </v>
   <v>       0.00462963 </v>
   <v>       0.00462963 </v>
   <v>       0.00462963 </v>
   <v>       0.00462963 </v>
   <v>       0.00462963 </v>
   <v>       0.00462963 </v>
   <v>       0.00462963 </v>
   <v>       0.00462963 </v>
   <v>       0.00462963 </v>
   <v>       0.00462963 </v>
   <v>       0.00462963 </v>
   <v>       0.00462963 </v>
   <v>       0.00462963 </v>
   <v>       0.00462963 </v>
   <v>       0.00462963 </v>
   <v>       0.00462963 </v>
   <v>       0.00462963 </v>
   <v>       0.00462963 </v>
   <v>       0.00462963 </v>
   <v>       0.00462963 </v>
   <v>       0.00462963 </v>
   <v>       0.00462963 </v>
   <v>       0.00462963 </v>
   <v>       0.00462963 </v>
   <v>       0.00462963 </v>
   <v>       0.00462963 </v>
   <v>       0.00462963 </v>
   <v>       0.00462963 </v>
   <v>       0.00462963 </v>
   <v>       0.00462963 </v>
   <v>       0.00462963 </v>
   <v>       0.00462963 </v>
   <v>       0.00462963 </v>
   <v>       0.00462963 </v>
   <v>       0.00462963 </v>
   <v>       0.00462963 </v>
   <v>       0.00462963 </v>
   <v>       0.00462963 </v>
   <v>       0.00462963 </v>
   <v>       0.00462963 </v>
   <v>       0.00462963 </v>
   <v>       0.00462963 </v>
   <v>       0.00462963 </v>
   <v>       0.00462963 </v>
   <v>       0.00462963 </v>
   <v>       0.00462963 </v>
   <v>       0.00462963 </v>
   <v>       0.00462963 </v>
   <v>       0.00462963 </v>
   <v>       0.00462963 </v>
   <v>       0.00462963 </v>
   <v>       0.00462963 </v>
   <v>       0.00462963 </v>
   <v>       0.00462963 </v>
   <v>       0.00462963 </v>
   <v>       0.00462963 </v>
   <v>       0.00462963 </v>
   <v>       0.00462963 </v>
   <v>       0.00462963 </v>
   <v>       0.00462963 </v>
   <v>       0.00462963 </v>
   <v>       0.00462963 </v>
   <v>       0.00462963 </v>
   <v>       0.00462963 </v>
   <v>       0.00462963 </v>
   <v>       0.00462963 </v>
   <v>       0.00462963 </v>
   <v>       0.00462963 </v>
   <v>       0.00462963 </v>
   <v>       0.00462963 </v>
   <v>       0.00462963 </v>
   <v>       0.00462963 </v>
   <v>       0.00462963 </v>
   <v>       0.00462963 </v>
   <v>       0.00462963 </v>
   <v>       0.00462963 </v>
   <v>       0.00462963 </v>
   <v>       0.00462963 </v>
   <v>       0.00462963 </v>
   <v>       0.00462963 </v>
   <v>       0.00462963 </v>
   <v>       0.00462963 </v>
   <v>       0.00462963 </v>
   <v>       0.00462963 </v>
   <v>       0.00462963 </v>
   <v>       0.00462963 </v>
   <v>       0.00462963 </v>
   <v>       0.00462963 </v>
   <v>       0.00462963 </v>
   <v>       0.00462963 </v>
   <v>       0.00462963 </v>
   <v>       0.00462963 </v>
   <v>       0.00462963 </v>
   <v>       0.00462963 </v>
   <v>       0.00462963 </v>
   <v>       0.00462963 </v>
   <v>       0.00462963 </v>
   <v>       0.00462963 </v>
   <v>       0.00462963 </v>
   <v>       0.00462963 </v>
   <v>       0.00462963 </v>
   <v>       0.00462963 </v>
   <v>       0.00462963 </v>
   <v>       0.00462963 </v>
   <v>       0.00462963 </v>
   <v>       0.00462963 </v>
   <v>       0.00462963 </v>
   <v>       0.00462963 </v>
   <v>       0.00462963 </v>
   <v>       0.00462963 </v>
   <v>       0.00462963 </v>
   <v>       0.00462963 </v>
   <v>       0.00462963 </v>
   <v>       0.00462963 </v>
   <v>       0.00462963 </v>
   <v>       0.00462963 </v>
   <v>       0.00462963 </v>
   <v>       0.00462963 </v>
   <v>       0.00462963 </v>
   <v>       0.00462963 </v>
   <v>       0.00462963 </v>
   <v>       0.00462963 </v>
   <v>       0.00462963 </v>
   <v>       0.00462963 </v>
   <v>       0.00462963 </v>
   <v>       0.00462963 </v>
   <v>       0.00462963 </v>
   <v>       0.00462963 </v>
   <v>       0.00462963 </v>
   <v>       0.00462963 </v>
   <v>       0.00462963 </v>
   <v>       0.00462963 </v>
   <v>       0.00462963 </v>
   <v>       0.00462963 </v>
   <v>       0.00462963 </v>
   <v>       0.00462963 </v>
   <v>       0.00462963 </v>
   <v>       0.00462963 </v>
   <v>       0.00462963 </v>
   <v>       0.00462963 </v>
   <v>       0.00462963 </v>
   <v>       0.00462963 </v>
   <v>       0.00462963 </v>
   <v>       0.00462963 </v>
   <v>       0.00462963 </v>
   <v>       0.00462963 </v>
   <v>       0.00462963 </v>
   <v>       0.00462963 </v>
   <v>       0.00462963 </v>
   <v>       0.00462963 </v>
   <v>       0.00462963 </v>
   <v>       0.00462963 </v>
   <v>       0.00462963 </v>
   <v>       0.00462963 </v>
   <v>       0.00462963 </v>
   <v>       0.00462963 </v>
   <v>       0.00462963 </v>
   <v>       0.00462963 </v>
   <v>       0.00462963 </v>
   <v>       0.00462963 </v>
   <v>       0.00462963 </v>
   <v>       0.00462963 </v>
   <v>       0.00462963 </v>
   <v>       0.00462963 </v>
   <v>       0.00462963 </v>
   <v>       0.00462963 </v>
   <v>       0.00462963 </v>
   <v>       0.00462963 </v>
   <v>       0.00462963 </v>
   <v>       0.00462963 </v>
   <v>       0.00462963 </v>
   <v>       0.00462963 </v>
   <v>       0.00462963 </v>
   <v>       0.00462963 </v>
  </varray>
 </kpoints>
 <parameters>
  <separator name="general" >
   <i type="string" name="SYSTEM">Og_FCC</i>
   <i type="logical" name="LCOMPAT"> F  </i>
  </separator>
  <separator name="electronic" >
   <i type="string" name="PREC">accura</i>
   <i name="ENMAX">    300.00000000</i>
   <i name="ENAUG">    440.95700000</i>
   <i name="EDIFF">      0.00000001</i>
   <i type="int" name="IALGO">    38</i>
   <i type="int" name="IWAVPR">    10</i>
   <i type="int" name="NBANDS">   256</i>
   <i name="NELECT">     26.00000000</i>
   <i type="int" name="TURBO">     0</i>
   <i type="int" name="IRESTART">     0</i>
   <i type="int" name="NREBOOT">     0</i>
   <i type="int" name="NMIN">     0</i>
   <i name="EREF">      0.00000000</i>
   <separator name="electronic smearing" >
    <i type="int" name="ISMEAR">     0</i>
    <i name="SIGMA">      0.00100000</i>
    <i name="KSPACING">      0.50000000</i>
    <i type="logical" name="KGAMMA"> T  </i>
   </separator>
   <separator name="electronic projectors" >
    <i type="logical" name="LREAL"> F  </i>
    <v name="ROPT">      0.00000000</v>
    <i type="int" name="LMAXPAW">  -100</i>
    <i type="int" name="LMAXMIX">     2</i>
    <i type="logical" name="NLSPLINE"> F  </i>
   </separator>
   <separator name="electronic startup" >
    <i type="int" name="ISTART">     1</i>
    <i type="int" name="ICHARG">     0</i>
    <i type="int" name="INIWAV">     1</i>
   </separator>
   <separator name="electronic spin" >
    <i type="int" name="ISPIN">     1</i>
    <i type="logical" name="LNONCOLLINEAR"> T  </i>
    <v name="MAGMOM">      1.00000000      1.00000000      1.00000000</v>
    <i name="NUPDOWN">     -1.00000000</i>
    <i type="logical" name="LSORBIT"> T  </i>
    <v name="SAXIS">      0.00000000      0.00000000      1.00000000</v>
    <i type="logical" name="LSPIRAL"> F  </i>
    <v name="QSPIRAL">      0.00000000      0.00000000      0.00000000</v>
    <i type="logical" name="LZEROZ"> F  </i>
   </separator>
   <separator name="electronic exchange-correlation" >
    <i type="logical" name="LASPH"> F  </i>
    <i type="logical" name="LMETAGGA"> F  </i>
   </separator>
   <separator name="electronic convergence" >
    <i type="int" name="NELM">     1</i>
    <i type="int" name="NELMDL">     0</i>
    <i type="int" name="NELMIN">     2</i>
    <i name="ENINI">    300.00000000</i>
    <separator name="electronic convergence detail" >
     <i type="logical" name="LDIAG"> T  </i>
     <i type="logical" name="LSUBROT"> F  </i>
     <i name="WEIMIN">      0.00000000</i>
     <i name="EBREAK">      0.00000000</i>
     <i name="DEPER">      0.30000000</i>
     <i type="int" name="NRMM">     4</i>
     <i name="TIME">      0.40000000</i>
    </separator>
   </separator>
   <separator name="electronic mixer" >
    <i name="AMIX">      0.40000000</i>
    <i name="BMIX">      1.00000000</i>
    <i name="AMIN">      0.10000000</i>
    <i name="AMIX_MAG">      1.60000000</i>
    <i name="BMIX_MAG">      1.00000000</i>
    <separator name="electronic mixer details" >
     <i type="int" name="IMIX">     1</i>
     <i type="logical" name="MIXFIRST"> F  </i>
     <i type="int" name="MAXMIX">    50</i>
     <i name="WC">    100.00000000</i>
     <i type="int" name="INIMIX">     1</i>
     <i type="int" name="MIXPRE">     1</i>
     <i type="int" name="MREMOVE">     5</i>
    </separator>
   </separator>
   <separator name="electronic dipolcorrection" >
    <i type="logical" name="LDIPOL"> F  </i>
    <i type="logical" name="LMONO"> F  </i>
    <i type="int" name="IDIPOL">     0</i>
    <i name="EPSILON">      1.00000000</i>
    <v name="DIPOL">   -100.00000000   -100.00000000   -100.00000000</v>
    <i name="EFIELD">      0.00000000</i>
   </separator>
  </separator>
  <separator name="grids" >
   <i type="int" name="NGX">    28</i>
   <i type="int" name="NGY">    28</i>
   <i type="int" name="NGZ">    28</i>
   <i type="int" name="NGXF">    56</i>
   <i type="int" name="NGYF">    56</i>
   <i type="int" name="NGZF">    56</i>
   <i type="logical" name="ADDGRID"> T  </i>
  </separator>
  <separator name="ionic" >
   <i type="int" name="NSW">     1</i>
   <i type="int" name="IBRION">    -1</i>
   <i type="int" name="MDALGO">     0</i>
   <i type="int" name="ISIF">     3</i>
   <i name="PSTRESS">      0.00000000</i>
   <i name="EDIFFG">      0.00001000</i>
   <i type="int" name="NFREE">     5</i>
   <i name="POTIM">      0.10000000</i>
   <i name="SMASS">     -3.00000000</i>
   <i name="SCALEE">      1.00000000</i>
  </separator>
  <separator name="ionic md" >
   <i name="TEBEG">      0.00010000</i>
   <i name="TEEND">      0.00010000</i>
   <i type="int" name="NBLOCK">     1</i>
   <i type="int" name="KBLOCK">     1</i>
   <i type="int" name="NPACO">   256</i>
   <i name="APACO">     16.00000000</i>
  </separator>
  <separator name="symmetry" >
   <i type="int" name="ISYM">     0</i>
   <i name="SYMPREC">      0.00000010</i>
  </separator>
  <separator name="dos" >
   <i type="int" name="LORBIT">     0</i>
   <v name="RWIGS">     -1.00000000</v>
   <i type="int" name="NEDOS">   301</i>
   <i name="EMIN">     10.00000000</i>
   <i name="EMAX">    -10.00000000</i>
   <i name="EFERMI">      0.00000000</i>
  </separator>
  <separator name="writing" >
   <i type="int" name="NWRITE">     1</i>
   <i type="logical" name="LWAVE"> T  </i>
   <i type="logical" name="LDOWNSAMPLE"> F  </i>
   <i type="logical" name="LCHARG"> F  </i>
   <i type="logical" name="LPARD"> F  </i>
   <i type="logical" name="LVTOT"> F  </i>
   <i type="logical" name="LVHAR"> F  </i>
   <i type="logical" name="LELF"> F  </i>
   <i type="logical" name="LOPTICS"> F  </i>
   <v name="STM">      0.00000000      0.00000000      0.00000000      0.00000000      0.00000000      0.00000000      0.00000000</v>
  </separator>
  <separator name="performance" >
   <i type="int" name="NPAR">     2</i>
   <i type="int" name="NSIM">     4</i>
   <i type="int" name="NBLK">    -1</i>
   <i type="logical" name="LPLANE"> T  </i>
   <i type="logical" name="LSCALAPACK"> T  </i>
   <i type="logical" name="LSCAAWARE"> F  </i>
   <i type="logical" name="LSCALU"> F  </i>
   <i type="logical" name="LASYNC"> F  </i>
   <i type="logical" name="LORBITALREAL"> F  </i>
  </separator>
  <separator name="miscellaneous" >
   <i type="int" name="IDIOT">     3</i>
   <i type="int" name="ISPECIAL">     0</i>
   <i type="logical" name="LMUSIC"> F  </i>
   <v name="POMASS">      0.01000000</v>
   <v name="DARWINR">      0.00000000</v>
   <v name="DARWINV">      1.00000000</v>
   <i type="logical" name="LCORR"> T  </i>
  </separator>
  <i type="logical" name="GGA_COMPAT"> F  </i>
  <i type="logical" name="LBERRY"> F  </i>
  <i type="int" name="ICORELEVEL">     0</i>
  <i type="logical" name="LDAU"> F  </i>
  <i type="int" name="I_CONSTRAINED_M">     0</i>
  <separator name="electronic exchange-correlation" >
   <i type="string" name="GGA">PE</i>
   <i type="int" name="VOSKOWN">     0</i>
   <i type="logical" name="LHFCALC"> T  </i>
   <i type="string" name="PRECFOCK">normal</i>
   <i type="logical" name="LSYMGRAD"> F  </i>
   <i type="logical" name="LHFONE"> F  </i>
   <i type="logical" name="LRHFCALC"> F  </i>
   <i type="logical" name="LTHOMAS"> F  </i>
   <i type="logical" name="LMODELHF"> F  </i>
   <i name="ENCUT4O">     -1.00000000</i>
   <i type="int" name="EXXOEP">     0</i>
   <i type="int" name="FOURORBIT">     0</i>
   <i name="AEXX">      1.00000000</i>
   <i name="HFALPHA">     -1.00000000</i>
   <i name="MCALPHA">      0.00000000</i>
   <i name="ALDAX">      0.00000000</i>
   <i name="AGGAX">      0.00000000</i>
   <i name="ALDAC">      0.00000000</i>
   <i name="AGGAC">      0.00000000</i>
   <i type="int" name="NKREDX">     1</i>
   <i type="int" name="NKREDY">     1</i>
   <i type="int" name="NKREDZ">     1</i>
   <i type="logical" name="SHIFTRED"> F  </i>
   <i type="logical" name="ODDONLY"> F  </i>
   <i type="logical" name="EVENONLY"> F  </i>
   <i type="int" name="LMAXFOCK">     4</i>
   <i type="int" name="NMAXFOCKAE">     1</i>
   <i type="logical" name="LFOCKAEDFT"> F  </i>
   <i name="HFSCREEN">      0.00000000</i>
   <i name="HFSCREENC">      0.00000000</i>
   <i type="int" name="NBANDSGWLOW">     1</i>
  </separator>
  <separator name="vdW DFT" >
   <i type="logical" name="LUSE_VDW"> F  </i>
   <i name="Zab_VDW">     -0.84910000</i>
   <i name="PARAM1">      0.12340000</i>
   <i name="PARAM2">      1.00000000</i>
   <i name="PARAM3">      0.00000000</i>
  </separator>
  <separator name="model GW" >
   <i type="int" name="MODEL_GW">     0</i>
   <i name="MODEL_EPS0">     36.05064879</i>
   <i name="MODEL_ALPHA">      1.00000000</i>
  </separator>
  <separator name="linear response parameters" >
   <i type="logical" name="LEPSILON"> F  </i>
   <i type="logical" name="LRPA"> F  </i>
   <i type="logical" name="LNABLA"> F  </i>
   <i type="logical" name="LVEL"> F  </i>
   <i type="int" name="KINTER">     0</i>
   <i name="CSHIFT">      0.10000000</i>
   <i name="OMEGAMAX">     -1.00000000</i>
   <i name="DEG_THRESHOLD">      0.00200000</i>
   <i name="RTIME">     -0.10000000</i>
   <i name="WPLASMAI">      0.00000000</i>
   <v name="DFIELD">      0.00000000      0.00000000      0.00000000</v>
   <v name="WPLASMA">      0.00000000      0.00000000      0.00000000      0.00000000      0.00000000      0.00000000      0.00000000      0.00000000      0.00000000</v>
  </separator>
  <separator name="orbital magnetization" >
   <i type="logical" name="NUCIND"> F  </i>
   <v name="MAGPOS">      0.00000000      0.00000000      0.00000000</v>
   <i type="logical" name="LNICSALL"> T  </i>
   <i type="logical" name="ORBITALMAG"> F  </i>
   <i type="logical" name="LMAGBLOCH"> F  </i>
   <i type="logical" name="LCHIMAG"> F  </i>
   <i type="logical" name="LGAUGE"> T  </i>
   <i type="int" name="MAGATOM">     0</i>
   <v name="MAGDIPOL">      0.00000000      0.00000000      0.00000000</v>
   <v name="AVECCONST">      0.00000000      0.00000000      0.00000000</v>
  </separator>
  <separator name="response functions" >
   <i type="logical" name="LADDER"> F  </i>
   <i type="logical" name="LRPAFORCE"> F  </i>
   <i type="logical" name="LFXC"> F  </i>
   <i type="logical" name="LHARTREE"> T  </i>
   <i type="int" name="IBSE">     0</i>
   <v type="int" name="KPOINT">    -1     0     0     0</v>
   <i type="logical" name="LTCTE"> F  </i>
   <i type="logical" name="LTETE"> F  </i>
   <i type="logical" name="LTRIPLET"> F  </i>
   <i type="logical" name="LFXCEPS"> F  </i>
   <i type="logical" name="LFXHEG"> F  </i>
   <i type="int" name="NATURALO">     2</i>
   <i type="logical" name="L2ORDER"> F  </i>
   <i type="logical" name="LMP2LT"> F  </i>
   <i type="logical" name="LUSEW"> F  </i>
   <i name="ENCUTGW">    200.00000000</i>
   <i name="ENCUTGWSOFT">    200.00000000</i>
   <i name="ENCUTLF">     -1.00000000</i>
   <i type="int" name="LMAXMP2">    -1</i>
   <i name="SCISSOR">      0.00000000</i>
   <i type="int" name="NOMEGA">    50</i>
   <i type="int" name="NOMEGAR">    50</i>
   <i type="int" name="NBANDSGW">    -1</i>
   <i type="int" name="NBANDSO">    -1</i>
   <i type="int" name="NBANDSV">    -1</i>
   <i type="int" name="NELM">     1</i>
   <i type="int" name="NELMHF">     1</i>
   <i type="int" name="DIM">     3</i>
   <i type="int" name="ANTIRES">     0</i>
   <i name="OMEGAMAX">    -30.00000000</i>
   <i name="OMEGAMIN">    -30.00000000</i>
   <i name="OMEGATL">   -200.00000000</i>
   <i type="int" name="OMEGAGRID">     0</i>
   <i name="CSHIFT">     -0.10000000</i>
   <i type="logical" name="SELFENERGY"> F  </i>
   <i type="logical" name="LSPECTRAL"> T  </i>
   <i type="logical" name="LSPECTRALGW"> F  </i>
   <i type="logical" name="LSINGLES"> F  </i>
   <i type="logical" name="LFERMIGW"> F  </i>
   <i type="logical" name="ODDONLYGW"> F  </i>
   <i type="logical" name="EVENONLYGW"> F  </i>
   <i type="int" name="NKREDLFX">     1</i>
   <i type="int" name="NKREDLFY">     1</i>
   <i type="int" name="NKREDLFZ">     1</i>
   <i type="int" name="MAXMEM">  2800</i>
   <i type="int" name="TELESCOPE">     0</i>
   <i type="int" name="TAUPAR">     1</i>
   <i type="int" name="OMEGAPAR">    -1</i>
   <i name="LAMBDA">      1.00000000</i>
  </separator>
  <separator name="External order field" >
   <i name="OFIELD_KAPPA">      0.00000000</i>
   <v name="OFIELD_K">      0.00000000      0.00000000      0.00000000</v>
   <i name="OFIELD_Q6_NEAR">      0.00000000</i>
   <i name="OFIELD_Q6_FAR">      0.00000000</i>
   <i name="OFIELD_A">      0.00000000</i>
  </separator>
 </parameters>
 <atominfo>
  <atoms>       1 </atoms>
  <types>       1 </types>
  <array name="atoms" >
   <dimension dim="1">ion</dimension>
   <field type="string">element</field>
   <field type="int">atomtype</field>
   <set>
    <rc><c>Og</c><c>   1</c></rc>
   </set>
  </array>
  <array name="atomtypes" >
   <dimension dim="1">type</dimension>
   <field type="int">atomspertype</field>
   <field type="string">element</field>
   <field>mass</field>
   <field>valence</field>
   <field type="string">pseudopotential</field>
   <set>
    <rc><c>   1</c><c>Og</c><c>      0.01000000</c><c>     26.00000000</c><c>  PAW-PBE Og 26VE, fit to 4cPBE, JanMewe</c></rc>
   </set>
  </array>
 </atominfo>
 <structure name="initialpos" >
  <crystal>
   <varray name="basis" >
    <v>       4.39635018       0.00000000       0.00000000 </v>
    <v>       2.19817509       3.80735094      -0.00000000 </v>
    <v>       2.19817509       1.26911698       3.58960489 </v>
   </varray>
   <i name="volume">     60.08441465 </i>
   <varray name="rec_basis" >
    <v>       0.22746141      -0.13132490      -0.09286073 </v>
    <v>       0.00000000       0.26264981      -0.09286073 </v>
    <v>      -0.00000000       0.00000000       0.27858219 </v>
   </varray>
  </crystal>
  <varray name="positions" >
   <v>       0.00000000       0.00000000       0.00000000 </v>
  </varray>
  <varray name="velocities" >
   <v>       0.00000000       0.00000000       0.00000000 </v>
  </varray>
 </structure>
 <kpoints>
  <generation param="Gamma">
   <v type="int" name="divisions">       6        6        6 </v>
   <v name="usershift">      0.00000000       0.00000000       0.00000000 </v>
   <v name="genvec1">      0.16666667       0.00000000       0.00000000 </v>
   <v name="genvec2">      0.00000000       0.16666667       0.00000000 </v>
   <v name="genvec3">      0.00000000      -0.00000000       0.16666667 </v>
   <v name="shift">      0.00000000       0.00000000       0.00000000 </v>
  </generation>
  <varray name="kpointlist" >
   <v>       0.00000000       0.00000000       0.00000000 </v>
   <v>       0.16666667      -0.00000000      -0.00000000 </v>
   <v>       0.33333333      -0.00000000       0.00000000 </v>
   <v>       0.50000000      -0.00000000       0.00000000 </v>
   <v>      -0.33333333       0.00000000      -0.00000000 </v>
   <v>      -0.16666667       0.00000000       0.00000000 </v>
   <v>      -0.00000000       0.16666667       0.00000000 </v>
   <v>       0.16666667       0.16666667       0.00000000 </v>
   <v>       0.33333333       0.16666667       0.00000000 </v>
   <v>       0.50000000       0.16666667       0.00000000 </v>
   <v>      -0.33333333       0.16666667      -0.00000000 </v>
   <v>      -0.16666667       0.16666667      -0.00000000 </v>
   <v>      -0.00000000       0.33333333      -0.00000000 </v>
   <v>       0.16666667       0.33333333      -0.00000000 </v>
   <v>       0.33333333       0.33333333       0.00000000 </v>
   <v>       0.50000000       0.33333333      -0.00000000 </v>
   <v>      -0.33333333       0.33333333      -0.00000000 </v>
   <v>      -0.16666667       0.33333333      -0.00000000 </v>
   <v>       0.00000000       0.50000000      -0.00000000 </v>
   <v>       0.16666667       0.50000000      -0.00000000 </v>
   <v>       0.33333333       0.50000000       0.00000000 </v>
   <v>       0.50000000       0.50000000       0.00000000 </v>
   <v>      -0.33333333       0.50000000      -0.00000000 </v>
   <v>      -0.16666667       0.50000000      -0.00000000 </v>
   <v>       0.00000000      -0.33333333       0.00000000 </v>
   <v>       0.16666667      -0.33333333       0.00000000 </v>
   <v>       0.33333333      -0.33333333       0.00000000 </v>
   <v>       0.50000000      -0.33333333       0.00000000 </v>
   <v>      -0.33333333      -0.33333333      -0.00000000 </v>
   <v>      -0.16666667      -0.33333333       0.00000000 </v>
   <v>       0.00000000      -0.16666667       0.00000000 </v>
   <v>       0.16666667      -0.16666667       0.00000000 </v>
   <v>       0.33333333      -0.16666667       0.00000000 </v>
   <v>       0.50000000      -0.16666667       0.00000000 </v>
   <v>      -0.33333333      -0.16666667       0.00000000 </v>
   <v>      -0.16666667      -0.16666667       0.00000000 </v>
   <v>       0.00000000       0.00000000       0.16666667 </v>
   <v>       0.16666667      -0.00000000       0.16666667 </v>
   <v>       0.33333333      -0.00000000       0.16666667 </v>
   <v>       0.50000000      -0.00000000       0.16666667 </v>
   <v>      -0.33333333       0.00000000       0.16666667 </v>
   <v>      -0.16666667       0.00000000       0.16666667 </v>
   <v>      -0.00000000       0.16666667       0.16666667 </v>
   <v>       0.16666667       0.16666667       0.16666667 </v>
   <v>       0.33333333       0.16666667       0.16666667 </v>
   <v>       0.50000000       0.16666667       0.16666667 </v>
   <v>      -0.33333333       0.16666667       0.16666667 </v>
   <v>      -0.16666667       0.16666667       0.16666667 </v>
   <v>       0.00000000       0.33333333       0.16666667 </v>
   <v>       0.16666667       0.33333333       0.16666667 </v>
   <v>       0.33333333       0.33333333       0.16666667 </v>
   <v>       0.50000000       0.33333333       0.16666667 </v>
   <v>      -0.33333333       0.33333333       0.16666667 </v>
   <v>      -0.16666667       0.33333333       0.16666667 </v>
   <v>       0.00000000       0.50000000       0.16666667 </v>
   <v>       0.16666667       0.50000000       0.16666667 </v>
   <v>       0.33333333       0.50000000       0.16666667 </v>
   <v>       0.50000000       0.50000000       0.16666667 </v>
   <v>      -0.33333333       0.50000000       0.16666667 </v>
   <v>      -0.16666667       0.50000000       0.16666667 </v>
   <v>       0.00000000      -0.33333333       0.16666667 </v>
   <v>       0.16666667      -0.33333333       0.16666667 </v>
   <v>       0.33333333      -0.33333333       0.16666667 </v>
   <v>       0.50000000      -0.33333333       0.16666667 </v>
   <v>      -0.33333333      -0.33333333       0.16666667 </v>
   <v>      -0.16666667      -0.33333333       0.16666667 </v>
   <v>       0.00000000      -0.16666667       0.16666667 </v>
   <v>       0.16666667      -0.16666667       0.16666667 </v>
   <v>       0.33333333      -0.16666667       0.16666667 </v>
   <v>       0.50000000      -0.16666667       0.16666667 </v>
   <v>      -0.33333333      -0.16666667       0.16666667 </v>
   <v>      -0.16666667      -0.16666667       0.16666667 </v>
   <v>       0.00000000       0.00000000       0.33333333 </v>
   <v>       0.16666667      -0.00000000       0.33333333 </v>
   <v>       0.33333333      -0.00000000       0.33333333 </v>
   <v>       0.50000000      -0.00000000       0.33333333 </v>
   <v>      -0.33333333       0.00000000       0.33333333 </v>
   <v>      -0.16666667       0.00000000       0.33333333 </v>
   <v>      -0.00000000       0.16666667       0.33333333 </v>
   <v>       0.16666667       0.16666667       0.33333333 </v>
   <v>       0.33333333       0.16666667       0.33333333 </v>
   <v>       0.50000000       0.16666667       0.33333333 </v>
   <v>      -0.33333333       0.16666667       0.33333333 </v>
   <v>      -0.16666667       0.16666667       0.33333333 </v>
   <v>       0.00000000       0.33333333       0.33333333 </v>
   <v>       0.16666667       0.33333333       0.33333333 </v>
   <v>       0.33333333       0.33333333       0.33333333 </v>
   <v>       0.50000000       0.33333333       0.33333333 </v>
   <v>      -0.33333333       0.33333333       0.33333333 </v>
   <v>      -0.16666667       0.33333333       0.33333333 </v>
   <v>       0.00000000       0.50000000       0.33333333 </v>
   <v>       0.16666667       0.50000000       0.33333333 </v>
   <v>       0.33333333       0.50000000       0.33333333 </v>
   <v>       0.50000000       0.50000000       0.33333333 </v>
   <v>      -0.33333333       0.50000000       0.33333333 </v>
   <v>      -0.16666667       0.50000000       0.33333333 </v>
   <v>      -0.00000000      -0.33333333       0.33333333 </v>
   <v>       0.16666667      -0.33333333       0.33333333 </v>
   <v>       0.33333333      -0.33333333       0.33333333 </v>
   <v>       0.50000000      -0.33333333       0.33333333 </v>
   <v>      -0.33333333      -0.33333333       0.33333333 </v>
   <v>      -0.16666667      -0.33333333       0.33333333 </v>
   <v>       0.00000000      -0.16666667       0.33333333 </v>
   <v>       0.16666667      -0.16666667       0.33333333 </v>
   <v>       0.33333333      -0.16666667       0.33333333 </v>
   <v>       0.50000000      -0.16666667       0.33333333 </v>
   <v>      -0.33333333      -0.16666667       0.33333333 </v>
   <v>      -0.16666667      -0.16666667       0.33333333 </v>
   <v>       0.00000000       0.00000000       0.50000000 </v>
   <v>       0.16666667       0.00000000       0.50000000 </v>
   <v>       0.33333333      -0.00000000       0.50000000 </v>
   <v>       0.50000000      -0.00000000       0.50000000 </v>
   <v>      -0.33333333       0.00000000       0.50000000 </v>
   <v>      -0.16666667       0.00000000       0.50000000 </v>
   <v>      -0.00000000       0.16666667       0.50000000 </v>
   <v>       0.16666667       0.16666667       0.50000000 </v>
   <v>       0.33333333       0.16666667       0.50000000 </v>
   <v>       0.50000000       0.16666667       0.50000000 </v>
   <v>      -0.33333333       0.16666667       0.50000000 </v>
   <v>      -0.16666667       0.16666667       0.50000000 </v>
   <v>       0.00000000       0.33333333       0.50000000 </v>
   <v>       0.16666667       0.33333333       0.50000000 </v>
   <v>       0.33333333       0.33333333       0.50000000 </v>
   <v>       0.50000000       0.33333333       0.50000000 </v>
   <v>      -0.33333333       0.33333333       0.50000000 </v>
   <v>      -0.16666667       0.33333333       0.50000000 </v>
   <v>       0.00000000       0.50000000       0.50000000 </v>
   <v>       0.16666667       0.50000000       0.50000000 </v>
   <v>       0.33333333       0.50000000       0.50000000 </v>
   <v>       0.50000000       0.50000000       0.50000000 </v>
   <v>      -0.33333333       0.50000000       0.50000000 </v>
   <v>      -0.16666667       0.50000000       0.50000000 </v>
   <v>       0.00000000      -0.33333333       0.50000000 </v>
   <v>       0.16666667      -0.33333333       0.50000000 </v>
   <v>       0.33333333      -0.33333333       0.50000000 </v>
   <v>       0.50000000      -0.33333333       0.50000000 </v>
   <v>      -0.33333333      -0.33333333       0.50000000 </v>
   <v>      -0.16666667      -0.33333333       0.50000000 </v>
   <v>       0.00000000      -0.16666667       0.50000000 </v>
   <v>       0.16666667      -0.16666667       0.50000000 </v>
   <v>       0.33333333      -0.16666667       0.50000000 </v>
   <v>       0.50000000      -0.16666667       0.50000000 </v>
   <v>      -0.33333333      -0.16666667       0.50000000 </v>
   <v>      -0.16666667      -0.16666667       0.50000000 </v>
   <v>       0.00000000      -0.00000000      -0.33333333 </v>
   <v>       0.16666667      -0.00000000      -0.33333333 </v>
   <v>       0.33333333      -0.00000000      -0.33333333 </v>
   <v>       0.50000000      -0.00000000      -0.33333333 </v>
   <v>      -0.33333333       0.00000000      -0.33333333 </v>
   <v>      -0.16666667       0.00000000      -0.33333333 </v>
   <v>      -0.00000000       0.16666667      -0.33333333 </v>
   <v>       0.16666667       0.16666667      -0.33333333 </v>
   <v>       0.33333333       0.16666667      -0.33333333 </v>
   <v>       0.50000000       0.16666667      -0.33333333 </v>
   <v>      -0.33333333       0.16666667      -0.33333333 </v>
   <v>      -0.16666667       0.16666667      -0.33333333 </v>
   <v>       0.00000000       0.33333333      -0.33333333 </v>
   <v>       0.16666667       0.33333333      -0.33333333 </v>
   <v>       0.33333333       0.33333333      -0.33333333 </v>
   <v>       0.50000000       0.33333333      -0.33333333 </v>
   <v>      -0.33333333       0.33333333      -0.33333333 </v>
   <v>      -0.16666667       0.33333333      -0.33333333 </v>
   <v>       0.00000000       0.50000000      -0.33333333 </v>
   <v>       0.16666667       0.50000000      -0.33333333 </v>
   <v>       0.33333333       0.50000000      -0.33333333 </v>
   <v>       0.50000000       0.50000000      -0.33333333 </v>
   <v>      -0.33333333       0.50000000      -0.33333333 </v>
   <v>      -0.16666667       0.50000000      -0.33333333 </v>
   <v>       0.00000000      -0.33333333      -0.33333333 </v>
   <v>       0.16666667      -0.33333333      -0.33333333 </v>
   <v>       0.33333333      -0.33333333      -0.33333333 </v>
   <v>       0.50000000      -0.33333333      -0.33333333 </v>
   <v>      -0.33333333      -0.33333333      -0.33333333 </v>
   <v>      -0.16666667      -0.33333333      -0.33333333 </v>
   <v>       0.00000000      -0.16666667      -0.33333333 </v>
   <v>       0.16666667      -0.16666667      -0.33333333 </v>
   <v>       0.33333333      -0.16666667      -0.33333333 </v>
   <v>       0.50000000      -0.16666667      -0.33333333 </v>
   <v>      -0.33333333      -0.16666667      -0.33333333 </v>
   <v>      -0.16666667      -0.16666667      -0.33333333 </v>
   <v>       0.00000000      -0.00000000      -0.16666667 </v>
   <v>       0.16666667      -0.00000000      -0.16666667 </v>
   <v>       0.33333333      -0.00000000      -0.16666667 </v>
   <v>       0.50000000      -0.00000000      -0.16666667 </v>
   <v>      -0.33333333       0.00000000      -0.16666667 </v>
   <v>      -0.16666667       0.00000000      -0.16666667 </v>
   <v>       0.00000000       0.16666667      -0.16666667 </v>
   <v>       0.16666667       0.16666667      -0.16666667 </v>
   <v>       0.33333333       0.16666667      -0.16666667 </v>
   <v>       0.50000000       0.16666667      -0.16666667 </v>
   <v>      -0.33333333       0.16666667      -0.16666667 </v>
   <v>      -0.16666667       0.16666667      -0.16666667 </v>
   <v>       0.00000000       0.33333333      -0.16666667 </v>
   <v>       0.16666667       0.33333333      -0.16666667 </v>
   <v>       0.33333333       0.33333333      -0.16666667 </v>
   <v>       0.50000000       0.33333333      -0.16666667 </v>
   <v>      -0.33333333       0.33333333      -0.16666667 </v>
   <v>      -0.16666667       0.33333333      -0.16666667 </v>
   <v>       0.00000000       0.50000000      -0.16666667 </v>
   <v>       0.16666667       0.50000000      -0.16666667 </v>
   <v>       0.33333333       0.50000000      -0.16666667 </v>
   <v>       0.50000000       0.50000000      -0.16666667 </v>
   <v>      -0.33333333       0.50000000      -0.16666667 </v>
   <v>      -0.16666667       0.50000000      -0.16666667 </v>
   <v>      -0.00000000      -0.33333333      -0.16666667 </v>
   <v>       0.16666667      -0.33333333      -0.16666667 </v>
   <v>       0.33333333      -0.33333333      -0.16666667 </v>
   <v>       0.50000000      -0.33333333      -0.16666667 </v>
   <v>      -0.33333333      -0.33333333      -0.16666667 </v>
   <v>      -0.16666667      -0.33333333      -0.16666667 </v>
   <v>       0.00000000      -0.16666667      -0.16666667 </v>
   <v>       0.16666667      -0.16666667      -0.16666667 </v>
   <v>       0.33333333      -0.16666667      -0.16666667 </v>
   <v>       0.50000000      -0.16666667      -0.16666667 </v>
   <v>      -0.33333333      -0.16666667      -0.16666667 </v>
   <v>      -0.16666667      -0.16666667      -0.16666667 </v>
  </varray>
  <varray name="weights" >
   <v>       0.00462963 </v>
   <v>       0.00462963 </v>
   <v>       0.00462963 </v>
   <v>       0.00462963 </v>
   <v>       0.00462963 </v>
   <v>       0.00462963 </v>
   <v>       0.00462963 </v>
   <v>       0.00462963 </v>
   <v>       0.00462963 </v>
   <v>       0.00462963 </v>
   <v>       0.00462963 </v>
   <v>       0.00462963 </v>
   <v>       0.00462963 </v>
   <v>       0.00462963 </v>
   <v>       0.00462963 </v>
   <v>       0.00462963 </v>
   <v>       0.00462963 </v>
   <v>       0.00462963 </v>
   <v>       0.00462963 </v>
   <v>       0.00462963 </v>
   <v>       0.00462963 </v>
   <v>       0.00462963 </v>
   <v>       0.00462963 </v>
   <v>       0.00462963 </v>
   <v>       0.00462963 </v>
   <v>       0.00462963 </v>
   <v>       0.00462963 </v>
   <v>       0.00462963 </v>
   <v>       0.00462963 </v>
   <v>       0.00462963 </v>
   <v>       0.00462963 </v>
   <v>       0.00462963 </v>
   <v>       0.00462963 </v>
   <v>       0.00462963 </v>
   <v>       0.00462963 </v>
   <v>       0.00462963 </v>
   <v>       0.00462963 </v>
   <v>       0.00462963 </v>
   <v>       0.00462963 </v>
   <v>       0.00462963 </v>
   <v>       0.00462963 </v>
   <v>       0.00462963 </v>
   <v>       0.00462963 </v>
   <v>       0.00462963 </v>
   <v>       0.00462963 </v>
   <v>       0.00462963 </v>
   <v>       0.00462963 </v>
   <v>       0.00462963 </v>
   <v>       0.00462963 </v>
   <v>       0.00462963 </v>
   <v>       0.00462963 </v>
   <v>       0.00462963 </v>
   <v>       0.00462963 </v>
   <v>       0.00462963 </v>
   <v>       0.00462963 </v>
   <v>       0.00462963 </v>
   <v>       0.00462963 </v>
   <v>       0.00462963 </v>
   <v>       0.00462963 </v>
   <v>       0.00462963 </v>
   <v>       0.00462963 </v>
   <v>       0.00462963 </v>
   <v>       0.00462963 </v>
   <v>       0.00462963 </v>
   <v>       0.00462963 </v>
   <v>       0.00462963 </v>
   <v>       0.00462963 </v>
   <v>       0.00462963 </v>
   <v>       0.00462963 </v>
   <v>       0.00462963 </v>
   <v>       0.00462963 </v>
   <v>       0.00462963 </v>
   <v>       0.00462963 </v>
   <v>       0.00462963 </v>
   <v>       0.00462963 </v>
   <v>       0.00462963 </v>
   <v>       0.00462963 </v>
   <v>       0.00462963 </v>
   <v>       0.00462963 </v>
   <v>       0.00462963 </v>
   <v>       0.00462963 </v>
   <v>       0.00462963 </v>
   <v>       0.00462963 </v>
   <v>       0.00462963 </v>
   <v>       0.00462963 </v>
   <v>       0.00462963 </v>
   <v>       0.00462963 </v>
   <v>       0.00462963 </v>
   <v>       0.00462963 </v>
   <v>       0.00462963 </v>
   <v>       0.00462963 </v>
   <v>       0.00462963 </v>
   <v>       0.00462963 </v>
   <v>       0.00462963 </v>
   <v>       0.00462963 </v>
   <v>       0.00462963 </v>
   <v>       0.00462963 </v>
   <v>       0.00462963 </v>
   <v>       0.00462963 </v>
   <v>       0.00462963 </v>
   <v>       0.00462963 </v>
   <v>       0.00462963 </v>
   <v>       0.00462963 </v>
   <v>       0.00462963 </v>
   <v>       0.00462963 </v>
   <v>       0.00462963 </v>
   <v>       0.00462963 </v>
   <v>       0.00462963 </v>
   <v>       0.00462963 </v>
   <v>       0.00462963 </v>
   <v>       0.00462963 </v>
   <v>       0.00462963 </v>
   <v>       0.00462963 </v>
   <v>       0.00462963 </v>
   <v>       0.00462963 </v>
   <v>       0.00462963 </v>
   <v>       0.00462963 </v>
   <v>       0.00462963 </v>
   <v>       0.00462963 </v>
   <v>       0.00462963 </v>
   <v>       0.00462963 </v>
   <v>       0.00462963 </v>
   <v>       0.00462963 </v>
   <v>       0.00462963 </v>
   <v>       0.00462963 </v>
   <v>       0.00462963 </v>
   <v>       0.00462963 </v>
   <v>       0.00462963 </v>
   <v>       0.00462963 </v>
   <v>       0.00462963 </v>
   <v>       0.00462963 </v>
   <v>       0.00462963 </v>
   <v>       0.00462963 </v>
   <v>       0.00462963 </v>
   <v>       0.00462963 </v>
   <v>       0.00462963 </v>
   <v>       0.00462963 </v>
   <v>       0.00462963 </v>
   <v>       0.00462963 </v>
   <v>       0.00462963 </v>
   <v>       0.00462963 </v>
   <v>       0.00462963 </v>
   <v>       0.00462963 </v>
   <v>       0.00462963 </v>
   <v>       0.00462963 </v>
   <v>       0.00462963 </v>
   <v>       0.00462963 </v>
   <v>       0.00462963 </v>
   <v>       0.00462963 </v>
   <v>       0.00462963 </v>
   <v>       0.00462963 </v>
   <v>       0.00462963 </v>
   <v>       0.00462963 </v>
   <v>       0.00462963 </v>
   <v>       0.00462963 </v>
   <v>       0.00462963 </v>
   <v>       0.00462963 </v>
   <v>       0.00462963 </v>
   <v>       0.00462963 </v>
   <v>       0.00462963 </v>
   <v>       0.00462963 </v>
   <v>       0.00462963 </v>
   <v>       0.00462963 </v>
   <v>       0.00462963 </v>
   <v>       0.00462963 </v>
   <v>       0.00462963 </v>
   <v>       0.00462963 </v>
   <v>       0.00462963 </v>
   <v>       0.00462963 </v>
   <v>       0.00462963 </v>
   <v>       0.00462963 </v>
   <v>       0.00462963 </v>
   <v>       0.00462963 </v>
   <v>       0.00462963 </v>
   <v>       0.00462963 </v>
   <v>       0.00462963 </v>
   <v>       0.00462963 </v>
   <v>       0.00462963 </v>
   <v>       0.00462963 </v>
   <v>       0.00462963 </v>
   <v>       0.00462963 </v>
   <v>       0.00462963 </v>
   <v>       0.00462963 </v>
   <v>       0.00462963 </v>
   <v>       0.00462963 </v>
   <v>       0.00462963 </v>
   <v>       0.00462963 </v>
   <v>       0.00462963 </v>
   <v>       0.00462963 </v>
   <v>       0.00462963 </v>
   <v>       0.00462963 </v>
   <v>       0.00462963 </v>
   <v>       0.00462963 </v>
   <v>       0.00462963 </v>
   <v>       0.00462963 </v>
   <v>       0.00462963 </v>
   <v>       0.00462963 </v>
   <v>       0.00462963 </v>
   <v>       0.00462963 </v>
   <v>       0.00462963 </v>
   <v>       0.00462963 </v>
   <v>       0.00462963 </v>
   <v>       0.00462963 </v>
   <v>       0.00462963 </v>
   <v>       0.00462963 </v>
   <v>       0.00462963 </v>
   <v>       0.00462963 </v>
   <v>       0.00462963 </v>
   <v>       0.00462963 </v>
   <v>       0.00462963 </v>
   <v>       0.00462963 </v>
   <v>       0.00462963 </v>
   <v>       0.00462963 </v>
   <v>       0.00462963 </v>
   <v>       0.00462963 </v>
   <v>       0.00462963 </v>
  </varray>
 </kpoints>
 <dielectricfunction comment="HEAD OF MICROSCOPIC DIELECTRIC TENSOR (INDEPENDENT PARTICLE)">
  <imag>
   <array>
    <dimension dim="1">gridpoints</dimension>
    <field>energy</field>
    <field>xx</field>
    <field>yy</field>
    <field>zz</field>
    <field>xy</field>
    <field>yz</field>
    <field>zx</field>
    <set>
     <r>     0.0000    -0.0000     0.0000    -0.0000    -0.2510    -3.7136    -0.4841 </r>
     <r>     3.4497     9.7925     9.7971     9.7591    -0.1215    -1.9327    -0.2473 </r>
     <r>     6.8880     9.0054     9.0092     8.9773     0.0186     0.1592     0.0249 </r>
     <r>    10.3044     5.4657     5.4676     5.4513     0.0469     0.6346     0.0849 </r>
     <r>    13.6892     3.2735     3.2744     3.2663     0.0389     0.5456     0.0722 </r>
     <r>    17.0343     2.0606     2.0611     2.0566     0.0291     0.4138     0.0545 </r>
     <r>    20.3335     1.3662     1.3665     1.3638     0.0219     0.3143     0.0413 </r>
     <r>    23.5826     0.9423     0.9426     0.9408     0.0170     0.2444     0.0321 </r>
     <r>    26.7789     0.6745     0.6746     0.6734     0.0135     0.1949     0.0256 </r>
     <r>    29.9222     0.4989     0.4990     0.4982     0.0110     0.1591     0.0209 </r>
     <r>    33.0135     0.3827     0.3827     0.3821     0.0091     0.1325     0.0174 </r>
     <r>    36.0555     0.3083     0.3083     0.3078     0.0077     0.1121     0.0147 </r>
     <r>    39.0523     0.2622     0.2622     0.2618     0.0066     0.0963     0.0126 </r>
     <r>    42.0088     0.2356     0.2356     0.2353     0.0057     0.0837     0.0110 </r>
     <r>    44.9311     0.2267     0.2267     0.2264     0.0050     0.0735     0.0096 </r>
     <r>    47.8259     0.2365     0.2365     0.2362     0.0045     0.0651     0.0085 </r>
     <r>    50.7008     0.2626     0.2626     0.2624     0.0040     0.0581     0.0076 </r>
     <r>    53.5639     0.2946     0.2946     0.2944     0.0036     0.0521     0.0068 </r>
     <r>    56.4238     0.3109     0.3109     0.3108     0.0032     0.0471     0.0062 </r>
     <r>    59.2898     0.2995     0.2995     0.2994     0.0029     0.0427     0.0056 </r>
     <r>    62.1719     0.2731     0.2731     0.2730     0.0026     0.0389     0.0051 </r>
     <r>    65.0806     0.2401     0.2401     0.2401     0.0024     0.0356     0.0046 </r>
     <r>    68.0274     0.2004     0.2004     0.2003     0.0022     0.0326     0.0042 </r>
     <r>    71.0247     0.1618     0.1618     0.1618     0.0020     0.0299     0.0039 </r>
     <r>    74.0859     0.1312     0.1312     0.1311     0.0019     0.0275     0.0036 </r>
     <r>    77.2259     0.1072     0.1073     0.1072     0.0017     0.0254     0.0033 </r>
     <r>    80.4611     0.0880     0.0880     0.0879     0.0016     0.0234     0.0031 </r>
     <r>    83.8099     0.0723     0.0723     0.0723     0.0015     0.0216     0.0028 </r>
     <r>    87.2929     0.0595     0.0595     0.0595     0.0014     0.0199     0.0026 </r>
     <r>    90.9337     0.0489     0.0489     0.0489     0.0012     0.0183     0.0024 </r>
     <r>    94.7597     0.0403     0.0403     0.0402     0.0011     0.0169     0.0022 </r>
     <r>    98.8020     0.0332     0.0332     0.0332     0.0011     0.0155     0.0020 </r>
     <r>   103.0978     0.0275     0.0275     0.0275     0.0010     0.0143     0.0019 </r>
     <r>   107.6904     0.0229     0.0229     0.0229     0.0009     0.0131     0.0017 </r>
     <r>   112.6317     0.0194     0.0194     0.0194     0.0008     0.0120     0.0016 </r>
     <r>   117.9840     0.0165     0.0165     0.0165     0.0007     0.0109     0.0014 </r>
     <r>   123.8232     0.0136     0.0136     0.0136     0.0007     0.0099     0.0013 </r>
     <r>   130.2429     0.0110     0.0110     0.0110     0.0006     0.0090     0.0012 </r>
     <r>   137.3592     0.0087     0.0087     0.0087     0.0005     0.0081     0.0011 </r>
     <r>   145.3183     0.0069     0.0069     0.0069     0.0005     0.0072     0.0009 </r>
     <r>   154.3074     0.0056     0.0056     0.0056     0.0004     0.0064     0.0008 </r>
     <r>   164.5695     0.0048     0.0048     0.0048     0.0004     0.0056     0.0007 </r>
     <r>   176.4254     0.0045     0.0045     0.0045     0.0003     0.0049     0.0006 </r>
     <r>   190.3078     0.0038     0.0038     0.0038     0.0003     0.0042     0.0005 </r>
     <r>   206.8139     0.0027     0.0027     0.0027     0.0002     0.0036     0.0005 </r>
     <r>   226.7922     0.0019     0.0019     0.0019     0.0002     0.0030     0.0004 </r>
     <r>   251.4870     0.0012     0.0012     0.0012     0.0002     0.0024     0.0003 </r>
     <r>   282.8012     0.0008     0.0009     0.0008     0.0001     0.0019     0.0002 </r>
     <r>   323.7959     0.0005     0.0005     0.0005     0.0001     0.0015     0.0002 </r>
     <r>   379.7272     0.0003     0.0003     0.0003     0.0001     0.0011     0.0001 </r>
    </set>
   </array>
  </imag>
  <real>
   <array>
    <dimension dim="1">gridpoints</dimension>
    <field>energy</field>
    <field>xx</field>
    <field>yy</field>
    <field>zz</field>
    <field>xy</field>
    <field>yz</field>
    <field>zx</field>
    <set>
     <r>     0.0000    16.6924    16.6994    16.6423     0.0192     0.0814     0.0178 </r>
     <r>     3.4497    10.2477    10.2513    10.2207     0.1776     2.5169     0.3321 </r>
     <r>     6.8880     2.0283     2.0280     2.0298     0.1399     2.0750     0.2704 </r>
     <r>    10.3044    -0.5871    -0.5882    -0.5788     0.0684     1.0459     0.1352 </r>
     <r>    13.6892    -0.8867    -0.8876    -0.8794     0.0331     0.5190     0.0666 </r>
     <r>    17.0343    -0.6796    -0.6803    -0.6740     0.0177     0.2841     0.0362 </r>
     <r>    20.3335    -0.4067    -0.4073    -0.4025     0.0104     0.1708     0.0217 </r>
     <r>    23.5826    -0.1596    -0.1601    -0.1564     0.0066     0.1105     0.0139 </r>
     <r>    26.7789     0.0485     0.0482     0.0512     0.0044     0.0757     0.0095 </r>
     <r>    29.9222     0.2194     0.2191     0.2215     0.0031     0.0543     0.0068 </r>
     <r>    33.0135     0.3619     0.3616     0.3636     0.0022     0.0403     0.0050 </r>
     <r>    36.0555     0.4802     0.4800     0.4817     0.0017     0.0308     0.0038 </r>
     <r>    39.0523     0.5771     0.5769     0.5784     0.0013     0.0241     0.0030 </r>
     <r>    42.0088     0.6579     0.6578     0.6591     0.0010     0.0193     0.0024 </r>
     <r>    44.9311     0.7268     0.7267     0.7278     0.0008     0.0157     0.0019 </r>
     <r>    47.8259     0.7817     0.7816     0.7826     0.0006     0.0129     0.0016 </r>
     <r>    50.7008     0.8153     0.8152     0.8161     0.0005     0.0108     0.0013 </r>
     <r>    53.5639     0.8185     0.8184     0.8192     0.0004     0.0091     0.0011 </r>
     <r>    56.4238     0.7929     0.7928     0.7936     0.0003     0.0077     0.0009 </r>
     <r>    59.2898     0.7609     0.7608     0.7615     0.0003     0.0066     0.0008 </r>
     <r>    62.1719     0.7386     0.7385     0.7391     0.0002     0.0057     0.0007 </r>
     <r>    65.0806     0.7235     0.7235     0.7240     0.0002     0.0049     0.0006 </r>
     <r>    68.0274     0.7181     0.7181     0.7186     0.0002     0.0043     0.0005 </r>
     <r>    71.0247     0.7261     0.7260     0.7265     0.0001     0.0037     0.0004 </r>
     <r>    74.0859     0.7415     0.7414     0.7419     0.0001     0.0033     0.0004 </r>
     <r>    77.2259     0.7586     0.7586     0.7590     0.0001     0.0029     0.0003 </r>
     <r>    80.4611     0.7761     0.7760     0.7764     0.0001     0.0025     0.0003 </r>
     <r>    83.8099     0.7931     0.7931     0.7934     0.0001     0.0022     0.0002 </r>
     <r>    87.2929     0.8095     0.8095     0.8098     0.0001     0.0019     0.0002 </r>
     <r>    90.9337     0.8252     0.8252     0.8255     0.0000     0.0017     0.0002 </r>
     <r>    94.7597     0.8402     0.8402     0.8405     0.0000     0.0015     0.0002 </r>
     <r>    98.8020     0.8543     0.8543     0.8545     0.0000     0.0013     0.0001 </r>
     <r>   103.0978     0.8675     0.8675     0.8677     0.0000     0.0011     0.0001 </r>
     <r>   107.6904     0.8799     0.8799     0.8801     0.0000     0.0010     0.0001 </r>
     <r>   112.6317     0.8913     0.8913     0.8915     0.0000     0.0008     0.0001 </r>
     <r>   117.9840     0.9015     0.9015     0.9016     0.0000     0.0007     0.0001 </r>
     <r>   123.8232     0.9109     0.9109     0.9111     0.0000     0.0006     0.0001 </r>
     <r>   130.2429     0.9200     0.9200     0.9201     0.0000     0.0005     0.0001 </r>
     <r>   137.3592     0.9286     0.9286     0.9288    -0.0000     0.0004     0.0000 </r>
     <r>   145.3183     0.9370     0.9370     0.9371    -0.0000     0.0004     0.0000 </r>
     <r>   154.3074     0.9449     0.9449     0.9450    -0.0000     0.0003     0.0000 </r>
     <r>   164.5695     0.9523     0.9523     0.9524    -0.0000     0.0002     0.0000 </r>
     <r>   176.4254     0.9586     0.9586     0.9587    -0.0000     0.0002     0.0000 </r>
     <r>   190.3078     0.9641     0.9641     0.9641    -0.0000     0.0001     0.0000 </r>
     <r>   206.8139     0.9694     0.9694     0.9695    -0.0000     0.0001     0.0000 </r>
     <r>   226.7922     0.9746     0.9746     0.9747    -0.0000     0.0001     0.0000 </r>
     <r>   251.4870     0.9794     0.9794     0.9795    -0.0000     0.0000     0.0000 </r>
     <r>   282.8012     0.9839     0.9839     0.9839    -0.0000     0.0000    -0.0000 </r>
     <r>   323.7959     0.9877     0.9877     0.9877    -0.0000     0.0000    -0.0000 </r>
     <r>   379.7272     0.9911     0.9911     0.9911    -0.0000     0.0000    -0.0000 </r>
    </set>
   </array>
  </real>
 </dielectricfunction>
 <varray name="epsilon_diag_mic" >
  <v>       0.00000000      16.67802054 </v>
  <v>       1.75038354       1.42913042 </v>
  <v>       3.50076708       1.09240839 </v>
  <v>       5.25115062       1.01673506 </v>
  <v>       7.00153416       1.00346301 </v>
  <v>       7.00153416       1.00346301 </v>
  <v>       5.25115062       1.01673506 </v>
  <v>       3.50076708       1.09240840 </v>
  <v>       1.75038354       1.42913047 </v>
  <v>       1.75038354       1.42913024 </v>
  <v>       2.02116881       1.32478192 </v>
  <v>       3.35172930       1.10504382 </v>
  <v>       4.95083228       1.02276430 </v>
  <v>       6.62684512       1.00473474 </v>
  <v>       6.06350644       1.00769933 </v>
  <v>       4.40503531       1.03968156 </v>
  <v>       2.85836435       1.15733644 </v>
  <v>       3.50076708       1.09240842 </v>
  <v>       3.35172930       1.10504401 </v>
  <v>       4.04233763       1.05649670 </v>
  <v>       5.25115062       1.01671887 </v>
  <v>       6.70345860       1.00444098 </v>
  <v>       7.21701622       1.00289761 </v>
  <v>       5.71672870       1.01059693 </v>
  <v>       4.40503531       1.03968157 </v>
  <v>       5.25115062       1.01673508 </v>
  <v>       4.95083228       1.02276432 </v>
  <v>       5.25115062       1.01671887 </v>
  <v>       6.06350644       1.00769943 </v>
  <v>       7.21701622       1.00289552 </v>
  <v>       7.21701622       1.00289761 </v>
  <v>       6.06350644       1.00769933 </v>
  <v>       7.00153416       1.00346301 </v>
  <v>       6.62684512       1.00473474 </v>
  <v>       6.70345860       1.00444098 </v>
  <v>       7.21701622       1.00289552 </v>
  <v>       7.00153416       1.00346301 </v>
  <v>       7.21701622       1.00289552 </v>
  <v>       6.70345860       1.00444098 </v>
  <v>       6.62684512       1.00473474 </v>
  <v>       5.25115062       1.01673508 </v>
  <v>       6.06350644       1.00769933 </v>
  <v>       7.21701622       1.00289761 </v>
  <v>       7.21701622       1.00289552 </v>
  <v>       6.06350644       1.00769943 </v>
  <v>       5.25115062       1.01671888 </v>
  <v>       4.95083228       1.02276432 </v>
  <v>       3.50076708       1.09240843 </v>
  <v>       4.40503531       1.03968157 </v>
  <v>       5.71672870       1.01059693 </v>
  <v>       7.21701622       1.00289761 </v>
  <v>       6.70345860       1.00444098 </v>
  <v>       5.25115062       1.01671887 </v>
  <v>       4.04233763       1.05649671 </v>
  <v>       3.35172930       1.10504402 </v>
  <v>       1.75038354       1.42913029 </v>
  <v>       2.85836435       1.15733644 </v>
  <v>       4.40503531       1.03968156 </v>
  <v>       6.06350644       1.00769933 </v>
  <v>       6.62684512       1.00473474 </v>
  <v>       4.95083228       1.02276430 </v>
  <v>       3.35172930       1.10504383 </v>
  <v>       2.02116881       1.32478199 </v>
  <v>       1.75038354       1.42913034 </v>
  <v>       2.02116881       1.32478195 </v>
  <v>       3.35172930       1.10504380 </v>
  <v>       4.95083228       1.02276430 </v>
  <v>       6.62684512       1.00473474 </v>
  <v>       6.06350644       1.00769933 </v>
  <v>       4.40503531       1.03968157 </v>
  <v>       2.85836435       1.15733647 </v>
  <v>       2.02116881       1.32478172 </v>
  <v>       1.75038354       1.42913758 </v>
  <v>       2.85836435       1.15733695 </v>
  <v>       4.40503531       1.03968208 </v>
  <v>       6.06350644       1.00769950 </v>
  <v>       6.62684512       1.00473465 </v>
  <v>       4.95083228       1.02276397 </v>
  <v>       3.35172930       1.10504057 </v>
  <v>       3.35172930       1.10504356 </v>
  <v>       2.85836435       1.15733705 </v>
  <v>       3.35172930       1.10504462 </v>
  <v>       4.51947086       1.03539778 </v>
  <v>       5.97869798       1.00830908 </v>
  <v>       5.97869798       1.00830886 </v>
  <v>       4.51947086       1.03539709 </v>
  <v>       4.95083228       1.02276410 </v>
  <v>       4.40503531       1.03968199 </v>
  <v>       4.51947086       1.03539769 </v>
  <v>       5.25115062       1.01671898 </v>
  <v>       6.39149699       1.00578156 </v>
  <v>       5.97869798       1.00830886 </v>
  <v>       6.62684512       1.00473466 </v>
  <v>       6.06350644       1.00769939 </v>
  <v>       5.97869798       1.00830904 </v>
  <v>       6.39149699       1.00578151 </v>
  <v>       7.21701622       1.00289552 </v>
  <v>       6.06350644       1.00769945 </v>
  <v>       6.62684512       1.00473473 </v>
  <v>       7.21701622       1.00289551 </v>
  <v>       6.39149699       1.00578152 </v>
  <v>       5.97869798       1.00830900 </v>
  <v>       4.40503531       1.03968170 </v>
  <v>       4.95083228       1.02276419 </v>
  <v>       5.97869798       1.00830896 </v>
  <v>       6.39149699       1.00578147 </v>
  <v>       5.25115062       1.01671882 </v>
  <v>       4.51947086       1.03539740 </v>
  <v>       2.85836435       1.15733637 </v>
  <v>       3.35172930       1.10504091 </v>
  <v>       4.51947086       1.03539727 </v>
  <v>       5.97869798       1.00830895 </v>
  <v>       5.97869798       1.00830895 </v>
  <v>       4.51947086       1.03539728 </v>
  <v>       3.35172930       1.10504096 </v>
  <v>       3.50076708       1.09240844 </v>
  <v>       3.35172930       1.10504404 </v>
  <v>       4.04233763       1.05649670 </v>
  <v>       5.25115062       1.01671887 </v>
  <v>       6.70345860       1.00444098 </v>
  <v>       7.21701622       1.00289761 </v>
  <v>       5.71672870       1.01059694 </v>
  <v>       4.40503531       1.03968159 </v>
  <v>       3.35172930       1.10504364 </v>
  <v>       2.85836435       1.15733709 </v>
  <v>       3.35172930       1.10504465 </v>
  <v>       4.51947086       1.03539779 </v>
  <v>       5.97869798       1.00830908 </v>
  <v>       5.97869798       1.00830886 </v>
  <v>       4.51947086       1.03539710 </v>
  <v>       4.04233763       1.05649657 </v>
  <v>       3.35172930       1.10504446 </v>
  <v>       3.50076708       1.09241101 </v>
  <v>       4.40503531       1.03968235 </v>
  <v>       5.71672870       1.01059710 </v>
  <v>       7.21701622       1.00289763 </v>
  <v>       6.70345860       1.00444088 </v>
  <v>       5.25115062       1.01671864 </v>
  <v>       5.25115062       1.01671869 </v>
  <v>       4.51947086       1.03539751 </v>
  <v>       4.40503531       1.03968223 </v>
  <v>       4.95083228       1.02276454 </v>
  <v>       5.97869798       1.00830910 </v>
  <v>       6.39149699       1.00578142 </v>
  <v>       6.70345860       1.00444089 </v>
  <v>       5.97869798       1.00830894 </v>
  <v>       5.71672870       1.01059711 </v>
  <v>       5.97869798       1.00830906 </v>
  <v>       6.70345860       1.00444101 </v>
  <v>       7.21701622       1.00289763 </v>
  <v>       7.21701622       1.00289761 </v>
  <v>       5.71672870       1.01059694 </v>
  <v>       5.97869798       1.00830901 </v>
  <v>       6.70345860       1.00444098 </v>
  <v>       6.70345860       1.00444098 </v>
  <v>       5.97869798       1.00830901 </v>
  <v>       4.40503531       1.03968169 </v>
  <v>       4.51947086       1.03539740 </v>
  <v>       5.25115062       1.01671882 </v>
  <v>       6.39149699       1.00578147 </v>
  <v>       5.97869798       1.00830896 </v>
  <v>       4.95083228       1.02276419 </v>
  <v>       5.25115062       1.01673508 </v>
  <v>       4.95083228       1.02276432 </v>
  <v>       5.25115062       1.01671887 </v>
  <v>       6.06350644       1.00769942 </v>
  <v>       7.21701622       1.00289552 </v>
  <v>       7.21701622       1.00289761 </v>
  <v>       6.06350644       1.00769933 </v>
  <v>       4.95083228       1.02276411 </v>
  <v>       4.40503531       1.03968200 </v>
  <v>       4.51947086       1.03539770 </v>
  <v>       5.25115062       1.01671897 </v>
  <v>       6.39149699       1.00578156 </v>
  <v>       5.97869798       1.00830886 </v>
  <v>       5.25115062       1.01671869 </v>
  <v>       4.51947086       1.03539751 </v>
  <v>       4.40503531       1.03968224 </v>
  <v>       4.95083228       1.02276455 </v>
  <v>       5.97869798       1.00830911 </v>
  <v>       6.39149699       1.00578142 </v>
  <v>       6.06350644       1.00769931 </v>
  <v>       5.25115062       1.01671880 </v>
  <v>       4.95083228       1.02276435 </v>
  <v>       5.25115062       1.01673526 </v>
  <v>       6.06350644       1.00769954 </v>
  <v>       7.21701622       1.00289764 </v>
  <v>       7.21701622       1.00289545 </v>
  <v>       7.21701622       1.00289546 </v>
  <v>       6.39149699       1.00578145 </v>
  <v>       5.97869798       1.00830897 </v>
  <v>       6.06350644       1.00769943 </v>
  <v>       6.62684512       1.00473477 </v>
  <v>       7.21701622       1.00289764 </v>
  <v>       7.21701622       1.00289761 </v>
  <v>       6.06350644       1.00769945 </v>
  <v>       5.97869798       1.00830900 </v>
  <v>       6.39149699       1.00578152 </v>
  <v>       7.21701622       1.00289551 </v>
  <v>       6.62684512       1.00473473 </v>
  <v>       7.00153415       1.00346301 </v>
  <v>       6.62684512       1.00473474 </v>
  <v>       6.70345860       1.00444098 </v>
  <v>       7.21701622       1.00289552 </v>
  <v>       6.62684512       1.00473466 </v>
  <v>       6.06350644       1.00769939 </v>
  <v>       5.97869798       1.00830904 </v>
  <v>       6.39149699       1.00578151 </v>
  <v>       7.21701622       1.00289552 </v>
  <v>       6.70345860       1.00444089 </v>
  <v>       5.97869798       1.00830894 </v>
  <v>       5.71672870       1.01059711 </v>
  <v>       5.97869798       1.00830906 </v>
  <v>       6.70345860       1.00444101 </v>
  <v>       7.21701622       1.00289546 </v>
  <v>       6.39149699       1.00578145 </v>
  <v>       5.97869798       1.00830897 </v>
  <v>       6.06350644       1.00769943 </v>
  <v>       6.62684512       1.00473477 </v>
  <v>       7.21701622       1.00289547 </v>
  <v>       6.70345860       1.00444092 </v>
  <v>       6.62684512       1.00473469 </v>
  <v>       7.00153416       1.00346304 </v>
  <v>       7.21701622       1.00289763 </v>
  <v>       7.21701622       1.00289764 </v>
  <v>       7.21701622       1.00289764 </v>
  <v>       7.21701622       1.00289763 </v>
  <v>       7.00153415       1.00346301 </v>
  <v>       7.21701622       1.00289552 </v>
  <v>       6.70345860       1.00444098 </v>
  <v>       6.62684512       1.00473474 </v>
  <v>       7.00153416       1.00346304 </v>
  <v>       6.62684512       1.00473469 </v>
  <v>       6.70345860       1.00444092 </v>
  <v>       7.21701622       1.00289547 </v>
  <v>       7.21701622       1.00289546 </v>
  <v>       6.62684512       1.00473477 </v>
  <v>       6.06350644       1.00769943 </v>
  <v>       5.97869798       1.00830897 </v>
  <v>       6.39149699       1.00578145 </v>
  <v>       6.70345860       1.00444089 </v>
  <v>       6.70345860       1.00444101 </v>
  <v>       5.97869798       1.00830906 </v>
  <v>       5.71672870       1.01059711 </v>
  <v>       5.97869798       1.00830894 </v>
  <v>       6.62684512       1.00473466 </v>
  <v>       7.21701622       1.00289552 </v>
  <v>       6.39149699       1.00578151 </v>
  <v>       5.97869798       1.00830904 </v>
  <v>       6.06350644       1.00769939 </v>
  <v>       5.25115062       1.01673508 </v>
  <v>       6.06350644       1.00769933 </v>
  <v>       7.21701622       1.00289761 </v>
  <v>       7.21701622       1.00289552 </v>
  <v>       6.06350644       1.00769942 </v>
  <v>       5.25115062       1.01671888 </v>
  <v>       4.95083228       1.02276432 </v>
  <v>       6.06350644       1.00769945 </v>
  <v>       6.62684512       1.00473473 </v>
  <v>       7.21701622       1.00289551 </v>
  <v>       6.39149699       1.00578152 </v>
  <v>       5.97869798       1.00830900 </v>
  <v>       7.21701622       1.00289761 </v>
  <v>       7.21701622       1.00289764 </v>
  <v>       7.21701622       1.00289546 </v>
  <v>       6.62684512       1.00473477 </v>
  <v>       6.06350644       1.00769943 </v>
  <v>       5.97869798       1.00830897 </v>
  <v>       6.39149699       1.00578145 </v>
  <v>       6.06350644       1.00769931 </v>
  <v>       7.21701622       1.00289545 </v>
  <v>       7.21701622       1.00289764 </v>
  <v>       6.06350644       1.00769954 </v>
  <v>       5.25115062       1.01673526 </v>
  <v>       4.95083228       1.02276435 </v>
  <v>       5.25115062       1.01671880 </v>
  <v>       5.25115062       1.01671869 </v>
  <v>       6.39149699       1.00578142 </v>
  <v>       5.97869798       1.00830911 </v>
  <v>       4.95083228       1.02276456 </v>
  <v>       4.40503531       1.03968225 </v>
[...]
  <v>       4.62801565       1.03171498 </v>
  <v>       6.14483705       1.00716963 </v>
  <v>       7.21505053       1.00290197 </v>
  <v>       5.62417436       1.01155564 </v>
  <v>       4.16334066       1.05030164 </v>
  <v>       3.02707097       1.13734404 </v>
  <v>       2.66844468       1.18294532 </v>
  <v>       1.92777787       1.35768267 </v>
  <v>       3.13751695       1.12573592 </v>
  <v>       4.70099806       1.02942597 </v>
  <v>       6.36258107       1.00592935 </v>
  <v>       6.36258107       1.00592389 </v>
  <v>       4.70099806       1.02942577 </v>
  <v>       3.13751695       1.12557154 </v>
  <v>       1.92777787       1.35674504 </v>
  <v>       3.13751695       1.12573564 </v>
  <v>       3.73217577       1.07531324 </v>
  <v>       4.91344527       1.02365256 </v>
  <v>       6.36258107       1.00592936 </v>
  <v>       5.86129276       1.00925350 </v>
  <v>       4.47848423       1.03687809 </v>
  <v>       3.44769115       1.09680717 </v>
  <v>       4.70099806       1.02942580 </v>
  <v>       4.91344527       1.02365236 </v>
  <v>       5.68438133       1.01091489 </v>
  <v>       6.82716068       1.00400644 </v>
  <v>       6.03301869       1.00791373 </v>
  <v>       5.11707984       1.01919066 </v>
  <v>       6.36258107       1.00592939 </v>
  <v>       6.36258107       1.00592940 </v>
  <v>       6.82716068       1.00400645 </v>
  <v>       6.82716068       1.00400594 </v>
  <v>       7.12005943       1.00313888 </v>
  <v>       6.36258107       1.00592380 </v>
  <v>       6.67589404       1.00454289 </v>
  <v>       5.86129276       1.00923972 </v>
  <v>       5.50178421       1.01301608 </v>
  <v>       5.68438133       1.01091197 </v>
  <v>       4.70099806       1.02942516 </v>
  <v>       5.86129276       1.00925339 </v>
  <v>       5.86129276       1.00923980 </v>
  <v>       4.70099806       1.02940128 </v>
  <v>       3.99646064       1.05897123 </v>
  <v>       3.99646064       1.05894564 </v>
  <v>       3.13751695       1.12557134 </v>
  <v>       4.47848423       1.03687747 </v>
  <v>       6.03301869       1.00791365 </v>
  <v>       7.12005943       1.00313887 </v>
  <v>       5.50178421       1.01301599 </v>
  <v>       3.99646064       1.05897119 </v>
  <v>       2.79310775       1.16578599 </v>
  <v>       2.39976857       1.22884279 </v>
  <v>       1.92777787       1.35674487 </v>
  <v>       3.44769115       1.09680702 </v>
  <v>       5.11707984       1.01919039 </v>
  <v>       6.82716068       1.00400591 </v>
  <v>       5.68438133       1.01091218 </v>
  <v>       3.99646064       1.05894575 </v>
  <v>       2.39976857       1.22884283 </v>
  <v>       1.29374102       1.69725677 </v>
 </varray>
 <varray name="epsilon_diag" >
  <v>       0.55862155       0.45943196 </v>
  <v>       2.09694573       0.79819531 </v>
  <v>       3.82230164       0.94266907 </v>
  <v>       5.56331586       0.98876133 </v>
  <v>       6.72669422       0.99587749 </v>
  <v>       4.98224832       0.98031068 </v>
  <v>       3.24420506       0.90950053 </v>
  <v>       1.53447702       0.67783176 </v>
  <v>       2.09694573       0.79819528 </v>
  <v>       2.53766489       0.85203911 </v>
  <v>       3.82230164       0.94256474 </v>
  <v>       5.37660875       0.98660016 </v>
  <v>       7.02378378       0.99676460 </v>
  <v>       5.91908834       0.99185503 </v>
  <v>       4.32378460       0.96300400 </v>
  <v>       2.91243966       0.88475463 </v>
  <v>       3.82230164       0.94266904 </v>
  <v>       3.82230164       0.94256441 </v>
  <v>       4.55386374       0.97018638 </v>
  <v>       5.74395726       0.99050304 </v>
  <v>       7.16771234       0.99712314 </v>
  <v>       7.16771234       0.99710976 </v>
  <v>       5.74395726       0.99045675 </v>
  <v>       4.55386374       0.97017622 </v>
  <v>       5.56331586       0.98876141 </v>
  <v>       5.37660875       0.98660013 </v>
  <v>       5.74395726       0.99050307 </v>
  <v>       6.57311597       0.99533145 </v>
  <v>       6.25465667       0.99390416 </v>
  <v>       7.02378378       0.99676459 </v>
  <v>       7.16771234       0.99712313 </v>
  <v>       6.72669422       0.99587748 </v>
  <v>       6.72669422       0.99587888 </v>
  <v>       6.25465667       0.99391610 </v>
  <v>       6.25465667       0.99391843 </v>
  <v>       4.98224832       0.98031053 </v>
  <v>       5.91908834       0.99185501 </v>
  <v>       7.16771234       0.99710976 </v>
  <v>       6.72669422       0.99587888 </v>
  <v>       5.56331586       0.98876959 </v>
  <v>       4.77286461       0.97585011 </v>
  <v>       4.55386374       0.97017284 </v>
  <v>       3.24420506       0.90950049 </v>
  <v>       4.32378460       0.96300397 </v>
  <v>       5.74395726       0.99045673 </v>
  <v>       6.25465667       0.99391612 </v>
  <v>       4.77286461       0.97584998 </v>
  <v>       3.54505686       0.92800031 </v>
  <v>       2.91243966       0.88491661 </v>
  <v>       1.53447702       0.67783175 </v>
  <v>       2.91243966       0.88475454 </v>
  <v>       4.55386374       0.97017606 </v>
  <v>       6.25465667       0.99390413 </v>
  <v>       6.25465667       0.99391845 </v>
  <v>       4.55386374       0.97017276 </v>
  <v>       2.91243966       0.88491663 </v>
  <v>       1.53447702       0.69421264 </v>
  <v>       1.74226107       0.72614484 </v>
  <v>       2.25344965       0.81778851 </v>
  <v>       3.63981896       0.93322999 </v>
  <v>       5.24844871       0.98482614 </v>
  <v>       6.92616999       0.99649521 </v>
  <v>       5.80292159       0.99098489 </v>
  <v>       4.16334066       0.95724659 </v>
  <v>       2.66844468       0.86381841 </v>
  <v>       2.25344965       0.81778855 </v>
  <v>       2.25344965       0.82287522 </v>
  <v>       3.34749464       0.91593366 </v>
  <v>       4.84366499       0.97743920 </v>
  <v>       6.46870510       0.99491065 </v>
  <v>       6.46870510       0.99490376 </v>
  <v>       4.84366499       0.97744813 </v>
  <v>       3.34749464       0.91597241 </v>
  <v>       3.63981896       0.93323014 </v>
  <v>       3.34749464       0.91593347 </v>
  <v>       3.91035085       0.94670327 </v>
  <v>       5.05011408       0.98157411 </v>
  <v>       6.46870510       0.99491464 </v>
  <v>       5.97632501       0.99225495 </v>
  <v>       4.62801565       0.97220247 </v>
  <v>       5.24844871       0.98482633 </v>
  <v>       4.84366499       0.97743913 </v>
  <v>       5.05011408       0.98157395 </v>
  <v>       5.80292159       0.99099081 </v>
  <v>       6.92616999       0.99650025 </v>
  <v>       6.14483705       0.99331015 </v>
  <v>       6.92616999       0.99649524 </v>
  <v>       6.46870510       0.99491068 </v>
  <v>       6.46870510       0.99491466 </v>
  <v>       6.92616999       0.99650025 </v>
  <v>       7.21505053       0.99722583 </v>
  <v>       5.80292159       0.99098475 </v>
  <v>       6.46870510       0.99490365 </v>
  <v>       6.77711362       0.99604230 </v>
  <v>       5.97632501       0.99226952 </v>
  <v>       5.62417436       0.98938683 </v>
  <v>       4.16334066       0.95724640 </v>
  <v>       4.84366499       0.97744760 </v>
  <v>       5.97632501       0.99225485 </v>
  <v>       5.97632501       0.99226958 </v>
  <v>       4.84366499       0.97745884 </v>
  <v>       4.16334066       0.95722206 </v>
  <v>       2.66844468       0.86381833 </v>
  <v>       3.34749464       0.91597216 </v>
  <v>       4.62801565       0.97220185 </v>
  <v>       6.14483705       0.99331006 </v>
  <v>       7.21505053       0.99722582 </v>
  <v>       5.62417436       0.98938683 </v>
  <v>       4.16334066       0.95722217 </v>
  <v>       3.02707097       0.89396770 </v>
  <v>       3.44769115       0.92236878 </v>
  <v>       3.44769115       0.92215805 </v>
  <v>       4.24432083       0.96025366 </v>
  <v>       5.50178421       0.98810043 </v>
  <v>       6.97514764       0.99663164 </v>
  <v>       6.97514764       0.99663852 </v>
  <v>       5.50178421       0.98809209 </v>
  <v>       4.24432083       0.96025342 </v>
  <v>       3.44769115       0.92215827 </v>
  <v>       3.13751695       0.90165248 </v>
  <v>       3.73217577       0.93810930 </v>
  <v>       4.91344527       0.97892571 </v>
  <v>       6.36258107       0.99443938 </v>
  <v>       5.86129276       0.99144393 </v>
  <v>       4.47848423       0.96796551 </v>
  <v>       4.24432083       0.96025373 </v>
  <v>       3.73217577       0.93810954 </v>
  <v>       3.99646064       0.95059445 </v>
  <v>       4.91344527       0.97893297 </v>
  <v>       6.19999002       0.99361651 </v>
  <v>       6.67589404       0.99569649 </v>
  <v>       5.31291519       0.98573677 </v>
  <v>       5.50178421       0.98810060 </v>
  <v>       4.91344527       0.97892588 </v>
  <v>       4.91344527       0.97893302 </v>
  <v>       5.50178421       0.98809693 </v>
  <v>       6.52111951       0.99512634 </v>
  <v>       6.52111951       0.99511434 </v>
  <v>       6.97514764       0.99663170 </v>
  <v>       6.36258107       0.99443944 </v>
  <v>       6.19999002       0.99361654 </v>
  <v>       6.52111951       0.99512636 </v>
  <v>       6.97514764       0.99663851 </v>
  <v>       6.97514764       0.99663577 </v>
  <v>       5.50178421       0.98809207 </v>
  <v>       5.86129276       0.99144378 </v>
  <v>       6.67589404       0.99569641 </v>
  <v>       6.36258107       0.99443190 </v>
  <v>       5.68438133       0.98995162 </v>
  <v>       4.24432083       0.96025319 </v>
  <v>       4.47848423       0.96796530 </v>
  <v>       5.31291519       0.98573668 </v>
  <v>       6.52111951       0.99511428 </v>
  <v>       6.97514764       0.99663578 </v>
  <v>       5.68438133       0.98995166 </v>
  <v>       4.70099805       0.97408219 </v>
  <v>       5.18318049       0.98382864 </v>
  <v>       4.98224832       0.98031613 </v>
  <v>       5.37660875       0.98658901 </v>
  <v>       6.25465667       0.99390201 </v>
  <v>       7.02378378       0.99676424 </v>
  <v>       5.91908834       0.99186912 </v>
  <v>       4.98224832       0.98031665 </v>
  <v>       4.55386374       0.97015000 </v>
  <v>       4.77286461       0.97583140 </v>
  <v>       5.56331586       0.98877348 </v>
  <v>       6.72669422       0.99588027 </v>
  <v>       7.16771234       0.99711834 </v>
  <v>       5.91908834       0.99187611 </v>
  <v>       5.37660875       0.98658914 </v>
  <v>       4.77286461       0.97583197 </v>
  <v>       4.77286461       0.97584216 </v>
  <v>       5.37660875       0.98659357 </v>
  <v>       6.41586251       0.99468437 </v>
  <v>       6.41586251       0.99467292 </v>
  <v>       6.25465667       0.99390210 </v>
  <v>       5.56331586       0.98877362 </v>
  <v>       5.37660875       0.98659375 </v>
  <v>       5.74395726       0.99049647 </v>
  <v>       6.57311597       0.99533364 </v>
  <v>       6.72669422       0.99588033 </v>
  <v>       6.41586251       0.99468443 </v>
  <v>       6.57311597       0.99533366 </v>
  <v>       7.16771234       0.99711993 </v>
  <v>       7.02378378       0.99676423 </v>
  <v>       7.16771234       0.99711832 </v>
  <v>       5.91908834       0.99186898 </v>
  <v>       5.91908834       0.99187596 </v>
  <v>       6.41586251       0.99467283 </v>
  <v>       6.41586251       0.99467447 </v>
  <v>       6.92616999       0.99649328 </v>
  <v>       6.62470432       0.99551906 </v>
  <v>       6.77711362       0.99604023 </v>
  <v>       6.62470432       0.99551914 </v>
  <v>       6.14483705       0.99330486 </v>
  <v>       6.14483705       0.99330466 </v>
  <v>       6.62470432       0.99551635 </v>
  <v>       6.77711362       0.99604030 </v>
  <v>       6.14483705       0.99330471 </v>
  <v>       5.97632501       0.99224516 </v>
  <v>       6.30884966       0.99418123 </v>
  <v>       7.07208544       0.99688881 </v>
  <v>       6.62470432       0.99551641 </v>
  <v>       6.30884966       0.99418130 </v>
  <v>       6.46870510       0.99491092 </v>
  <v>       7.07208544       0.99689056 </v>
  <v>       7.07208544       0.99688887 </v>
  <v>       7.07208544       0.99689058 </v>
  <v>       7.21505053       0.99722799 </v>
  <v>       7.21505053       0.99722796 </v>
  <v>       6.92616999       0.99650840 </v>
  <v>       7.07208544       0.99689108 </v>
  <v>       7.07208544       0.99689106 </v>
  <v>       7.07208544       0.99688956 </v>
  <v>       7.12005943       0.99700674 </v>
  <v>       7.12005943       0.99701002 </v>
  <v>       6.67589404       0.99570432 </v>
  <v>       6.67589404       0.99570477 </v>
  <v>       7.12005943       0.99700647 </v>
  <v>       6.52111951       0.99512340 </v>
  <v>       6.19999002       0.99363114 </v>
  <v>       6.36258107       0.99444482 </v>
  <v>       6.97514764       0.99663647 </v>
  <v>       7.12005943       0.99701008 </v>
  <v>       7.12005943       0.99700643 </v>
  <v>       6.19999002       0.99363102 </v>
  <v>       5.68438133       0.98996488 </v>
  <v>       5.68438133       0.98996493 </v>
  <v>       6.19999002       0.99363252 </v>
  <v>       6.67589404       0.99570441 </v>
  <v>       6.36258107       0.99444473 </v>
  <v>       5.68438133       0.98996478 </v>
  <v>       5.50178421       0.98809509 </v>
  <v>       5.86129276       0.99144843 </v>
  <v>       6.67589404       0.99570481 </v>
  <v>       6.97514764       0.99663641 </v>
  <v>       6.19999002       0.99363246 </v>
  <v>       5.86129276       0.99144833 </v>
  <v>       6.03301869       0.99264750 </v>
  <v>       5.37660875       0.98659508 </v>
  <v>       6.25465667       0.99390794 </v>
  <v>       7.02378378       0.99676585 </v>
  <v>       5.91908834       0.99188325 </v>
  <v>       5.18318049       0.98384309 </v>
  <v>       4.98224832       0.98031103 </v>
  <v>       6.25465667       0.99390789 </v>
  <v>       6.87684353       0.99635586 </v>
  <v>       7.16771234       0.99712301 </v>
  <v>       6.41586251       0.99468295 </v>
  <v>       6.08918455       0.99297529 </v>
  <v>       7.02378378       0.99676810 </v>
  <v>       6.72669422       0.99588907 </v>
  <v>       6.87684353       0.99635929 </v>
  <v>       7.02378378       0.99676591 </v>
  <v>       7.02378378       0.99676811 </v>
  <v>       6.08918455       0.99299932 </v>
  <v>       5.56331586       0.98877142 </v>
  <v>       5.56331586       0.98877409 </v>
  <v>       6.08918455       0.99299763 </v>
  <v>       5.91908834       0.99188336 </v>
  <v>       7.16771234       0.99712306 </v>
  <v>       6.72669422       0.99588905 </v>
  <v>       5.56331586       0.98877120 </v>
  <v>       4.77286461       0.97585012 </v>
  <v>       4.55386374       0.97017525 </v>
  <v>       4.98224832       0.98032597 </v>
  <v>       5.18318049       0.98384330 </v>
  <v>       6.41586251       0.99468303 </v>
  <v>       6.87684353       0.99635926 </v>
  <v>       5.56331586       0.98877389 </v>
  <v>       4.55386374       0.97017465 </v>
  <v>       4.08075380       0.95400134 </v>
  <v>       4.32378460       0.96300901 </v>
  <v>       4.98224832       0.98031128 </v>
  <v>       6.08918455       0.99297536 </v>
  <v>       6.08918455       0.99299750 </v>
  <v>       4.98224832       0.98032584 </v>
  <v>       4.32378460       0.96300835 </v>
  <v>       4.32378460       0.96304520 </v>
  <v>       3.63981896       0.93334399 </v>
  <v>       4.62801565       0.97220663 </v>
  <v>       5.97632501       0.99224714 </v>
  <v>       6.46870510       0.99490669 </v>
  <v>       5.05011408       0.98159021 </v>
  <v>       3.91035085       0.94665828 </v>
  <v>       3.34749464       0.91595436 </v>
  <v>       4.62801565       0.97220684 </v>
  <v>       5.24844871       0.98483905 </v>
  <v>       6.30884966       0.99418258 </v>
  <v>       6.30884966       0.99418236 </v>
  <v>       5.24844871       0.98484096 </v>
  <v>       4.62801565       0.97219119 </v>
  <v>       5.97632501       0.99224711 </v>
  <v>       6.30884966       0.99418254 </v>
  <v>       7.07208544       0.99688973 </v>
  <v>       6.77711362       0.99604401 </v>
  <v>       6.14483705       0.99330493 </v>
  <v>       7.21505053       0.99723183 </v>
  <v>       6.77711362       0.99605495 </v>
  <v>       6.77711362       0.99605409 </v>
  <v>       7.21505053       0.99722699 </v>
  <v>       6.46870510       0.99490678 </v>
  <v>       7.21505053       0.99723184 </v>
  <v>       6.14483705       0.99333741 </v>
  <v>       5.43955656       0.98738777 </v>
  <v>       5.24844871       0.98481813 </v>
  <v>       5.62417436       0.98939600 </v>
  <v>       5.05011408       0.98159041 </v>
  <v>       6.30884966       0.99418242 </v>
  <v>       6.77711362       0.99605494 </v>
  <v>       5.43955656       0.98738783 </v>
  <v>       4.40181407       0.96560505 </v>
  <v>       3.91035085       0.94673021 </v>
  <v>       4.16334066       0.95723589 </v>
  <v>       3.91035085       0.94665835 </v>
  <v>       5.24844871       0.98484112 </v>
  <v>       6.77711362       0.99604410 </v>
  <v>       6.77711362       0.99605407 </v>
  <v>       5.24844871       0.98481816 </v>
  <v>       3.91035085       0.94673015 </v>
  <v>       3.02707097       0.89439619 </v>
  <v>       3.02707097       0.89373522 </v>
  <v>       3.34749464       0.91595449 </v>
  <v>       4.62801565       0.97219133 </v>
  <v>       6.14483705       0.99330501 </v>
  <v>       7.21505053       0.99722695 </v>
  <v>       5.62417436       0.98939582 </v>
  <v>       4.16334066       0.95723575 </v>
  <v>       3.02707097       0.89373506 </v>
  <v>       2.66844468       0.86421441 </v>
  <v>       1.92777787       0.76630331 </v>
  <v>       3.13751695       0.90157900 </v>
  <v>       4.70099806       0.97409820 </v>
  <v>       6.36258107       0.99443524 </v>
  <v>       6.36258107       0.99443819 </v>
  <v>       4.70099806       0.97409503 </v>
  <v>       3.13751695       0.90172956 </v>
  <v>       1.92777787       0.76476489 </v>
  <v>       3.13751695       0.90157925 </v>
  <v>       3.73217577       0.93807743 </v>
  <v>       4.91344527       0.97893816 </v>
  <v>       6.36258107       0.99444023 </v>
  <v>       5.86129276       0.99142135 </v>
  <v>       4.47848423       0.96795390 </v>
  <v>       3.44769115       0.92225107 </v>
  <v>       4.70099806       0.97409837 </v>
  <v>       4.91344527       0.97893834 </v>
  <v>       5.68438133       0.98996814 </v>
  <v>       6.82716068       0.99620682 </v>
  <v>       6.03301869       0.99262748 </v>
  <v>       5.11707984       0.98274239 </v>
  <v>       6.36258107       0.99443521 </v>
  <v>       6.36258107       0.99444020 </v>
  <v>       6.82716068       0.99620682 </v>
  <v>       6.82716068       0.99619878 </v>
  <v>       7.12005943       0.99700672 </v>
  <v>       6.36258107       0.99443829 </v>
  <v>       6.67589404       0.99571082 </v>
  <v>       5.86129276       0.99145377 </v>
  <v>       5.50178421       0.98810684 </v>
  <v>       5.68438133       0.98996563 </v>
  <v>       4.70099806       0.97409560 </v>
  <v>       5.86129276       0.99142144 </v>
  <v>       5.86129276       0.99145369 </v>
  <v>       4.70099806       0.97412361 </v>
  <v>       3.99646064       0.95047842 </v>
  <v>       3.99646064       0.95053843 </v>
  <v>       3.13751695       0.90172973 </v>
  <v>       4.47848423       0.96795447 </v>
  <v>       6.03301869       0.99262755 </v>
  <v>       7.12005943       0.99700673 </v>
  <v>       5.50178421       0.98810693 </v>
  <v>       3.99646064       0.95047847 </v>
  <v>       2.79310775       0.87493854 </v>
  <v>       2.39976857       0.83653409 </v>
  <v>       1.92777787       0.76476497 </v>
  <v>       3.44769115       0.92225120 </v>
  <v>       5.11707984       0.98274264 </v>
  <v>       6.82716068       0.99619881 </v>
  <v>       5.68438133       0.98996542 </v>
  <v>       3.99646064       0.95053831 </v>
  <v>       2.39976857       0.83653408 </v>
  <v>       1.29374102       0.63862067 </v>
 </varray>
