    1    1  999    1
  0.6273947E+02  0.4460176E-09  0.4460176E-09  0.4460176E-09  0.1000000E-15
  1.000000000000000E-004
  CAR 
 Cn_FCC                                  
      8    365     18
