Cn_FCC                                  
           1
     4.432200    0.000000    0.000000
     2.216100    3.838398   -0.000000
     2.216100    1.279466    3.618876
   Kr
   1
Direct configuration=     1
   0.00000000  0.00000000  0.00000000
Cn_FCC                                  
           1
     4.433241    0.000000    0.000000
     2.216621    3.839300   -0.000000
     2.216621    1.279767    3.619726
   Kr
   1
Direct configuration=     2
   0.00000000  0.00000000  0.00000000
Cn_FCC                                  
           1
     4.460176    0.000000    0.000000
     2.230088    3.862625   -0.000000
     2.230088    1.287542    3.641718
   Kr
   1
Direct configuration=     3
   0.00000000  0.00000000  0.00000000
