    1    1  999    1
  0.3298244E+02  0.3599697E-09  0.3599697E-09  0.3599697E-09  0.1000000E-15
  1.000000000000000E-004
  CAR 
 Cn_FCC                                  
      8     56      8
 
  0.0000000E+00  0.0000000E+00  0.0000000E+00  0.7513148E-03
    1      -19.345574   1.000000
    2       -4.377370   0.665416
    3       -4.377370   0.665416
    4       -4.377370   0.665415
    5        4.451605   0.000000
    6       11.488552   0.000000
    7       11.488553   0.000000
    8       11.488559   0.000000
 
  0.9090909E-01  0.1031017E-17  0.6938894E-17  0.6010518E-02
    1      -19.323807   1.000000
    2       -4.531456   1.016811
    3       -4.392208   0.775803
    4       -4.392208   0.775803
    5        4.709539   0.000000
    6       11.157839   0.000000
    7       11.592710   0.000000
    8       11.592711   0.000000
 
  0.1818182E+00  0.2062034E-17  0.1387779E-16  0.6010518E-02
    1      -19.264595   1.000000
    2       -4.917666   1.000000
    3       -4.431511   0.973450
    4       -4.431511   0.973449
    5        5.382357   0.000000
    6       10.508466   0.000000
    7       11.750964   0.000000
    8       11.750965   0.000000
 
  0.2727273E+00  0.3093051E-17  0.0000000E+00  0.6010518E-02
    1      -19.185215   1.000000
    2       -5.377410   1.000000
    3       -4.481929   1.035394
    4       -4.481929   1.035394
    5        6.215267   0.000000
    6        9.984241   0.000000
    7       11.613007   0.000000
    8       11.613007   0.000000
 
  0.3636364E+00  0.4124068E-17  0.2775558E-16  0.6010518E-02
    1      -19.110349   1.000000
    2       -5.765845   1.000000
    3       -4.527255   1.018605
    4       -4.527255   1.018605
    5        6.872711   0.000000
    6        9.814018   0.000000
    7       11.313707   0.000000
    8       11.313707   0.000000
 
  0.4545455E+00  0.6066624E-16  0.5551115E-16  0.6010518E-02
    1      -19.064923   1.000000
    2       -5.984637   1.000000
    3       -4.553760   1.008973
    4       -4.553760   1.008973
    5        7.154919   0.000000
    6        9.914474   0.000000
    7       11.120219   0.000000
    8       11.120219   0.000000
 
  0.9090909E-01  0.9090909E-01  0.0000000E+00  0.4507889E-02
    1      -19.316575   1.000000
    2       -4.531433   1.016821
    3       -4.422297   0.940828
    4       -4.422297   0.940828
    5        4.794096   0.000000
    6       11.022935   0.000000
    7       11.659305   0.000000
    8       11.659306   0.000000
 
  0.1818182E+00  0.9090909E-01  0.1387779E-16  0.1803156E-01
    1      -19.269886   1.000000
    2       -4.818172   1.000000
    3       -4.474144   1.034914
    4       -4.451777   1.018281
    5        5.326654   0.000000
    6       10.503992   0.000000
    7       11.780912   0.000000
    8       11.855311   0.000000
 
  0.2727273E+00  0.9090909E-01  0.2775558E-16  0.1803156E-01
    1      -19.197207   1.000000
    2       -5.237963   1.000000
    3       -4.530460   1.017229
    4       -4.500228   1.030689
    5        6.118792   0.000000
    6        9.985484   0.000000
    7       11.430637   0.000000
    8       11.868458   0.000000
 
  0.3636364E+00  0.9090909E-01  0.0000000E+00  0.1803156E-01
    1      -19.120672   1.000000
    2       -5.634054   1.000000
    3       -4.573423   1.004604
    4       -4.564784   1.006250
    5        6.875623   0.000000
    6        9.689485   0.000000
    7       11.031400   0.000000
    8       11.624056   0.000000
 
  0.4545455E+00  0.9090909E-01  0.8326673E-16  0.1803156E-01
    1      -19.065185   1.000000
    2       -5.897867   1.000000
    3       -4.624604   1.000519
    4       -4.590204   1.002410
    5        7.310807   0.000000
    6        9.635609   0.000000
    7       10.914461   0.000000
    8       11.372238   0.000000
 
 -0.4545455E+00  0.9090909E-01 -0.2775558E-16  0.1803156E-01
    1      -19.049904   1.000000
    2       -5.966921   1.000000
    3       -4.660768   1.000077
    4       -4.576117   1.004169
    5        7.409755   0.000000
    6        9.658775   0.000000
    7       10.929297   0.000000
    8       11.270339   0.000000
 
 -0.3636364E+00  0.9090909E-01 -0.1387779E-16  0.1803156E-01
    1      -19.080284   1.000000
    2       -5.826349   1.000000
    3       -4.661624   1.000074
    4       -4.535390   1.015211
    5        7.225831   0.000000
    6        9.684303   0.000000
    7       10.928499   0.000000
    8       11.372010   0.000000
 
 -0.2727273E+00  0.9090909E-01 -0.3469447E-16  0.1803156E-01
    1      -19.145552   1.000000
    2       -5.509801   1.000000
    3       -4.625018   1.000508
    4       -4.480093   1.035457
    5        6.663911   0.000000
    6        9.812713   0.000000
    7       11.147479   0.000000
    8       11.665480   0.000000
 
 -0.1818182E+00  0.9090909E-01 -0.3469447E-17  0.1803156E-01
    1      -19.223583   1.000000
    2       -5.099619   1.000000
    3       -4.557831   1.007881
    4       -4.427271   0.959466
    5        5.847306   0.000000
    6       10.201964   0.000000
    7       11.505750   0.000000
    8       11.963071   0.000000
 
 -0.9090909E-01  0.9090909E-01 -0.3556640E-17  0.9015778E-02
    1      -19.289559   1.000000
    2       -4.726831   1.000001
    3       -4.470786   1.034026
    4       -4.394163   0.789116
    5        5.106591   0.000000
    6       10.748535   0.000000
    7       11.667122   0.000000
    8       11.774488   0.000000
 
  0.1818182E+00  0.1818182E+00  0.0000000E+00  0.4507889E-02
    1      -19.237920   1.000000
    2       -4.902948   1.000000
    3       -4.540544   1.013248
    4       -4.540544   1.013248
    5        5.667406   0.000000
    6       10.106878   0.000000
    7       11.923548   0.000000
    8       12.167045   0.000000
 
  0.2727273E+00  0.1818182E+00  0.2775558E-16  0.1803156E-01
    1      -19.177938   1.000000
    2       -5.191047   1.000000
    3       -4.608747   1.001090
    4       -4.607374   1.001159
    5        6.293149   0.000000
    6        9.673379   0.000000
    7       11.141480   0.000000
    8       12.397240   0.000000
 
  0.3636364E+00  0.1818182E+00  0.2775558E-16  0.1803156E-01
    1      -19.108023   1.000000
    2       -5.513980   1.000000
    3       -4.699732   1.000007
    4       -4.657432   1.000093
    5        7.018172   0.000000
    6        9.392368   0.000000
    7       10.560893   0.000000
    8       12.282659   0.000000
 
  0.4545455E+00  0.1818182E+00  0.8326673E-16  0.1803156E-01
    1      -19.050470   1.000000
    2       -5.754166   1.000000
    3       -4.809748   1.000000
    4       -4.672251   1.000040
    5        7.615051   0.000000
    6        9.191667   0.000000
    7       10.440860   0.000000
    8       12.008645   0.000000
 
 -0.4545455E+00  0.1818182E+00 -0.6938894E-16  0.1803156E-01
    1      -19.024673   1.000000
    2       -5.848760   1.000000
    3       -4.900887   1.000000
    4       -4.649107   1.000147
    5        7.959092   0.000000
    6        9.048503   0.000000
    7       10.569068   0.000000
    8       11.802510   0.000000
 
 -0.3636364E+00  0.1818182E+00 -0.6938894E-17  0.1803156E-01
    1      -19.039636   1.000000
    2       -5.781000   1.000000
    3       -4.936843   1.000000
    4       -4.594810   1.001994
    5        7.923670   0.000000
    6        9.233927   0.000000
    7       10.380523   0.000000
    8       11.766532   0.000000
 
 -0.2727273E+00  0.1818182E+00 -0.2428613E-16  0.1803156E-01
    1      -19.090084   1.000000
    2       -5.583237   1.000000
    3       -4.889873   1.000000
    4       -4.525482   1.019385
    5        7.416627   0.000000
    6        9.654522   0.000000
    7       10.257493   0.000000
    8       11.935251   0.000000
 
 -0.1818182E+00  0.1818182E+00 -0.7113279E-17  0.9015778E-02
    1      -19.158818   1.000000
    2       -5.331304   1.000000
    3       -4.749027   1.000000
    4       -4.462725   1.029816
    5        6.609374   0.000000
    6        9.894877   0.000000
    7       10.829068   0.000000
    8       12.273417   0.000000
 
  0.2727273E+00  0.2727273E+00  0.5551115E-16  0.4507889E-02
    1      -19.133050   1.000000
    2       -5.320588   1.000000
    3       -4.690717   1.000013
    4       -4.690717   1.000013
    5        6.622824   0.000000
    6        9.246460   0.000000
    7       10.874747   0.000000
    8       12.998844   0.000000
 
  0.3636364E+00  0.2727273E+00  0.2775558E-16  0.1803156E-01
    1      -19.076111   1.000000
    2       -5.526538   1.000000
    3       -4.788052   1.000000
    4       -4.750854   1.000000
    5        7.033571   0.000000
    6        8.974780   0.000000
    7       10.575760   0.000000
    8       13.212123   0.000000
 
  0.4545455E+00  0.2727273E+00  0.5551115E-16  0.1803156E-01
    1      -19.025134   1.000000
    2       -5.674723   1.000000
    3       -4.946916   1.000000
    4       -4.771583   1.000000
    5        7.471514   0.000000
    6        8.913471   0.000000
    7       10.397429   0.000000
    8       12.979981   0.000000
 
 -0.4545455E+00  0.2727273E+00 -0.7632783E-16  0.1803156E-01
    1      -18.996941   1.000000
    2       -5.704719   1.000000
    3       -5.132906   1.000000
    4       -4.747149   1.000000
    5        7.935318   0.000000
    6        8.878920   0.000000
    7       10.400790   0.000000
    8       12.658237   0.000000
 
 -0.3636364E+00  0.2727273E+00 -0.6938894E-17  0.1803156E-01
    1      -19.001086   1.000000
    2       -5.633241   1.000000
    3       -5.256814   1.000000
    4       -4.684550   1.000019
    5        8.510457   0.000000
    6        8.703535   0.000000
    7       10.200849   0.000000
    8       12.399135   0.000000
 
 -0.2727273E+00  0.2727273E+00  0.5626849E-17  0.9015778E-02
    1      -19.036084   1.000000
    2       -5.594570   1.000000
    3       -5.161300   1.000000
    4       -4.602128   1.001460
    5        8.225063   0.000000
    6        9.243558   0.000000
    7        9.836267   0.000000
    8       12.196913   0.000000
 
  0.3636364E+00  0.3636364E+00  0.0000000E+00  0.4507889E-02
    1      -19.034743   1.000000
    2       -5.654289   1.000000
    3       -4.824360   1.000000
    4       -4.824360   1.000000
    5        6.982363   0.000000
    6        8.624900   0.000000
    7       10.900802   0.000000
    8       14.136374   0.000000
 
  0.4545455E+00  0.3636364E+00  0.5551115E-16  0.1803156E-01
    1      -18.997080   1.000000
    2       -5.748017   1.000000
    3       -4.928416   1.000000
    4       -4.856488   1.000000
    5        7.071303   0.000000
    6        8.528264   0.000000
    7       11.048189   0.000000
    8       14.213422   0.000000
 
 -0.4545455E+00  0.3636364E+00 -0.2775558E-16  0.1803156E-01
    1      -18.975455   1.000000
    2       -5.722982   1.000000
    3       -5.129577   1.000000
    4       -4.838323   1.000000
    5        7.370135   0.000000
    6        8.687179   0.000000
    7       10.930641   0.000000
    8       13.738315   0.000000
 
 -0.3636364E+00  0.3636364E+00 -0.1422656E-16  0.9015778E-02
    1      -18.977013   1.000000
    2       -5.571712   1.000000
    3       -5.366631   1.000000
    4       -4.774944   1.000000
    5        7.866386   0.000000
    6        8.897922   0.000000
    7       10.545607   0.000000
    8       13.106422   0.000000
 
  0.4545455E+00  0.4545455E+00  0.5551115E-16  0.4507889E-02
    1      -18.975414   1.000000
    2       -5.834857   1.000000
    3       -4.901934   1.000000
    4       -4.901934   1.000000
    5        6.856714   0.000000
    6        8.303936   0.000000
    7       11.557148   0.000000
    8       15.547179   0.000000
 
 -0.4545455E+00  0.4545455E+00 -0.2824174E-16  0.9015778E-02
    1      -18.967330   1.000000
    2       -5.824128   1.000000
    3       -4.981130   1.000000
    4       -4.895265   1.000000
    5        6.964508   0.000000
    6        8.376036   0.000000
    7       11.496899   0.000000
    8       14.852716   0.000000
 
  0.2727273E+00  0.1818182E+00  0.9090909E-01  0.1803156E-01
    1      -19.216481   1.000000
    2       -5.065434   1.000000
    3       -4.598215   1.001727
    4       -4.475380   1.035129
    5        5.922325   0.000000
    6       10.066511   0.000000
    7       11.421694   0.000000
    8       12.261492   0.000000
 
  0.3636364E+00  0.1818182E+00  0.9090909E-01  0.3606311E-01
    1      -19.145093   1.000000
    2       -5.395198   1.000000
    3       -4.713925   1.000003
    4       -4.522056   1.020924
    5        6.712664   0.000000
    6        9.712625   0.000000
    7       10.785169   0.000000
    8       12.151490   0.000000
 
  0.4545455E+00  0.1818182E+00  0.9090909E-01  0.3606311E-01
    1      -19.077986   1.000000
    2       -5.692531   1.000000
    3       -4.788755   1.000000
    4       -4.581858   1.003354
    5        7.414484   0.000000
    6        9.465724   0.000000
    7       10.471392   0.000000
    8       11.836502   0.000000
 
 -0.4545455E+00  0.1818182E+00  0.9090909E-01  0.3606311E-01
    1      -19.037383   1.000000
    2       -5.865004   1.000000
    3       -4.822888   1.000000
    4       -4.624263   1.000527
    5        7.781969   0.000000
    6        9.251064   0.000000
    7       10.605365   0.000000
    8       11.641361   0.000000
 
  0.3636364E+00  0.2727273E+00  0.9090909E-01  0.1803156E-01
    1      -19.119378   1.000000
    2       -5.401189   1.000000
    3       -4.759630   1.000000
    4       -4.638353   1.000260
    5        6.864484   0.000000
    6        9.352020   0.000000
    7       10.577290   0.000000
    8       12.846019   0.000000
 
  0.4545455E+00  0.2727273E+00  0.9090909E-01  0.3606311E-01
    1      -19.058875   1.000000
    2       -5.600195   1.000000
    3       -4.897997   1.000000
    4       -4.694584   1.000010
    5        7.487153   0.000000
    6        9.207265   0.000000
    7       10.135649   0.000000
    8       12.649144   0.000000
 
 -0.4545455E+00  0.2727273E+00  0.9090909E-01  0.3606311E-01
    1      -19.016059   1.000000
    2       -5.720537   1.000000
    3       -5.018864   1.000000
    4       -4.728704   1.000001
    5        8.018443   0.000000
    6        8.984968   0.000000
    7       10.182546   0.000000
    8       12.341300   0.000000
 
 -0.3636364E+00  0.2727273E+00  0.9090909E-01  0.3606311E-01
    1      -19.005423   1.000000
    2       -5.732466   1.000000
    3       -5.098136   1.000000
    4       -4.710407   1.000004
    5        8.476693   0.000000
    6        8.680019   0.000000
    7       10.272002   0.000000
    8       12.157618   0.000000
 
 -0.2727273E+00  0.2727273E+00  0.9090909E-01  0.3606311E-01
    1      -19.030637   1.000000
    2       -5.654233   1.000000
    3       -5.083013   1.000000
    4       -4.649689   1.000143
    5        8.165470   0.000000
    6        9.157776   0.000000
    7        9.920535   0.000000
    8       12.207731   0.000000
 
 -0.1818182E+00  0.2727273E+00  0.9090909E-01  0.1803156E-01
    1      -19.083004   1.000000
    2       -5.534919   1.000000
    3       -4.938613   1.000000
    4       -4.575764   1.004224
    5        7.488485   0.000000
    6        9.600067   0.000000
    7        9.980572   0.000000
    8       12.331940   0.000000
 
  0.4545455E+00  0.3636364E+00  0.9090909E-01  0.1803156E-01
    1      -19.028725   1.000000
    2       -5.649421   1.000000
    3       -4.902904   1.000000
    4       -4.808591   1.000000
    5        7.259914   0.000000
    6        8.811661   0.000000
    7       10.529134   0.000000
    8       13.575884   0.000000
 
 -0.4545455E+00  0.3636364E+00  0.9090909E-01  0.3606311E-01
    1      -18.992479   1.000000
    2       -5.684663   1.000000
    3       -5.073069   1.000000
    4       -4.843713   1.000000
    5        7.571746   0.000000
    6        8.886728   0.000000
    7       10.444862   0.000000
    8       13.208449   0.000000
 
 -0.3636364E+00  0.3636364E+00  0.9090909E-01  0.3606311E-01
    1      -18.979350   1.000000
    2       -5.600344   1.000000
    3       -5.289360   1.000000
    4       -4.815566   1.000000
    5        7.977399   0.000000
    6        9.003151   0.000000
    7       10.327750   0.000000
    8       12.694703   0.000000
 
 -0.2727273E+00  0.3636364E+00  0.9090909E-01  0.1803156E-01
    1      -18.993700   1.000000
    2       -5.531993   1.000000
    3       -5.355556   1.000000
    4       -4.740269   1.000000
    5        8.441160   0.000000
    6        8.953746   0.000000
    7        9.959657   0.000000
    8       12.455857   0.000000
 
 -0.4545455E+00  0.4545455E+00  0.9090909E-01  0.1803156E-01
    1      -18.974197   1.000000
    2       -5.775373   1.000000
    3       -4.985918   1.000000
    4       -4.916518   1.000000
    5        7.132842   0.000000
    6        8.526931   0.000000
    7       11.177197   0.000000
    8       14.128077   0.000000
 
 -0.3636364E+00  0.4545455E+00  0.9090909E-01  0.1803156E-01
    1      -18.967608   1.000000
    2       -5.694757   1.000000
    3       -5.156554   1.000000
    4       -4.898461   1.000000
    5        7.455990   0.000000
    6        8.782176   0.000000
    7       10.880602   0.000000
    8       13.314895   0.000000
 
 -0.4545455E+00  0.3636364E+00  0.1818182E+00  0.1803156E-01
    1      -19.013092   1.000000
    2       -5.619931   1.000000
    3       -5.105642   1.000000
    4       -4.769284   1.000000
    5        7.957232   0.000000
    6        9.310408   0.000000
    7        9.696912   0.000000
    8       12.724338   0.000000
 
 -0.3636364E+00  0.3636364E+00  0.1818182E+00  0.3606311E-01
    1      -18.985591   1.000000
    2       -5.588774   1.000000
    3       -5.254723   1.000000
    4       -4.833441   1.000000
    5        8.221000   0.000000
    6        9.211454   0.000000
    7        9.872108   0.000000
    8       12.391633   0.000000
 
 -0.3636364E+00  0.4545455E+00  0.1818182E+00  0.1803156E-01
    1      -18.971438   1.000000
    2       -5.611690   1.000000
    3       -5.201912   1.000000
    4       -4.938281   1.000000
    5        7.777513   0.000000
    6        9.139045   0.000000
    7       10.314960   0.000000
    8       12.632121   0.000000
 
 -0.2727273E+00  0.4545455E+00  0.1818182E+00  0.1803156E-01
    1      -18.968887   1.000000
    2       -5.466775   1.000000
    3       -5.385821   1.000000
    4       -4.931265   1.000000
    5        8.027316   0.000000
    6        9.445875   0.000000
    7        9.993738   0.000000
    8       12.184294   0.000000
