    1    1  999    1
  0.3297678E+02  0.3599491E-09  0.3599491E-09  0.3599491E-09  0.1000000E-15
  1.000000000000000E-004
  CAR 
 Cn_FCC                                  
      8    260     18
 
  0.0000000E+00  0.0000000E+00  0.0000000E+00  0.1953125E-02
    1      -19.345328   1.000000
    2      -19.345313   1.000000
    3       -4.507371   1.005765
    4       -4.507364   1.005766
    5       -4.312607   0.625106
    6       -4.312601   0.625060
    7       -4.312596   0.625017
    8       -4.312590   0.624968
    9        4.451585   0.000000
   10        4.451593   0.000000
   11       11.487640   0.000000
   12       11.487645   0.000000
   13       11.487648   0.000000
   14       11.487652   0.000000
   15       11.490573   0.000000
   16       11.490576   0.000000
   17       13.888917   0.000000
   18       13.888917   0.000000
 
  0.1250000E+00 -0.5521165E-17 -0.6938894E-17  0.3906250E-02
    1      -19.305039   1.000000
    2      -19.305024   1.000000
    3       -4.692890   1.000000
    4       -4.692876   1.000000
    5       -4.433882   1.033053
    6       -4.433880   1.033054
    7       -4.340143   0.826194
    8       -4.340143   0.826192
    9        4.924379   0.000000
   10        4.924386   0.000000
   11       10.922756   0.000000
   12       10.922768   0.000000
   13       11.664288   0.000000
   14       11.664289   0.000000
   15       11.666455   0.000000
   16       11.666456   0.000000
   17       13.597094   0.000000
   18       13.597223   0.000000
 
  0.2500000E+00 -0.1104233E-16 -0.1387779E-16  0.3906250E-02
    1      -19.205424   1.000000
    2      -19.205409   1.000000
    3       -5.273984   1.000000
    4       -5.273969   1.000000
    5       -4.523954   1.003122
    6       -4.523953   1.003123
    7       -4.405221   1.031312
    8       -4.405221   1.031311
    9        6.009952   0.000000
   10        6.009958   0.000000
   11       10.087660   0.000000
   12       10.087668   0.000000
   13       11.675982   0.000000
   14       11.675984   0.000000
   15       11.679025   0.000000
   16       11.679026   0.000000
   17       13.722241   0.000000
   18       13.722722   0.000000
 
  0.3750000E+00 -0.2350239E-16 -0.2775558E-16  0.3906250E-02
    1      -19.102354   1.000000
    2      -19.102339   1.000000
    3       -5.809441   1.000000
    4       -5.809426   1.000000
    5       -4.590373   1.000139
    6       -4.590372   1.000139
    7       -4.468403   1.018216
    8       -4.468403   1.018216
    9        6.928549   0.000000
   10        6.928554   0.000000
   11        9.818619   0.000000
   12        9.818627   0.000000
   13       11.279238   0.000000
   14       11.279240   0.000000
   15       11.282272   0.000000
   16       11.282274   0.000000
   17       14.840104   0.000000
   18       14.840483   0.000000
 
  0.5000000E+00 -0.2208466E-16 -0.2775558E-16  0.1953125E-02
    1      -19.058580   1.000000
    2      -19.058565   1.000000
    3       -6.017778   1.000000
    4       -6.017764   1.000000
    5       -4.616468   1.000031
    6       -4.616467   1.000031
    7       -4.494052   1.008962
    8       -4.494052   1.008962
    9        7.183821   0.000000
   10        7.183829   0.000000
   11        9.942183   0.000000
   12        9.942199   0.000000
   13       11.093013   0.000000
   14       11.093015   0.000000
   15       11.096028   0.000000
   16       11.096031   0.000000
   17       15.640619   0.000000
   18       15.641264   0.000000
 
  0.0000000E+00  0.1250000E+00 -0.6938894E-17  0.3906250E-02
    1      -19.305039   1.000000
    2      -19.305024   1.000000
    3       -4.692890   1.000000
    4       -4.692876   1.000000
    5       -4.433883   1.033053
    6       -4.433879   1.033054
    7       -4.340146   0.826211
    8       -4.340140   0.826175
    9        4.924379   0.000000
   10        4.924386   0.000000
   11       10.922756   0.000000
   12       10.922768   0.000000
   13       11.664287   0.000000
   14       11.664291   0.000000
   15       11.666454   0.000000
   16       11.666458   0.000000
   17       13.597121   0.000000
   18       13.597405   0.000000
 
  0.1250000E+00  0.1250000E+00 -0.2775558E-16  0.3906250E-02
    1      -19.291679   1.000000
    2      -19.291664   1.000000
    3       -4.699601   1.000000
    4       -4.699588   1.000000
    5       -4.479257   1.013817
    6       -4.479253   1.013819
    7       -4.395942   1.023274
    8       -4.395937   1.023268
    9        5.076831   0.000000
   10        5.076839   0.000000
   11       10.695322   0.000000
   12       10.695334   0.000000
   13       11.808500   0.000000
   14       11.808504   0.000000
   15       11.813161   0.000000
   16       11.813166   0.000000
   17       12.785274   0.000000
   18       12.785279   0.000000
 
  0.2500000E+00  0.1250000E+00 -0.2775558E-16  0.3906250E-02
    1      -19.211942   1.000000
    2      -19.211927   1.000000
    3       -5.116198   1.000000
    4       -5.116183   1.000000
    5       -4.583523   1.000201
    6       -4.583520   1.000201
    7       -4.468559   1.018148
    8       -4.468555   1.018150
    9        5.958431   0.000000
   10        5.958439   0.000000
   11       10.010997   0.000000
   12       10.011008   0.000000
   13       11.470788   0.000000
   14       11.470793   0.000000
   15       12.050422   0.000000
   16       12.050432   0.000000
   17       12.788333   0.000000
   18       12.788343   0.000000
 
  0.3750000E+00  0.1250000E+00 -0.5551115E-16  0.3906250E-02
    1      -19.109707   1.000000
    2      -19.109692   1.000000
    3       -5.629363   1.000000
    4       -5.629348   1.000000
    5       -4.670032   1.000001
    6       -4.670029   1.000001
    7       -4.550409   1.001022
    8       -4.550407   1.001022
    9        7.012740   0.000000
   10        7.012745   0.000000
   11        9.569002   0.000000
   12        9.569008   0.000000
   13       10.798460   0.000000
   14       10.798466   0.000000
   15       11.797830   0.000000
   16       11.797837   0.000000
   17       14.002554   0.000000
   18       14.002563   0.000000
 
  0.5000000E+00  0.1250000E+00  0.0000000E+00  0.3906250E-02
    1      -19.045550   1.000000
    2      -19.045535   1.000000
    3       -5.919249   1.000000
    4       -5.919235   1.000000
    5       -4.742588   1.000000
    6       -4.742577   1.000000
    7       -4.582803   1.000209
    8       -4.582792   1.000209
    9        7.557946   0.000000
   10        7.557954   0.000000
   11        9.433089   0.000000
   12        9.433104   0.000000
   13       10.788422   0.000000
   14       10.788431   0.000000
   15       11.475901   0.000000
   16       11.475907   0.000000
   17       15.338942   0.000000
   18       15.339860   0.000000
 
 -0.3750000E+00  0.1250000E+00  0.2775558E-16  0.3906250E-02
    1      -19.060062   1.000000
    2      -19.060047   1.000000
    3       -5.852135   1.000000
    4       -5.852120   1.000000
    5       -4.767858   1.000000
    6       -4.767844   1.000000
    7       -4.540177   1.001606
    8       -4.540163   1.001607
    9        7.493256   0.000000
   10        7.493262   0.000000
   11        9.538003   0.000000
   12        9.538016   0.000000
   13       10.711577   0.000000
   14       10.711586   0.000000
   15       11.465493   0.000000
   16       11.465499   0.000000
   17       14.627885   0.000000
   18       14.627898   0.000000
 
 -0.2500000E+00  0.1250000E+00  0.6938894E-17  0.3906250E-02
    1      -19.143863   1.000000
    2      -19.143847   1.000000
    3       -5.467239   1.000000
    4       -5.467224   1.000000
    5       -4.708114   1.000000
    6       -4.708100   1.000000
    7       -4.458733   1.022561
    8       -4.458719   1.022567
    9        6.729413   0.000000
   10        6.729419   0.000000
   11        9.810255   0.000000
   12        9.810263   0.000000
   13       10.926312   0.000000
   14       10.926317   0.000000
   15       11.846446   0.000000
   16       11.846452   0.000000
   17       13.207644   0.000000
   18       13.207653   0.000000
 
 -0.1250000E+00  0.1250000E+00  0.6892323E-17  0.3906250E-02
    1      -19.244941   1.000000
    2      -19.244926   1.000000
    3       -4.980791   1.000000
    4       -4.980776   1.000000
    5       -4.563843   1.000545
    6       -4.563829   1.000545
    7       -4.385460   1.007438
    8       -4.385447   1.007414
    9        5.612147   0.000000
   10        5.612154   0.000000
   11       10.360217   0.000000
   12       10.360230   0.000000
   13       11.547580   0.000000
   14       11.547587   0.000000
   15       12.024557   0.000000
   16       12.024569   0.000000
   17       12.766037   0.000000
   18       12.766043   0.000000
 
  0.0000000E+00  0.2500000E+00 -0.1387779E-16  0.3906250E-02
    1      -19.205424   1.000000
    2      -19.205409   1.000000
    3       -5.273984   1.000000
    4       -5.273969   1.000000
    5       -4.523956   1.003122
    6       -4.523951   1.003123
    7       -4.405224   1.031313
    8       -4.405218   1.031310
    9        6.009952   0.000000
   10        6.009958   0.000000
   11       10.087660   0.000000
   12       10.087668   0.000000
   13       11.675981   0.000000
   14       11.675985   0.000000
   15       11.679024   0.000000
   16       11.679028   0.000000
   17       13.721804   0.000000
   18       13.723243   0.000000
 
  0.1250000E+00  0.2500000E+00 -0.2775558E-16  0.3906250E-02
    1      -19.211942   1.000000
    2      -19.211927   1.000000
    3       -5.116198   1.000000
    4       -5.116183   1.000000
    5       -4.583525   1.000201
    6       -4.583519   1.000201
    7       -4.468561   1.018148
    8       -4.468554   1.018151
    9        5.958431   0.000000
   10        5.958439   0.000000
   11       10.010997   0.000000
   12       10.011008   0.000000
   13       11.470788   0.000000
   14       11.470794   0.000000
   15       12.050422   0.000000
   16       12.050432   0.000000
   17       12.788333   0.000000
   18       12.788342   0.000000
 
  0.2500000E+00  0.2500000E+00 -0.5551115E-16  0.3906250E-02
    1      -19.159762   1.000000
    2      -19.159747   1.000000
    3       -5.233714   1.000000
    4       -5.233699   1.000000
    5       -4.702016   1.000000
    6       -4.702011   1.000000
    7       -4.590755   1.000137
    8       -4.590750   1.000137
    9        6.414117   0.000000
   10        6.414126   0.000000
   11        9.443181   0.000000
   12        9.443193   0.000000
   13       11.058461   0.000000
   14       11.058466   0.000000
   15       12.756021   0.000000
   16       12.756025   0.000000
   17       12.766980   0.000000
   18       12.766984   0.000000
 
  0.3750000E+00  0.2500000E+00 -0.5551115E-16  0.3906250E-02
    1      -19.077716   1.000000
    2      -19.077701   1.000000
    3       -5.543411   1.000000
    4       -5.543395   1.000000
    5       -4.821952   1.000000
    6       -4.821943   1.000000
    7       -4.694201   1.000000
    8       -4.694194   1.000000
    9        7.110727   0.000000
   10        7.110739   0.000000
   11        9.066170   0.000000
   12        9.066181   0.000000
   13       10.477515   0.000000
   14       10.477521   0.000000
   15       12.941873   0.000000
   16       12.941881   0.000000
   17       13.828664   0.000000
   18       13.828674   0.000000
 
  0.5000000E+00  0.2500000E+00 -0.5551115E-16  0.3906250E-02
    1      -19.013615   1.000000
    2      -19.013599   1.000000
    3       -5.730962   1.000000
    4       -5.730947   1.000000
    5       -5.017856   1.000000
    6       -5.017841   1.000000
    7       -4.725294   1.000000
    8       -4.725280   1.000000
    9        7.799867   0.000000
   10        7.799877   0.000000
   11        8.940076   0.000000
   12        8.940081   0.000000
   13       10.344174   0.000000
   14       10.344184   0.000000
   15       12.556612   0.000000
   16       12.556618   0.000000
   17       15.118556   0.000000
   18       15.122807   0.000000
 
 -0.3750000E+00  0.2500000E+00  0.6938894E-17  0.3906250E-02
    1      -19.006837   1.000000
    2      -19.006822   1.000000
    3       -5.698347   1.000000
    4       -5.698332   1.000000
    5       -5.174938   1.000000
    6       -5.174922   1.000000
    7       -4.660788   1.000002
    8       -4.660772   1.000002
    9        8.487010   0.000000
   10        8.487018   0.000000
   11        8.705992   0.000000
   12        8.706009   0.000000
   13       10.245795   0.000000
   14       10.245806   0.000000
   15       12.243989   0.000000
   16       12.243994   0.000000
   17       14.734448   0.000000
   18       14.734496   0.000000
 
 -0.2500000E+00  0.2500000E+00  0.1378465E-16  0.3906250E-02
    1      -19.061545   1.000000
    2      -19.061529   1.000000
    3       -5.587522   1.000000
    4       -5.587507   1.000000
    5       -5.052316   1.000000
    6       -5.052301   1.000000
    7       -4.551774   1.000961
    8       -4.551759   1.000961
    9        7.854886   0.000000
   10        7.854892   0.000000
   11        9.636350   0.000000
   12        9.636358   0.000000
   13        9.769552   0.000000
   14        9.769564   0.000000
   15       12.122912   0.000000
   16       12.122917   0.000000
   17       13.493594   0.000000
   18       13.493607   0.000000
 
 -0.1250000E+00  0.2500000E+00  0.2081668E-16  0.3906250E-02
    1      -19.143863   1.000000
    2      -19.143847   1.000000
    3       -5.467239   1.000000
    4       -5.467224   1.000000
    5       -4.708115   1.000000
    6       -4.708100   1.000000
    7       -4.458733   1.022561
    8       -4.458719   1.022567
    9        6.729413   0.000000
   10        6.729419   0.000000
   11        9.810255   0.000000
   12        9.810263   0.000000
   13       10.926313   0.000000
   14       10.926317   0.000000
   15       11.846446   0.000000
   16       11.846452   0.000000
   17       13.207644   0.000000
   18       13.207653   0.000000
 
  0.0000000E+00  0.3750000E+00 -0.2775558E-16  0.3906250E-02
    1      -19.102354   1.000000
    2      -19.102339   1.000000
    3       -5.809441   1.000000
    4       -5.809427   1.000000
    5       -4.590375   1.000139
    6       -4.590370   1.000139
    7       -4.468406   1.018215
    8       -4.468400   1.018217
    9        6.928549   0.000000
   10        6.928554   0.000000
   11        9.818619   0.000000
   12        9.818627   0.000000
   13       11.279237   0.000000
   14       11.279241   0.000000
   15       11.282272   0.000000
   16       11.282275   0.000000
   17       14.839964   0.000000
   18       14.841456   0.000000
 
  0.1250000E+00  0.3750000E+00 -0.2775558E-16  0.3906250E-02
    1      -19.109707   1.000000
    2      -19.109692   1.000000
    3       -5.629363   1.000000
    4       -5.629348   1.000000
    5       -4.670034   1.000001
    6       -4.670027   1.000001
    7       -4.550411   1.001022
    8       -4.550405   1.001022
    9        7.012740   0.000000
   10        7.012745   0.000000
   11        9.569002   0.000000
   12        9.569008   0.000000
   13       10.798460   0.000000
   14       10.798466   0.000000
   15       11.797830   0.000000
   16       11.797837   0.000000
   17       14.002554   0.000000
   18       14.002563   0.000000
 
  0.2500000E+00  0.3750000E+00 -0.5551115E-16  0.3906250E-02
    1      -19.077716   1.000000
    2      -19.077701   1.000000
    3       -5.543410   1.000000
    4       -5.543395   1.000000
    5       -4.821952   1.000000
    6       -4.821943   1.000000
    7       -4.694202   1.000000
    8       -4.694193   1.000000
    9        7.110727   0.000000
   10        7.110739   0.000000
   11        9.066170   0.000000
   12        9.066181   0.000000
   13       10.477515   0.000000
   14       10.477521   0.000000
   15       12.941873   0.000000
   16       12.941881   0.000000
   17       13.828664   0.000000
   18       13.828674   0.000000
 
  0.3750000E+00  0.3750000E+00 -0.5551115E-16  0.3906250E-02
    1      -19.024359   1.000000
    2      -19.024344   1.000000
    3       -5.694271   1.000000
    4       -5.694256   1.000000
    5       -4.890718   1.000000
    6       -4.890713   1.000000
    7       -4.777280   1.000000
    8       -4.777275   1.000000
    9        6.977127   0.000000
   10        6.977142   0.000000
   11        8.567666   0.000000
   12        8.567678   0.000000
   13       10.976426   0.000000
   14       10.976434   0.000000
   15       14.290167   0.000000
   16       14.290227   0.000000
   17       14.307638   0.000000
   18       14.307841   0.000000
 
  0.5000000E+00  0.3750000E+00 -0.5551115E-16  0.3906250E-02
    1      -18.980957   1.000000
    2      -18.980942   1.000000
    3       -5.774144   1.000000
    4       -5.774129   1.000000
    5       -5.021467   1.000000
    6       -5.021454   1.000000
    7       -4.840003   1.000000
    8       -4.839990   1.000000
    9        7.139461   0.000000
   10        7.139478   0.000000
   11        8.536987   0.000000
   12        8.536999   0.000000
   13       11.113364   0.000000
   14       11.113374   0.000000
   15       14.163871   0.000000
   16       14.163878   0.000000
   17       15.420557   0.000000
   18       15.420994   0.000000
 
 -0.3750000E+00  0.3750000E+00 -0.3993249E-16  0.3906250E-02
    1      -18.973744   1.000000
    2      -18.973729   1.000000
    3       -5.629807   1.000000
    4       -5.629792   1.000000
    5       -5.310428   1.000000
    6       -5.310413   1.000000
    7       -4.785377   1.000000
    8       -4.785362   1.000000
    9        7.723030   0.000000
   10        7.723046   0.000000
   11        8.860943   0.000000
   12        8.860952   0.000000
   13       10.668907   0.000000
   14       10.668918   0.000000
   15       13.284765   0.000000
   16       13.284771   0.000000
   17       15.101600   0.000000
   18       15.101810   0.000000
 
 -0.2500000E+00  0.3750000E+00 -0.6938894E-17  0.3906250E-02
    1      -19.006837   1.000000
    2      -19.006822   1.000000
    3       -5.698347   1.000000
    4       -5.698332   1.000000
    5       -5.174938   1.000000
    6       -5.174922   1.000000
    7       -4.660788   1.000002
    8       -4.660772   1.000002
    9        8.487010   0.000000
   10        8.487018   0.000000
   11        8.705992   0.000000
   12        8.706009   0.000000
   13       10.245795   0.000000
   14       10.245806   0.000000
   15       12.243989   0.000000
   16       12.243994   0.000000
   17       14.734449   0.000000
   18       14.734562   0.000000
 
 -0.1250000E+00  0.3750000E+00 -0.2775558E-16  0.3906250E-02
    1      -19.060062   1.000000
    2      -19.060047   1.000000
    3       -5.852134   1.000000
    4       -5.852120   1.000000
    5       -4.767858   1.000000
    6       -4.767844   1.000000
    7       -4.540177   1.001606
    8       -4.540163   1.001607
    9        7.493256   0.000000
   10        7.493262   0.000000
   11        9.538003   0.000000
   12        9.538016   0.000000
   13       10.711577   0.000000
   14       10.711586   0.000000
   15       11.465493   0.000000
   16       11.465499   0.000000
   17       14.627885   0.000000
   18       14.627897   0.000000
 
  0.0000000E+00  0.5000000E+00 -0.2775558E-16  0.1953125E-02
    1      -19.058580   1.000000
    2      -19.058565   1.000000
    3       -6.017778   1.000000
    4       -6.017764   1.000000
    5       -4.616470   1.000031
    6       -4.616464   1.000031
    7       -4.494055   1.008961
    8       -4.494049   1.008962
    9        7.183821   0.000000
   10        7.183830   0.000000
   11        9.942183   0.000000
   12        9.942199   0.000000
   13       11.093012   0.000000
   14       11.093016   0.000000
   15       11.096028   0.000000
   16       11.096031   0.000000
   17       15.640577   0.000000
   18       15.641665   0.000000
 
  0.1250000E+00  0.5000000E+00 -0.8326673E-16  0.3906250E-02
    1      -19.045550   1.000000
    2      -19.045535   1.000000
    3       -5.919249   1.000000
    4       -5.919235   1.000000
    5       -4.742588   1.000000
    6       -4.742576   1.000000
    7       -4.582803   1.000209
    8       -4.582792   1.000209
    9        7.557946   0.000000
   10        7.557954   0.000000
   11        9.433089   0.000000
   12        9.433104   0.000000
   13       10.788422   0.000000
   14       10.788431   0.000000
   15       11.475901   0.000000
   16       11.475908   0.000000
   17       15.339071   0.000000
   18       15.339700   0.000000
 
  0.2500000E+00  0.5000000E+00 -0.5551115E-16  0.3906250E-02
    1      -19.013615   1.000000
    2      -19.013599   1.000000
    3       -5.730962   1.000000
    4       -5.730947   1.000000
    5       -5.017857   1.000000
    6       -5.017841   1.000000
    7       -4.725294   1.000000
    8       -4.725280   1.000000
    9        7.799867   0.000000
   10        7.799877   0.000000
   11        8.940076   0.000000
   12        8.940082   0.000000
   13       10.344174   0.000000
   14       10.344184   0.000000
   15       12.556611   0.000000
   16       12.556618   0.000000
   17       15.118548   0.000000
   18       15.118576   0.000000
 
  0.3750000E+00  0.5000000E+00  0.0000000E+00  0.3906250E-02
    1      -18.980957   1.000000
    2      -18.980942   1.000000
    3       -5.774144   1.000000
    4       -5.774129   1.000000
    5       -5.021467   1.000000
    6       -5.021454   1.000000
    7       -4.840003   1.000000
    8       -4.839990   1.000000
    9        7.139461   0.000000
   10        7.139478   0.000000
   11        8.536987   0.000000
   12        8.536999   0.000000
   13       11.113364   0.000000
   14       11.113374   0.000000
   15       14.163871   0.000000
   16       14.163887   0.000000
   17       15.420686   0.000000
   18       15.424747   0.000000
 
  0.5000000E+00  0.5000000E+00 -0.1110223E-15  0.1953125E-02
    1      -18.967211   1.000000
    2      -18.967196   1.000000
    3       -5.865067   1.000000
    4       -5.865052   1.000000
    5       -4.965560   1.000000
    6       -4.965555   1.000000
    7       -4.852307   1.000000
    8       -4.852302   1.000000
    9        6.825140   0.000000
   10        6.825157   0.000000
   11        8.263401   0.000000
   12        8.263413   0.000000
   13       11.685982   0.000000
   14       11.685992   0.000000
   15       15.639990   0.000000
   16       15.670301   0.000000
   17       16.193870   0.000000
   18       16.208330   0.000000
 
  0.0000000E+00  0.1540744E-32  0.1250000E+00  0.3906250E-02
    1      -19.305039   1.000000
    2      -19.305024   1.000000
    3       -4.692890   1.000000
    4       -4.692877   1.000000
    5       -4.433885   1.033052
    6       -4.433877   1.033054
    7       -4.340148   0.826223
    8       -4.340138   0.826163
    9        4.924379   0.000000
   10        4.924386   0.000000
   11       10.922756   0.000000
   12       10.922768   0.000000
   13       11.664286   0.000000
   14       11.664292   0.000000
   15       11.666453   0.000000
   16       11.666459   0.000000
   17       13.596915   0.000000
   18       13.597437   0.000000
 
  0.1250000E+00  0.4103435E-17  0.1250000E+00  0.3906250E-02
    1      -19.291679   1.000000
    2      -19.291664   1.000000
    3       -4.699600   1.000000
    4       -4.699588   1.000000
    5       -4.479258   1.013817
    6       -4.479252   1.013819
    7       -4.395943   1.023276
    8       -4.395935   1.023267
    9        5.076831   0.000000
   10        5.076839   0.000000
   11       10.695323   0.000000
   12       10.695334   0.000000
   13       11.808499   0.000000
   14       11.808505   0.000000
   15       11.813160   0.000000
   16       11.813166   0.000000
   17       12.785274   0.000000
   18       12.785279   0.000000
 
  0.2500000E+00 -0.1529552E-16  0.1250000E+00  0.3906250E-02
    1      -19.211942   1.000000
    2      -19.211927   1.000000
    3       -5.116198   1.000000
    4       -5.116183   1.000000
    5       -4.583524   1.000201
    6       -4.583519   1.000201
    7       -4.468560   1.018148
    8       -4.468555   1.018150
    9        5.958431   0.000000
   10        5.958439   0.000000
   11       10.010997   0.000000
   12       10.011008   0.000000
   13       11.470788   0.000000
   14       11.470793   0.000000
   15       12.050422   0.000000
   16       12.050432   0.000000
   17       12.788333   0.000000
   18       12.788342   0.000000
 
  0.3750000E+00 -0.2775558E-16  0.1250000E+00  0.3906250E-02
    1      -19.109707   1.000000
    2      -19.109692   1.000000
    3       -5.629363   1.000000
    4       -5.629348   1.000000
    5       -4.670032   1.000001
    6       -4.670029   1.000001
    7       -4.550410   1.001022
    8       -4.550407   1.001022
    9        7.012740   0.000000
   10        7.012745   0.000000
   11        9.569002   0.000000
   12        9.569008   0.000000
   13       10.798460   0.000000
   14       10.798466   0.000000
   15       11.797830   0.000000
   16       11.797837   0.000000
   17       14.002554   0.000000
   18       14.002563   0.000000
 
  0.5000000E+00 -0.2633785E-16  0.1250000E+00  0.3906250E-02
    1      -19.045550   1.000000
    2      -19.045535   1.000000
    3       -5.919249   1.000000
    4       -5.919235   1.000000
    5       -4.742588   1.000000
    6       -4.742577   1.000000
    7       -4.582803   1.000209
    8       -4.582792   1.000209
    9        7.557946   0.000000
   10        7.557954   0.000000
   11        9.433089   0.000000
   12        9.433104   0.000000
   13       10.788422   0.000000
   14       10.788431   0.000000
   15       11.475901   0.000000
   16       11.475908   0.000000
   17       15.338934   0.000000
   18       15.339267   0.000000
 
 -0.3750000E+00  0.1924920E-16  0.1250000E+00  0.3906250E-02
    1      -19.060062   1.000000
    2      -19.060047   1.000000
    3       -5.852135   1.000000
    4       -5.852120   1.000000
    5       -4.767858   1.000000
    6       -4.767844   1.000000
    7       -4.540177   1.001606
    8       -4.540163   1.001607
    9        7.493256   0.000000
   10        7.493262   0.000000
   11        9.538003   0.000000
   12        9.538016   0.000000
   13       10.711578   0.000000
   14       10.711586   0.000000
   15       11.465493   0.000000
   16       11.465499   0.000000
   17       14.627885   0.000000
   18       14.627898   0.000000
 
 -0.2500000E+00  0.6789141E-17  0.1250000E+00  0.3906250E-02
    1      -19.143863   1.000000
    2      -19.143847   1.000000
    3       -5.467239   1.000000
    4       -5.467224   1.000000
    5       -4.708114   1.000000
    6       -4.708100   1.000000
    7       -4.458733   1.022561
    8       -4.458719   1.022567
    9        6.729413   0.000000
   10        6.729419   0.000000
   11        9.810255   0.000000
   12        9.810263   0.000000
   13       10.926313   0.000000
   14       10.926317   0.000000
   15       11.846446   0.000000
   16       11.846452   0.000000
   17       13.207643   0.000000
   18       13.207653   0.000000
 
 -0.1250000E+00  0.2208466E-16  0.1250000E+00  0.3906250E-02
    1      -19.244941   1.000000
    2      -19.244926   1.000000
    3       -4.980791   1.000000
    4       -4.980776   1.000000
    5       -4.563843   1.000545
    6       -4.563830   1.000545
    7       -4.385460   1.007439
    8       -4.385447   1.007414
    9        5.612147   0.000000
   10        5.612154   0.000000
   11       10.360218   0.000000
   12       10.360230   0.000000
   13       11.547580   0.000000
   14       11.547587   0.000000
   15       12.024557   0.000000
   16       12.024569   0.000000
   17       12.766037   0.000000
   18       12.766043   0.000000
 
  0.0000000E+00  0.1250000E+00  0.1250000E+00  0.3906250E-02
    1      -19.291679   1.000000
    2      -19.291664   1.000000
    3       -4.699599   1.000000
    4       -4.699589   1.000000
    5       -4.479259   1.013817
    6       -4.479251   1.013820
    7       -4.395946   1.023279
    8       -4.395932   1.023264
    9        5.076831   0.000000
   10        5.076839   0.000000
   11       10.695322   0.000000
   12       10.695334   0.000000
   13       11.808498   0.000000
   14       11.808506   0.000000
   15       11.813159   0.000000
   16       11.813168   0.000000
   17       12.785274   0.000000
   18       12.785279   0.000000
 
  0.1250000E+00  0.1250000E+00  0.1250000E+00  0.3906250E-02
    1      -19.305039   1.000000
    2      -19.305024   1.000000
    3       -4.692889   1.000000
    4       -4.692878   1.000000
    5       -4.433887   1.033052
    6       -4.433875   1.033055
    7       -4.340151   0.826241
    8       -4.340135   0.826143
    9        4.924379   0.000000
   10        4.924386   0.000000
   11       10.922757   0.000000
   12       10.922767   0.000000
   13       11.664283   0.000000
   14       11.664294   0.000000
   15       11.666450   0.000000
   16       11.666461   0.000000
   17       13.596625   0.000000
   18       13.597639   0.000000
 
  0.2500000E+00  0.1250000E+00  0.1250000E+00  0.3906250E-02
    1      -19.244941   1.000000
    2      -19.244926   1.000000
    3       -4.980791   1.000000
    4       -4.980776   1.000000
    5       -4.563843   1.000545
    6       -4.563830   1.000545
    7       -4.385460   1.007440
    8       -4.385446   1.007412
    9        5.612147   0.000000
   10        5.612155   0.000000
   11       10.360218   0.000000
   12       10.360229   0.000000
   13       11.547579   0.000000
   14       11.547587   0.000000
   15       12.024557   0.000000
   16       12.024569   0.000000
   17       12.766037   0.000000
   18       12.766043   0.000000
 
  0.3750000E+00  0.1250000E+00  0.1250000E+00  0.3906250E-02
    1      -19.143863   1.000000
    2      -19.143847   1.000000
    3       -5.467239   1.000000
    4       -5.467224   1.000000
    5       -4.708114   1.000000