       N       E                     dE             d eps       ncg     rms          rms(c)
DAV:   1     0.453587000225E+02    0.45359E+02   -0.39051E+03   896   0.908E+02
DAV:   2     0.110595027326E+01   -0.44253E+02   -0.42127E+02  1272   0.139E+02
DAV:   3     0.223475305449E-01   -0.10836E+01   -0.10839E+01  1216   0.293E+01
DAV:   4     0.165372912181E-01   -0.58102E-02   -0.58102E-02  1480   0.230E+00
DAV:   5     0.165129603218E-01   -0.24331E-04   -0.24331E-04  1328   0.146E-01    0.800E-02
RMM:   6     0.166278271604E-01    0.11487E-03   -0.33721E-04   896   0.161E-01    0.309E-02
RMM:   7     0.166046768074E-01   -0.23150E-04   -0.15960E-04   896   0.112E-01    0.105E-02
RMM:   8     0.165921349094E-01   -0.12542E-04   -0.94348E-06   896   0.439E-02    0.211E-03
RMM:   9     0.165918673987E-01   -0.26751E-06   -0.73116E-07   907   0.865E-03    0.990E-04
RMM:  10     0.165916645191E-01   -0.20288E-06   -0.13429E-07   698   0.521E-03    0.393E-04
RMM:  11     0.165916481039E-01   -0.16415E-07   -0.38762E-08   640   0.236E-03
   1 F= -.26051994E+00 E0= -.26128634E+00  d E =-.260520E+00
