Cn_FCC                                  
           1
     3.599491    0.000000    0.000000
     1.799745    3.117250   -0.000000
     1.799745    1.039083    2.938972
   Ar
   1
Direct configuration=     1
   0.00000000  0.00000000  0.00000000
Cn_FCC                                  
           1
     3.599697    0.000000    0.000000
     1.799848    3.117429   -0.000000
     1.799848    1.039143    2.939140
   Ar
   1
Direct configuration=     2
   0.00000000  0.00000000  0.00000000
