   1   1   0   0
  0.6339106E+02  0.4475563E-09  0.4475563E-09  0.4475563E-09  0.1000000E-15
  1.000000000000000E-004
  CAR 
 Og_FCC                                  
     16.14583771    -33.40737873  301      3.04162802      1.00000000
    -33.407  0.0000E+00  0.0000E+00
    -33.242  0.0000E+00  0.0000E+00
    -33.077  0.0000E+00  0.0000E+00
    -32.912  0.0000E+00  0.0000E+00
    -32.747  0.0000E+00  0.0000E+00
    -32.581  0.0000E+00  0.0000E+00
    -32.416  0.0000E+00  0.0000E+00
    -32.251  0.0000E+00  0.0000E+00
    -32.086 -0.1157E-35 -0.1911E-36
    -31.921 -0.1472E-23 -0.2431E-24
    -31.756 -0.7622E-14 -0.1259E-14
    -31.590 -0.1479E-06 -0.2442E-07
    -31.425 -0.1016E-01 -0.1679E-02
    -31.260 -0.7288E+00 -0.1221E+00
    -31.095  0.2289E+02  0.3659E+01
    -30.930  0.2149E+01  0.4014E+01
    -30.765 -0.8271E-01  0.4000E+01
    -30.599 -0.6582E-05  0.4000E+01
    -30.434 -0.1654E-11  0.4000E+01
    -30.269  0.0000E+00  0.4000E+01
    -30.104  0.0000E+00  0.4000E+01
    -29.939  0.0000E+00  0.4000E+01
    -29.773  0.0000E+00  0.4000E+01
    -29.608  0.0000E+00  0.4000E+01
    -29.443  0.0000E+00  0.4000E+01
    -29.278  0.0000E+00  0.4000E+01
    -29.113  0.0000E+00  0.4000E+01
    -28.948  0.0000E+00  0.4000E+01
    -28.782  0.0000E+00  0.4000E+01
    -28.617  0.0000E+00  0.4000E+01
    -28.452  0.0000E+00  0.4000E+01
    -28.287  0.0000E+00  0.4000E+01
    -28.122  0.0000E+00  0.4000E+01
    -27.957  0.0000E+00  0.4000E+01
    -27.791  0.0000E+00  0.4000E+01
    -27.626  0.0000E+00  0.4000E+01
    -27.461  0.0000E+00  0.4000E+01
    -27.296  0.0000E+00  0.4000E+01
    -27.131  0.0000E+00  0.4000E+01
    -26.965  0.0000E+00  0.4000E+01
    -26.800  0.0000E+00  0.4000E+01
    -26.635  0.0000E+00  0.4000E+01
    -26.470  0.0000E+00  0.4000E+01
    -26.305  0.0000E+00  0.4000E+01
    -26.140  0.0000E+00  0.4000E+01
    -25.974  0.0000E+00  0.4000E+01
    -25.809  0.0000E+00  0.4000E+01
    -25.644  0.0000E+00  0.4000E+01
    -25.479  0.0000E+00  0.4000E+01
    -25.314 -0.1933E-29  0.4000E+01
    -25.149 -0.1785E-18  0.4000E+01
    -24.983 -0.6430E-10  0.4000E+01
    -24.818 -0.8906E-04  0.4000E+01
    -24.653 -0.3568E+00  0.3941E+01
    -24.488  0.1020E+02  0.5625E+01
    -24.323  0.2768E+02  0.1020E+02
    -24.157 -0.1189E+01  0.1000E+02
    -23.992 -0.3052E-02  0.1000E+02
    -23.827 -0.1549E-07  0.1000E+02
    -23.662  0.0000E+00  0.1000E+02
    -23.497  0.0000E+00  0.1000E+02
    -23.332  0.0000E+00  0.1000E+02
    -23.166  0.0000E+00  0.1000E+02
    -23.001  0.0000E+00  0.1000E+02
    -22.836  0.0000E+00  0.1000E+02
    -22.671  0.0000E+00  0.1000E+02
    -22.506  0.0000E+00  0.1000E+02
    -22.340  0.0000E+00  0.1000E+02
    -22.175  0.0000E+00  0.1000E+02
    -22.010  0.0000E+00  0.1000E+02
    -21.845  0.0000E+00  0.1000E+02
    -21.680 -0.1481E-30  0.1000E+02
    -21.515 -0.9515E-20  0.1000E+02
    -21.349 -0.2654E-11  0.1000E+02
    -21.184 -0.3561E-05  0.1000E+02
    -21.019 -0.2466E-01  0.9996E+01
    -20.854  0.3477E+00  0.1005E+02
    -20.689  0.1154E+02  0.1196E+02
    -20.524  0.2620E+00  0.1200E+02
    -20.358 -0.2031E-01  0.1200E+02
    -20.193 -0.1141E-05  0.1200E+02
    -20.028 -0.2277E-12  0.1200E+02
    -19.863  0.0000E+00  0.1200E+02
    -19.698  0.0000E+00  0.1200E+02
    -19.532  0.0000E+00  0.1200E+02
    -19.367  0.0000E+00  0.1200E+02
    -19.202  0.0000E+00  0.1200E+02
    -19.037  0.0000E+00  0.1200E+02
    -18.872  0.0000E+00  0.1200E+02
    -18.707  0.0000E+00  0.1200E+02
    -18.541  0.0000E+00  0.1200E+02
    -18.376  0.0000E+00  0.1200E+02
    -18.211  0.0000E+00  0.1200E+02
    -18.046  0.0000E+00  0.1200E+02
    -17.881  0.0000E+00  0.1200E+02
    -17.716  0.0000E+00  0.1200E+02
    -17.550  0.0000E+00  0.1200E+02
    -17.385  0.0000E+00  0.1200E+02
    -17.220  0.0000E+00  0.1200E+02
    -17.055  0.0000E+00  0.1200E+02
    -16.890  0.0000E+00  0.1200E+02
    -16.724  0.0000E+00  0.1200E+02
    -16.559  0.0000E+00  0.1200E+02
    -16.394  0.0000E+00  0.1200E+02
    -16.229  0.0000E+00  0.1200E+02
    -16.064  0.0000E+00  0.1200E+02
    -15.899  0.0000E+00  0.1200E+02
    -15.733  0.0000E+00  0.1200E+02
    -15.568  0.0000E+00  0.1200E+02
    -15.403  0.0000E+00  0.1200E+02
    -15.238  0.0000E+00  0.1200E+02
    -15.073  0.0000E+00  0.1200E+02
    -14.908  0.0000E+00  0.1200E+02
    -14.742  0.0000E+00  0.1200E+02
    -14.577  0.0000E+00  0.1200E+02
    -14.412  0.0000E+00  0.1200E+02
    -14.247  0.0000E+00  0.1200E+02
    -14.082  0.0000E+00  0.1200E+02
    -13.916  0.0000E+00  0.1200E+02
    -13.751  0.0000E+00  0.1200E+02
    -13.586  0.0000E+00  0.1200E+02
    -13.421  0.0000E+00  0.1200E+02
    -13.256  0.0000E+00  0.1200E+02
    -13.091  0.0000E+00  0.1200E+02
    -12.925  0.0000E+00  0.1200E+02
    -12.760  0.0000E+00  0.1200E+02
    -12.595  0.0000E+00  0.1200E+02
    -12.430  0.0000E+00  0.1200E+02
    -12.265  0.0000E+00  0.1200E+02
    -12.099  0.0000E+00  0.1200E+02
    -11.934  0.0000E+00  0.1200E+02
    -11.769  0.0000E+00  0.1200E+02
    -11.604  0.0000E+00  0.1200E+02
    -11.439  0.0000E+00  0.1200E+02
    -11.274  0.0000E+00  0.1200E+02
    -11.108  0.0000E+00  0.1200E+02
    -10.943  0.0000E+00  0.1200E+02
    -10.778  0.0000E+00  0.1200E+02
    -10.613  0.0000E+00  0.1200E+02
    -10.448  0.0000E+00  0.1200E+02
    -10.283  0.0000E+00  0.1200E+02
    -10.117  0.0000E+00  0.1200E+02
     -9.952  0.0000E+00  0.1200E+02
     -9.787  0.0000E+00  0.1200E+02
     -9.622  0.0000E+00  0.1200E+02
     -9.457  0.0000E+00  0.1200E+02
     -9.291  0.0000E+00  0.1200E+02
     -9.126  0.0000E+00  0.1200E+02
     -8.961  0.0000E+00  0.1200E+02
     -8.796 -0.2257E-28  0.1200E+02
     -8.631 -0.7390E-18  0.1200E+02
     -8.466 -0.9797E-10  0.1200E+02
     -8.300 -0.5370E-04  0.1200E+02
     -8.135 -0.9606E-01  0.1198E+02
     -7.970  0.2418E+01  0.1238E+02
     -7.805  0.8337E+01  0.1376E+02
     -7.640  0.1425E+01  0.1400E+02
     -7.475  0.2789E-01  0.1400E+02
     -7.309 -0.3086E-02  0.1400E+02
     -7.144 -0.8477E-06  0.1400E+02
     -6.979 -0.1117E-11  0.1400E+02
     -6.814  0.0000E+00  0.1400E+02
     -6.649  0.0000E+00  0.1400E+02
     -6.483  0.0000E+00  0.1400E+02
     -6.318  0.0000E+00  0.1400E+02
     -6.153  0.0000E+00  0.1400E+02
     -5.988  0.0000E+00  0.1400E+02
     -5.823  0.0000E+00  0.1400E+02
     -5.658  0.0000E+00  0.1400E+02
     -5.492  0.0000E+00  0.1400E+02
     -5.327  0.0000E+00  0.1400E+02
     -5.162  0.0000E+00  0.1400E+02
     -4.997  0.0000E+00  0.1400E+02
     -4.832  0.0000E+00  0.1400E+02
     -4.667  0.0000E+00  0.1400E+02
     -4.501  0.0000E+00  0.1400E+02
     -4.336  0.0000E+00  0.1400E+02
     -4.171  0.0000E+00  0.1400E+02
     -4.006  0.0000E+00  0.1400E+02
     -3.841  0.0000E+00  0.1400E+02
     -3.675  0.0000E+00  0.1400E+02
     -3.510  0.0000E+00  0.1400E+02
     -3.345  0.0000E+00  0.1400E+02
     -3.180  0.0000E+00  0.1400E+02
     -3.015  0.0000E+00  0.1400E+02
     -2.850  0.0000E+00  0.1400E+02
     -2.684  0.0000E+00  0.1400E+02
     -2.519  0.0000E+00  0.1400E+02
     -2.354  0.0000E+00  0.1400E+02
     -2.189  0.0000E+00  0.1400E+02
     -2.024  0.0000E+00  0.1400E+02
     -1.858  0.0000E+00  0.1400E+02
     -1.693  0.0000E+00  0.1400E+02
     -1.528  0.0000E+00  0.1400E+02
     -1.363  0.0000E+00  0.1400E+02
     -1.198  0.0000E+00  0.1400E+02
     -1.033  0.0000E+00  0.1400E+02
     -0.867  0.0000E+00  0.1400E+02
     -0.702 -0.2200E-38  0.1400E+02
     -0.537 -0.4179E-26  0.1400E+02
     -0.372 -0.3268E-16  0.1400E+02
     -0.207 -0.9913E-09  0.1400E+02
     -0.042 -0.1217E-03  0.1400E+02
      0.124 -0.5701E-01  0.1399E+02
      0.289  0.1368E+01  0.1422E+02
      0.454  0.6401E+01  0.1527E+02
      0.619  0.1756E+01  0.1556E+02
      0.784  0.7671E+00  0.1569E+02
      0.950  0.7754E+00  0.1582E+02
      1.115  0.2599E+00  0.1586E+02
      1.280  0.9281E+00  0.1601E+02
      1.445  0.2098E+01  0.1636E+02
      1.610  0.1577E+01  0.1662E+02
      1.775  0.1534E+01  0.1688E+02
      1.941  0.1576E+01  0.1714E+02
      2.106  0.1330E+01  0.1736E+02
      2.271  0.9429E+00  0.1751E+02
      2.436  0.1237E+01  0.1772E+02
      2.601  0.7904E+00  0.1785E+02
      2.766  0.5478E+00  0.1794E+02
      2.932  0.2910E+00  0.1798E+02
      3.097  0.1075E+00  0.1800E+02
      3.262  0.4698E-02  0.1800E+02
      3.427 -0.3626E-03  0.1800E+02
      3.592 -0.2458E-06  0.1800E+02
      3.758 -0.1849E-07  0.1800E+02
      3.923 -0.3202E-03  0.1800E+02
      4.088  0.6780E-02  0.1800E+02
      4.253  0.1271E+00  0.1802E+02
      4.418  0.5347E-01  0.1803E+02
      4.583  0.4732E-01  0.1804E+02
      4.749 -0.8508E-02  0.1804E+02
      4.914  0.1513E+00  0.1807E+02
      5.079  0.1308E+00  0.1809E+02
      5.244  0.3438E+00  0.1814E+02
      5.409  0.1232E+00  0.1816E+02
      5.574  0.2378E+00  0.1820E+02
      5.740  0.5199E+00  0.1829E+02
      5.905  0.7348E+00  0.1841E+02
      6.070  0.1568E+01  0.1867E+02
      6.235  0.9870E+00  0.1883E+02
      6.400  0.5190E+00  0.1892E+02
      6.566  0.2237E+01  0.1929E+02
      6.731  0.1716E+01  0.1957E+02
      6.896  0.1083E+01  0.1975E+02
      7.061  0.1314E+01  0.1997E+02
      7.226  0.3025E+00  0.2002E+02
      7.391  0.1813E+00  0.2005E+02
      7.557  0.6656E+00  0.2016E+02
      7.722  0.2198E+00  0.2019E+02
      7.887  0.8571E+00  0.2033E+02
      8.052  0.4256E+01  0.2104E+02
      8.217  0.7954E+00  0.2117E+02
      8.383  0.1065E+01  0.2134E+02
      8.548  0.7911E+00  0.2148E+02
      8.713  0.1215E+01  0.2168E+02
      8.878  0.2058E+01  0.2202E+02
      9.043  0.2517E+01  0.2243E+02
      9.208  0.1723E+01  0.2272E+02
      9.374  0.5799E+00  0.2281E+02
      9.539  0.1051E+01  0.2299E+02
      9.704  0.2783E+01  0.2345E+02
      9.869  0.2207E+01  0.2381E+02
     10.034  0.7214E+00  0.2393E+02
     10.199  0.8825E+00  0.2407E+02
     10.365  0.1367E+01  0.2430E+02
     10.530  0.1416E+01  0.2453E+02
     10.695  0.3101E+01  0.2505E+02
     10.860  0.2235E+01  0.2542E+02
     11.025  0.9465E+00  0.2557E+02
     11.191  0.1688E+01  0.2585E+02
     11.356  0.1442E+01  0.2609E+02
     11.521  0.7442E+00  0.2621E+02
     11.686  0.8494E+00  0.2635E+02
     11.851  0.2511E+01  0.2677E+02
     12.016  0.1299E+01  0.2698E+02
     12.182  0.1469E+01  0.2722E+02
     12.347  0.4693E+00  0.2730E+02
     12.512  0.1436E+01  0.2754E+02
     12.677  0.1328E+01  0.2776E+02
     12.842  0.2595E+00  0.2780E+02
     13.007  0.2072E-01  0.2780E+02
     13.173  0.4652E+00  0.2788E+02
     13.338  0.8554E-01  0.2790E+02
     13.503  0.3588E+00  0.2795E+02
     13.668  0.1235E+00  0.2798E+02
     13.833  0.1067E+00  0.2799E+02
     13.999  0.4417E-01  0.2800E+02
     14.164 -0.1781E-02  0.2800E+02
     14.329 -0.1101E-04  0.2800E+02
     14.494 -0.1372E-09  0.2800E+02
     14.659 -0.7376E-17  0.2800E+02
     14.824  0.0000E+00  0.2800E+02
     14.990  0.0000E+00  0.2800E+02
     15.155  0.0000E+00  0.2800E+02
     15.320  0.0000E+00  0.2800E+02
     15.485  0.0000E+00  0.2800E+02
     15.650  0.0000E+00  0.2800E+02
     15.815  0.0000E+00  0.2800E+02
     15.981  0.0000E+00  0.2800E+02
     16.146  0.0000E+00  0.2800E+02
