    1    1    1    1
  0.6339106E+02  0.4475563E-09  0.4475563E-09  0.4475563E-09  0.1000000E-15
  1.000000000000000E-004
  CAR 
 Og_FCC                                  
     18    365     28
 
  0.0000000E+00  0.0000000E+00  0.0000000E+00  0.1371742E-02
    1      -31.154960   1.000000
    2      -31.154960   1.000000
    3      -31.154960   1.000000
    4      -31.154959   1.000000
    5      -24.464268   1.000000
    6      -24.464268   1.000000
    7      -24.461696   1.000000
    8      -24.461696   1.000000
    9      -24.461696   1.000000
   10      -24.461696   1.000000
   11      -20.847981   1.000000
   12      -20.847980   1.000000
   13       -7.634581   1.000000
   14       -7.634580   1.000000
   15        2.999632   0.823025
   16        2.999633   0.823022
   17        2.999633   0.823021
   18        2.999633   0.823021
   19        3.096077   0.106453
   20        3.096078   0.106446
   21       10.015583   0.000000
   22       10.015585   0.000000
   23       10.015586   0.000000
   24       10.015589   0.000000
   25       10.403689   0.000000
   26       10.403690   0.000000
   27       10.465674   0.000000
   28       10.465678   0.000000
 
  0.1111111E+00 -0.5945640E-17 -0.6938894E-17  0.2743484E-02
    1      -31.154909   1.000000
    2      -31.154909   1.000000
    3      -31.154732   1.000000
    4      -31.154731   1.000000
    5      -24.463733   1.000000
    6      -24.463733   1.000000
    7      -24.461758   1.000000
    8      -24.461757   1.000000
    9      -24.461079   1.000000
   10      -24.461079   1.000000
   11      -20.839219   1.000000
   12      -20.839218   1.000000
   13       -7.666874   1.000000
   14       -7.666874   1.000000
   15        2.005002   1.000000
   16        2.005003   1.000000
   17        2.937695   1.028742
   18        2.937695   1.028742
   19        4.155529  -0.000000
   20        4.155530  -0.000000
   21        9.290688   0.000000
   22        9.290690   0.000000
   23       10.125900   0.000000
   24       10.125900   0.000000
   25       10.404306   0.000000
   26       10.404316   0.000000
   27       11.507668   0.000000
   28       11.712696   0.000000
 
  0.2222222E+00 -0.3964686E-16 -0.1387779E-16  0.2743484E-02
    1      -31.154768   1.000000
    2      -31.154768   1.000000
    3      -31.154130   1.000000
    4      -31.154130   1.000000
    5      -24.462967   1.000000
    6      -24.462967   1.000000
    7      -24.461345   1.000000
    8      -24.461345   1.000000
    9      -24.459521   1.000000
   10      -24.459521   1.000000
   11      -20.816729   1.000000
   12      -20.816727   1.000000
   13       -7.748551   1.000000
   14       -7.748551   1.000000
   15        1.155447   1.000000
   16        1.155448   1.000000
   17        2.789794   1.001066
   18        2.789794   1.001066
   19        5.060178  -0.000000
   20        5.060179  -0.000000
   21        8.976241   0.000000
   22        8.976242   0.000000
   23       10.109806   0.000000
   24       10.109809   0.000000
   25       10.460514   0.000000
   26       10.460717   0.000000
   27       11.046314   0.000000
   28       11.535740   0.000000
 
  0.3333333E+00  0.3073534E-16  0.2775558E-16  0.2743484E-02
    1      -31.154588   1.000000
    2      -31.154587   1.000000
    3      -31.153456   1.000000
    4      -31.153456   1.000000
    5      -24.463135   1.000000
    6      -24.463135   1.000000
    7      -24.459851   1.000000
    8      -24.459850   1.000000
    9      -24.457749   1.000000
   10      -24.457749   1.000000
   11      -20.790860   1.000000
   12      -20.790859   1.000000
   13       -7.841528   1.000000
   14       -7.841527   1.000000
   15        0.561641   1.000000
   16        0.561642   1.000000
   17        2.634710   1.000000
   18        2.634711   1.000000
   19        5.465781  -0.000000
   20        5.465784  -0.000000
   21        9.405222   0.000000
   22        9.405225   0.000000
   23        9.775387   0.000000
   24        9.775388   0.000000
   25       10.166437   0.000000
   26       10.166438   0.000000
   27       10.569598   0.000000
   28       10.569600   0.000000
 
  0.4444444E+00 -0.7929371E-16 -0.2775558E-16  0.2743484E-02
    1      -31.154500   1.000000
    2      -31.154500   1.000000
    3      -31.153015   1.000000
    4      -31.153015   1.000000
    5      -24.463386   1.000000
    6      -24.463386   1.000000
    7      -24.458737   1.000000
    8      -24.458737   1.000000
    9      -24.456594   1.000000
   10      -24.456594   1.000000
   11      -20.773865   1.000000
   12      -20.773864   1.000000
   13       -7.902355   1.000000
   14       -7.902355   1.000000
   15        0.257532   1.000000
   16        0.257533   1.000000
   17        2.539768   1.000000
   18        2.539768   1.000000
   19        5.529596  -0.000000
   20        5.529599  -0.000000
   21        9.537624   0.000000
   22        9.537624   0.000000
   23        9.701937   0.000000
   24        9.701944   0.000000
   25        9.914271   0.000000
   26        9.914272   0.000000
   27       10.919002   0.000000
   28       10.919004   0.000000
 
  0.1925930E-33  0.1111111E+00  0.0000000E+00  0.2743484E-02
    1      -31.154910   1.000000
    2      -31.154909   1.000000
    3      -31.154731   1.000000
    4      -31.154731   1.000000
    5      -24.463733   1.000000
    6      -24.463733   1.000000
    7      -24.461758   1.000000
    8      -24.461757   1.000000
    9      -24.461079   1.000000
   10      -24.461078   1.000000
   11      -20.839219   1.000000
   12      -20.839218   1.000000
   13       -7.666874   1.000000
   14       -7.666874   1.000000
   15        2.005002   1.000000
   16        2.005003   1.000000
   17        2.937695   1.028742
   18        2.937695   1.028742
   19        4.155529  -0.000000
   20        4.155530  -0.000000
   21        9.290688   0.000000
   22        9.290690   0.000000
   23       10.125899   0.000000
   24       10.125902   0.000000
   25       10.404307   0.000000
   26       10.404316   0.000000
   27       11.532277   0.000000
   28       11.614589   0.000000
 
  0.1111111E+00  0.1111111E+00  0.0000000E+00  0.2743484E-02
    1      -31.154824   1.000000
    2      -31.154824   1.000000
    3      -31.154707   1.000000
    4      -31.154707   1.000000
    5      -24.463636   1.000000
    6      -24.463635   1.000000
    7      -24.461401   1.000000
    8      -24.461401   1.000000
    9      -24.461166   1.000000
   10      -24.461166   1.000000
   11      -20.836283   1.000000
   12      -20.836282   1.000000
   13       -7.677268   1.000000
   14       -7.677267   1.000000
   15        1.909343   1.000000
   16        1.909344   1.000000
   17        2.793092   1.001236
   18        2.793093   1.001236
   19        4.413208  -0.000000
   20        4.413209  -0.000000
   21        9.029791   0.000000
   22        9.029793   0.000000
   23       10.139240   0.000000
   24       10.139242   0.000000
   25       10.663173   0.000000
   26       10.663245   0.000000
   27       10.852413   0.000000
   28       10.852695   0.000000
 
  0.2222222E+00  0.1111111E+00 -0.2775558E-16  0.2743484E-02
    1      -31.154692   1.000000
    2      -31.154692   1.000000
    3      -31.154243   1.000000
    4      -31.154243   1.000000
    5      -24.462925   1.000000
    6      -24.462925   1.000000
    7      -24.461340   1.000000
    8      -24.461339   1.000000
    9      -24.459758   1.000000
   10      -24.459758   1.000000
   11      -20.818352   1.000000
   12      -20.818351   1.000000
   13       -7.741547   1.000000
   14       -7.741546   1.000000
   15        1.278539   1.000000
   16        1.278539   1.000000
   17        2.611286   1.000000
   18        2.611287   1.000000
   19        5.217465  -0.000000
   20        5.217466  -0.000000
   21        8.634023   0.000000
   22        8.634025   0.000000
   23        9.725827   0.000000
   24        9.725829   0.000000
   25       10.541441   0.000000
   26       10.541444   0.000000
   27       11.153265   0.000000
   28       11.153453   0.000000
 
  0.3333333E+00  0.1111111E+00  0.0000000E+00  0.2743484E-02
    1      -31.154528   1.000000
    2      -31.154528   1.000000
    3      -31.153629   1.000000
    4      -31.153629   1.000000
    5      -24.462662   1.000000
    6      -24.462662   1.000000
    7      -24.460372   1.000000
    8      -24.460371   1.000000
    9      -24.458018   1.000000
   10      -24.458017   1.000000
   11      -20.793651   1.000000
   12      -20.793650   1.000000
   13       -7.829493   1.000000
   14       -7.829493   1.000000
   15        0.696102   1.000000
   16        0.696103   1.000000
   17        2.412315   1.000000
   18        2.412315   1.000000
   19        5.791842   0.000000
   20        5.791844   0.000000
   21        8.821679   0.000000
   22        8.821681   0.000000
   23        9.156129   0.000000
   24        9.156131   0.000000
   25       10.426834   0.000000
   26       10.426839   0.000000
   27       11.759872   0.000000
   28       11.867499   0.000000
 
  0.4444444E+00  0.1111111E+00 -0.5551115E-16  0.2743484E-02
    1      -31.154385   1.000000
    2      -31.154385   1.000000
    3      -31.153122   1.000000
    4      -31.153122   1.000000
    5      -24.462839   1.000000
    6      -24.462839   1.000000
    7      -24.458974   1.000000
    8      -24.458974   1.000000
    9      -24.456858   1.000000
   10      -24.456858   1.000000
   11      -20.773650   1.000000
   12      -20.773649   1.000000
   13       -7.899816   1.000000
   14       -7.899815   1.000000
   15        0.334913   1.000000
   16        0.334914   1.000000
   17        2.257819   1.000000
   18        2.257819   1.000000
   19        5.961752   0.000000
   20        5.961755   0.000000
   21        8.652259   0.000000
   22        8.652261   0.000000
   23        9.742580   0.000000
   24        9.742583   0.000000
   25       10.263003   0.000000
   26       10.263007   0.000000
   27       11.515452   0.000000
   28       11.515477   0.000000
 
 -0.4444444E+00  0.1111111E+00  0.5551115E-16  0.2743484E-02
    1      -31.154335   1.000000
    2      -31.154335   1.000000
    3      -31.152975   1.000000
    4      -31.152975   1.000000
    5      -24.462886   1.000000
    6      -24.462885   1.000000
    7      -24.458459   1.000000
    8      -24.458459   1.000000
    9      -24.456646   1.000000
   10      -24.456646   1.000000
   11      -20.767948   1.000000
   12      -20.767947   1.000000
   13       -7.919761   1.000000
   14       -7.919761   1.000000
   15        0.241608   1.000000
   16        0.241609   1.000000
   17        2.212684   1.000000
   18        2.212684   1.000000
   19        5.992296   0.000000
   20        5.992300   0.000000
   21        8.585868   0.000000
   22        8.585870   0.000000
   23        9.840143   0.000000
   24        9.840147   0.000000
   25       10.492348   0.000000
   26       10.492350   0.000000
   27       11.639639   0.000000
   28       11.639766   0.000000
 
 -0.3333333E+00  0.1111111E+00 -0.2775558E-16  0.2743484E-02
    1      -31.154423   1.000000
    2      -31.154423   1.000000
    3      -31.153261   1.000000
    4      -31.153260   1.000000
    5      -24.462705   1.000000
    6      -24.462705   1.000000
    7      -24.459374   1.000000
    8      -24.459374   1.000000
    9      -24.457265   1.000000
   10      -24.457264   1.000000
   11      -20.779309   1.000000
   12      -20.779308   1.000000
   13       -7.880124   1.000000
   14       -7.880124   1.000000
   15        0.424554   1.000000
   16        0.424555   1.000000
   17        2.298779   1.000000
   18        2.298779   1.000000
   19        5.963212   0.000000
   20        5.963215   0.000000
   21        8.786965   0.000000
   22        8.786967   0.000000
   23        9.664431   0.000000
   24        9.664434   0.000000
   25       10.064370   0.000000
   26       10.064374   0.000000
   27       11.734404   0.000000
   28       12.072017   0.000000
 
 -0.2222222E+00  0.1111111E+00  0.0000000E+00  0.2743484E-02
    1      -31.154594   1.000000
    2      -31.154594   1.000000
    3      -31.153829   1.000000
    4      -31.153829   1.000000
    5      -24.462436   1.000000
    6      -24.462436   1.000000
    7      -24.461040   1.000000
    8      -24.461039   1.000000
    9      -24.458605   1.000000
   10      -24.458604   1.000000
   11      -20.802226   1.000000
   12      -20.802225   1.000000
   13       -7.799387   1.000000
   14       -7.799387   1.000000
   15        0.860851   1.000000
   16        0.860852   1.000000
   17        2.495732   1.000000
   18        2.495733   1.000000
   19        5.653268  -0.000000
   20        5.653270  -0.000000
   21        8.808066   0.000000
   22        8.808067   0.000000
   23        9.495451   0.000000
   24        9.495452   0.000000
   25       10.319199   0.000000
   26       10.319202   0.000000
   27       11.209320   0.000000
   28       11.210939   0.000000
 
 -0.1111111E+00  0.1111111E+00 -0.9453051E-18  0.2743484E-02
    1      -31.154796   1.000000
    2      -31.154795   1.000000
    3      -31.154409   1.000000
    4      -31.154409   1.000000
    5      -24.463007   1.000000
    6      -24.463007   1.000000
    7      -24.461756   1.000000
    8      -24.461756   1.000000
    9      -24.460180   1.000000
   10      -24.460180   1.000000
   11      -20.825849   1.000000
   12      -20.825848   1.000000
   13       -7.715172   1.000000
   14       -7.715172   1.000000
   15        1.470975   1.000000
   16        1.470975   1.000000
   17        2.748295   1.000135
   18        2.748295   1.000135
   19        4.883260  -0.000000
   20        4.883261  -0.000000
   21        8.886708   0.000000
   22        8.886710   0.000000
   23       10.036005   0.000000
   24       10.036006   0.000000
   25       10.507078   0.000000
   26       10.507086   0.000000
   27       11.069809   0.000000
   28       11.073644   0.000000
 
  0.7703720E-33  0.2222222E+00  0.1387779E-16  0.2743484E-02
    1      -31.154768   1.000000
    2      -31.154768   1.000000
    3      -31.154130   1.000000
    4      -31.154130   1.000000
    5      -24.462967   1.000000
    6      -24.462967   1.000000
    7      -24.461345   1.000000
    8      -24.461345   1.000000
    9      -24.459521   1.000000
   10      -24.459521   1.000000
   11      -20.816729   1.000000
   12      -20.816727   1.000000
   13       -7.748551   1.000000
   14       -7.748551   1.000000
   15        1.155447   1.000000
   16        1.155448   1.000000
   17        2.789793   1.001066
   18        2.789794   1.001066
   19        5.060178  -0.000000
   20        5.060179  -0.000000
   21        8.976241   0.000000
   22        8.976242   0.000000
   23       10.109806   0.000000
   24       10.109810   0.000000
   25       10.460520   0.000000
   26       10.460544   0.000000
   27       11.046517   0.000000
   28       11.192914   0.000000
 
  0.1111111E+00  0.2222222E+00  0.0000000E+00  0.2743484E-02
    1      -31.154692   1.000000
    2      -31.154692   1.000000
    3      -31.154243   1.000000
    4      -31.154243   1.000000
    5      -24.462925   1.000000
    6      -24.462925   1.000000
    7      -24.461340   1.000000
    8      -24.461339   1.000000
    9      -24.459758   1.000000
   10      -24.459758   1.000000
   11      -20.818352   1.000000
   12      -20.818351   1.000000
   13       -7.741547   1.000000
   14       -7.741546   1.000000
   15        1.278539   1.000000
   16        1.278539   1.000000
   17        2.611286   1.000000
   18        2.611287   1.000000
   19        5.217465  -0.000000
   20        5.217466  -0.000000
   21        8.634023   0.000000
   22        8.634025   0.000000
   23        9.725828   0.000000
   24        9.725829   0.000000
   25       10.541442   0.000000
   26       10.541444   0.000000
   27       11.153271   0.000000
   28       11.153398   0.000000
 
  0.2222222E+00  0.2222222E+00  0.0000000E+00  0.2743484E-02
    1      -31.154485   1.000000
    2      -31.154485   1.000000
    3      -31.154057   1.000000
    4      -31.154056   1.000000
    5      -24.462921   1.000000
    6      -24.462921   1.000000
    7      -24.460679   1.000000
    8      -24.460678   1.000000
    9      -24.458965   1.000000
   10      -24.458964   1.000000
   11      -20.806372   1.000000
   12      -20.806371   1.000000
   13       -7.782410   1.000000
   14       -7.782410   1.000000
   15        1.071522   1.000000
   16        1.071523   1.000000
   17        2.337118   1.000000
   18        2.337118   1.000000
   19        5.726114  -0.000000
   20        5.726115  -0.000000
   21        8.094078   0.000000
   22        8.094080   0.000000
   23        9.196943   0.000000
   24        9.196944   0.000000
   25       10.742233   0.000000
   26       10.742235   0.000000
   27       11.602565   0.000000
   28       11.602568   0.000000
 
  0.3333333E+00  0.2222222E+00  0.0000000E+00  0.2743484E-02
    1      -31.154290   1.000000
    2      -31.154290   1.000000
    3      -31.153597   1.000000
    4      -31.153597   1.000000
    5      -24.462504   1.000000
    6      -24.462504   1.000000
    7      -24.460287   1.000000
    8      -24.460286   1.000000
    9      -24.457349   1.000000
   10      -24.457348   1.000000
   11      -20.786230   1.000000
   12      -20.786229   1.000000
   13       -7.851451   1.000000
   14       -7.851450   1.000000
   15        0.703499   1.000000
   16        0.703500   1.000000
   17        2.082861   1.000000
   18        2.082861   1.000000
   19        6.194645   0.000000
   20        6.194646   0.000000
   21        7.947870   0.000000
   22        7.947871   0.000000
   23        8.800587   0.000000
   24        8.800588   0.000000
   25       11.018188   0.000000
   26       11.018191   0.000000
   27       12.109868   0.000000
   28       12.109888   0.000000
 
  0.4444444E+00  0.2222222E+00 -0.2775558E-16  0.2743484E-02
    1      -31.154114   1.000000
    2      -31.154114   1.000000
    3      -31.153185   1.000000
    4      -31.153185   1.000000
    5      -24.462092   1.000000
    6      -24.462092   1.000000
    7      -24.459419   1.000000
    8      -24.459419   1.000000
    9      -24.456375   1.000000
   10      -24.456375   1.000000
   11      -20.767359   1.000000
   12      -20.767358   1.000000
   13       -7.915557   1.000000
   14       -7.915557   1.000000
   15        0.415789   1.000000
   16        0.415790   1.000000
   17        1.821436   1.000000
   18        1.821436   1.000000
   19        6.473382   0.000000
   20        6.473384   0.000000
   21        8.039462   0.000000
   22        8.039464   0.000000
   23        9.015309   0.000000
   24        9.015311   0.000000
   25       10.865641   0.000000
   26       10.865645   0.000000
   27       12.415275   0.000000
   28       12.415996   0.000000
 
 -0.4444444E+00  0.2222222E+00  0.2775558E-16  0.2743484E-02
    1      -31.154004   1.000000
    2      -31.154004   1.000000
    3      -31.152999   1.000000
    4      -31.152999   1.000000
    5      -24.461882   1.000000
    6      -24.461882   1.000000
    7      -24.458327   1.000000
    8      -24.458327   1.000000
    9      -24.456638   1.000000
   10      -24.456637   1.000000
   11      -20.758635   1.000000
   12      -20.758634   1.000000
   13       -7.944901   1.000000
   14       -7.944900   1.000000
   15        0.293230   1.000000
   16        0.293231   1.000000
   17        1.678292   1.000000
   18        1.678292   1.000000
   19        6.672419   0.000000
   20        6.672422   0.000000
   21        7.941655   0.000000
   22        7.941657   0.000000
   23        9.910530   0.000000
   24        9.910532   0.000000
   25       10.712929   0.000000
   26       10.712932   0.000000
   27       11.822711   0.000000
   28       11.822716   0.000000
 
 -0.3333333E+00  0.2222222E+00  0.1387779E-16  0.2743484E-02
    1      -31.154072   1.000000
    2      -31.154072   1.000000
    3      -31.153120   1.000000
    4      -31.153120   1.000000
    5      -24.461708   1.000000
    6      -24.461707   1.000000
    7      -24.458531   1.000000
    8      -24.458531   1.000000
    9      -24.457283   1.000000
   10      -24.457283   1.000000
   11      -20.764272   1.000000
   12      -20.764271   1.000000
   13       -7.926685   1.000000
   14       -7.926685   1.000000
   15        0.348387   1.000000
   16        0.348388   1.000000
   17        1.750615   1.000000
   18        1.750615   1.000000
   19        6.815741   0.000000
   20        6.815744   0.000000
   21        7.975288   0.000000
   22        7.975292   0.000000
   23        9.699103   0.000000
   24        9.699106   0.000000
   25       10.675933   0.000000
   26       10.675937   0.000000
   27       12.097900   0.000000
   28       12.176207   0.000000
 
 -0.2222222E+00  0.2222222E+00  0.3665880E-16  0.2743484E-02
    1      -31.154307   1.000000
    2      -31.154307   1.000000
    3      -31.153448   1.000000
    4      -31.153448   1.000000
    5      -24.461652   1.000000
    6      -24.461652   1.000000
    7      -24.460293   1.000000
    8      -24.460293   1.000000
    9      -24.457643   1.000000
   10      -24.457643   1.000000
   11      -20.781523   1.000000
   12      -20.781522   1.000000
   13       -7.869560   1.000000
   14       -7.869559   1.000000
   15        0.557852   1.000000
   16        0.557853   1.000000
   17        2.051585   1.000000
   18        2.051585   1.000000
   19        6.486030   0.000000
   20        6.486033   0.000000
   21        8.350817   0.000000
   22        8.350819   0.000000
   23        9.158097   0.000000
   24        9.158099   0.000000
   25       10.512779   0.000000
   26       10.512782   0.000000
   27       11.278977   0.000000
   28       11.278983   0.000000
 
 -0.1111111E+00  0.2222222E+00  0.6938894E-17  0.2743484E-02
    1      -31.154594   1.000000
    2      -31.154594   1.000000
    3      -31.153829   1.000000
    4      -31.153829   1.000000
    5      -24.462436   1.000000
    6      -24.462436   1.000000
    7      -24.461039   1.000000
    8      -24.461039   1.000000
    9      -24.458605   1.000000
   10      -24.458604   1.000000
   11      -20.802226   1.000000
   12      -20.802225   1.000000
   13       -7.799387   1.000000
   14       -7.799387   1.000000
   15        0.860851   1.000000
   16        0.860852   1.000000
   17        2.495732   1.000000
   18        2.495733   1.000000
   19        5.653268  -0.000000
   20        5.653270  -0.000000
   21        8.808065   0.000000
   22        8.808067   0.000000
   23        9.495451   0.000000
   24        9.495452   0.000000
   25       10.319199   0.000000
   26       10.319204   0.000000
   27       11.209138   0.000000
   28       11.209898   0.000000
 
  0.7703720E-33  0.3333333E+00  0.0000000E+00  0.2743484E-02
    1      -31.154588   1.000000
    2      -31.154587   1.000000
    3      -31.153456   1.000000
    4      -31.153456   1.000000
    5      -24.463135   1.000000
    6      -24.463135   1.000000
    7      -24.459851   1.000000
    8      -24.459850   1.000000
    9      -24.457749   1.000000
   10      -24.457749   1.000000
   11      -20.790860   1.000000
   12      -20.790859   1.000000
   13       -7.841528   1.000000
   14       -7.841527   1.000000
   15        0.561641   1.000000
   16        0.561642   1.000000
   17        2.634710   1.000000
   18        2.634711   1.000000
   19        5.465781  -0.000000
   20        5.465783  -0.000000
   21        9.405222   0.000000
   22        9.405225   0.000000
   23        9.775386   0.000000
   24        9.775389   0.000000
   25       10.166436   0.000000
   26       10.166438   0.000000
   27       10.569596   0.000000
   28       10.569600   0.000000
 
  0.1111111E+00  0.3333333E+00 -0.2775558E-16  0.2743484E-02
    1      -31.154528   1.000000
    2      -31.154528   1.000000
    3      -31.153629   1.000000
    4      -31.153629   1.000000
    5      -24.462663   1.000000
    6      -24.462662   1.000000
    7      -24.460372   1.000000
    8      -24.460371   1.000000
    9      -24.458017   1.000000
   10      -24.458017   1.000000
   11      -20.793651   1.000000
   12      -20.793650   1.000000
   13       -7.829493   1.000000
   14       -7.829493   1.000000
   15        0.696102   1.000000
   16        0.696103   1.000000
   17        2.412314   1.000000
   18        2.412315   1.000000
   19        5.791842   0.000000
   20        5.791844   0.000000
   21        8.821679   0.000000
   22        8.821681   0.000000
   23        9.156129   0.000000
   24        9.156131   0.000000
   25       10.426835   0.000000
   26       10.426836   0.000000
   27       11.762205   0.000000
   28       11.811069   0.000000
 
  0.2222222E+00  0.3333333E+00  0.0000000E+00  0.2743484E-02
    1      -31.154290   1.000000
    2      -31.154290   1.000000
    3      -31.153597   1.000000
    4      -31.153597   1.000000
    5      -24.462504   1.000000
    6      -24.462504   1.000000
    7      -24.460287   1.000000
    8      -24.460286   1.000000
    9      -24.457349   1.000000
   10      -24.457348   1.000000
   11      -20.786230   1.000000
   12      -20.786229   1.000000
   13       -7.851451   1.000000
   14       -7.851450   1.000000
   15        0.703499   1.000000
   16        0.703500   1.000000
   17        2.082860   1.000000
   18        2.082861   1.000000
   19        6.194645   0.000000
   20        6.194646   0.000000
   21        7.947870   0.000000
   22        7.947871   0.000000
   23        8.800587   0.000000
   24        8.800588   0.000000
   25       11.018189   0.000000
   26       11.018190   0.000000
   27       12.109868   0.000000
   28       12.109882   0.000000
 
  0.3333333E+00  0.3333333E+00 -0.2775558E-16  0.2743484E-02
    1      -31.154108   1.000000
    2      -31.154108   1.000000
    3      -31.153336   1.000000
    4      -31.153336   1.000000
    5      -24.462652   1.000000
    6      -24.462652   1.000000
    7      -24.459878   1.000000
    8      -24.459877   1.000000
    9      -24.455910   1.000000
   10      -24.455910   1.000000
   11      -20.772124   1.000000
   12      -20.772123   1.000000
   13       -7.897367   1.000000
   14       -7.897367   1.000000
   15        0.539537   1.000000
   16        0.539539   1.000000
   17        1.899453   1.000000
   18        1.899454   1.000000
   19        6.130036   0.000000
   20        6.130038   0.000000
   21        7.464747   0.000000
   22        7.464748   0.000000
   23        9.028690   0.000000
   24        9.028691   0.000000
   25       11.658736   0.000000
   26       11.658739   0.000000
   27       12.735966   0.000000
   28       12.736024   0.000000
 
  0.4444444E+00  0.3333333E+00  0.0000000E+00  0.2743484E-02
    1      -31.153934   1.000000
    2      -31.153934   1.000000
    3      -31.153065   1.000000
    4      -31.153065   1.000000
    5      -24.462275   1.000000
    6      -24.462275   1.000000
    7      -24.459507   1.000000
    8      -24.459506   1.000000
    9      -24.454951   1.000000
   10      -24.454951   1.000000
   11      -20.757886   1.000000
   12      -20.757885   1.000000
   13       -7.943897   1.000000
   14       -7.943896   1.000000
   15        0.382310   1.000000
   16        0.382312   1.000000
   17        1.659252   1.000000
   18        1.659252   1.000000
   19        6.161913   0.000000
   20        6.161915   0.000000
   21        7.475896   0.000000
   22        7.475897   0.000000
   23        9.263544   0.000000
   24        9.263545   0.000000
   25       11.868271   0.000000
   26       11.868273   0.000000
   27       13.090893   0.000000
   28       13.091132   0.000000
 
 -0.4444444E+00  0.3333333E+00  0.4857226E-16  0.2743484E-02
    1      -31.153774   1.000000
    2      -31.153774   1.000000
    3      -31.152969   1.000000
    4      -31.152969   1.000000
    5      -24.461613   1.000000
    6      -24.461613   1.000000
    7      -24.458919   1.000000
    8      -24.458919   1.000000
    9      -24.455289   1.000000
   10      -24.455289   1.000000
   11      -20.750207   1.000000
   12      -20.750206   1.000000
   13       -7.968489   1.000000
   14       -7.968489   1.000000
   15        0.333415   1.000000
   16        0.333416   1.000000
   17        1.400752   1.000000
   18        1.400753   1.000000
   19        6.431388   0.000000
   20        6.431390   0.000000
   21        7.848490   0.000000
   22        7.848491   0.000000
   23        9.593764   0.000000
   24        9.593766   0.000000
   25       11.334554   0.000000
   26       11.334555   0.000000
   27       12.380095   0.000000
   28       12.380118   0.000000
 
 -0.3333333E+00  0.3333333E+00 -0.1337316E-16  0.2743484E-02
    1      -31.153792   1.000000
    2      -31.153792   1.000000
    3      -31.153034   1.000000
    4      -31.153034   1.000000
    5      -24.461296   1.000000
    6      -24.461296   1.000000
    7      -24.458067   1.000000
    8      -24.458067   1.000000
    9      -24.456765   1.000000
   10      -24.456765   1.000000
   11      -20.752763   1.000000
   12      -20.752762   1.000000
   13       -7.961187   1.000000
   14       -7.961187   1.000000
   15        0.335821   1.000000
   16        0.335823   1.000000
   17        1.393921   1.000000
   18        1.393921   1.000000
   19        6.826274   0.000000
   20        6.826275   0.000000
   21        7.954286   0.000000
   22        7.954289   0.000000
   23       10.303207   0.000000
   24       10.303209   0.000000
   25       10.629469   0.000000
   26       10.629472   0.000000
   27       11.492309   0.000000
   28       11.492366   0.000000
 
 -0.2222222E+00  0.3333333E+00 -0.6938894E-17  0.2743484E-02
    1      -31.154073   1.000000
    2      -31.154072   1.000000
    3      -31.153120   1.000000
    4      -31.153119   1.000000