       N       E                     dE             d eps       ncg     rms          rms(c)
DAV:   1     0.310863332955E+03    0.31086E+03   -0.94025E+03 20904   0.125E+03
DAV:   2     0.284325911719E+01   -0.30802E+03   -0.29824E+03 27188   0.453E+02
DAV:   3    -0.129193841135E+02   -0.15763E+02   -0.15698E+02 24452   0.128E+02
DAV:   4    -0.133917856990E+02   -0.47240E+00   -0.47213E+00 30696   0.273E+01
DAV:   5    -0.134069698967E+02   -0.15184E-01   -0.15183E-01 27320   0.406E+00    0.631E+00
RMM:   6    -0.132729249412E+02    0.13404E+00   -0.90123E-01 23483   0.114E+01    0.211E+00
RMM:   7    -0.132904983355E+02   -0.17573E-01   -0.19117E-01 23360   0.468E+00    0.849E-01
RMM:   8    -0.133022968886E+02   -0.11799E-01   -0.40361E-02 23766   0.265E+00    0.448E-01
RMM:   9    -0.133081205659E+02   -0.58237E-02   -0.70510E-03 26294   0.105E+00    0.277E-01
RMM:  10    -0.133096967106E+02   -0.15761E-02   -0.34012E-03 27471   0.739E-01    0.678E-02
RMM:  11    -0.133097767647E+02   -0.80054E-04   -0.57199E-04 26019   0.308E-01    0.183E-02
RMM:  12    -0.133098451469E+02   -0.68382E-04   -0.18746E-04 25096   0.195E-01    0.101E-02
RMM:  13    -0.133098559132E+02   -0.10766E-04   -0.40358E-05 26201   0.698E-02    0.381E-03
RMM:  14    -0.133098585293E+02   -0.26160E-05   -0.11200E-05 27302   0.436E-02    0.864E-04
RMM:  15    -0.133098595465E+02   -0.10173E-05   -0.32388E-06 29459   0.157E-02    0.102E-03
RMM:  16    -0.133098586739E+02    0.87264E-06   -0.69278E-07 26201   0.890E-03    0.445E-04
RMM:  17    -0.133098585013E+02    0.17265E-06   -0.21013E-07 22524   0.497E-03    0.176E-04
RMM:  18    -0.133098586004E+02   -0.99134E-07   -0.53524E-08 18038   0.358E-03
   1 F= -.13309859E+02 E0= -.13309886E+02  d E =0.814858E-04  mag=     0.0000     0.0000     0.0000
