Og_FCC                                  
           1
     4.475563    0.000000    0.000000
     2.237781    3.875951   -0.000000
     2.237781    1.291984    3.654282
   Og
   1
Direct configuration=     1
   0.00000000  0.00000000  0.00000000
