   1   1   0   0
  0.2224118E+02  0.3156634E-09  0.3156634E-09  0.3156634E-09  0.1000000E-15
  1.000000000000000E-004
  CAR 
 Og_FCC                                  
    120.18024860    -53.78903389  301    -17.69040778      1.00000000
    -53.789  0.0000E+00  0.0000E+00
    -53.209  0.0000E+00  0.0000E+00
    -52.629  0.0000E+00  0.0000E+00
    -52.049  0.0000E+00  0.0000E+00
    -51.469  0.0000E+00  0.0000E+00
    -50.890  0.0000E+00  0.0000E+00
    -50.310  0.0000E+00  0.0000E+00
    -49.730  0.0000E+00  0.0000E+00
    -49.150  0.0000E+00  0.0000E+00
    -48.570  0.0000E+00  0.0000E+00
    -47.990  0.0000E+00  0.0000E+00
    -47.410  0.0000E+00  0.0000E+00
    -46.830  0.0000E+00  0.0000E+00
    -46.250  0.0000E+00  0.0000E+00
    -45.670  0.0000E+00  0.2000E+01
    -45.091  0.0000E+00  0.2000E+01
    -44.511  0.0000E+00  0.2000E+01
    -43.931  0.0000E+00  0.2000E+01
    -43.351  0.0000E+00  0.2000E+01
    -42.771  0.0000E+00  0.2000E+01
    -42.191  0.0000E+00  0.2000E+01
    -41.611  0.0000E+00  0.2000E+01
    -41.031  0.0000E+00  0.2000E+01
    -40.451  0.0000E+00  0.2000E+01
    -39.871  0.0000E+00  0.2000E+01
    -39.292  0.0000E+00  0.2000E+01
    -38.712  0.0000E+00  0.2000E+01
    -38.132  0.0000E+00  0.2000E+01
    -37.552  0.0000E+00  0.2000E+01
    -36.972  0.0000E+00  0.2000E+01
    -36.392  0.0000E+00  0.2000E+01
    -35.812  0.0000E+00  0.2000E+01
    -35.232  0.0000E+00  0.2000E+01
    -34.652  0.0000E+00  0.2000E+01
    -34.073  0.0000E+00  0.2000E+01
    -33.493  0.0000E+00  0.2000E+01
    -32.913  0.0000E+00  0.2000E+01
    -32.333  0.0000E+00  0.2000E+01
    -31.753  0.0000E+00  0.2000E+01
    -31.173  0.0000E+00  0.2000E+01
    -30.593  0.0000E+00  0.2000E+01
    -30.013  0.0000E+00  0.2000E+01
    -29.433  0.0000E+00  0.2000E+01
    -28.853  0.0000E+00  0.2000E+01
    -28.274  0.0000E+00  0.2000E+01
    -27.694  0.0000E+00  0.2000E+01
    -27.114  0.0000E+00  0.2000E+01
    -26.534  0.0000E+00  0.2000E+01
    -25.954  0.0000E+00  0.2000E+01
    -25.374  0.0000E+00  0.2000E+01
    -24.794  0.0000E+00  0.2000E+01
    -24.214  0.0000E+00  0.2000E+01
    -23.634  0.0000E+00  0.2000E+01
    -23.054  0.0000E+00  0.2000E+01
    -22.475  0.0000E+00  0.2000E+01
    -21.895  0.0000E+00  0.2000E+01
    -21.315  0.0000E+00  0.2000E+01
    -20.735  0.0000E+00  0.2000E+01
    -20.155  0.0000E+00  0.2000E+01
    -19.575  0.0000E+00  0.2000E+01
    -18.995  0.0000E+00  0.2000E+01
    -18.415  0.2425E+00  0.4762E+01
    -17.835  0.0000E+00  0.8000E+01
    -17.255  0.0000E+00  0.8000E+01
    -16.676  0.0000E+00  0.8000E+01
    -16.096  0.0000E+00  0.8000E+01
    -15.516  0.0000E+00  0.8000E+01
    -14.936  0.0000E+00  0.8000E+01
    -14.356  0.0000E+00  0.8000E+01
    -13.776  0.0000E+00  0.8000E+01
    -13.196  0.0000E+00  0.8000E+01
    -12.616  0.0000E+00  0.8000E+01
    -12.036  0.0000E+00  0.8000E+01
    -11.457  0.0000E+00  0.8000E+01
    -10.877  0.0000E+00  0.8000E+01
    -10.297  0.0000E+00  0.8000E+01
     -9.717  0.0000E+00  0.8000E+01
     -9.137  0.0000E+00  0.8000E+01
     -8.557  0.0000E+00  0.8000E+01
     -7.977  0.0000E+00  0.8000E+01
     -7.397  0.0000E+00  0.8000E+01
     -6.817  0.0000E+00  0.8000E+01
     -6.237  0.0000E+00  0.8000E+01
     -5.658  0.0000E+00  0.8000E+01
     -5.078  0.0000E+00  0.8000E+01
     -4.498  0.0000E+00  0.8000E+01
     -3.918  0.0000E+00  0.8000E+01
     -3.338  0.0000E+00  0.8000E+01
     -2.758  0.0000E+00  0.8000E+01
     -2.178  0.0000E+00  0.8000E+01
     -1.598  0.0000E+00  0.8000E+01
     -1.018  0.0000E+00  0.8000E+01
     -0.438  0.0000E+00  0.8000E+01
      0.141  0.0000E+00  0.8000E+01
      0.721  0.0000E+00  0.8000E+01
      1.301  0.0000E+00  0.8000E+01
      1.881  0.0000E+00  0.8000E+01
      2.461  0.0000E+00  0.8000E+01
      3.041  0.0000E+00  0.8000E+01
      3.621  0.0000E+00  0.8004E+01
      4.201  0.0000E+00  0.8059E+01
      4.781  0.0000E+00  0.8105E+01
      5.361  0.0000E+00  0.8230E+01
      5.940  0.0000E+00  0.8254E+01
      6.520  0.0000E+00  0.8441E+01
      7.100  0.0000E+00  0.8660E+01
      7.680  0.0000E+00  0.8707E+01
      8.260  0.0000E+00  0.9012E+01
      8.840  0.1614E+00  0.9199E+01
      9.420  0.3508E-05  0.9309E+01
     10.000  0.0000E+00  0.9699E+01
     10.580  0.0000E+00  0.1004E+02
     11.159  0.0000E+00  0.1020E+02
     11.739  0.0000E+00  0.1045E+02
     12.319  0.0000E+00  0.1081E+02
     12.899  0.0000E+00  0.1128E+02
     13.479  0.3233E+00  0.1165E+02
     14.059  0.0000E+00  0.1186E+02
     14.639  0.0000E+00  0.1229E+02
     15.219  0.0000E+00  0.1254E+02
     15.799  0.0000E+00  0.1295E+02
     16.379  0.0000E+00  0.1316E+02
     16.958  0.0000E+00  0.1354E+02
     17.538  0.0000E+00  0.1403E+02
     18.118  0.0000E+00  0.1445E+02
     18.698  0.0000E+00  0.1476E+02
     19.278  0.4368E-01  0.1541E+02
     19.858  0.0000E+00  0.1638E+02
     20.438  0.0000E+00  0.1724E+02
     21.018  0.0000E+00  0.1773E+02
     21.598  0.0000E+00  0.1817E+02
     22.178  0.3232E+00  0.1887E+02
     22.757  0.0000E+00  0.1971E+02
     23.337  0.0000E+00  0.1991E+02
     23.917  0.0000E+00  0.2015E+02
     24.497  0.0000E+00  0.2080E+02
     25.077  0.3233E+00  0.2145E+02
     25.657  0.1760E-04  0.2175E+02
     26.237  0.0000E+00  0.2222E+02
     26.817  0.6479E-01  0.2327E+02
     27.397  0.0000E+00  0.2362E+02
     27.977  0.0000E+00  0.2429E+02
     28.556  0.5389E-01  0.2493E+02
     29.136  0.0000E+00  0.2561E+02
     29.716  0.0000E+00  0.2646E+02
     30.296  0.0000E+00  0.2673E+02
     30.876  0.0000E+00  0.2721E+02
     31.456  0.0000E+00  0.2777E+02
     32.036  0.0000E+00  0.2826E+02
     32.616  0.0000E+00  0.2863E+02
     33.196  0.0000E+00  0.2934E+02
     33.776  0.0000E+00  0.2995E+02
     34.355  0.0000E+00  0.3003E+02
     34.935  0.0000E+00  0.3011E+02
     35.515  0.0000E+00  0.3072E+02
     36.095  0.0000E+00  0.3138E+02
     36.675  0.4113E-16  0.3201E+02
     37.255  0.0000E+00  0.3260E+02
     37.835  0.0000E+00  0.3335E+02
     38.415  0.0000E+00  0.3403E+02
     38.995  0.0000E+00  0.3436E+02
     39.574  0.0000E+00  0.3488E+02
     40.154  0.0000E+00  0.3541E+02
     40.734  0.0000E+00  0.3623E+02
     41.314  0.0000E+00  0.3642E+02
     41.894  0.0000E+00  0.3729E+02
     42.474  0.0000E+00  0.3789E+02
     43.054  0.0000E+00  0.3866E+02
     43.634  0.0000E+00  0.3934E+02
     44.214  0.0000E+00  0.4003E+02
     44.794  0.0000E+00  0.4086E+02
     45.373  0.0000E+00  0.4096E+02
     45.953  0.4861E-02  0.4174E+02
     46.533  0.0000E+00  0.4242E+02
     47.113  0.0000E+00  0.4275E+02
     47.693  0.0000E+00  0.4342E+02
     48.273  0.0000E+00  0.4417E+02
     48.853  0.3276E-01  0.4448E+02
     49.433  0.7223E-12  0.4521E+02
     50.013  0.3233E+00  0.4640E+02
     50.593  0.8083E-01  0.4729E+02
     51.172  0.0000E+00  0.4752E+02
     51.752  0.2694E-01  0.4815E+02
     52.332  0.0000E+00  0.4876E+02
     52.912  0.0000E+00  0.4918E+02
     53.492  0.1524E+00  0.5047E+02
     54.072  0.0000E+00  0.5097E+02
     54.652  0.0000E+00  0.5132E+02
     55.232  0.0000E+00  0.5235E+02
     55.812  0.0000E+00  0.5300E+02
     56.392  0.0000E+00  0.5361E+02
     56.971  0.0000E+00  0.5480E+02
     57.551  0.2902E-15  0.5535E+02
     58.131  0.0000E+00  0.5601E+02
     58.711  0.0000E+00  0.5683E+02
     59.291  0.3938E-01  0.5794E+02
     59.871  0.0000E+00  0.5870E+02
     60.451  0.0000E+00  0.5905E+02
     61.031  0.0000E+00  0.5969E+02
     61.611  0.4951E-04  0.6067E+02
     62.190  0.0000E+00  0.6157E+02
     62.770  0.0000E+00  0.6210E+02
     63.350  0.0000E+00  0.6274E+02
     63.930  0.1617E+00  0.6314E+02
     64.510  0.0000E+00  0.6400E+02
     65.090  0.7296E-01  0.6489E+02
     65.670  0.0000E+00  0.6540E+02
     66.250  0.1038E+00  0.6597E+02
     66.830  0.0000E+00  0.6675E+02
     67.410  0.0000E+00  0.6712E+02
     67.989  0.0000E+00  0.6796E+02
     68.569  0.1026E-02  0.6878E+02
     69.149  0.0000E+00  0.6932E+02
     69.729  0.0000E+00  0.7022E+02
     70.309  0.0000E+00  0.7137E+02
     70.889  0.1469E+00  0.7209E+02
     71.469  0.0000E+00  0.7291E+02
     72.049  0.0000E+00  0.7378E+02
     72.629  0.0000E+00  0.7454E+02
     73.209  0.0000E+00  0.7562E+02
     73.788  0.0000E+00  0.7598E+02
     74.368  0.0000E+00  0.7665E+02
     74.948  0.0000E+00  0.7757E+02
     75.528  0.0000E+00  0.7844E+02
     76.108  0.0000E+00  0.7920E+02
     76.688  0.0000E+00  0.8015E+02
     77.268  0.0000E+00  0.8076E+02
     77.848  0.0000E+00  0.8144E+02
     78.428  0.4051E-03  0.8214E+02
     79.008  0.0000E+00  0.8279E+02
     79.587  0.0000E+00  0.8421E+02
     80.167  0.0000E+00  0.8509E+02
     80.747  0.0000E+00  0.8612E+02
     81.327  0.1617E+00  0.8718E+02
     81.907  0.0000E+00  0.8745E+02
     82.487  0.0000E+00  0.8791E+02
     83.067  0.1241E-08  0.8874E+02
     83.647  0.0000E+00  0.8973E+02
     84.227  0.1367E+00  0.9024E+02
     84.806  0.0000E+00  0.9108E+02
     85.386  0.0000E+00  0.9222E+02
     85.966  0.1015E-11  0.9347E+02
     86.546  0.1190E-09  0.9404E+02
     87.126  0.0000E+00  0.9532E+02
     87.706  0.8451E-14  0.9563E+02
     88.286  0.1611E+00  0.9698E+02
     88.866  0.0000E+00  0.9796E+02
     89.446  0.0000E+00  0.9882E+02
     90.026  0.2694E-01  0.9965E+02
     90.605  0.0000E+00  0.1005E+03
     91.185  0.8124E-01  0.1015E+03
     91.765  0.2766E+00  0.1024E+03
     92.345  0.0000E+00  0.1031E+03
     92.925  0.0000E+00  0.1040E+03
     93.505  0.0000E+00  0.1047E+03
     94.085  0.0000E+00  0.1054E+03
     94.665  0.0000E+00  0.1061E+03
     95.245  0.0000E+00  0.1063E+03
     95.825  0.1547E-02  0.1076E+03
     96.404  0.0000E+00  0.1089E+03
     96.984  0.9945E-01  0.1099E+03
     97.564  0.0000E+00  0.1108E+03
     98.144  0.5389E-01  0.1119E+03
     98.724  0.0000E+00  0.1128E+03
     99.304  0.0000E+00  0.1136E+03
     99.884  0.4638E-03  0.1147E+03
    100.464  0.1520E+00  0.1155E+03
    101.044  0.0000E+00  0.1166E+03
    101.624  0.0000E+00  0.1175E+03
    102.203  0.0000E+00  0.1184E+03
    102.783  0.0000E+00  0.1190E+03
    103.363  0.0000E+00  0.1198E+03
    103.943  0.0000E+00  0.1204E+03
    104.523  0.0000E+00  0.1211E+03
    105.103  0.0000E+00  0.1221E+03
    105.683  0.3322E-07  0.1230E+03
    106.263  0.0000E+00  0.1242E+03
    106.843  0.0000E+00  0.1255E+03
    107.423  0.0000E+00  0.1263E+03
    108.002  0.0000E+00  0.1273E+03
    108.582  0.0000E+00  0.1277E+03
    109.162  0.0000E+00  0.1279E+03
    109.742  0.0000E+00  0.1279E+03
    110.322  0.0000E+00  0.1280E+03
    110.902  0.0000E+00  0.1280E+03
    111.482  0.0000E+00  0.1280E+03
    112.062  0.0000E+00  0.1280E+03
    112.642  0.0000E+00  0.1280E+03
    113.221  0.0000E+00  0.1280E+03
    113.801  0.0000E+00  0.1280E+03
    114.381  0.0000E+00  0.1280E+03
    114.961  0.0000E+00  0.1280E+03
    115.541  0.0000E+00  0.1280E+03
    116.121  0.0000E+00  0.1280E+03
    116.701  0.0000E+00  0.1280E+03
    117.281  0.0000E+00  0.1280E+03
    117.861  0.0000E+00  0.1280E+03
    118.441  0.0000E+00  0.1280E+03
    119.020  0.0000E+00  0.1280E+03
    119.600  0.0000E+00  0.1280E+03
    120.180  0.0000E+00  0.1280E+03
