    1    1    1    1
  0.2224118E+02  0.3156634E-09  0.3156634E-09  0.3156634E-09  0.1000000E-15
  1.000000000000000E-004
  CAR 
 Og_FCC                                  
      8    512    128
 
  0.0000000E+00  0.0000000E+00  0.0000000E+00  0.1953125E-02
    1      -45.877197   1.000000
    2      -45.877197   1.000000
    3      -18.091241   1.000000
    4      -18.091241   1.000000
    5      -17.992587   1.000000
    6      -17.992587   1.000000
    7      -17.988047   1.000000
    8      -17.988047   1.000000
    9        3.212827   0.000000
   10        3.212827   0.000000
   11       21.748633   0.000000
   12       21.748633   0.000000
   13       21.750256   0.000000
   14       21.750256   0.000000
   15       21.750286   0.000000
   16       21.750286   0.000000
   17       20.333099   0.000000
   18       20.333099   0.000000
   19       22.930776   0.000000
   20       22.930776   0.000000
   21       22.941218   0.000000
   22       22.941218   0.000000
   23       22.941307   0.000000
   24       22.941307   0.000000
   25       24.756464   0.000000
   26       24.756464   0.000000
   27       24.756502   0.000000
   28       24.756502   0.000000
   29       25.628394   0.000000
   30       25.628394   0.000000
   31       31.378068   0.000000
   32       31.378068   0.000000
   33       31.406295   0.000000
   34       31.406295   0.000000
   35       31.406356   0.000000
   36       31.406356   0.000000
   37       43.670365   0.000000
   38       43.670365   0.000000
   39       52.404908   0.000000
   40       52.404908   0.000000
   41       52.404966   0.000000
   42       52.404966   0.000000
   43       52.406145   0.000000
   44       52.406145   0.000000
   45       54.349703   0.000000
   46       54.349703   0.000000
   47       54.349761   0.000000
   48       54.349761   0.000000
   49       55.370032   0.000000
   50       55.370032   0.000000
   51       55.370219   0.000000
   52       55.370219   0.000000
   53       55.370221   0.000000
   54       55.370221   0.000000
   55       62.381764   0.000000
   56       62.381764   0.000000
   57       62.397449   0.000000
   58       62.397449   0.000000
   59       62.397618   0.000000
   60       62.397618   0.000000
   61       69.256065   0.000000
   62       69.256065   0.000000
   63       71.185421   0.000000
   64       71.185421   0.000000
   65       71.185461   0.000000
   66       71.185461   0.000000
   67       73.875899   0.000000
   68       73.875899   0.000000
   69       73.876044   0.000000
   70       73.876044   0.000000
   71       73.877564   0.000000
   72       73.877564   0.000000
   73       76.953421   0.000000
   74       76.953422   0.000000
   75       76.953604   0.000000
   76       76.953604   0.000000
   77       76.953703   0.000000
   78       76.953703   0.000000
   79       77.981935   0.000000
   80       77.981935   0.000000
   81       78.338668   0.000000
   82       78.338668   0.000000
   83       78.338785   0.000000
   84       78.338785   0.000000
   85       78.338862   0.000000
   86       78.338862   0.000000
   87       78.367840   0.000000
   88       78.367840   0.000000
   89       78.368122   0.000000
   90       78.368122   0.000000
   91       78.368181   0.000000
   92       78.368181   0.000000
   93       79.921099   0.000000
   94       79.921099   0.000000
   95       79.921168   0.000000
   96       79.921168   0.000000
   97       79.921217   0.000000
   98       79.921217   0.000000
   99       80.310952   0.000000
  100       80.310953   0.000000
  101       80.310995   0.000000
  102       80.310996   0.000000
  103       85.149203   0.000000
  104       85.149203   0.000000
  105       85.153166   0.000000
  106       85.153166   0.000000
  107       85.153470   0.000000
  108       85.153470   0.000000
  109       85.785491   0.000000
  110       85.785491   0.000000
  111       85.785636   0.000000
  112       85.785637   0.000000
  113       85.785886   0.000000
  114       85.785886   0.000000
  115       85.982917   0.000000
  116       85.982917   0.000000
  117       86.146892   0.000000
  118       86.146892   0.000000
  119       96.696396   0.000000
  120       96.696396   0.000000
  121       96.748505   0.000000
  122       96.748505   0.000000
  123       96.748627   0.000000
  124       96.748627   0.000000
  125      112.132786   0.000000
  126      112.132786   0.000000
  127      112.132821   0.000000
  128      112.132821   0.000000
 
  0.1250000E+00  0.1387779E-16  0.0000000E+00  0.1953125E-02
    1      -45.881339   1.000000
    2      -45.881339   1.000000
    3      -18.351985   1.000000
    4      -18.351985   1.000000
    5      -18.238894   1.000000
    6      -18.238894   1.000000
    7      -18.196670   1.000000
    8      -18.196670   1.000000
    9        3.678420   0.000000
   10        3.678420   0.000000
   11       18.685397   0.000000
   12       18.685397   0.000000
   13       21.631317   0.000000
   14       21.631317   0.000000
   15       21.633612   0.000000
   16       21.633613   0.000000
   17       20.893121   0.000000
   18       20.893121   0.000000
   19       22.231264   0.000000
   20       22.231264   0.000000
   21       22.231922   0.000000
   22       22.231922   0.000000
   23       23.750241   0.000000
   24       23.750241   0.000000
   25       25.546430   0.000000
   26       25.546430   0.000000
   27       25.557489   0.000000
   28       25.557489   0.000000
   29       27.829821   0.000000
   30       27.829821   0.000000
   31       31.145183   0.000000
   32       31.145183   0.000000
   33       32.401555   0.000000
   34       32.401555   0.000000
   35       32.414381   0.000000
   36       32.414381   0.000000
   37       44.471407   0.000000
   38       44.471407   0.000000
   39       48.037004   0.000000
   40       48.037004   0.000000
   41       48.038331   0.000000
   42       48.038331   0.000000
   43       51.685723   0.000000
   44       51.685723   0.000000
   45       53.701895   0.000000
   46       53.701895   0.000000
   47       53.703141   0.000000
   48       53.703141   0.000000
   49       55.705766   0.000000
   50       55.705766   0.000000
   51       60.235872   0.000000
   52       60.235872   0.000000
   53       60.240592   0.000000
   54       60.240592   0.000000
   55       60.762298   0.000000
   56       60.762298   0.000000
   57       62.575212   0.000000
   58       62.575212   0.000000
   59       62.578322   0.000000
   60       62.578322   0.000000
   61       68.603977   0.000000
   62       68.603977   0.000000
   63       68.605905   0.000000
   64       68.605905   0.000000
   65       69.292587   0.000000
   66       69.292587   0.000000
   67       71.395644   0.000000
   68       71.395644   0.000000
   69       71.396115   0.000000
   70       71.396115   0.000000
   71       72.141834   0.000000
   72       72.141834   0.000000
   73       73.087527   0.000000
   74       73.087527   0.000000
   75       73.347365   0.000000
   76       73.347365   0.000000
   77       73.349645   0.000000
   78       73.349645   0.000000
   79       75.372135   0.000000
   80       75.372135   0.000000
   81       76.053798   0.000000
   82       76.053798   0.000000
   83       76.054302   0.000000
   84       76.054302   0.000000
   85       76.357273   0.000000
   86       76.357273   0.000000
   87       78.907086   0.000000
   88       78.907087   0.000000
   89       80.725055   0.000000
   90       80.725055   0.000000
   91       80.725401   0.000000
   92       80.725401   0.000000
   93       82.523966   0.000000
   94       82.523966   0.000000
   95       82.524700   0.000000
   96       82.524700   0.000000
   97       83.342453   0.000000
   98       83.342453   0.000000
   99       83.774571   0.000000
  100       83.774571   0.000000
  101       83.774692   0.000000
  102       83.774692   0.000000
  103       84.340090   0.000000
  104       84.340090   0.000000
  105       85.058716   0.000000
  106       85.058716   0.000000
  107       88.340695   0.000000
  108       88.340695   0.000000
  109       88.340723   0.000000
  110       88.340723   0.000000
  111       89.501776   0.000000
  112       89.501776   0.000000
  113       89.504796   0.000000
  114       89.504796   0.000000
  115       90.039648   0.000000
  116       90.039648   0.000000
  117       94.265288   0.000000
  118       94.265288   0.000000
  119       95.825912   0.000000
  120       95.825912   0.000000
  121       95.853866   0.000000
  122       95.853866   0.000000
  123       98.137545   0.000000
  124       98.137545   0.000000
  125      108.998723   0.000000
  126      108.998723   0.000000
  127      109.005577   0.000000
  128      109.005578   0.000000
 
  0.2500000E+00  0.2775558E-16  0.0000000E+00  0.1953125E-02
    1      -45.856421   1.000000
    2      -45.856421   1.000000
    3      -18.711079   1.000000
    4      -18.711079   1.000000
    5      -18.302592   1.000000
    6      -18.302592   1.000000
    7      -18.239345   1.000000
    8      -18.239343   1.000000
    9        4.983992   0.000000
   10        4.983992   0.000000
   11       15.208948   0.000000
   12       15.208948   0.000000
   13       21.109868   0.000000
   14       21.109868   0.000000
   15       21.112496   0.000000
   16       21.112497   0.000000
   17       19.725321   0.000000
   18       19.725321   0.000000
   19       21.748017   0.000000
   20       21.748017   0.000000
   21       21.750977   0.000000
   22       21.750977   0.000000
   23       25.659370   0.000000
   24       25.659370   0.000000
   25       26.875046   0.000000
   26       26.875046   0.000000
   27       26.889545   0.000000
   28       26.889545   0.000000
   29       29.532545   0.000000
   30       29.532545   0.000000
   31       34.525902   0.000000
   32       34.525902   0.000000
   33       35.302905   0.000000
   34       35.302905   0.000000
   35       35.306747   0.000000
   36       35.306747   0.000000
   37       42.886648   0.000000
   38       42.886648   0.000000
   39       42.891304   0.000000
   40       42.891304   0.000000
   41       45.763670   0.000000
   42       45.763670   0.000000
   43       49.437411   0.000000
   44       49.437411   0.000000
   45       54.463602   0.000000
   46       54.463602   0.000000
   47       54.465033   0.000000
   48       54.465034   0.000000
   49       56.699803   0.000000
   50       56.699803   0.000000
   51       58.620592   0.000000
   52       58.620592   0.000000
   53       58.621632   0.000000
   54       58.621632   0.000000
   55       59.168951   0.000000
   56       59.168951   0.000000
   57       63.119585   0.000000
   58       63.119585   0.000000
   59       63.125377   0.000000
   60       63.125377   0.000000
   61       64.875947   0.000000
   62       64.875947   0.000000
   63       66.119764   0.000000
   64       66.119764   0.000000
   65       67.194094   0.000000
   66       67.194094   0.000000
   67       67.194484   0.000000
   68       67.194484   0.000000
   69       68.248685   0.000000
   70       68.248685   0.000000
   71       68.250927   0.000000
   72       68.250927   0.000000
   73       68.570904   0.000000
   74       68.570904   0.000000
   75       73.483470   0.000000
   76       73.483470   0.000000
   77       73.487128   0.000000
   78       73.487128   0.000000
   79       74.858869   0.000000
   80       74.858869   0.000000
   81       75.348594   0.000000
   82       75.348594   0.000000
   83       75.348706   0.000000
   84       75.348707   0.000000
   85       77.147819   0.000000
   86       77.147819   0.000000
   87       78.402075   0.000000
   88       78.402075   0.000000
   89       81.180939   0.000000
   90       81.180939   0.000000
   91       81.182824   0.000000
   92       81.182824   0.000000
   93       84.536218   0.000000
   94       84.536218   0.000000
   95       85.298034   0.000000
   96       85.298035   0.000000
   97       85.302222   0.000000
   98       85.302222   0.000000
   99       89.865645   0.000000
  100       89.865645   0.000000
  101       89.865976   0.000000
  102       89.865976   0.000000
  103       91.021801   0.000000
  104       91.021801   0.000000
  105       91.040977   0.000000
  106       91.040978   0.000000
  107       92.856378   0.000000
  108       92.856378   0.000000
  109       92.869674   0.000000
  110       92.869674   0.000000
  111       94.549902   0.000000
  112       94.549902   0.000000
  113       95.748955   0.000000
  114       95.748955   0.000000
  115       95.751121   0.000000
  116       95.751121   0.000000
  117       96.313859   0.000000
  118       96.313859   0.000000
  119       98.309947   0.000000
  120       98.309948   0.000000
  121       98.310079   0.000000
  122       98.310079   0.000000
  123      102.837926   0.000000
  124      102.837926   0.000000
  125      104.472434   0.000000
  126      104.472435   0.000000
  127      104.481351   0.000000
  128      104.481351   0.000000
 
  0.3750000E+00  0.0000000E+00  0.0000000E+00  0.1953125E-02
    1      -45.816452   1.000000
    2      -45.816452   1.000000
    3      -18.665313   1.000000
    4      -18.665313   1.000000
    5      -18.283701   1.000000
    6      -18.283701   1.000000
    7      -18.220971   1.000000
    8      -18.220969   1.000000
    9        6.986004   0.000000
   10        6.986004   0.000000
   11       12.134251   0.000000
   12       12.134251   0.000000
   13       20.466239   0.000000
   14       20.466239   0.000000
   15       20.467797   0.000000
   16       20.467798   0.000000
   17       19.165587   0.000000
   18       19.165587   0.000000
   19       21.800236   0.000000
   20       21.800237   0.000000
   21       21.811003   0.000000
   22       21.811003   0.000000
   23       24.834799   0.000000
   24       24.834799   0.000000
   25       28.553136   0.000000
   26       28.553136   0.000000
   27       28.560691   0.000000
   28       28.560691   0.000000
   29       33.083102   0.000000
   30       33.083102   0.000000
   31       36.786973   0.000000
   32       36.786973   0.000000
   33       36.789643   0.000000
   34       36.789643   0.000000
   35       40.659215   0.000000
   36       40.659215   0.000000
   37       41.419597   0.000000
   38       41.419597   0.000000
   39       41.425344   0.000000
   40       41.425344   0.000000
   41       43.446826   0.000000
   42       43.446826   0.000000
   43       49.688220   0.000000
   44       49.688220   0.000000
   45       52.582911   0.000000
   46       52.582911   0.000000
   47       52.583460   0.000000
   48       52.583460   0.000000
   49       55.909578   0.000000
   50       55.909579   0.000000
   51       55.910975   0.000000
   52       55.910975   0.000000
   53       56.290983   0.000000
   54       56.290983   0.000000
   55       57.448228   0.000000
   56       57.448228   0.000000
   57       58.251106   0.000000
   58       58.251106   0.000000
   59       61.878948   0.000000
   60       61.878948   0.000000
   61       61.881098   0.000000
   62       61.881098   0.000000
   63       64.098315   0.000000
   64       64.098315   0.000000
   65       64.098654   0.000000
   66       64.098654   0.000000
   67       64.904096   0.000000
   68       64.904096   0.000000
   69       65.065822   0.000000
   70       65.065822   0.000000
   71       69.307611   0.000000
   72       69.307611   0.000000
   73       69.319051   0.000000
   74       69.319051   0.000000
   75       74.705617   0.000000
   76       74.705617   0.000000
   77       74.816238   0.000000
   78       74.816238   0.000000
   79       74.816723   0.000000
   80       74.816723   0.000000
   81       76.344709   0.000000
   82       76.344709   0.000000
   83       78.347815   0.000000
   84       78.347815   0.000000
   85       78.348924   0.000000
   86       78.348924   0.000000
   87       81.566190   0.000000
   88       81.566190   0.000000
   89       83.232597   0.000000
   90       83.232597   0.000000
   91       83.238547   0.000000
   92       83.238547   0.000000
   93       86.451742   0.000000
   94       86.451742   0.000000
   95       87.711136   0.000000
   96       87.711136   0.000000
   97       87.718803   0.000000
   98       87.718803   0.000000
   99       93.199917   0.000000
  100       93.199917   0.000000
  101       93.200899   0.000000
  102       93.200899   0.000000
  103       93.602568   0.000000
  104       93.602568   0.000000
  105       96.371396   0.000000
  106       96.371397   0.000000
  107       96.797383   0.000000
  108       96.797384   0.000000
  109       96.797521   0.000000
  110       96.797521   0.000000
  111       98.336648   0.000000
  112       98.336648   0.000000
  113       98.338141   0.000000
  114       98.338141   0.000000
  115       98.453458   0.000000
  116       98.453459   0.000000
  117      100.773685   0.000000
  118      100.773685   0.000000
  119      101.379845   0.000000
  120      101.379845   0.000000
  121      101.379974   0.000000
  122      101.379974   0.000000
  123      103.909076   0.000000
  124      103.909076   0.000000
  125      104.951519   0.000000
  126      104.951519   0.000000
  127      104.960617   0.000000
  128      104.960617   0.000000
 
  0.5000000E+00  0.5551115E-16  0.0000000E+00  0.1953125E-02
    1      -45.811028   1.000000
    2      -45.811028   1.000000
    3      -18.749638   1.000000
    4      -18.749638   1.000000
    5      -18.391631   1.000000
    6      -18.391631   1.000000
    7      -18.328493   1.000000
    8      -18.328492   1.000000
    9        9.347316   0.000000
   10        9.347316   0.000000
   11        9.422364   0.000000
   12        9.422364   0.000000
   13       20.197349   0.000000
   14       20.197349   0.000000
   15       20.198482   0.000000
   16       20.198482   0.000000
   17       19.053697   0.000000
   18       19.053697   0.000000
   19       21.806841   0.000000
   20       21.806841   0.000000
   21       21.821577   0.000000
   22       21.821577   0.000000
   23       24.236715   0.000000
   24       24.236715   0.000000
   25       29.745876   0.000000
   26       29.745876   0.000000
   27       29.746018   0.000000
   28       29.746018   0.000000
   29       35.229488   0.000000
   30       35.229488   0.000000
   31       35.239717   0.000000
   32       35.239717   0.000000
   33       36.189650   0.000000
   34       36.189650   0.000000
   35       40.169008   0.000000
   36       40.169008   0.000000
   37       44.744227   0.000000
   38       44.744227   0.000000
   39       44.744283   0.000000
   40       44.744283   0.000000
   41       47.230392   0.000000
   42       47.230392   0.000000
   43       48.047096   0.000000
   44       48.047096   0.000000
   45       48.050618   0.000000
   46       48.050618   0.000000
   47       48.348989   0.000000
   48       48.348989   0.000000
   49       51.745862   0.000000
   50       51.745862   0.000000
   51       55.541418   0.000000
   52       55.541418   0.000000
   53       56.550676   0.000000
   54       56.550676   0.000000
   55       56.552481   0.000000
   56       56.552481   0.000000
   57       59.487040   0.000000
   58       59.487040   0.000000
   59       61.581554   0.000000
   60       61.581555   0.000000
   61       61.581894   0.000000
   62       61.581894   0.000000
   63       62.679835   0.000000
   64       62.679835   0.000000
   65       62.680068   0.000000
   66       62.680068   0.000000
   67       62.960091   0.000000
   68       62.960091   0.000000
   69       65.559248   0.000000
   70       65.559248   0.000000
   71       69.205022   0.000000
   72       69.205022   0.000000
   73       69.218837   0.000000
   74       69.218837   0.000000
   75       74.555288   0.000000
   76       74.555288   0.000000
   77       74.556207   0.000000
   78       74.556207   0.000000
   79       74.782482   0.000000
   80       74.782482   0.000000
   81       75.563187   0.000000
   82       75.563187   0.000000
   83       81.050564   0.000000
   84       81.050564   0.000000
   85       81.061111   0.000000
   86       81.061111   0.000000
   87       82.557601   0.000000
   88       82.557601   0.000000
   89       86.059988   0.000000
   90       86.059988   0.000000
   91       86.061651   0.000000
   92       86.061651   0.000000
   93       89.964606   0.000000
   94       89.964606   0.000000
   95       90.016999   0.000000
   96       90.016999   0.000000
   97       90.017882   0.000000
   98       90.017882   0.000000
   99       90.676139   0.000000
  100       90.676139   0.000000
  101       90.676226   0.000000
  102       90.676226   0.000000
  103       90.866103   0.000000
  104       90.866103   0.000000
  105       96.227772   0.000000
  106       96.227772   0.000000
  107       96.236518   0.000000
  108       96.236518   0.000000
  109       97.828581   0.000000
  110       97.828581   0.000000
  111      100.225027   0.000000
  112      100.225027   0.000000
  113      100.225179   0.000000
  114      100.225179   0.000000
  115      101.729109   0.000000
  116      101.729109   0.000000
  117      104.496610   0.000000
  118      104.496610   0.000000
  119      104.497415   0.000000
  120      104.497415   0.000000
  121      105.309528   0.000000
  122      105.309528   0.000000
  123      105.309927   0.000000
  124      105.309927   0.000000
  125      106.405173   0.000000
  126      106.405173   0.000000
  127      106.741157   0.000000
  128      106.741157   0.000000
 
 -0.3750000E+00  0.0000000E+00  0.0000000E+00  0.1953125E-02
    1      -45.816289   1.000000
    2      -45.816289   1.000000
    3      -18.664561   1.000000
    4      -18.664561   1.000000
    5      -18.283244   1.000000
    6      -18.283244   1.000000
    7      -18.220499   1.000000
    8      -18.220498   1.000000
    9        6.986023   0.000000
   10        6.986024   0.000000
   11       12.134381   0.000000
   12       12.134382   0.000000
   13       20.466245   0.000000
   14       20.466245   0.000000
   15       20.467802   0.000000
   16       20.467803   0.000000
   17       19.165587   0.000000
   18       19.165587   0.000000
   19       21.800236   0.000000
   20       21.800237   0.000000
   21       21.811003   0.000000
   22       21.811003   0.000000
   23       24.834799   0.000000
   24       24.834799   0.000000
   25       28.553136   0.000000
   26       28.553136   0.000000
   27       28.560691   0.000000
   28       28.560691   0.000000
   29       33.083102   0.000000
   30       33.083102   0.000000
   31       36.786973   0.000000
   32       36.786973   0.000000
   33       36.789643   0.000000
   34       36.789643   0.000000
   35       40.659215   0.000000
   36       40.659215   0.000000
   37       41.419597   0.000000
   38       41.419597   0.000000
   39       41.425344   0.000000
   40       41.425344   0.000000
   41       43.446826   0.000000
   42       43.446826   0.000000
   43       49.688220   0.000000
   44       49.688220   0.000000
   45       52.582911   0.000000
   46       52.582911   0.000000
   47       52.583460   0.000000
   48       52.583460   0.000000
   49       55.909578   0.000000
   50       55.909579   0.000000
   51       55.910975   0.000000
   52       55.910975   0.000000
   53       56.290983   0.000000
   54       56.290983   0.000000
   55       57.448228   0.000000
   56       57.448228   0.000000
   57       58.251106   0.000000
   58       58.251106   0.000000
   59       61.878948   0.000000
   60       61.878948   0.000000
   61       61.881098   0.000000
   62       61.881098   0.000000
   63       64.098315   0.000000
   64       64.098315   0.000000
   65       64.098654   0.000000
   66       64.098654   0.000000
   67       64.904096   0.000000
   68       64.904096   0.000000
   69       65.065822   0.000000
   70       65.065822   0.000000
   71       69.307611   0.000000
   72       69.307611   0.000000
   73       69.319051   0.000000
   74       69.319051   0.000000
   75       74.705617   0.000000
   76       74.705617   0.000000
   77       74.816238   0.000000
   78       74.816238   0.000000
   79       74.816723   0.000000
   80       74.816723   0.000000
   81       76.344709   0.000000
   82       76.344709   0.000000
   83       78.347815   0.000000
   84       78.347815   0.000000
   85       78.348924   0.000000
   86       78.348924   0.000000
   87       81.566190   0.000000
   88       81.566190   0.000000
   89       83.232597   0.000000
   90       83.232597   0.000000
   91       83.238547   0.000000
   92       83.238547   0.000000
   93       86.451742   0.000000
   94       86.451742   0.000000
   95       87.711136   0.000000
   96       87.711136   0.000000
   97       87.718803   0.000000
   98       87.718803   0.000000
   99       93.199917   0.000000
  100       93.199917   0.000000
  101       93.200899   0.000000
  102       93.200899   0.000000
  103       93.602568   0.000000
  104       93.602568   0.000000
  105       96.371396   0.000000
  106       96.371397   0.000000
  107       96.797383   0.000000
  108       96.797384   0.000000
  109       96.797521   0.000000
  110       96.797521   0.000000
  111       98.336648   0.000000
  112       98.336648   0.000000
  113       98.338141   0.000000
  114       98.338141   0.000000
  115       98.453458   0.000000
  116       98.453459   0.000000
  117      100.773685   0.000000
  118      100.773685   0.000000
  119      101.379845   0.000000
  120      101.379845   0.000000
  121      101.379974   0.000000
  122      101.379974   0.000000
  123      103.909076   0.000000
  124      103.909076   0.000000
  125      104.951519   0.000000
  126      104.951519   0.000000
  127      104.960617   0.000000
  128      104.960617   0.000000
 
 -0.2500000E+00 -0.2775558E-16  0.0000000E+00  0.1953125E-02
    1      -45.856320   1.000000
    2      -45.856320   1.000000
    3      -18.710566   1.000000
    4      -18.710566   1.000000
    5      -18.302304   1.000000
    6      -18.302304   1.000000
    7      -18.239054   1.000000
    8      -18.239052   1.000000
    9        4.983972   0.000000
   10        4.983972   0.000000
   11       15.209001   0.000000
   12       15.209001   0.000000
   13       21.109876   0.000000
   14       21.109876   0.000000
   15       21.112501   0.000000
   16       21.112503   0.000000
   17       19.725321   0.000000
   18       19.725321   0.000000
   19       21.748017   0.000000
   20       21.748017   0.000000
   21       21.750977   0.000000
   22       21.750977   0.000000
   23       25.659370   0.000000
   24       25.659370   0.000000
   25       26.875046   0.000000
   26       26.875046   0.000000
   27       26.889545   0.000000
   28       26.889545   0.000000
   29       29.532545   0.000000
   30       29.532545   0.000000
   31       34.525902   0.000000
   32       34.525902   0.000000
   33       35.302905   0.000000
   34       35.302905   0.000000
   35       35.306747   0.000000
   36       35.306747   0.000000
   37       42.886648   0.000000
   38       42.886648   0.000000
   39       42.891304   0.000000
   40       42.891304   0.000000
   41       45.763670   0.000000
   42       45.763670   0.000000
   43       49.437411   0.000000
   44       49.437411   0.000000
   45       54.463602   0.000000
   46       54.463602   0.000000
   47       54.465033   0.000000
   48       54.465034   0.000000
   49       56.699803   0.000000
   50       56.699803   0.000000
   51       58.620592   0.000000
   52       58.620592   0.000000
   53       58.621632   0.000000
   54       58.621632   0.000000
   55       59.168951   0.000000
   56       59.168951   0.000000
   57       63.119585   0.000000
   58       63.119585   0.000000
   59       63.125377   0.000000
   60       63.125377   0.000000
   61       64.875947   0.000000
   62       64.875947   0.000000
   63       66.119764   0.000000
   64       66.119764   0.000000
   65       67.194094   0.000000
   66       67.194094   0.000000
   67       67.194484   0.000000
   68       67.194484   0.000000
   69       68.248685   0.000000
   70       68.248685   0.000000
   71       68.250927   0.000000
   72       68.250927   0.000000
   73       68.570904   0.000000
   74       68.570904   0.000000
   75       73.483470   0.000000
   76       73.483470   0.000000
   77       73.487128   0.000000
   78       73.487128   0.000000
   79       74.858869   0.000000
   80       74.858869   0.000000
   81       75.348594   0.000000
   82       75.348594   0.000000
   83       75.348706   0.000000
   84       75.348707   0.000000
   85       77.147819   0.000000
   86       77.147819   0.000000
   87       78.402075   0.000000
   88       78.402075   0.000000
   89       81.180939   0.000000
   90       81.180939   0.000000
   91       81.182824   0.000000
   92       81.182824   0.000000
   93       84.536218   0.000000
   94       84.536218   0.000000
   95       85.298035   0.000000
   96       85.298035   0.000000
   97       85.302222   0.000000
   98       85.302222   0.000000
   99       89.865645   0.000000
  100       89.865645   0.000000
  101       89.865976   0.000000
  102       89.865976   0.000000
  103       91.021801   0.000000
  104       91.021801   0.000000
  105       91.040977   0.000000
  106       91.040978   0.000000
  107       92.856378   0.000000
  108       92.856378   0.000000
  109       92.869674   0.000000
  110       92.869674   0.000000
  111       94.549902   0.000000
  112       94.549902   0.000000
  113       95.748955   0.000000
  114       95.748955   0.000000
  115       95.751121   0.000000
  116       95.751121   0.000000
  117       96.313859   0.000000
  118       96.313859   0.000000
  119       98.309948   0.000000
  120       98.309948   0.000000
  121       98.310079   0.000000