   1   1   0   0
  0.6156630E+02  0.4432200E-09  0.4432200E-09  0.4432200E-09  0.1000000E-15
  1.000000000000000E-004
  CAR 
 Og_FCC                                  
     12.72613954    -17.71176230  301     -3.55813794      1.00000000
    -17.712  0.0000E+00  0.0000E+00
    -17.610  0.0000E+00  0.0000E+00
    -17.509  0.0000E+00  0.0000E+00
    -17.407  0.0000E+00  0.0000E+00
    -17.306  0.0000E+00  0.0000E+00
    -17.204  0.0000E+00  0.0000E+00
    -17.103  0.0000E+00  0.0000E+00
    -17.002  0.0000E+00  0.0000E+00
    -16.900  0.0000E+00  0.0000E+00
    -16.799  0.0000E+00  0.0000E+00
    -16.697  0.0000E+00  0.0000E+00
    -16.596  0.0000E+00  0.0000E+00
    -16.494  0.0000E+00  0.0000E+00
    -16.393  0.0000E+00  0.0000E+00
    -16.291  0.0000E+00  0.9259E-02
    -16.190  0.1241E+01  0.3760E+00
    -16.088  0.5476E+01  0.1861E+01
    -15.987  0.0000E+00  0.2000E+01
    -15.885  0.0000E+00  0.2000E+01
    -15.784  0.0000E+00  0.2000E+01
    -15.683  0.0000E+00  0.2000E+01
    -15.581  0.0000E+00  0.2000E+01
    -15.480  0.0000E+00  0.2000E+01
    -15.378  0.0000E+00  0.2000E+01
    -15.277  0.0000E+00  0.2000E+01
    -15.175  0.0000E+00  0.2000E+01
    -15.074  0.0000E+00  0.2000E+01
    -14.972  0.0000E+00  0.2000E+01
    -14.871  0.0000E+00  0.2000E+01
    -14.769  0.0000E+00  0.2000E+01
    -14.668  0.0000E+00  0.2000E+01
    -14.567  0.0000E+00  0.2000E+01
    -14.465  0.0000E+00  0.2000E+01
    -14.364  0.0000E+00  0.2000E+01
    -14.262  0.0000E+00  0.2000E+01
    -14.161  0.0000E+00  0.2000E+01
    -14.059  0.0000E+00  0.2000E+01
    -13.958  0.0000E+00  0.2000E+01
    -13.856  0.0000E+00  0.2000E+01
    -13.755  0.0000E+00  0.2000E+01
    -13.653  0.0000E+00  0.2000E+01
    -13.552  0.0000E+00  0.2000E+01
    -13.450  0.0000E+00  0.2000E+01
    -13.349  0.0000E+00  0.2000E+01
    -13.248  0.0000E+00  0.2000E+01
    -13.146  0.0000E+00  0.2000E+01
    -13.045  0.0000E+00  0.2000E+01
    -12.943  0.0000E+00  0.2000E+01
    -12.842  0.0000E+00  0.2000E+01
    -12.740  0.0000E+00  0.2000E+01
    -12.639  0.0000E+00  0.2000E+01
    -12.537  0.0000E+00  0.2000E+01
    -12.436  0.0000E+00  0.2000E+01
    -12.334  0.0000E+00  0.2000E+01
    -12.233  0.0000E+00  0.2000E+01
    -12.131  0.0000E+00  0.2000E+01
    -12.030  0.0000E+00  0.2000E+01
    -11.929  0.0000E+00  0.2000E+01
    -11.827  0.0000E+00  0.2000E+01
    -11.726  0.0000E+00  0.2000E+01
    -11.624  0.0000E+00  0.2000E+01
    -11.523  0.0000E+00  0.2000E+01
    -11.421  0.0000E+00  0.2000E+01
    -11.320  0.0000E+00  0.2000E+01
    -11.218  0.0000E+00  0.2000E+01
    -11.117  0.0000E+00  0.2000E+01
    -11.015  0.0000E+00  0.2000E+01
    -10.914  0.0000E+00  0.2000E+01
    -10.813  0.0000E+00  0.2000E+01
    -10.711  0.0000E+00  0.2000E+01
    -10.610  0.0000E+00  0.2000E+01
    -10.508  0.0000E+00  0.2000E+01
    -10.407  0.0000E+00  0.2000E+01
    -10.305  0.0000E+00  0.2000E+01
    -10.204  0.0000E+00  0.2000E+01
    -10.102  0.0000E+00  0.2000E+01
    -10.001  0.0000E+00  0.2000E+01
     -9.899  0.0000E+00  0.2000E+01
     -9.798  0.0000E+00  0.2000E+01
     -9.696  0.0000E+00  0.2000E+01
     -9.595  0.0000E+00  0.2000E+01
     -9.494  0.0000E+00  0.2000E+01
     -9.392  0.0000E+00  0.2000E+01
     -9.291  0.0000E+00  0.2000E+01
     -9.189  0.0000E+00  0.2000E+01
     -9.088  0.0000E+00  0.2000E+01
     -8.986  0.0000E+00  0.2000E+01
     -8.885  0.0000E+00  0.2000E+01
     -8.783  0.0000E+00  0.2000E+01
     -8.682  0.0000E+00  0.2000E+01
     -8.580  0.0000E+00  0.2000E+01
     -8.479  0.0000E+00  0.2000E+01
     -8.377  0.0000E+00  0.2000E+01
     -8.276  0.0000E+00  0.2000E+01
     -8.175  0.0000E+00  0.2000E+01
     -8.073  0.0000E+00  0.2000E+01
     -7.972  0.0000E+00  0.2000E+01
     -7.870  0.0000E+00  0.2000E+01
     -7.769  0.0000E+00  0.2000E+01
     -7.667  0.0000E+00  0.2000E+01
     -7.566  0.0000E+00  0.2000E+01
     -7.464  0.0000E+00  0.2000E+01
     -7.363  0.0000E+00  0.2000E+01
     -7.261  0.0000E+00  0.2000E+01
     -7.160  0.0000E+00  0.2000E+01
     -7.058  0.0000E+00  0.2000E+01
     -6.957  0.0000E+00  0.2000E+01
     -6.856  0.0000E+00  0.2000E+01
     -6.754  0.0000E+00  0.2000E+01
     -6.653  0.0000E+00  0.2000E+01
     -6.551  0.0000E+00  0.2000E+01
     -6.450  0.0000E+00  0.2000E+01
     -6.348  0.0000E+00  0.2000E+01
     -6.247  0.0000E+00  0.2000E+01
     -6.145  0.0000E+00  0.2000E+01
     -6.044  0.0000E+00  0.2000E+01
     -5.942  0.0000E+00  0.2000E+01
     -5.841  0.0000E+00  0.2000E+01
     -5.740  0.0000E+00  0.2065E+01
     -5.638  0.2598E-01  0.2956E+01
     -5.537  0.7295E+00  0.3528E+01
     -5.435  0.2190E+01  0.3750E+01
     -5.334  0.8935E+00  0.3841E+01
     -5.232  0.0000E+00  0.3861E+01
     -5.131  0.0000E+00  0.3917E+01
     -5.029  0.0000E+00  0.3991E+01
     -4.928  0.0000E+00  0.4000E+01
     -4.826  0.0000E+00  0.4000E+01
     -4.725  0.0000E+00  0.4000E+01
     -4.623  0.1434E-07  0.4444E+01
     -4.522  0.0000E+00  0.4917E+01
     -4.421  0.0000E+00  0.5417E+01
     -4.319  0.0000E+00  0.5454E+01
     -4.218  0.0000E+00  0.5861E+01
     -4.116  0.0000E+00  0.6556E+01
     -4.015  0.0000E+00  0.6833E+01
     -3.913  0.6838E+00  0.7403E+01
     -3.812  0.0000E+00  0.7630E+01
     -3.710  0.0000E+00  0.7907E+01
     -3.609  0.0000E+00  0.7981E+01
     -3.507  0.0000E+00  0.8000E+01
     -3.406  0.0000E+00  0.8000E+01
     -3.304  0.0000E+00  0.8000E+01
     -3.203  0.0000E+00  0.8000E+01
     -3.102  0.0000E+00  0.8000E+01
     -3.000  0.0000E+00  0.8000E+01
     -2.899  0.0000E+00  0.8000E+01
     -2.797  0.0000E+00  0.8000E+01
     -2.696  0.0000E+00  0.8000E+01
     -2.594  0.0000E+00  0.8000E+01
     -2.493  0.0000E+00  0.8000E+01
     -2.391  0.0000E+00  0.8000E+01
     -2.290  0.0000E+00  0.8000E+01
     -2.188  0.0000E+00  0.8000E+01
     -2.087  0.0000E+00  0.8000E+01
     -1.986  0.0000E+00  0.8000E+01
     -1.884  0.0000E+00  0.8000E+01
     -1.783  0.0000E+00  0.8000E+01
     -1.681  0.0000E+00  0.8000E+01
     -1.580  0.0000E+00  0.8000E+01
     -1.478  0.0000E+00  0.8000E+01
     -1.377  0.0000E+00  0.8000E+01
     -1.275  0.0000E+00  0.8000E+01
     -1.174  0.0000E+00  0.8000E+01
     -1.072  0.0000E+00  0.8000E+01
     -0.971  0.0000E+00  0.8000E+01
     -0.869  0.0000E+00  0.8000E+01
     -0.768  0.0000E+00  0.8000E+01
     -0.667  0.0000E+00  0.8000E+01
     -0.565  0.0000E+00  0.8000E+01
     -0.464  0.0000E+00  0.8000E+01
     -0.362  0.0000E+00  0.8000E+01
     -0.261  0.0000E+00  0.8000E+01
     -0.159  0.0000E+00  0.8000E+01
     -0.058  0.0000E+00  0.8000E+01
      0.044  0.0000E+00  0.8000E+01
      0.145  0.0000E+00  0.8000E+01
      0.247  0.0000E+00  0.8000E+01
      0.348  0.0000E+00  0.8000E+01
      0.450  0.0000E+00  0.8000E+01
      0.551  0.0000E+00  0.8000E+01
      0.652  0.0000E+00  0.8000E+01
      0.754  0.0000E+00  0.8000E+01
      0.855  0.0000E+00  0.8000E+01
      0.957  0.0000E+00  0.8000E+01
      1.058  0.0000E+00  0.8000E+01
      1.160  0.0000E+00  0.8000E+01
      1.261  0.0000E+00  0.8000E+01
      1.363  0.0000E+00  0.8000E+01
      1.464  0.0000E+00  0.8000E+01
      1.566  0.0000E+00  0.8000E+01
      1.667  0.0000E+00  0.8000E+01
      1.768  0.0000E+00  0.8000E+01
      1.870  0.0000E+00  0.8000E+01
      1.971  0.0000E+00  0.8000E+01
      2.073  0.0000E+00  0.8000E+01
      2.174  0.0000E+00  0.8000E+01
      2.276  0.0000E+00  0.8009E+01
      2.377  0.0000E+00  0.8009E+01
      2.479  0.0000E+00  0.8009E+01
      2.580  0.0000E+00  0.8009E+01
      2.682  0.0000E+00  0.8009E+01
      2.783  0.0000E+00  0.8009E+01
      2.885  0.0000E+00  0.8083E+01
      2.986  0.0000E+00  0.8083E+01
      3.087  0.5476E+00  0.8139E+01
      3.189  0.0000E+00  0.8139E+01
      3.290  0.0000E+00  0.8139E+01
      3.392  0.0000E+00  0.8139E+01
      3.493  0.0000E+00  0.8167E+01
      3.595  0.0000E+00  0.8167E+01
      3.696  0.0000E+00  0.8241E+01
      3.798  0.0000E+00  0.8389E+01
      3.899  0.2190E+01  0.8667E+01
      4.001  0.0000E+00  0.8889E+01
      4.102  0.0000E+00  0.8889E+01
      4.204  0.0000E+00  0.9000E+01
      4.305  0.0000E+00  0.9250E+01
      4.406  0.0000E+00  0.9472E+01
      4.508  0.0000E+00  0.9583E+01
      4.609  0.0000E+00  0.9806E+01
      4.711  0.0000E+00  0.9861E+01
      4.812  0.0000E+00  0.1031E+02
      4.914  0.0000E+00  0.1031E+02
      5.015  0.0000E+00  0.1031E+02
      5.117  0.0000E+00  0.1042E+02
      5.218  0.0000E+00  0.1064E+02
      5.320  0.0000E+00  0.1086E+02
      5.421  0.0000E+00  0.1119E+02
      5.523  0.0000E+00  0.1142E+02
      5.624  0.0000E+00  0.1164E+02
      5.725  0.0000E+00  0.1203E+02
      5.827  0.0000E+00  0.1203E+02
      5.928  0.0000E+00  0.1203E+02
      6.030  0.0000E+00  0.1203E+02
      6.131  0.0000E+00  0.1210E+02
      6.233  0.0000E+00  0.1262E+02
      6.334  0.0000E+00  0.1284E+02
      6.436  0.0000E+00  0.1303E+02
      6.537  0.0000E+00  0.1314E+02
      6.639  0.0000E+00  0.1344E+02
      6.740  0.0000E+00  0.1354E+02
      6.841  0.7949E-01  0.1360E+02
      6.943  0.0000E+00  0.1411E+02
      7.044  0.0000E+00  0.1456E+02
      7.146  0.0000E+00  0.1461E+02
      7.247  0.4657E+00  0.1471E+02
      7.349  0.0000E+00  0.1472E+02
      7.450  0.2152E+01  0.1539E+02
      7.552  0.0000E+00  0.1539E+02
      7.653  0.0000E+00  0.1539E+02
      7.755  0.0000E+00  0.1550E+02
      7.856  0.0000E+00  0.1561E+02
      7.958  0.0000E+00  0.1583E+02
      8.059  0.0000E+00  0.1583E+02
      8.160  0.0000E+00  0.1586E+02
      8.262  0.0000E+00  0.1586E+02
      8.363  0.0000E+00  0.1601E+02
      8.465  0.0000E+00  0.1623E+02
      8.566  0.0000E+00  0.1645E+02
      8.668  0.0000E+00  0.1651E+02
      8.769  0.4923E-02  0.1657E+02
      8.871  0.0000E+00  0.1703E+02
      8.972  0.0000E+00  0.1703E+02
      9.074  0.0000E+00  0.1703E+02
      9.175  0.1095E+01  0.1734E+02
      9.277  0.0000E+00  0.1734E+02
      9.378  0.0000E+00  0.1768E+02
      9.479  0.1095E+01  0.1782E+02
      9.581  0.0000E+00  0.1782E+02
      9.682  0.0000E+00  0.1782E+02
      9.784  0.0000E+00  0.1827E+02
      9.885  0.0000E+00  0.1849E+02
      9.987  0.0000E+00  0.1855E+02
     10.088  0.0000E+00  0.1855E+02
     10.190  0.0000E+00  0.1855E+02
     10.291  0.0000E+00  0.1855E+02
     10.393  0.0000E+00  0.1855E+02
     10.494  0.0000E+00  0.1857E+02
     10.595  0.0000E+00  0.1861E+02
     10.697  0.0000E+00  0.1889E+02
     10.798  0.0000E+00  0.1911E+02
     10.900  0.2190E+01  0.1967E+02
     11.001  0.0000E+00  0.1967E+02
     11.103  0.0000E+00  0.1967E+02
     11.204  0.0000E+00  0.1989E+02
     11.306  0.4563E-01  0.1996E+02
     11.407  0.0000E+00  0.2000E+02
     11.509  0.0000E+00  0.2000E+02
     11.610  0.0000E+00  0.2000E+02
     11.712  0.0000E+00  0.2000E+02
     11.813  0.0000E+00  0.2000E+02
     11.914  0.0000E+00  0.2000E+02
     12.016  0.0000E+00  0.2000E+02
     12.117  0.0000E+00  0.2000E+02
     12.219  0.0000E+00  0.2000E+02
     12.320  0.0000E+00  0.2000E+02
     12.422  0.0000E+00  0.2000E+02
     12.523  0.0000E+00  0.2000E+02
     12.625  0.0000E+00  0.2000E+02
     12.726  0.0000E+00  0.2000E+02
