   1   1   0   0
  0.6156630E+02  0.4432200E-09  0.4432200E-09  0.4432200E-09  0.1000000E-15
  1.000000000000000E-004
  CAR 
 Og_FCC                                  
     12.41542949    -17.69698001  301     -3.59433490      1.00000000
    -17.697  0.0000E+00  0.0000E+00
    -17.597  0.0000E+00  0.0000E+00
    -17.496  0.0000E+00  0.0000E+00
    -17.396  0.0000E+00  0.0000E+00
    -17.295  0.0000E+00  0.0000E+00
    -17.195  0.0000E+00  0.0000E+00
    -17.095  0.0000E+00  0.0000E+00
    -16.994  0.0000E+00  0.0000E+00
    -16.894  0.0000E+00  0.0000E+00
    -16.794  0.0000E+00  0.0000E+00
    -16.693  0.0000E+00  0.0000E+00
    -16.593  0.0000E+00  0.0000E+00
    -16.492  0.0000E+00  0.0000E+00
    -16.392  0.0000E+00  0.0000E+00
    -16.292  0.4643E+00  0.5243E-01
    -16.191  0.0000E+00  0.3440E+00
    -16.091  0.1709E+01  0.1647E+01
    -15.991  0.0000E+00  0.2000E+01
    -15.890  0.0000E+00  0.2000E+01
    -15.790  0.0000E+00  0.2000E+01
    -15.689  0.0000E+00  0.2000E+01
    -15.589  0.0000E+00  0.2000E+01
    -15.489  0.0000E+00  0.2000E+01
    -15.388  0.0000E+00  0.2000E+01
    -15.288  0.0000E+00  0.2000E+01
    -15.188  0.0000E+00  0.2000E+01
    -15.087  0.0000E+00  0.2000E+01
    -14.987  0.0000E+00  0.2000E+01
    -14.886  0.0000E+00  0.2000E+01
    -14.786  0.0000E+00  0.2000E+01
    -14.686  0.0000E+00  0.2000E+01
    -14.585  0.0000E+00  0.2000E+01
    -14.485  0.0000E+00  0.2000E+01
    -14.385  0.0000E+00  0.2000E+01
    -14.284  0.0000E+00  0.2000E+01
    -14.184  0.0000E+00  0.2000E+01
    -14.083  0.0000E+00  0.2000E+01
    -13.983  0.0000E+00  0.2000E+01
    -13.883  0.0000E+00  0.2000E+01
    -13.782  0.0000E+00  0.2000E+01
    -13.682  0.0000E+00  0.2000E+01
    -13.582  0.0000E+00  0.2000E+01
    -13.481  0.0000E+00  0.2000E+01
    -13.381  0.0000E+00  0.2000E+01
    -13.280  0.0000E+00  0.2000E+01
    -13.180  0.0000E+00  0.2000E+01
    -13.080  0.0000E+00  0.2000E+01
    -12.979  0.0000E+00  0.2000E+01
    -12.879  0.0000E+00  0.2000E+01
    -12.779  0.0000E+00  0.2000E+01
    -12.678  0.0000E+00  0.2000E+01
    -12.578  0.0000E+00  0.2000E+01
    -12.477  0.0000E+00  0.2000E+01
    -12.377  0.0000E+00  0.2000E+01
    -12.277  0.0000E+00  0.2000E+01
    -12.176  0.0000E+00  0.2000E+01
    -12.076  0.0000E+00  0.2000E+01
    -11.976  0.0000E+00  0.2000E+01
    -11.875  0.0000E+00  0.2000E+01
    -11.775  0.0000E+00  0.2000E+01
    -11.674  0.0000E+00  0.2000E+01
    -11.574  0.0000E+00  0.2000E+01
    -11.474  0.0000E+00  0.2000E+01
    -11.373  0.0000E+00  0.2000E+01
    -11.273  0.0000E+00  0.2000E+01
    -11.173  0.0000E+00  0.2000E+01
    -11.072  0.0000E+00  0.2000E+01
    -10.972  0.0000E+00  0.2000E+01
    -10.872  0.0000E+00  0.2000E+01
    -10.771  0.0000E+00  0.2000E+01
    -10.671  0.0000E+00  0.2000E+01
    -10.570  0.0000E+00  0.2000E+01
    -10.470  0.0000E+00  0.2000E+01
    -10.370  0.0000E+00  0.2000E+01
    -10.269  0.0000E+00  0.2000E+01
    -10.169  0.0000E+00  0.2000E+01
    -10.069  0.0000E+00  0.2000E+01
     -9.968  0.0000E+00  0.2000E+01
     -9.868  0.0000E+00  0.2000E+01
     -9.767  0.0000E+00  0.2000E+01
     -9.667  0.0000E+00  0.2000E+01
     -9.567  0.0000E+00  0.2000E+01
     -9.466  0.0000E+00  0.2000E+01
     -9.366  0.0000E+00  0.2000E+01
     -9.266  0.0000E+00  0.2000E+01
     -9.165  0.0000E+00  0.2000E+01
     -9.065  0.0000E+00  0.2000E+01
     -8.964  0.0000E+00  0.2000E+01
     -8.864  0.0000E+00  0.2000E+01
     -8.764  0.0000E+00  0.2000E+01
     -8.663  0.0000E+00  0.2000E+01
     -8.563  0.0000E+00  0.2000E+01
     -8.463  0.0000E+00  0.2000E+01
     -8.362  0.0000E+00  0.2000E+01
     -8.262  0.0000E+00  0.2000E+01
     -8.161  0.0000E+00  0.2000E+01
     -8.061  0.0000E+00  0.2000E+01
     -7.961  0.0000E+00  0.2000E+01
     -7.860  0.0000E+00  0.2000E+01
     -7.760  0.0000E+00  0.2000E+01
     -7.660  0.0000E+00  0.2000E+01
     -7.559  0.0000E+00  0.2000E+01
     -7.459  0.0000E+00  0.2000E+01
     -7.358  0.0000E+00  0.2000E+01
     -7.258  0.0000E+00  0.2000E+01
     -7.158  0.0000E+00  0.2000E+01
     -7.057  0.0000E+00  0.2000E+01
     -6.957  0.0000E+00  0.2000E+01
     -6.857  0.0000E+00  0.2000E+01
     -6.756  0.0000E+00  0.2000E+01
     -6.656  0.0000E+00  0.2000E+01
     -6.555  0.0000E+00  0.2000E+01
     -6.455  0.0000E+00  0.2000E+01
     -6.355  0.0000E+00  0.2000E+01
     -6.254  0.0000E+00  0.2000E+01
     -6.154  0.0000E+00  0.2000E+01
     -6.054  0.0000E+00  0.2000E+01
     -5.953  0.0000E+00  0.2000E+01
     -5.853  0.0000E+00  0.2000E+01
     -5.752  0.0000E+00  0.2000E+01
     -5.652  0.0000E+00  0.2991E+01
     -5.552  0.0000E+00  0.3341E+01
     -5.451  0.0000E+00  0.3621E+01
     -5.351  0.0000E+00  0.3703E+01
     -5.251  0.1064E-14  0.3843E+01
     -5.150  0.0000E+00  0.3913E+01
     -5.050  0.0000E+00  0.3994E+01
     -4.949  0.0000E+00  0.3994E+01
     -4.849  0.0000E+00  0.4000E+01
     -4.749  0.0000E+00  0.4000E+01
     -4.648  0.1394E+01  0.4280E+01
     -4.548  0.0000E+00  0.4875E+01
     -4.448  0.0000E+00  0.5155E+01
     -4.347  0.0000E+00  0.5621E+01
     -4.247  0.0000E+00  0.5796E+01
     -4.146  0.2479E-02  0.6193E+01
     -4.046  0.6793E+00  0.6925E+01
     -3.946  0.3485E+00  0.7102E+01
     -3.845  0.4326E+00  0.7600E+01
     -3.745  0.0000E+00  0.7790E+01
     -3.645  0.0000E+00  0.7942E+01
     -3.544  0.0000E+00  0.8000E+01
     -3.444  0.0000E+00  0.8000E+01
     -3.343  0.0000E+00  0.8000E+01
     -3.243  0.0000E+00  0.8000E+01
     -3.143  0.0000E+00  0.8000E+01
     -3.042  0.0000E+00  0.8000E+01
     -2.942  0.0000E+00  0.8000E+01
     -2.842  0.0000E+00  0.8000E+01
     -2.741  0.0000E+00  0.8000E+01
     -2.641  0.0000E+00  0.8000E+01
     -2.540  0.0000E+00  0.8000E+01
     -2.440  0.0000E+00  0.8000E+01
     -2.340  0.0000E+00  0.8000E+01
     -2.239  0.0000E+00  0.8000E+01
     -2.139  0.0000E+00  0.8000E+01
     -2.039  0.0000E+00  0.8000E+01
     -1.938  0.0000E+00  0.8000E+01
     -1.838  0.0000E+00  0.8000E+01
     -1.737  0.0000E+00  0.8000E+01
     -1.637  0.0000E+00  0.8000E+01
     -1.537  0.0000E+00  0.8000E+01
     -1.436  0.0000E+00  0.8000E+01
     -1.336  0.0000E+00  0.8000E+01
     -1.236  0.0000E+00  0.8000E+01
     -1.135  0.0000E+00  0.8000E+01
     -1.035  0.0000E+00  0.8000E+01
     -0.934  0.0000E+00  0.8000E+01
     -0.834  0.0000E+00  0.8000E+01
     -0.734  0.0000E+00  0.8000E+01
     -0.633  0.0000E+00  0.8000E+01
     -0.533  0.0000E+00  0.8000E+01
     -0.433  0.0000E+00  0.8000E+01
     -0.332  0.0000E+00  0.8000E+01
     -0.232  0.0000E+00  0.8000E+01
     -0.131  0.0000E+00  0.8000E+01
     -0.031  0.0000E+00  0.8000E+01
      0.069  0.0000E+00  0.8000E+01
      0.170  0.0000E+00  0.8000E+01
      0.270  0.0000E+00  0.8000E+01
      0.370  0.0000E+00  0.8000E+01
      0.471  0.0000E+00  0.8000E+01
      0.571  0.0000E+00  0.8000E+01
      0.672  0.0000E+00  0.8000E+01
      0.772  0.0000E+00  0.8000E+01
      0.872  0.0000E+00  0.8000E+01
      0.973  0.0000E+00  0.8000E+01
      1.073  0.0000E+00  0.8000E+01
      1.173  0.0000E+00  0.8000E+01
      1.274  0.0000E+00  0.8000E+01
      1.374  0.0000E+00  0.8000E+01
      1.475  0.0000E+00  0.8000E+01
      1.575  0.0000E+00  0.8000E+01
      1.675  0.0000E+00  0.8000E+01
      1.776  0.0000E+00  0.8000E+01
      1.876  0.0000E+00  0.8000E+01
      1.976  0.0000E+00  0.8000E+01
      2.077  0.0000E+00  0.8000E+01
      2.177  0.0000E+00  0.8000E+01
      2.278  0.0000E+00  0.8006E+01
      2.378  0.0000E+00  0.8006E+01
      2.478  0.0000E+00  0.8006E+01
      2.579  0.0000E+00  0.8006E+01
      2.679  0.0000E+00  0.8006E+01
      2.779  0.0000E+00  0.8052E+01
      2.880  0.3485E+00  0.8087E+01
      2.980  0.0000E+00  0.8087E+01
      3.081  0.0000E+00  0.8087E+01
      3.181  0.0000E+00  0.8087E+01
      3.281  0.0000E+00  0.8087E+01
      3.382  0.7739E-16  0.8087E+01
      3.482  0.0000E+00  0.8157E+01
      3.582  0.0000E+00  0.8239E+01
      3.683  0.0000E+00  0.8379E+01
      3.783  0.0000E+00  0.8496E+01
      3.884  0.0000E+00  0.8531E+01
      3.984  0.0000E+00  0.8531E+01
      4.084  0.0000E+00  0.8810E+01
      4.185  0.0000E+00  0.9230E+01
      4.285  0.5216E+00  0.9283E+01
      4.385  0.0000E+00  0.9545E+01
      4.486  0.0000E+00  0.9685E+01
      4.586  0.0000E+00  0.9755E+01
      4.687  0.0000E+00  0.9755E+01
      4.787  0.0000E+00  0.1003E+02
      4.887  0.1987E-01  0.1028E+02
      4.988  0.0000E+00  0.1042E+02
      5.088  0.0000E+00  0.1042E+02
      5.188  0.0000E+00  0.1070E+02
      5.289  0.0000E+00  0.1098E+02
      5.389  0.0000E+00  0.1105E+02
      5.490  0.1394E+01  0.1133E+02
      5.590  0.0000E+00  0.1147E+02
      5.690  0.0000E+00  0.1161E+02
      5.791  0.1394E+01  0.1182E+02
      5.891  0.0000E+00  0.1199E+02
      5.991  0.3426E-10  0.1199E+02
      6.092  0.2788E+01  0.1253E+02
      6.192  0.0000E+00  0.1258E+02
      6.293  0.1394E+01  0.1286E+02
      6.393  0.0000E+00  0.1286E+02
      6.493  0.0000E+00  0.1313E+02
      6.594  0.0000E+00  0.1341E+02
      6.694  0.5608E-14  0.1363E+02
      6.794  0.0000E+00  0.1391E+02
      6.895  0.1372E+01  0.1428E+02
      6.995  0.0000E+00  0.1443E+02
      7.096  0.0000E+00  0.1446E+02
      7.196  0.0000E+00  0.1450E+02
      7.296  0.0000E+00  0.1471E+02
      7.397  0.0000E+00  0.1492E+02
      7.497  0.0000E+00  0.1523E+02
      7.597  0.0000E+00  0.1530E+02
      7.698  0.0000E+00  0.1537E+02
      7.798  0.0000E+00  0.1569E+02
      7.899  0.0000E+00  0.1569E+02
      7.999  0.0000E+00  0.1569E+02
      8.099  0.0000E+00  0.1583E+02
      8.200  0.0000E+00  0.1586E+02
      8.300  0.1866E-07  0.1617E+02
      8.400  0.4647E+00  0.1655E+02
      8.501  0.0000E+00  0.1655E+02
      8.601  0.0000E+00  0.1655E+02
      8.702  0.6956E+00  0.1662E+02
      8.802  0.1162E+00  0.1672E+02
      8.902  0.0000E+00  0.1672E+02
      9.003  0.0000E+00  0.1672E+02
      9.103  0.0000E+00  0.1683E+02
      9.203  0.0000E+00  0.1690E+02
      9.304  0.0000E+00  0.1732E+02
      9.404  0.1394E+01  0.1778E+02
      9.505  0.0000E+00  0.1778E+02
      9.605  0.0000E+00  0.1778E+02
      9.705  0.0000E+00  0.1782E+02
      9.806  0.0000E+00  0.1785E+02
      9.906  0.2059E-02  0.1792E+02
     10.006  0.0000E+00  0.1831E+02
     10.107  0.1162E+00  0.1863E+02
     10.207  0.0000E+00  0.1878E+02
     10.308  0.0000E+00  0.1892E+02
     10.408  0.0000E+00  0.1892E+02
     10.508  0.3209E-01  0.1916E+02
     10.609  0.0000E+00  0.1951E+02
     10.709  0.0000E+00  0.1979E+02
     10.809  0.0000E+00  0.1986E+02
     10.910  0.0000E+00  0.1986E+02
     11.010  0.0000E+00  0.1986E+02
     11.111  0.0000E+00  0.2000E+02
     11.211  0.0000E+00  0.2000E+02
     11.311  0.0000E+00  0.2000E+02
     11.412  0.0000E+00  0.2000E+02
     11.512  0.0000E+00  0.2000E+02
     11.612  0.0000E+00  0.2000E+02
     11.713  0.0000E+00  0.2000E+02
     11.813  0.0000E+00  0.2000E+02
     11.914  0.0000E+00  0.2000E+02
     12.014  0.0000E+00  0.2000E+02
     12.114  0.0000E+00  0.2000E+02
     12.215  0.0000E+00  0.2000E+02
     12.315  0.0000E+00  0.2000E+02
     12.415  0.0000E+00  0.2000E+02
