 vasp.5.4.4.18Apr17-6-g9f103f2a35 (build Nov 03 2018 10:20:46) complex          
  
 executed on             LinuxIFC date 2018.12.06  03:13:25
 running on   56 total cores
 distrk:  each k-point on   28 cores,    2 groups
 distr:  one band on NCORES_PER_BAND=   7 cores,    4 groups


--------------------------------------------------------------------------------------------------------


 INCAR:
 POTCAR:    PAW_PBE Xe_GW 08Jan2009               

 ----------------------------------------------------------------------------- 
|                                                                             |
|           W    W    AA    RRRRR   N    N  II  N    N   GGGG   !!!           |
|           W    W   A  A   R    R  NN   N  II  NN   N  G    G  !!!           |
|           W    W  A    A  R    R  N N  N  II  N N  N  G       !!!           |
|           W WW W  AAAAAA  RRRRR   N  N N  II  N  N N  G  GGG   !            |
|           WW  WW  A    A  R   R   N   NN  II  N   NN  G    G                |
|           W    W  A    A  R    R  N    N  II  N    N   GGGG   !!!           |
|                                                                             |
|      You have enabled k-point parallelism (KPAR>1).                         |
|      This developmental code was originally  written by Paul Kent at ORNL,  |
|      and carefully double checked in Vienna.                                |
|      GW as well as linear response parallelism added by Martijn Marsman     |
|      and Georg Kresse.                                                      |
|      Carefully verify results versus KPAR=1.                                |
|      Report problems to Paul Kent and Vienna.                               |
|                                                                             |
 ----------------------------------------------------------------------------- 

 POTCAR:    PAW_PBE Xe_GW 08Jan2009               
   VRHFIN =Xe: s2p6                                                             
   LEXCH  = PE                                                                  
   EATOM  =   429.5160 eV,   31.5685 Ry                                         
                                                                                
   TITEL  = PAW_PBE Xe_GW 08Jan2009                                             
   LULTRA =        F    use ultrasoft PP ?                                      
   IUNSCR =        1    unscreen: 0-lin 1-nonlin 2-no                           
   RPACOR =    1.800    partial core radius                                     
   POMASS =  131.294; ZVAL   =    8.000    mass and valenz                      
   RCORE  =    2.500    outmost cutoff radius                                   
   RWIGS  =    2.500; RWIGS  =    1.323    wigner-seitz radius (au A)           
   ENMAX  =  179.547; ENMIN  =  134.660 eV                                      
   RCLOC  =    2.013    cutoff for local pot                                    
   LCOR   =        T    correct aug charges                                     
   LPAW   =        T    paw PP                                                  
   EAUG   =  605.900                                                            
   DEXC   =    0.000                                                            
   RMAX   =    2.564    core radius for proj-oper                               
   RAUG   =    1.300    factor for augmentation sphere                          
   RDEP   =    2.580    radius for radial grids                                 
   RDEPT  =    2.108    core radius for aug-charge                              
                                                                                
   Atomic configuration                                                         
   13 entries                                                                   
     n  l   j            E        occ.                                          
     1  0  0.50    -34364.0918   2.0000                                         
     2  0  0.50     -5347.7047   2.0000                                         
     2  1  1.50     -4797.8080   6.0000                                         
     3  0  0.50     -1093.8565   2.0000                                         
     3  1  1.50      -916.3531   6.0000                                         
     3  2  2.50      -653.3728  10.0000                                         
     4  0  0.50      -197.4109   2.0000                                         
     4  1  1.50      -141.2234   6.0000                                         
     4  2  2.50       -59.3742  10.0000                                         
     5  0  0.50       -19.7401   2.0000                                         
     5  1  0.50        -8.2334   6.0000                                         
     5  2  1.50        -6.8029   0.0000                                         
     4  3  2.50        -6.8029   0.0000                                         
   Description                                                                  
     l       E           TYP  RCUT    TYP  RCUT                                 
     0    -19.7400602     23  1.800                                             
     0    -13.6058260     23  1.800                                             
     1     -8.2333784     23  2.300                                             
     1      2.7211652     23  2.300                                             
     2     -6.8029130     23  2.500                                             
     2     40.8174780     23  2.500                                             
     3      6.8029130     23  2.500                                             
     3     27.2116520     23  2.500                                             
  local pseudopotential read in
  partial core-charges read in
  partial kinetic energy density read in
  kinetic energy density of atom read in
  atomic valenz-charges read in
  non local Contribution for L=           0  read in
    real space projection operators read in
  non local Contribution for L=           0  read in
    real space projection operators read in
  non local Contribution for L=           1  read in
    real space projection operators read in
  non local Contribution for L=           1  read in
    real space projection operators read in
  non local Contribution for L=           2  read in
    real space projection operators read in
  non local Contribution for L=           2  read in
    real space projection operators read in
  non local Contribution for L=           3  read in
    real space projection operators read in
  non local Contribution for L=           3  read in
    real space projection operators read in
    PAW grid and wavefunctions read in
 
   number of l-projection  operators is LMAX  =           8
   number of lm-projection operators is LMMAX =          32
 
  PAW_PBE Xe_GW 08Jan2009               :
 energy of atom  1       EATOM= -429.5160
 kinetic energy error for atom=    0.0132 (will be added to EATOM!!)
 
 
 POSCAR: Xe_FCC                                  
  positions in direct lattice
  velocities in cartesian coordinates
 exchange correlation table for  LEXCH =        8
   RHO(1)=    0.500       N(1)  =     2000
   RHO(2)=  100.500       N(2)  =     4000
 


--------------------------------------------------------------------------------------------------------


 ion  position               nearest neighbor table
   1  0.000  0.000  0.000-
 

IMPORTANT INFORMATION: All symmetrisations will be switched off!
NOSYMM: (Re-)initialisation of all symmetry stuff for point group C_1.

 
 
 KPOINTS: k-points                                

Automatic generation of k-mesh.
Space group operators:
 irot       det(A)        alpha          n_x          n_y          n_z        tau_x        tau_y        tau_z
    1     1.000000     0.000001     1.000000     0.000000     0.000000     0.000000     0.000000     0.000000
 
 Subroutine IBZKPT returns following result:
 ===========================================
 
 Found    343 irreducible k-points:
 
 Following reciprocal coordinates:
            Coordinates               Weight
  0.000000  0.000000  0.000000      1.000000
  0.142857 -0.000000  0.000000      1.000000
  0.285714  0.000000 -0.000000      1.000000
  0.428571  0.000000  0.000000      1.000000
 -0.428571 -0.000000  0.000000      1.000000
 -0.285714 -0.000000  0.000000      1.000000
 -0.142857  0.000000  0.000000      1.000000
  0.000000  0.142857 -0.000000      1.000000
  0.142857  0.142857  0.000000      1.000000
  0.285714  0.142857 -0.000000      1.000000
  0.428571  0.142857  0.000000      1.000000
 -0.428571  0.142857 -0.000000      1.000000
 -0.285714  0.142857 -0.000000      1.000000
 -0.142857  0.142857 -0.000000      1.000000
  0.000000  0.285714 -0.000000      1.000000
  0.142857  0.285714 -0.000000      1.000000
  0.285714  0.285714 -0.000000      1.000000
  0.428571  0.285714 -0.000000      1.000000
 -0.428571  0.285714 -0.000000      1.000000
 -0.285714  0.285714  0.000000      1.000000
 -0.142857  0.285714 -0.000000      1.000000
  0.000000  0.428571 -0.000000      1.000000
  0.142857  0.428571 -0.000000      1.000000
  0.285714  0.428571 -0.000000      1.000000
  0.428571  0.428571 -0.000000      1.000000
 -0.428571  0.428571 -0.000000      1.000000
 -0.285714  0.428571 -0.000000      1.000000
 -0.142857  0.428571 -0.000000      1.000000
  0.000000 -0.428571  0.000000      1.000000
  0.142857 -0.428571  0.000000      1.000000
  0.285714 -0.428571  0.000000      1.000000
  0.428571 -0.428571  0.000000      1.000000
 -0.428571 -0.428571  0.000000      1.000000
 -0.285714 -0.428571  0.000000      1.000000
 -0.142857 -0.428571  0.000000      1.000000
  0.000000 -0.285714  0.000000      1.000000
  0.142857 -0.285714  0.000000      1.000000
  0.285714 -0.285714 -0.000000      1.000000
  0.428571 -0.285714  0.000000      1.000000
 -0.428571 -0.285714  0.000000      1.000000
 -0.285714 -0.285714  0.000000      1.000000
 -0.142857 -0.285714  0.000000      1.000000
  0.000000 -0.142857  0.000000      1.000000
  0.142857 -0.142857  0.000000      1.000000
  0.285714 -0.142857  0.000000      1.000000
  0.428571 -0.142857  0.000000      1.000000
 -0.428571 -0.142857 -0.000000      1.000000
 -0.285714 -0.142857  0.000000      1.000000
 -0.142857 -0.142857  0.000000      1.000000
 -0.000000 -0.000000  0.142857      1.000000
  0.142857 -0.000000  0.142857      1.000000
  0.285714 -0.000000  0.142857      1.000000
  0.428571  0.000000  0.142857      1.000000
 -0.428571 -0.000000  0.142857      1.000000
 -0.285714 -0.000000  0.142857      1.000000
 -0.142857  0.000000  0.142857      1.000000
 -0.000000  0.142857  0.142857      1.000000
  0.142857  0.142857  0.142857      1.000000
  0.285714  0.142857  0.142857      1.000000
  0.428571  0.142857  0.142857      1.000000
 -0.428571  0.142857  0.142857      1.000000
 -0.285714  0.142857  0.142857      1.000000
 -0.142857  0.142857  0.142857      1.000000
 -0.000000  0.285714  0.142857      1.000000
  0.142857  0.285714  0.142857      1.000000
  0.285714  0.285714  0.142857      1.000000
  0.428571  0.285714  0.142857      1.000000
 -0.428571  0.285714  0.142857      1.000000
 -0.285714  0.285714  0.142857      1.000000
 -0.142857  0.285714  0.142857      1.000000
 -0.000000  0.428571  0.142857      1.000000
  0.142857  0.428571  0.142857      1.000000
  0.285714  0.428571  0.142857      1.000000
  0.428571  0.428571  0.142857      1.000000
 -0.428571  0.428571  0.142857      1.000000
 -0.285714  0.428571  0.142857      1.000000
 -0.142857  0.428571  0.142857      1.000000
  0.000000 -0.428571  0.142857      1.000000
  0.142857 -0.428571  0.142857      1.000000
  0.285714 -0.428571  0.142857      1.000000
  0.428571 -0.428571  0.142857      1.000000
 -0.428571 -0.428571  0.142857      1.000000
 -0.285714 -0.428571  0.142857      1.000000
 -0.142857 -0.428571  0.142857      1.000000
  0.000000 -0.285714  0.142857      1.000000
  0.142857 -0.285714  0.142857      1.000000
  0.285714 -0.285714  0.142857      1.000000
  0.428571 -0.285714  0.142857      1.000000
 -0.428571 -0.285714  0.142857      1.000000
 -0.285714 -0.285714  0.142857      1.000000
 -0.142857 -0.285714  0.142857      1.000000
 -0.000000 -0.142857  0.142857      1.000000
  0.142857 -0.142857  0.142857      1.000000
  0.285714 -0.142857  0.142857      1.000000
  0.428571 -0.142857  0.142857      1.000000
 -0.428571 -0.142857  0.142857      1.000000
 -0.285714 -0.142857  0.142857      1.000000
 -0.142857 -0.142857  0.142857      1.000000
 -0.000000  0.000000  0.285714      1.000000
  0.142857  0.000000  0.285714      1.000000
  0.285714 -0.000000  0.285714      1.000000
  0.428571 -0.000000  0.285714      1.000000
 -0.428571 -0.000000  0.285714      1.000000
 -0.285714 -0.000000  0.285714      1.000000
 -0.142857  0.000000  0.285714      1.000000
 -0.000000  0.142857  0.285714      1.000000
  0.142857  0.142857  0.285714      1.000000
  0.285714  0.142857  0.285714      1.000000
  0.428571  0.142857  0.285714      1.000000
 -0.428571  0.142857  0.285714      1.000000
 -0.285714  0.142857  0.285714      1.000000
 -0.142857  0.142857  0.285714      1.000000
 -0.000000  0.285714  0.285714      1.000000
  0.142857  0.285714  0.285714      1.000000
  0.285714  0.285714  0.285714      1.000000
  0.428571  0.285714  0.285714      1.000000
 -0.428571  0.285714  0.285714      1.000000
 -0.285714  0.285714  0.285714      1.000000
 -0.142857  0.285714  0.285714      1.000000
  0.000000  0.428571  0.285714      1.000000
  0.142857  0.428571  0.285714      1.000000
  0.285714  0.428571  0.285714      1.000000
  0.428571  0.428571  0.285714      1.000000
 -0.428571  0.428571  0.285714      1.000000
 -0.285714  0.428571  0.285714      1.000000
 -0.142857  0.428571  0.285714      1.000000
 -0.000000 -0.428571  0.285714      1.000000
  0.142857 -0.428571  0.285714      1.000000
  0.285714 -0.428571  0.285714      1.000000
  0.428571 -0.428571  0.285714      1.000000
 -0.428571 -0.428571  0.285714      1.000000
 -0.285714 -0.428571  0.285714      1.000000
 -0.142857 -0.428571  0.285714      1.000000
 -0.000000 -0.285714  0.285714      1.000000
  0.142857 -0.285714  0.285714      1.000000
  0.285714 -0.285714  0.285714      1.000000
  0.428571 -0.285714  0.285714      1.000000
 -0.428571 -0.285714  0.285714      1.000000
 -0.285714 -0.285714  0.285714      1.000000
 -0.142857 -0.285714  0.285714      1.000000
 -0.000000 -0.142857  0.285714      1.000000
  0.142857 -0.142857  0.285714      1.000000
  0.285714 -0.142857  0.285714      1.000000
  0.428571 -0.142857  0.285714      1.000000
 -0.428571 -0.142857  0.285714      1.000000
 -0.285714 -0.142857  0.285714      1.000000
 -0.142857 -0.142857  0.285714      1.000000
 -0.000000 -0.000000  0.428571      1.000000
  0.142857 -0.000000  0.428571      1.000000
  0.285714  0.000000  0.428571      1.000000
  0.428571  0.000000  0.428571      1.000000
 -0.428571  0.000000  0.428571      1.000000
 -0.285714  0.000000  0.428571      1.000000
 -0.142857  0.000000  0.428571      1.000000
 -0.000000  0.142857  0.428571      1.000000
  0.142857  0.142857  0.428571      1.000000
  0.285714  0.142857  0.428571      1.000000
  0.428571  0.142857  0.428571      1.000000
 -0.428571  0.142857  0.428571      1.000000
 -0.285714  0.142857  0.428571      1.000000
 -0.142857  0.142857  0.428571      1.000000
 -0.000000  0.285714  0.428571      1.000000
  0.142857  0.285714  0.428571      1.000000
  0.285714  0.285714  0.428571      1.000000
  0.428571  0.285714  0.428571      1.000000
 -0.428571  0.285714  0.428571      1.000000
 -0.285714  0.285714  0.428571      1.000000
 -0.142857  0.285714  0.428571      1.000000
 -0.000000  0.428571  0.428571      1.000000
  0.142857  0.428571  0.428571      1.000000
  0.285714  0.428571  0.428571      1.000000
  0.428571  0.428571  0.428571      1.000000
 -0.428571  0.428571  0.428571      1.000000
 -0.285714  0.428571  0.428571      1.000000
 -0.142857  0.428571  0.428571      1.000000
 -0.000000 -0.428571  0.428571      1.000000
  0.142857 -0.428571  0.428571      1.000000
  0.285714 -0.428571  0.428571      1.000000
  0.428571 -0.428571  0.428571      1.000000
 -0.428571 -0.428571  0.428571      1.000000
 -0.285714 -0.428571  0.428571      1.000000
 -0.142857 -0.428571  0.428571      1.000000
  0.000000 -0.285714  0.428571      1.000000
  0.142857 -0.285714  0.428571      1.000000
  0.285714 -0.285714  0.428571      1.000000
  0.428571 -0.285714  0.428571      1.000000
 -0.428571 -0.285714  0.428571      1.000000
 -0.285714 -0.285714  0.428571      1.000000
 -0.142857 -0.285714  0.428571      1.000000
  0.000000 -0.142857  0.428571      1.000000
  0.142857 -0.142857  0.428571      1.000000
  0.285714 -0.142857  0.428571      1.000000
  0.428571 -0.142857  0.428571      1.000000
 -0.428571 -0.142857  0.428571      1.000000
 -0.285714 -0.142857  0.428571      1.000000
 -0.142857 -0.142857  0.428571      1.000000
  0.000000  0.000000 -0.428571      1.000000
  0.142857 -0.000000 -0.428571      1.000000
  0.285714 -0.000000 -0.428571      1.000000
  0.428571 -0.000000 -0.428571      1.000000
 -0.428571 -0.000000 -0.428571      1.000000
 -0.285714 -0.000000 -0.428571      1.000000
 -0.142857  0.000000 -0.428571      1.000000
  0.000000  0.142857 -0.428571      1.000000
  0.142857  0.142857 -0.428571      1.000000
  0.285714  0.142857 -0.428571      1.000000
  0.428571  0.142857 -0.428571      1.000000
 -0.428571  0.142857 -0.428571      1.000000
 -0.285714  0.142857 -0.428571      1.000000
 -0.142857  0.142857 -0.428571      1.000000
 -0.000000  0.285714 -0.428571      1.000000
  0.142857  0.285714 -0.428571      1.000000
  0.285714  0.285714 -0.428571      1.000000
  0.428571  0.285714 -0.428571      1.000000
 -0.428571  0.285714 -0.428571      1.000000
 -0.285714  0.285714 -0.428571      1.000000
 -0.142857  0.285714 -0.428571      1.000000
  0.000000  0.428571 -0.428571      1.000000
  0.142857  0.428571 -0.428571      1.000000
  0.285714  0.428571 -0.428571      1.000000
  0.428571  0.428571 -0.428571      1.000000
 -0.428571  0.428571 -0.428571      1.000000
 -0.285714  0.428571 -0.428571      1.000000
 -0.142857  0.428571 -0.428571      1.000000
  0.000000 -0.428571 -0.428571      1.000000
  0.142857 -0.428571 -0.428571      1.000000
  0.285714 -0.428571 -0.428571      1.000000
  0.428571 -0.428571 -0.428571      1.000000
 -0.428571 -0.428571 -0.428571      1.000000
 -0.285714 -0.428571 -0.428571      1.000000
 -0.142857 -0.428571 -0.428571      1.000000
  0.000000 -0.285714 -0.428571      1.000000
  0.142857 -0.285714 -0.428571      1.000000
  0.285714 -0.285714 -0.428571      1.000000
  0.428571 -0.285714 -0.428571      1.000000
 -0.428571 -0.285714 -0.428571      1.000000
 -0.285714 -0.285714 -0.428571      1.000000
 -0.142857 -0.285714 -0.428571      1.000000
  0.000000 -0.142857 -0.428571      1.000000
  0.142857 -0.142857 -0.428571      1.000000
  0.285714 -0.142857 -0.428571      1.000000
  0.428571 -0.142857 -0.428571      1.000000
 -0.428571 -0.142857 -0.428571      1.000000
 -0.285714 -0.142857 -0.428571      1.000000
 -0.142857 -0.142857 -0.428571      1.000000
  0.000000  0.000000 -0.285714      1.000000
  0.142857 -0.000000 -0.285714      1.000000
  0.285714  0.000000 -0.285714      1.000000
  0.428571  0.000000 -0.285714      1.000000
 -0.428571  0.000000 -0.285714      1.000000
 -0.285714  0.000000 -0.285714      1.000000
 -0.142857 -0.000000 -0.285714      1.000000
  0.000000  0.142857 -0.285714      1.000000
  0.142857  0.142857 -0.285714      1.000000
  0.285714  0.142857 -0.285714      1.000000
  0.428571  0.142857 -0.285714      1.000000
 -0.428571  0.142857 -0.285714      1.000000
 -0.285714  0.142857 -0.285714      1.000000
 -0.142857  0.142857 -0.285714      1.000000
  0.000000  0.285714 -0.285714      1.000000
  0.142857  0.285714 -0.285714      1.000000
  0.285714  0.285714 -0.285714      1.000000
  0.428571  0.285714 -0.285714      1.000000
 -0.428571  0.285714 -0.285714      1.000000
 -0.285714  0.285714 -0.285714      1.000000
 -0.142857  0.285714 -0.285714      1.000000
  0.000000  0.428571 -0.285714      1.000000
  0.142857  0.428571 -0.285714      1.000000
  0.285714  0.428571 -0.285714      1.000000
  0.428571  0.428571 -0.285714      1.000000
 -0.428571  0.428571 -0.285714      1.000000
 -0.285714  0.428571 -0.285714      1.000000
 -0.142857  0.428571 -0.285714      1.000000
  0.000000 -0.428571 -0.285714      1.000000
  0.142857 -0.428571 -0.285714      1.000000
  0.285714 -0.428571 -0.285714      1.000000
  0.428571 -0.428571 -0.285714      1.000000
 -0.428571 -0.428571 -0.285714      1.000000
 -0.285714 -0.428571 -0.285714      1.000000
 -0.142857 -0.428571 -0.285714      1.000000
  0.000000 -0.285714 -0.285714      1.000000
  0.142857 -0.285714 -0.285714      1.000000
  0.285714 -0.285714 -0.285714      1.000000
  0.428571 -0.285714 -0.285714      1.000000
 -0.428571 -0.285714 -0.285714      1.000000
 -0.285714 -0.285714 -0.285714      1.000000
 -0.142857 -0.285714 -0.285714      1.000000
  0.000000 -0.142857 -0.285714      1.000000
  0.142857 -0.142857 -0.285714      1.000000
  0.285714 -0.142857 -0.285714      1.000000
  0.428571 -0.142857 -0.285714      1.000000
 -0.428571 -0.142857 -0.285714      1.000000
 -0.285714 -0.142857 -0.285714      1.000000
 -0.142857 -0.142857 -0.285714      1.000000
  0.000000  0.000000 -0.142857      1.000000
  0.142857 -0.000000 -0.142857      1.000000
  0.285714  0.000000 -0.142857      1.000000
  0.428571  0.000000 -0.142857      1.000000
 -0.428571 -0.000000 -0.142857      1.000000
 -0.285714  0.000000 -0.142857      1.000000
 -0.142857  0.000000 -0.142857      1.000000
  0.000000  0.142857 -0.142857      1.000000
  0.142857  0.142857 -0.142857      1.000000
  0.285714  0.142857 -0.142857      1.000000
  0.428571  0.142857 -0.142857      1.000000
 -0.428571  0.142857 -0.142857      1.000000
 -0.285714  0.142857 -0.142857      1.000000
 -0.142857  0.142857 -0.142857      1.000000
 -0.000000  0.285714 -0.142857      1.000000
  0.142857  0.285714 -0.142857      1.000000
  0.285714  0.285714 -0.142857      1.000000
  0.428571  0.285714 -0.142857      1.000000
 -0.428571  0.285714 -0.142857      1.000000
 -0.285714  0.285714 -0.142857      1.000000
 -0.142857  0.285714 -0.142857      1.000000
  0.000000  0.428571 -0.142857      1.000000
  0.142857  0.428571 -0.142857      1.000000
  0.285714  0.428571 -0.142857      1.000000
  0.428571  0.428571 -0.142857      1.000000
 -0.428571  0.428571 -0.142857      1.000000
 -0.285714  0.428571 -0.142857      1.000000
 -0.142857  0.428571 -0.142857      1.000000
  0.000000 -0.428571 -0.142857      1.000000
  0.142857 -0.428571 -0.142857      1.000000
  0.285714 -0.428571 -0.142857      1.000000
  0.428571 -0.428571 -0.142857      1.000000
 -0.428571 -0.428571 -0.142857      1.000000
 -0.285714 -0.428571 -0.142857      1.000000
 -0.142857 -0.428571 -0.142857      1.000000
  0.000000 -0.285714 -0.142857      1.000000
  0.142857 -0.285714 -0.142857      1.000000
  0.285714 -0.285714 -0.142857      1.000000
  0.428571 -0.285714 -0.142857      1.000000
 -0.428571 -0.285714 -0.142857      1.000000
 -0.285714 -0.285714 -0.142857      1.000000
 -0.142857 -0.285714 -0.142857      1.000000
  0.000000 -0.142857 -0.142857      1.000000
  0.142857 -0.142857 -0.142857      1.000000
  0.285714 -0.142857 -0.142857      1.000000
  0.428571 -0.142857 -0.142857      1.000000
 -0.428571 -0.142857 -0.142857      1.000000
 -0.285714 -0.142857 -0.142857      1.000000
 -0.142857 -0.142857 -0.142857      1.000000
 
 Following cartesian coordinates:
            Coordinates               Weight
  0.000000  0.000000  0.000000      1.000000
  0.032232 -0.018609 -0.013159      1.000000
  0.064463 -0.037218 -0.026317      1.000000
  0.096695 -0.055827 -0.039476      1.000000
 -0.096695  0.055827  0.039476      1.000000
 -0.064463  0.037218  0.026317      1.000000
 -0.032232  0.018609  0.013159      1.000000
  0.000000  0.037218 -0.013159      1.000000
  0.032232  0.018609 -0.026317      1.000000
  0.064463  0.000000 -0.039476      1.000000
  0.096695 -0.018609 -0.052634      1.000000
 -0.096695  0.093045  0.026317      1.000000
 -0.064463  0.074436  0.013159      1.000000
 -0.032232  0.055827  0.000000      1.000000
  0.000000  0.074436 -0.026317      1.000000
  0.032232  0.055827 -0.039476      1.000000
  0.064463  0.037218 -0.052634      1.000000
  0.096695  0.018609 -0.065793      1.000000
 -0.096695  0.130263  0.013159      1.000000
 -0.064463  0.111654  0.000000      1.000000
 -0.032232  0.093045 -0.013159      1.000000
  0.000000  0.111654 -0.039476      1.000000
  0.032232  0.093045 -0.052634      1.000000
  0.064463  0.074436 -0.065793      1.000000
  0.096695  0.055827 -0.078951      1.000000
 -0.096695  0.167481  0.000000      1.000000
 -0.064463  0.148872 -0.013159      1.000000
 -0.032232  0.130263 -0.026317      1.000000
 -0.000000 -0.111654  0.039476      1.000000
  0.032232 -0.130263  0.026317      1.000000
  0.064463 -0.148872  0.013159      1.000000
  0.096695 -0.167481 -0.000000      1.000000
 -0.096695 -0.055827  0.078951      1.000000
 -0.064463 -0.074436  0.065793      1.000000
 -0.032232 -0.093045  0.052634      1.000000
 -0.000000 -0.074436  0.026317      1.000000
  0.032232 -0.093045  0.013159      1.000000
  0.064463 -0.111654 -0.000000      1.000000
  0.096695 -0.130263 -0.013159      1.000000
 -0.096695 -0.018609  0.065793      1.000000
 -0.064463 -0.037218  0.052634      1.000000
 -0.032232 -0.055827  0.039476      1.000000
 -0.000000 -0.037218  0.013159      1.000000
  0.032232 -0.055827 -0.000000      1.000000
  0.064463 -0.074436 -0.013159      1.000000
  0.096695 -0.093045 -0.026317      1.000000
 -0.096695  0.018609  0.052634      1.000000
 -0.064463 -0.000000  0.039476      1.000000
 -0.032232 -0.018609  0.026317      1.000000
 -0.000000  0.000000  0.039476      1.000000
  0.032232 -0.018609  0.026317      1.000000
  0.064463 -0.037218  0.013159      1.000000
  0.096695 -0.055827 -0.000000      1.000000
 -0.096695  0.055827  0.078951      1.000000
 -0.064463  0.037218  0.065793      1.000000
 -0.032232  0.018609  0.052634      1.000000
 -0.000000  0.037218  0.026317      1.000000
  0.032232  0.018609  0.013159      1.000000
  0.064463  0.000000  0.000000      1.000000
  0.096695 -0.018609 -0.013159      1.000000
 -0.096695  0.093045  0.065793      1.000000
 -0.064463  0.074436  0.052634      1.000000
 -0.032232  0.055827  0.039476      1.000000
 -0.000000  0.074436  0.013159      1.000000
  0.032232  0.055827  0.000000      1.000000
  0.064463  0.037218 -0.013159      1.000000
  0.096695  0.018609 -0.026317      1.000000
 -0.096695  0.130263  0.052634      1.000000
 -0.064463  0.111654  0.039476      1.000000
 -0.032232  0.093045  0.026317      1.000000
 -0.000000  0.111654  0.000000      1.000000
  0.032232  0.093045 -0.013159      1.000000
  0.064463  0.074436 -0.026317      1.000000
  0.096695  0.055827 -0.039476      1.000000
 -0.096695  0.167481  0.039476      1.000000
 -0.064463  0.148872  0.026317      1.000000
 -0.032232  0.130263  0.013159      1.000000
 -0.000000 -0.111654  0.078951      1.000000
  0.032232 -0.130263  0.065793      1.000000
  0.064463 -0.148872  0.052634      1.000000
  0.096695 -0.167481  0.039476      1.000000
 -0.096695 -0.055827  0.118427      1.000000
 -0.064463 -0.074436  0.105268      1.000000
 -0.032232 -0.093045  0.092110      1.000000
 -0.000000 -0.074436  0.065793      1.000000
  0.032232 -0.093045  0.052634      1.000000
  0.064463 -0.111654  0.039476      1.000000
  0.096695 -0.130263  0.026317      1.000000
 -0.096695 -0.018609  0.105268      1.000000
 -0.064463 -0.037218  0.092110      1.000000
 -0.032232 -0.055827  0.078951      1.000000
 -0.000000 -0.037218  0.052634      1.000000
  0.032232 -0.055827  0.039476      1.000000
  0.064463 -0.074436  0.026317      1.000000
  0.096695 -0.093045  0.013159      1.000000
 -0.096695  0.018609  0.092110      1.000000
 -0.064463 -0.000000  0.078951      1.000000
 -0.032232 -0.018609  0.065793      1.000000
 -0.000000  0.000000  0.078951      1.000000
  0.032232 -0.018609  0.065793      1.000000
  0.064463 -0.037218  0.052634      1.000000
  0.096695 -0.055827  0.039476      1.000000
 -0.096695  0.055827  0.118427      1.000000
 -0.064463  0.037218  0.105268      1.000000
 -0.032232  0.018609  0.092110      1.000000
 -0.000000  0.037218  0.065793      1.000000
  0.032232  0.018609  0.052634      1.000000
  0.064463  0.000000  0.039476      1.000000
  0.096695 -0.018609  0.026317      1.000000
 -0.096695  0.093045  0.105268      1.000000
 -0.064463  0.074436  0.092110      1.000000
 -0.032232  0.055827  0.078951      1.000000
 -0.000000  0.074436  0.052634      1.000000
  0.032232  0.055827  0.039476      1.000000
  0.064463  0.037218  0.026317      1.000000
  0.096695  0.018609  0.013159      1.000000
 -0.096695  0.130263  0.092110      1.000000
 -0.064463  0.111654  0.078951      1.000000
 -0.032232  0.093045  0.065793      1.000000
 -0.000000  0.111654  0.039476      1.000000
  0.032232  0.093045  0.026317      1.000000
  0.064463  0.074436  0.013159      1.000000
  0.096695  0.055827  0.000000      1.000000
 -0.096695  0.167481  0.078951      1.000000
 -0.064463  0.148872  0.065793      1.000000
 -0.032232  0.130263  0.052634      1.000000
 -0.000000 -0.111654  0.118427      1.000000
  0.032232 -0.130263  0.105268      1.000000
  0.064463 -0.148872  0.092110      1.000000
  0.096695 -0.167481  0.078951      1.000000
 -0.096695 -0.055827  0.157902      1.000000
 -0.064463 -0.074436  0.144744      1.000000
 -0.032232 -0.093045  0.131585      1.000000
 -0.000000 -0.074436  0.105268      1.000000
  0.032232 -0.093045  0.092110      1.000000
  0.064463 -0.111654  0.078951      1.000000
  0.096695 -0.130263  0.065793      1.000000
 -0.096695 -0.018609  0.144744      1.000000
 -0.064463 -0.037218  0.131585      1.000000
 -0.032232 -0.055827  0.118427      1.000000
 -0.000000 -0.037218  0.092110      1.000000
  0.032232 -0.055827  0.078951      1.000000
  0.064463 -0.074436  0.065793      1.000000
  0.096695 -0.093045  0.052634      1.000000
 -0.096695  0.018609  0.131585      1.000000
 -0.064463 -0.000000  0.118427      1.000000
 -0.032232 -0.018609  0.105268      1.000000
 -0.000000  0.000000  0.118427      1.000000
  0.032232 -0.018609  0.105268      1.000000
  0.064463 -0.037218  0.092110      1.000000
  0.096695 -0.055827  0.078951      1.000000
 -0.096695  0.055827  0.157902      1.000000
 -0.064463  0.037218  0.144744      1.000000
 -0.032232  0.018609  0.131585      1.000000
 -0.000000  0.037218  0.105268      1.000000
  0.032232  0.018609  0.092110      1.000000
  0.064463  0.000000  0.078951      1.000000
  0.096695 -0.018609  0.065793      1.000000
 -0.096695  0.093045  0.144744      1.000000
 -0.064463  0.074436  0.131585      1.000000
 -0.032232  0.055827  0.118427      1.000000
 -0.000000  0.074436  0.092110      1.000000
  0.032232  0.055827  0.078951      1.000000
  0.064463  0.037218  0.065793      1.000000
  0.096695  0.018609  0.052634      1.000000
 -0.096695  0.130263  0.131585      1.000000
 -0.064463  0.111654  0.118427      1.000000
 -0.032232  0.093045  0.105268      1.000000
 -0.000000  0.111654  0.078951      1.000000
  0.032232  0.093045  0.065793      1.000000
  0.064463  0.074436  0.052634      1.000000
  0.096695  0.055827  0.039476      1.000000
 -0.096695  0.167481  0.118427      1.000000
 -0.064463  0.148872  0.105268      1.000000
 -0.032232  0.130263  0.092110      1.000000
 -0.000000 -0.111654  0.157902      1.000000
  0.032232 -0.130263  0.144744      1.000000
  0.064463 -0.148872  0.131585      1.000000
  0.096695 -0.167481  0.118427      1.000000
 -0.096695 -0.055827  0.197378      1.000000
 -0.064463 -0.074436  0.184219      1.000000
 -0.032232 -0.093045  0.171061      1.000000
 -0.000000 -0.074436  0.144744      1.000000
  0.032232 -0.093045  0.131585      1.000000
  0.064463 -0.111654  0.118427      1.000000
  0.096695 -0.130263  0.105268      1.000000
 -0.096695 -0.018609  0.184219      1.000000
 -0.064463 -0.037218  0.171061      1.000000
 -0.032232 -0.055827  0.157902      1.000000
 -0.000000 -0.037218  0.131585      1.000000
  0.032232 -0.055827  0.118427      1.000000
  0.064463 -0.074436  0.105268      1.000000
  0.096695 -0.093045  0.092110      1.000000
 -0.096695  0.018609  0.171061      1.000000
 -0.064463 -0.000000  0.157902      1.000000
 -0.032232 -0.018609  0.144744      1.000000
  0.000000 -0.000000 -0.118427      1.000000
  0.032232 -0.018609 -0.131585      1.000000
  0.064463 -0.037218 -0.144744      1.000000
  0.096695 -0.055827 -0.157902      1.000000
 -0.096695  0.055827 -0.078951      1.000000
 -0.064463  0.037218 -0.092110      1.000000
 -0.032232  0.018609 -0.105268      1.000000
  0.000000  0.037218 -0.131585      1.000000
  0.032232  0.018609 -0.144744      1.000000
  0.064463  0.000000 -0.157902      1.000000
  0.096695 -0.018609 -0.171061      1.000000
 -0.096695  0.093045 -0.092110      1.000000
 -0.064463  0.074436 -0.105268      1.000000
 -0.032232  0.055827 -0.118427      1.000000
  0.000000  0.074436 -0.144744      1.000000
  0.032232  0.055827 -0.157902      1.000000
  0.064463  0.037218 -0.171061      1.000000
  0.096695  0.018609 -0.184219      1.000000
 -0.096695  0.130263 -0.105268      1.000000
 -0.064463  0.111654 -0.118427      1.000000
 -0.032232  0.093045 -0.131585      1.000000
  0.000000  0.111654 -0.157902      1.000000
  0.032232  0.093045 -0.171061      1.000000
  0.064463  0.074436 -0.184219      1.000000
  0.096695  0.055827 -0.197378      1.000000
 -0.096695  0.167481 -0.118427      1.000000
 -0.064463  0.148872 -0.131585      1.000000
 -0.032232  0.130263 -0.144744      1.000000
  0.000000 -0.111654 -0.078951      1.000000
  0.032232 -0.130263 -0.092110      1.000000
  0.064463 -0.148872 -0.105268      1.000000
  0.096695 -0.167481 -0.118427      1.000000
 -0.096695 -0.055827 -0.039476      1.000000
 -0.064463 -0.074436 -0.052634      1.000000
 -0.032232 -0.093045 -0.065793      1.000000
  0.000000 -0.074436 -0.092110      1.000000
  0.032232 -0.093045 -0.105268      1.000000
  0.064463 -0.111654 -0.118427      1.000000
  0.096695 -0.130263 -0.131585      1.000000
 -0.096695 -0.018609 -0.052634      1.000000
 -0.064463 -0.037218 -0.065793      1.000000
 -0.032232 -0.055827 -0.078951      1.000000
  0.000000 -0.037218 -0.105268      1.000000
  0.032232 -0.055827 -0.118427      1.000000
  0.064463 -0.074436 -0.131585      1.000000
  0.096695 -0.093045 -0.144744      1.000000
 -0.096695  0.018609 -0.065793      1.000000
 -0.064463 -0.000000 -0.078951      1.000000
 -0.032232 -0.018609 -0.092110      1.000000
  0.000000 -0.000000 -0.078951      1.000000
  0.032232 -0.018609 -0.092110      1.000000
  0.064463 -0.037218 -0.105268      1.000000
  0.096695 -0.055827 -0.118427      1.000000
 -0.096695  0.055827 -0.039476      1.000000
 -0.064463  0.037218 -0.052634      1.000000
 -0.032232  0.018609 -0.065793      1.000000
  0.000000  0.037218 -0.092110      1.000000
  0.032232  0.018609 -0.105268      1.000000
  0.064463  0.000000 -0.118427      1.000000
  0.096695 -0.018609 -0.131585      1.000000
 -0.096695  0.093045 -0.052634      1.000000
 -0.064463  0.074436 -0.065793      1.000000
 -0.032232  0.055827 -0.078951      1.000000
  0.000000  0.074436 -0.105268      1.000000
  0.032232  0.055827 -0.118427      1.000000
  0.064463  0.037218 -0.131585      1.000000
  0.096695  0.018609 -0.144744      1.000000
 -0.096695  0.130263 -0.065793      1.000000
 -0.064463  0.111654 -0.078951      1.000000
 -0.032232  0.093045 -0.092110      1.000000
  0.000000  0.111654 -0.118427      1.000000
  0.032232  0.093045 -0.131585      1.000000
  0.064463  0.074436 -0.144744      1.000000
  0.096695  0.055827 -0.157902      1.000000
 -0.096695  0.167481 -0.078951      1.000000
 -0.064463  0.148872 -0.092110      1.000000
 -0.032232  0.130263 -0.105268      1.000000
  0.000000 -0.111654 -0.039476      1.000000
  0.032232 -0.130263 -0.052634      1.000000
  0.064463 -0.148872 -0.065793      1.000000
  0.096695 -0.167481 -0.078951      1.000000
 -0.096695 -0.055827 -0.000000      1.000000
 -0.064463 -0.074436 -0.013159      1.000000
 -0.032232 -0.093045 -0.026317      1.000000
  0.000000 -0.074436 -0.052634      1.000000
  0.032232 -0.093045 -0.065793      1.000000
  0.064463 -0.111654 -0.078951      1.000000
  0.096695 -0.130263 -0.092110      1.000000
 -0.096695 -0.018609 -0.013159      1.000000
 -0.064463 -0.037218 -0.026317      1.000000
 -0.032232 -0.055827 -0.039476      1.000000
  0.000000 -0.037218 -0.065793      1.000000
  0.032232 -0.055827 -0.078951      1.000000
  0.064463 -0.074436 -0.092110      1.000000
  0.096695 -0.093045 -0.105268      1.000000
 -0.096695  0.018609 -0.026317      1.000000
 -0.064463 -0.000000 -0.039476      1.000000
 -0.032232 -0.018609 -0.052634      1.000000
  0.000000 -0.000000 -0.039476      1.000000
  0.032232 -0.018609 -0.052634      1.000000
  0.064463 -0.037218 -0.065793      1.000000
  0.096695 -0.055827 -0.078951      1.000000
 -0.096695  0.055827  0.000000      1.000000
 -0.064463  0.037218 -0.013159      1.000000
 -0.032232  0.018609 -0.026317      1.000000
  0.000000  0.037218 -0.052634      1.000000
  0.032232  0.018609 -0.065793      1.000000
  0.064463  0.000000 -0.078951      1.000000
  0.096695 -0.018609 -0.092110      1.000000
 -0.096695  0.093045 -0.013159      1.000000
 -0.064463  0.074436 -0.026317      1.000000
 -0.032232  0.055827 -0.039476      1.000000
  0.000000  0.074436 -0.065793      1.000000
  0.032232  0.055827 -0.078951      1.000000
  0.064463  0.037218 -0.092110      1.000000
  0.096695  0.018609 -0.105268      1.000000
 -0.096695  0.130263 -0.026317      1.000000
 -0.064463  0.111654 -0.039476      1.000000
 -0.032232  0.093045 -0.052634      1.000000
  0.000000  0.111654 -0.078951      1.000000
  0.032232  0.093045 -0.092110      1.000000
  0.064463  0.074436 -0.105268      1.000000
  0.096695  0.055827 -0.118427      1.000000
 -0.096695  0.167481 -0.039476      1.000000
 -0.064463  0.148872 -0.052634      1.000000
 -0.032232  0.130263 -0.065793      1.000000
  0.000000 -0.111654 -0.000000      1.000000
  0.032232 -0.130263 -0.013159      1.000000
  0.064463 -0.148872 -0.026317      1.000000
  0.096695 -0.167481 -0.039476      1.000000
 -0.096695 -0.055827  0.039476      1.000000
 -0.064463 -0.074436  0.026317      1.000000
 -0.032232 -0.093045  0.013159      1.000000
  0.000000 -0.074436 -0.013159      1.000000
  0.032232 -0.093045 -0.026317      1.000000
  0.064463 -0.111654 -0.039476      1.000000
  0.096695 -0.130263 -0.052634      1.000000
 -0.096695 -0.018609  0.026317      1.000000
 -0.064463 -0.037218  0.013159      1.000000
 -0.032232 -0.055827 -0.000000      1.000000
  0.000000 -0.037218 -0.026317      1.000000
  0.032232 -0.055827 -0.039476      1.000000
  0.064463 -0.074436 -0.052634      1.000000
  0.096695 -0.093045 -0.065793      1.000000
 -0.096695  0.018609  0.013159      1.000000
 -0.064463 -0.000000  0.000000      1.000000
 -0.032232 -0.018609 -0.013159      1.000000
 


--------------------------------------------------------------------------------------------------------




 Dimension of arrays:
   k-points           NKPTS =    343   k-points in BZ     NKDIM =    343   number of bands    NBANDS=     20
   number of dos      NEDOS =    301   number of ions     NIONS =      1
   non local maximal  LDIM  =      8   non local SUM 2l+1 LMDIM =     32
   total plane-waves  NPLWV =  21952
   max r-space proj   IRMAX =      1   max aug-charges    IRDMAX= 141072
   dimension x,y,z NGX =    28 NGY =   28 NGZ =   28
   dimension x,y,z NGXF=    56 NGYF=   56 NGZF=   56
   support grid    NGXF=   112 NGYF=  112 NGZF=  112
   ions per type =               1
   NGX,Y,Z   is equivalent  to a cutoff of  10.50, 10.50, 10.50 a.u.
   NGXF,Y,Z  is equivalent  to a cutoff of  21.00, 21.00, 21.00 a.u.

 SYSTEM =  Og_FCC                                  
 POSCAR =  Xe_FCC                                  

 Startparameter for this run:
   NWRITE =      2    write-flag & timer
   PREC   = accura    normal or accurate (medium, high low for compatibility)
   ISTART =      0    job   : 0-new  1-cont  2-samecut
   ICHARG =      2    charge: 1-file 2-atom 10-const
   ISPIN  =      1    spin polarized calculation?
   LNONCOLLINEAR =      T non collinear calculations
   LSORBIT =      T    spin-orbit coupling
   INIWAV =      1    electr: 0-lowe 1-rand  2-diag
   LASPH  =      F    aspherical Exc in radial PAW
   METAGGA=      F    non-selfconsistent MetaGGA calc.

 Electronic Relaxation 1
   ENCUT  =  300.0 eV  22.05 Ry    4.70 a.u.   6.26  6.26  6.26*2*pi/ulx,y,z
   ENINI  =  300.0     initial cutoff
   ENAUG  =  605.9 eV  augmentation charge cutoff
   NELM   =     50;   NELMIN=  2; NELMDL= -5     # of ELM steps 
   EDIFF  = 0.1E-07   stopping-criterion for ELM
   LREAL  =      F    real-space projection
   NLSPLINE    = F    spline interpolate recip. space projectors
   LCOMPAT=      F    compatible to vasp.4.4
   GGA_COMPAT  = F    GGA compatible to vasp.4.4-vasp.4.6
   LMAXPAW     = -100 max onsite density
   LMAXMIX     =    2 max onsite mixed and CHGCAR
   VOSKOWN=      0    Vosko Wilk Nusair interpolation
   ROPT   =    0.00000
 Ionic relaxation
   EDIFFG = 0.1E-04   stopping-criterion for IOM
   NSW    =      1    number of steps for IOM
   NBLOCK =      1;   KBLOCK =      1    inner block; outer block 
   IBRION =     -1    ionic relax: 0-MD 1-quasi-New 2-CG
   NFREE  =      5    steps in history (QN), initial steepest desc. (CG)
   ISIF   =      3    stress and relaxation
   IWAVPR =     10    prediction:  0-non 1-charg 2-wave 3-comb
   ISYM   =      0    0-nonsym 1-usesym 2-fastsym
   LCORR  =      T    Harris-Foulkes like correction to forces

   POTIM  = 0.1000    time-step for ionic-motion
   TEIN   =    0.0    initial temperature
   TEBEG  =    0.0;   TEEND  =   0.0 temperature during run
   SMASS  =  -3.00    Nose mass-parameter (am)
   estimated Nose-frequenzy (Omega)   =  0.10E-29 period in steps =****** mass=  -0.449E-27a.u.
   SCALEE = 1.0000    scale energy and forces
   NPACO  =    256;   APACO  = 16.0  distance and # of slots for P.C.
   PSTRESS=    0.0 pullay stress

  Mass of Ions in am
   POMASS = 131.29
  Ionic Valenz
   ZVAL   =   8.00
  Atomic Wigner-Seitz radii
   RWIGS  =  -1.00
  virtual crystal weights 
   VCA    =   1.00
   NELECT =       8.0000    total number of electrons
   NUPDOWN=      -1.0000    fix difference up-down

 DOS related values:
   EMIN   =  10.00;   EMAX   =-10.00  energy-range for DOS
   EFERMI =   0.00
   ISMEAR =     0;   SIGMA  =   0.00  broadening in eV -4-tet -1-fermi 0-gaus

 Electronic relaxation 2 (details)
   IALGO  =     38    algorithm
   LDIAG  =      T    sub-space diagonalisation (order eigenvalues)
   LSUBROT=      F    optimize rotation matrix (better conditioning)
   TURBO    =      0    0=normal 1=particle mesh
   IRESTART =      0    0=no restart 2=restart with 2 vectors
   NREBOOT  =      0    no. of reboots
   NMIN     =      0    reboot dimension
   EREF     =   0.00    reference energy to select bands
   IMIX   =      4    mixing-type and parameters
     AMIX     =   0.40;   BMIX     =  1.00
     AMIX_MAG =   1.60;   BMIX_MAG =  1.00
     AMIN     =   0.10
     WC   =   100.;   INIMIX=   1;  MIXPRE=   1;  MAXMIX=  50

 Intra band minimization:
   WEIMIN = 0.0000     energy-eigenvalue tresh-hold
   EBREAK =  0.13E-09  absolut break condition
   DEPER  =   0.30     relativ break condition  

   TIME   =   0.40     timestep for ELM

  volume/ion in A,a.u.               =      61.57       415.47
  Fermi-wavevector in a.u.,A,eV,Ry     =   0.829196  1.566953  9.354901  0.687566
  Thomas-Fermi vector in A             =   1.941701
 
 Write flags
   LWAVE        =      T    write WAVECAR
   LDOWNSAMPLE  =      F    k-point downsampling of WAVECAR
   LCHARG       =      F    write CHGCAR
   LVTOT        =      F    write LOCPOT, total local potential
   LVHAR        =      F    write LOCPOT, Hartree potential only
   LELF         =      F    write electronic localiz. function (ELF)
   LORBIT       =      0    0 simple, 1 ext, 2 COOP (PROOUT), +10 PAW based schemes


 Dipole corrections
   LMONO  =      F    monopole corrections only (constant potential shift)
   LDIPOL =      F    correct potential (dipole corrections)
   IDIPOL =      0    1-x, 2-y, 3-z, 4-all directions 
   EPSILON=  1.0000000 bulk dielectric constant

 Exchange correlation treatment:
   GGA     =    PE    GGA type
   LEXCH   =     8    internal setting for exchange type
   VOSKOWN=      0    Vosko Wilk Nusair interpolation
   LHFCALC =     F    Hartree Fock is set to
   LHFONE  =     F    Hartree Fock one center treatment
   AEXX    =    0.0000 exact exchange contribution

 Linear response parameters
   LEPSILON=     F    determine dielectric tensor
   LRPA    =     F    only Hartree local field effects (RPA)
   LNABLA  =     F    use nabla operator in PAW spheres
   LVEL    =     F    velocity operator in full k-point grid
   LINTERFAST=   F  fast interpolation
   KINTER  =     0    interpolate to denser k-point grid
   CSHIFT  =0.1000    complex shift for real part using Kramers Kronig
   OMEGAMAX=  -1.0    maximum frequency
   DEG_THRESHOLD= 0.2000000E-02 threshold for treating states as degnerate
   RTIME   =   -0.100 relaxation time in fs
  (WPLASMAI=    0.000 imaginary part of plasma frequency in eV, 0.658/RTIME)
   DFIELD  = 0.0000000 0.0000000 0.0000000 field for delta impulse in time
 
 Orbital magnetization related:
   ORBITALMAG=     F  switch on orbital magnetization
   LCHIMAG   =     F  perturbation theory with respect to B field
   DQ        =  0.001000  dq finite difference perturbation B field
   LLRAUG    =     F  two centre corrections for induced B field



--------------------------------------------------------------------------------------------------------


 Static calculation
 charge density and potential will be updated during run
 non collinear spin polarized calculation
 Variant of blocked Davidson
 Davidson routine will perform the subspace rotation
 perform sub-space diagonalisation
    after iterative eigenvector-optimisation
 modified Broyden-mixing scheme, WC =      100.0
 initial mixing is a Kerker type mixing with AMIX =  0.4000 and BMIX =      1.0000
 Hartree-type preconditioning will be used
 using additional bands           16
 reciprocal scheme for non local part
 use partial core corrections
 calculate Harris-corrections to forces 
   (improved forces if not selfconsistent)
 use gradient corrections 
 use of overlap-Matrix (Vanderbilt PP)
 Gauss-broadening in eV      SIGMA  =   0.00


--------------------------------------------------------------------------------------------------------


  energy-cutoff  :      300.00
  volume of cell :       61.57
      direct lattice vectors                 reciprocal lattice vectors
     4.432200126  0.000000000  0.000000000     0.225621581 -0.130262681 -0.092109625
     2.216100063  3.838397904 -0.000000000     0.000000000  0.260525361 -0.092109625
     2.216100063  1.279465968  3.618876249    -0.000000000  0.000000000  0.276328874

  length of vectors
     4.432200126  4.432200126  4.432200126     0.276328874  0.276328874  0.276328874


 
 k-points in units of 2pi/SCALE and weight: k-points                                
   0.00000000  0.00000000  0.00000000       0.003
   0.03223165 -0.01860895 -0.01315852       0.003
   0.06446331 -0.03721791 -0.02631704       0.003
   0.09669496 -0.05582686 -0.03947555       0.003
  -0.09669496  0.05582686  0.03947555       0.003
  -0.06446331  0.03721791  0.02631704       0.003
  -0.03223165  0.01860895  0.01315852       0.003
   0.00000000  0.03721791 -0.01315852       0.003
   0.03223165  0.01860895 -0.02631704       0.003
   0.06446331  0.00000000 -0.03947555       0.003
   0.09669496 -0.01860895 -0.05263407       0.003
  -0.09669496  0.09304477  0.02631704       0.003
  -0.06446331  0.07443582  0.01315852       0.003
  -0.03223165  0.05582686  0.00000000       0.003
   0.00000000  0.07443582 -0.02631704       0.003
   0.03223165  0.05582686 -0.03947555       0.003
   0.06446331  0.03721791 -0.05263407       0.003
   0.09669496  0.01860895 -0.06579259       0.003
  -0.09669496  0.13026268  0.01315852       0.003
  -0.06446331  0.11165373  0.00000000       0.003
  -0.03223165  0.09304477 -0.01315852       0.003
   0.00000000  0.11165373 -0.03947555       0.003
   0.03223165  0.09304477 -0.05263407       0.003
   0.06446331  0.07443582 -0.06579259       0.003
   0.09669496  0.05582686 -0.07895111       0.003
  -0.09669496  0.16748059  0.00000000       0.003
  -0.06446331  0.14887163 -0.01315852       0.003
  -0.03223165  0.13026268 -0.02631704       0.003
  -0.00000000 -0.11165373  0.03947555       0.003
   0.03223165 -0.13026268  0.02631704       0.003
   0.06446331 -0.14887163  0.01315852       0.003
   0.09669496 -0.16748059 -0.00000000       0.003
  -0.09669496 -0.05582686  0.07895111       0.003
  -0.06446331 -0.07443582  0.06579259       0.003
  -0.03223165 -0.09304477  0.05263407       0.003
  -0.00000000 -0.07443582  0.02631704       0.003
   0.03223165 -0.09304477  0.01315852       0.003
   0.06446331 -0.11165373 -0.00000000       0.003
   0.09669496 -0.13026268 -0.01315852       0.003
  -0.09669496 -0.01860895  0.06579259       0.003
  -0.06446331 -0.03721791  0.05263407       0.003
  -0.03223165 -0.05582686  0.03947555       0.003
  -0.00000000 -0.03721791  0.01315852       0.003
   0.03223165 -0.05582686 -0.00000000       0.003
   0.06446331 -0.07443582 -0.01315852       0.003
   0.09669496 -0.09304477 -0.02631704       0.003
  -0.09669496  0.01860895  0.05263407       0.003
  -0.06446331 -0.00000000  0.03947555       0.003
  -0.03223165 -0.01860895  0.02631704       0.003
  -0.00000000  0.00000000  0.03947555       0.003
   0.03223165 -0.01860895  0.02631704       0.003
   0.06446331 -0.03721791  0.01315852       0.003
   0.09669496 -0.05582686 -0.00000000       0.003
  -0.09669496  0.05582686  0.07895111       0.003
  -0.06446331  0.03721791  0.06579259       0.003
  -0.03223165  0.01860895  0.05263407       0.003
  -0.00000000  0.03721791  0.02631704       0.003
   0.03223165  0.01860895  0.01315852       0.003
   0.06446331  0.00000000  0.00000000       0.003
   0.09669496 -0.01860895 -0.01315852       0.003
  -0.09669496  0.09304477  0.06579259       0.003
  -0.06446331  0.07443582  0.05263407       0.003
  -0.03223165  0.05582686  0.03947555       0.003
  -0.00000000  0.07443582  0.01315852       0.003
   0.03223165  0.05582686  0.00000000       0.003
   0.06446331  0.03721791 -0.01315852       0.003
   0.09669496  0.01860895 -0.02631704       0.003
  -0.09669496  0.13026268  0.05263407       0.003
  -0.06446331  0.11165373  0.03947555       0.003
  -0.03223165  0.09304477  0.02631704       0.003
  -0.00000000  0.11165373  0.00000000       0.003
   0.03223165  0.09304477 -0.01315852       0.003
   0.06446331  0.07443582 -0.02631704       0.003
   0.09669496  0.05582686 -0.03947555       0.003
  -0.09669496  0.16748059  0.03947555       0.003
  -0.06446331  0.14887163  0.02631704       0.003
  -0.03223165  0.13026268  0.01315852       0.003
  -0.00000000 -0.11165373  0.07895111       0.003
   0.03223165 -0.13026268  0.06579259       0.003
   0.06446331 -0.14887163  0.05263407       0.003
   0.09669496 -0.16748059  0.03947555       0.003
  -0.09669496 -0.05582686  0.11842666       0.003
  -0.06446331 -0.07443582  0.10526814       0.003
  -0.03223165 -0.09304477  0.09210962       0.003
  -0.00000000 -0.07443582  0.06579259       0.003
   0.03223165 -0.09304477  0.05263407       0.003
   0.06446331 -0.11165373  0.03947555       0.003
   0.09669496 -0.13026268  0.02631704       0.003
  -0.09669496 -0.01860895  0.10526814       0.003
  -0.06446331 -0.03721791  0.09210962       0.003
  -0.03223165 -0.05582686  0.07895111       0.003
  -0.00000000 -0.03721791  0.05263407       0.003
   0.03223165 -0.05582686  0.03947555       0.003
   0.06446331 -0.07443582  0.02631704       0.003
   0.09669496 -0.09304477  0.01315852       0.003
  -0.09669496  0.01860895  0.09210962       0.003
  -0.06446331 -0.00000000  0.07895111       0.003
  -0.03223165 -0.01860895  0.06579259       0.003
  -0.00000000  0.00000000  0.07895111       0.003
   0.03223165 -0.01860895  0.06579259       0.003
   0.06446331 -0.03721791  0.05263407       0.003
   0.09669496 -0.05582686  0.03947555       0.003
  -0.09669496  0.05582686  0.11842666       0.003
  -0.06446331  0.03721791  0.10526814       0.003
  -0.03223165  0.01860895  0.09210962       0.003
  -0.00000000  0.03721791  0.06579259       0.003
   0.03223165  0.01860895  0.05263407       0.003
   0.06446331  0.00000000  0.03947555       0.003
   0.09669496 -0.01860895  0.02631704       0.003
  -0.09669496  0.09304477  0.10526814       0.003
  -0.06446331  0.07443582  0.09210962       0.003
  -0.03223165  0.05582686  0.07895111       0.003
  -0.00000000  0.07443582  0.05263407       0.003
   0.03223165  0.05582686  0.03947555       0.003
   0.06446331  0.03721791  0.02631704       0.003
   0.09669496  0.01860895  0.01315852       0.003
  -0.09669496  0.13026268  0.09210962       0.003
  -0.06446331  0.11165373  0.07895111       0.003
  -0.03223165  0.09304477  0.06579259       0.003
  -0.00000000  0.11165373  0.03947555       0.003
   0.03223165  0.09304477  0.02631704       0.003
   0.06446331  0.07443582  0.01315852       0.003
   0.09669496  0.05582686  0.00000000       0.003
  -0.09669496  0.16748059  0.07895111       0.003
  -0.06446331  0.14887163  0.06579259       0.003
  -0.03223165  0.13026268  0.05263407       0.003
  -0.00000000 -0.11165373  0.11842666       0.003
   0.03223165 -0.13026268  0.10526814       0.003
   0.06446331 -0.14887163  0.09210962       0.003
   0.09669496 -0.16748059  0.07895111       0.003
  -0.09669496 -0.05582686  0.15790221       0.003
  -0.06446331 -0.07443582  0.14474370       0.003
  -0.03223165 -0.09304477  0.13158518       0.003
  -0.00000000 -0.07443582  0.10526814       0.003
   0.03223165 -0.09304477  0.09210962       0.003
   0.06446331 -0.11165373  0.07895111       0.003
   0.09669496 -0.13026268  0.06579259       0.003
  -0.09669496 -0.01860895  0.14474370       0.003
  -0.06446331 -0.03721791  0.13158518       0.003
  -0.03223165 -0.05582686  0.11842666       0.003
  -0.00000000 -0.03721791  0.09210962       0.003
   0.03223165 -0.05582686  0.07895111       0.003
   0.06446331 -0.07443582  0.06579259       0.003
   0.09669496 -0.09304477  0.05263407       0.003
  -0.09669496  0.01860895  0.13158518       0.003
  -0.06446331 -0.00000000  0.11842666       0.003
  -0.03223165 -0.01860895  0.10526814       0.003
  -0.00000000  0.00000000  0.11842666       0.003
   0.03223165 -0.01860895  0.10526814       0.003
   0.06446331 -0.03721791  0.09210962       0.003
   0.09669496 -0.05582686  0.07895111       0.003
  -0.09669496  0.05582686  0.15790221       0.003
  -0.06446331  0.03721791  0.14474370       0.003
  -0.03223165  0.01860895  0.13158518       0.003
  -0.00000000  0.03721791  0.10526814       0.003
   0.03223165  0.01860895  0.09210962       0.003
   0.06446331  0.00000000  0.07895111       0.003
   0.09669496 -0.01860895  0.06579259       0.003
  -0.09669496  0.09304477  0.14474370       0.003
  -0.06446331  0.07443582  0.13158518       0.003
  -0.03223165  0.05582686  0.11842666       0.003
  -0.00000000  0.07443582  0.09210962       0.003
   0.03223165  0.05582686  0.07895111       0.003
   0.06446331  0.03721791  0.06579259       0.003
   0.09669496  0.01860895  0.05263407       0.003
  -0.09669496  0.13026268  0.13158518       0.003
  -0.06446331  0.11165373  0.11842666       0.003
  -0.03223165  0.09304477  0.10526814       0.003
  -0.00000000  0.11165373  0.07895111       0.003
   0.03223165  0.09304477  0.06579259       0.003
   0.06446331  0.07443582  0.05263407       0.003
   0.09669496  0.05582686  0.03947555       0.003
  -0.09669496  0.16748059  0.11842666       0.003
  -0.06446331  0.14887163  0.10526814       0.003
  -0.03223165  0.13026268  0.09210962       0.003
  -0.00000000 -0.11165373  0.15790221       0.003
   0.03223165 -0.13026268  0.14474370       0.003
   0.06446331 -0.14887163  0.13158518       0.003
   0.09669496 -0.16748059  0.11842666       0.003
  -0.09669496 -0.05582686  0.19737777       0.003
  -0.06446331 -0.07443582  0.18421925       0.003
  -0.03223165 -0.09304477  0.17106073       0.003
  -0.00000000 -0.07443582  0.14474370       0.003
   0.03223165 -0.09304477  0.13158518       0.003
   0.06446331 -0.11165373  0.11842666       0.003
   0.09669496 -0.13026268  0.10526814       0.003
  -0.09669496 -0.01860895  0.18421925       0.003
  -0.06446331 -0.03721791  0.17106073       0.003
  -0.03223165 -0.05582686  0.15790221       0.003
  -0.00000000 -0.03721791  0.13158518       0.003
   0.03223165 -0.05582686  0.11842666       0.003
   0.06446331 -0.07443582  0.10526814       0.003
   0.09669496 -0.09304477  0.09210962       0.003
  -0.09669496  0.01860895  0.17106073       0.003
  -0.06446331 -0.00000000  0.15790221       0.003
  -0.03223165 -0.01860895  0.14474370       0.003
   0.00000000 -0.00000000 -0.11842666       0.003
   0.03223165 -0.01860895 -0.13158518       0.003
   0.06446331 -0.03721791 -0.14474370       0.003
   0.09669496 -0.05582686 -0.15790221       0.003
  -0.09669496  0.05582686 -0.07895111       0.003
  -0.06446331  0.03721791 -0.09210962       0.003
  -0.03223165  0.01860895 -0.10526814       0.003
   0.00000000  0.03721791 -0.13158518       0.003
   0.03223165  0.01860895 -0.14474370       0.003
   0.06446331  0.00000000 -0.15790221       0.003
   0.09669496 -0.01860895 -0.17106073       0.003
  -0.09669496  0.09304477 -0.09210962       0.003
  -0.06446331  0.07443582 -0.10526814       0.003
  -0.03223165  0.05582686 -0.11842666       0.003
   0.00000000  0.07443582 -0.14474370       0.003
   0.03223165  0.05582686 -0.15790221       0.003
   0.06446331  0.03721791 -0.17106073       0.003
   0.09669496  0.01860895 -0.18421925       0.003
  -0.09669496  0.13026268 -0.10526814       0.003
  -0.06446331  0.11165373 -0.11842666       0.003
  -0.03223165  0.09304477 -0.13158518       0.003
   0.00000000  0.11165373 -0.15790221       0.003
   0.03223165  0.09304477 -0.17106073       0.003
   0.06446331  0.07443582 -0.18421925       0.003
   0.09669496  0.05582686 -0.19737777       0.003
  -0.09669496  0.16748059 -0.11842666       0.003
  -0.06446331  0.14887163 -0.13158518       0.003
  -0.03223165  0.13026268 -0.14474370       0.003
   0.00000000 -0.11165373 -0.07895111       0.003
   0.03223165 -0.13026268 -0.09210962       0.003
   0.06446331 -0.14887163 -0.10526814       0.003
   0.09669496 -0.16748059 -0.11842666       0.003
  -0.09669496 -0.05582686 -0.03947555       0.003
  -0.06446331 -0.07443582 -0.05263407       0.003
  -0.03223165 -0.09304477 -0.06579259       0.003
   0.00000000 -0.07443582 -0.09210962       0.003
   0.03223165 -0.09304477 -0.10526814       0.003
   0.06446331 -0.11165373 -0.11842666       0.003
   0.09669496 -0.13026268 -0.13158518       0.003
  -0.09669496 -0.01860895 -0.05263407       0.003
  -0.06446331 -0.03721791 -0.06579259       0.003
  -0.03223165 -0.05582686 -0.07895111       0.003
   0.00000000 -0.03721791 -0.10526814       0.003
   0.03223165 -0.05582686 -0.11842666       0.003
   0.06446331 -0.07443582 -0.13158518       0.003
   0.09669496 -0.09304477 -0.14474370       0.003
  -0.09669496  0.01860895 -0.06579259       0.003
  -0.06446331 -0.00000000 -0.07895111       0.003
  -0.03223165 -0.01860895 -0.09210962       0.003
   0.00000000 -0.00000000 -0.07895111       0.003
   0.03223165 -0.01860895 -0.09210962       0.003
   0.06446331 -0.03721791 -0.10526814       0.003
   0.09669496 -0.05582686 -0.11842666       0.003
  -0.09669496  0.05582686 -0.03947555       0.003
  -0.06446331  0.03721791 -0.05263407       0.003
  -0.03223165  0.01860895 -0.06579259       0.003
   0.00000000  0.03721791 -0.09210962       0.003
   0.03223165  0.01860895 -0.10526814       0.003
   0.06446331  0.00000000 -0.11842666       0.003
   0.09669496 -0.01860895 -0.13158518       0.003
  -0.09669496  0.09304477 -0.05263407       0.003
  -0.06446331  0.07443582 -0.06579259       0.003
  -0.03223165  0.05582686 -0.07895111       0.003
   0.00000000  0.07443582 -0.10526814       0.003
   0.03223165  0.05582686 -0.11842666       0.003
   0.06446331  0.03721791 -0.13158518       0.003
   0.09669496  0.01860895 -0.14474370       0.003
  -0.09669496  0.13026268 -0.06579259       0.003
  -0.06446331  0.11165373 -0.07895111       0.003
  -0.03223165  0.09304477 -0.09210962       0.003
   0.00000000  0.11165373 -0.11842666       0.003
   0.03223165  0.09304477 -0.13158518       0.003
   0.06446331  0.07443582 -0.14474370       0.003
   0.09669496  0.05582686 -0.15790221       0.003
  -0.09669496  0.16748059 -0.07895111       0.003
  -0.06446331  0.14887163 -0.09210962       0.003
  -0.03223165  0.13026268 -0.10526814       0.003
   0.00000000 -0.11165373 -0.03947555       0.003
   0.03223165 -0.13026268 -0.05263407       0.003
   0.06446331 -0.14887163 -0.06579259       0.003
   0.09669496 -0.16748059 -0.07895111       0.003
  -0.09669496 -0.05582686 -0.00000000       0.003
  -0.06446331 -0.07443582 -0.01315852       0.003
  -0.03223165 -0.09304477 -0.02631704       0.003
   0.00000000 -0.07443582 -0.05263407       0.003
   0.03223165 -0.09304477 -0.06579259       0.003
   0.06446331 -0.11165373 -0.07895111       0.003
   0.09669496 -0.13026268 -0.09210962       0.003
  -0.09669496 -0.01860895 -0.01315852       0.003
  -0.06446331 -0.03721791 -0.02631704       0.003
  -0.03223165 -0.05582686 -0.03947555       0.003
   0.00000000 -0.03721791 -0.06579259       0.003
   0.03223165 -0.05582686 -0.07895111       0.003
   0.06446331 -0.07443582 -0.09210962       0.003
   0.09669496 -0.09304477 -0.10526814       0.003
  -0.09669496  0.01860895 -0.02631704       0.003
  -0.06446331 -0.00000000 -0.03947555       0.003
  -0.03223165 -0.01860895 -0.05263407       0.003
   0.00000000 -0.00000000 -0.03947555       0.003
   0.03223165 -0.01860895 -0.05263407       0.003
   0.06446331 -0.03721791 -0.06579259       0.003
   0.09669496 -0.05582686 -0.07895111       0.003
  -0.09669496  0.05582686  0.00000000       0.003
  -0.06446331  0.03721791 -0.01315852       0.003
  -0.03223165  0.01860895 -0.02631704       0.003
   0.00000000  0.03721791 -0.05263407       0.003
   0.03223165  0.01860895 -0.06579259       0.003
   0.06446331  0.00000000 -0.07895111       0.003
   0.09669496 -0.01860895 -0.09210962       0.003
  -0.09669496  0.09304477 -0.01315852       0.003
  -0.06446331  0.07443582 -0.02631704       0.003
  -0.03223165  0.05582686 -0.03947555       0.003
   0.00000000  0.07443582 -0.06579259       0.003
   0.03223165  0.05582686 -0.07895111       0.003
   0.06446331  0.03721791 -0.09210962       0.003
   0.09669496  0.01860895 -0.10526814       0.003
  -0.09669496  0.13026268 -0.02631704       0.003
  -0.06446331  0.11165373 -0.03947555       0.003
  -0.03223165  0.09304477 -0.05263407       0.003
   0.00000000  0.11165373 -0.07895111       0.003
   0.03223165  0.09304477 -0.09210962       0.003
   0.06446331  0.07443582 -0.10526814       0.003
   0.09669496  0.05582686 -0.11842666       0.003
  -0.09669496  0.16748059 -0.03947555       0.003
  -0.06446331  0.14887163 -0.05263407       0.003
  -0.03223165  0.13026268 -0.06579259       0.003
   0.00000000 -0.11165373 -0.00000000       0.003
   0.03223165 -0.13026268 -0.01315852       0.003
   0.06446331 -0.14887163 -0.02631704       0.003
   0.09669496 -0.16748059 -0.03947555       0.003
  -0.09669496 -0.05582686  0.03947555       0.003
  -0.06446331 -0.07443582  0.02631704       0.003
  -0.03223165 -0.09304477  0.01315852       0.003
   0.00000000 -0.07443582 -0.01315852       0.003
   0.03223165 -0.09304477 -0.02631704       0.003
   0.06446331 -0.11165373 -0.03947555       0.003
   0.09669496 -0.13026268 -0.05263407       0.003
  -0.09669496 -0.01860895  0.02631704       0.003
  -0.06446331 -0.03721791  0.01315852       0.003
  -0.03223165 -0.05582686 -0.00000000       0.003
   0.00000000 -0.03721791 -0.02631704       0.003
   0.03223165 -0.05582686 -0.03947555       0.003
   0.06446331 -0.07443582 -0.05263407       0.003
   0.09669496 -0.09304477 -0.06579259       0.003
  -0.09669496  0.01860895  0.01315852       0.003
  -0.06446331 -0.00000000  0.00000000       0.003
  -0.03223165 -0.01860895 -0.01315852       0.003
 
 k-points in reciprocal lattice and weights: k-points                                
   0.00000000  0.00000000  0.00000000       0.003
   0.14285714 -0.00000000  0.00000000       0.003
   0.28571429  0.00000000 -0.00000000       0.003
   0.42857143  0.00000000  0.00000000       0.003
  -0.42857143 -0.00000000  0.00000000       0.003
  -0.28571429 -0.00000000  0.00000000       0.003
  -0.14285714  0.00000000  0.00000000       0.003
   0.00000000  0.14285714 -0.00000000       0.003
   0.14285714  0.14285714  0.00000000       0.003
   0.28571429  0.14285714 -0.00000000       0.003
   0.42857143  0.14285714  0.00000000       0.003
  -0.42857143  0.14285714 -0.00000000       0.003
  -0.28571429  0.14285714 -0.00000000       0.003
  -0.14285714  0.14285714 -0.00000000       0.003
   0.00000000  0.28571429 -0.00000000       0.003
   0.14285714  0.28571429 -0.00000000       0.003
   0.28571429  0.28571429 -0.00000000       0.003
   0.42857143  0.28571429 -0.00000000       0.003
  -0.42857143  0.28571429 -0.00000000       0.003
  -0.28571429  0.28571429  0.00000000       0.003
  -0.14285714  0.28571429 -0.00000000       0.003
   0.00000000  0.42857143 -0.00000000       0.003
   0.14285714  0.42857143 -0.00000000       0.003
   0.28571429  0.42857143 -0.00000000       0.003
   0.42857143  0.42857143 -0.00000000       0.003
  -0.42857143  0.42857143 -0.00000000       0.003
  -0.28571429  0.42857143 -0.00000000       0.003
  -0.14285714  0.42857143 -0.00000000       0.003
   0.00000000 -0.42857143  0.00000000       0.003
   0.14285714 -0.42857143  0.00000000       0.003
   0.28571429 -0.42857143  0.00000000       0.003
   0.42857143 -0.42857143  0.00000000       0.003
  -0.42857143 -0.42857143  0.00000000       0.003
  -0.28571429 -0.42857143  0.00000000       0.003
  -0.14285714 -0.42857143  0.00000000       0.003
   0.00000000 -0.28571429  0.00000000       0.003
   0.14285714 -0.28571429  0.00000000       0.003
   0.28571429 -0.28571429 -0.00000000       0.003
   0.42857143 -0.28571429  0.00000000       0.003
  -0.42857143 -0.28571429  0.00000000       0.003
  -0.28571429 -0.28571429  0.00000000       0.003
  -0.14285714 -0.28571429  0.00000000       0.003
   0.00000000 -0.14285714  0.00000000       0.003
   0.14285714 -0.14285714  0.00000000       0.003
   0.28571429 -0.14285714  0.00000000       0.003
   0.42857143 -0.14285714  0.00000000       0.003
  -0.42857143 -0.14285714 -0.00000000       0.003
  -0.28571429 -0.14285714  0.00000000       0.003
  -0.14285714 -0.14285714  0.00000000       0.003
  -0.00000000 -0.00000000  0.14285714       0.003
   0.14285714 -0.00000000  0.14285714       0.003
   0.28571429 -0.00000000  0.14285714       0.003
   0.42857143  0.00000000  0.14285714       0.003
  -0.42857143 -0.00000000  0.14285714       0.003
  -0.28571429 -0.00000000  0.14285714       0.003
  -0.14285714  0.00000000  0.14285714       0.003
  -0.00000000  0.14285714  0.14285714       0.003
   0.14285714  0.14285714  0.14285714       0.003
   0.28571429  0.14285714  0.14285714       0.003
   0.42857143  0.14285714  0.14285714       0.003
  -0.42857143  0.14285714  0.14285714       0.003
  -0.28571429  0.14285714  0.14285714       0.003
  -0.14285714  0.14285714  0.14285714       0.003
  -0.00000000  0.28571429  0.14285714       0.003
   0.14285714  0.28571429  0.14285714       0.003
   0.28571429  0.28571429  0.14285714       0.003
   0.42857143  0.28571429  0.14285714       0.003
  -0.42857143  0.28571429  0.14285714       0.003
  -0.28571429  0.28571429  0.14285714       0.003
  -0.14285714  0.28571429  0.14285714       0.003
  -0.00000000  0.42857143  0.14285714       0.003
   0.14285714  0.42857143  0.14285714       0.003
   0.28571429  0.42857143  0.14285714       0.003
   0.42857143  0.42857143  0.14285714       0.003
  -0.42857143  0.42857143  0.14285714       0.003
  -0.28571429  0.42857143  0.14285714       0.003
  -0.14285714  0.42857143  0.14285714       0.003
   0.00000000 -0.42857143  0.14285714       0.003
   0.14285714 -0.42857143  0.14285714       0.003
   0.28571429 -0.42857143  0.14285714       0.003
   0.42857143 -0.42857143  0.14285714       0.003
  -0.42857143 -0.42857143  0.14285714       0.003
  -0.28571429 -0.42857143  0.14285714       0.003
  -0.14285714 -0.42857143  0.14285714       0.003
   0.00000000 -0.28571429  0.14285714       0.003
   0.14285714 -0.28571429  0.14285714       0.003
   0.28571429 -0.28571429  0.14285714       0.003
   0.42857143 -0.28571429  0.14285714       0.003
  -0.42857143 -0.28571429  0.14285714       0.003
  -0.28571429 -0.28571429  0.14285714       0.003
  -0.14285714 -0.28571429  0.14285714       0.003
  -0.00000000 -0.14285714  0.14285714       0.003
   0.14285714 -0.14285714  0.14285714       0.003
   0.28571429 -0.14285714  0.14285714       0.003
   0.42857143 -0.14285714  0.14285714       0.003
  -0.42857143 -0.14285714  0.14285714       0.003
  -0.28571429 -0.14285714  0.14285714       0.003
  -0.14285714 -0.14285714  0.14285714       0.003
  -0.00000000  0.00000000  0.28571429       0.003
   0.14285714  0.00000000  0.28571429       0.003
   0.28571429 -0.00000000  0.28571429       0.003
   0.42857143 -0.00000000  0.28571429       0.003
  -0.42857143 -0.00000000  0.28571429       0.003
  -0.28571429 -0.00000000  0.28571429       0.003
  -0.14285714  0.00000000  0.28571429       0.003
  -0.00000000  0.14285714  0.28571429       0.003
   0.14285714  0.14285714  0.28571429       0.003
   0.28571429  0.14285714  0.28571429       0.003
   0.42857143  0.14285714  0.28571429       0.003
  -0.42857143  0.14285714  0.28571429       0.003
  -0.28571429  0.14285714  0.28571429       0.003
  -0.14285714  0.14285714  0.28571429       0.003
  -0.00000000  0.28571429  0.28571429       0.003
   0.14285714  0.28571429  0.28571429       0.003
   0.28571429  0.28571429  0.28571429       0.003
   0.42857143  0.28571429  0.28571429       0.003
  -0.42857143  0.28571429  0.28571429       0.003
  -0.28571429  0.28571429  0.28571429       0.003
  -0.14285714  0.28571429  0.28571429       0.003
   0.00000000  0.42857143  0.28571429       0.003
   0.14285714  0.42857143  0.28571429       0.003
   0.28571429  0.42857143  0.28571429       0.003
   0.42857143  0.42857143  0.28571429       0.003
  -0.42857143  0.42857143  0.28571429       0.003
  -0.28571429  0.42857143  0.28571429       0.003
  -0.14285714  0.42857143  0.28571429       0.003
  -0.00000000 -0.42857143  0.28571429       0.003
   0.14285714 -0.42857143  0.28571429       0.003
   0.28571429 -0.42857143  0.28571429       0.003
   0.42857143 -0.42857143  0.28571429       0.003
  -0.42857143 -0.42857143  0.28571429       0.003
  -0.28571429 -0.42857143  0.28571429       0.003
  -0.14285714 -0.42857143  0.28571429       0.003
  -0.00000000 -0.28571429  0.28571429       0.003
   0.14285714 -0.28571429  0.28571429       0.003
   0.28571429 -0.28571429  0.28571429       0.003
   0.42857143 -0.28571429  0.28571429       0.003
  -0.42857143 -0.28571429  0.28571429       0.003
  -0.28571429 -0.28571429  0.28571429       0.003
  -0.14285714 -0.28571429  0.28571429       0.003
  -0.00000000 -0.14285714  0.28571429       0.003
   0.14285714 -0.14285714  0.28571429       0.003
   0.28571429 -0.14285714  0.28571429       0.003
   0.42857143 -0.14285714  0.28571429       0.003
  -0.42857143 -0.14285714  0.28571429       0.003
  -0.28571429 -0.14285714  0.28571429       0.003
  -0.14285714 -0.14285714  0.28571429       0.003
  -0.00000000 -0.00000000  0.42857143       0.003
   0.14285714 -0.00000000  0.42857143       0.003
   0.28571429  0.00000000  0.42857143       0.003
   0.42857143  0.00000000  0.42857143       0.003
  -0.42857143  0.00000000  0.42857143       0.003
  -0.28571429  0.00000000  0.42857143       0.003
  -0.14285714  0.00000000  0.42857143       0.003
  -0.00000000  0.14285714  0.42857143       0.003
   0.14285714  0.14285714  0.42857143       0.003
   0.28571429  0.14285714  0.42857143       0.003
   0.42857143  0.14285714  0.42857143       0.003
  -0.42857143  0.14285714  0.42857143       0.003
  -0.28571429  0.14285714  0.42857143       0.003
  -0.14285714  0.14285714  0.42857143       0.003
  -0.00000000  0.28571429  0.42857143       0.003
   0.14285714  0.28571429  0.42857143       0.003
   0.28571429  0.28571429  0.42857143       0.003
   0.42857143  0.28571429  0.42857143       0.003
  -0.42857143  0.28571429  0.42857143       0.003
  -0.28571429  0.28571429  0.42857143       0.003
  -0.14285714  0.28571429  0.42857143       0.003
  -0.00000000  0.42857143  0.42857143       0.003
   0.14285714  0.42857143  0.42857143       0.003
   0.28571429  0.42857143  0.42857143       0.003
   0.42857143  0.42857143  0.42857143       0.003
  -0.42857143  0.42857143  0.42857143       0.003
  -0.28571429  0.42857143  0.42857143       0.003
  -0.14285714  0.42857143  0.42857143       0.003
  -0.00000000 -0.42857143  0.42857143       0.003
   0.14285714 -0.42857143  0.42857143       0.003
   0.28571429 -0.42857143  0.42857143       0.003
   0.42857143 -0.42857143  0.42857143       0.003
  -0.42857143 -0.42857143  0.42857143       0.003
  -0.28571429 -0.42857143  0.42857143       0.003
  -0.14285714 -0.42857143  0.42857143       0.003
   0.00000000 -0.28571429  0.42857143       0.003
   0.14285714 -0.28571429  0.42857143       0.003
   0.28571429 -0.28571429  0.42857143       0.003
   0.42857143 -0.28571429  0.42857143       0.003
  -0.42857143 -0.28571429  0.42857143       0.003
  -0.28571429 -0.28571429  0.42857143       0.003
  -0.14285714 -0.28571429  0.42857143       0.003
   0.00000000 -0.14285714  0.42857143       0.003
   0.14285714 -0.14285714  0.42857143       0.003
   0.28571429 -0.14285714  0.42857143       0.003
   0.42857143 -0.14285714  0.42857143       0.003
  -0.42857143 -0.14285714  0.42857143       0.003
  -0.28571429 -0.14285714  0.42857143       0.003
  -0.14285714 -0.14285714  0.42857143       0.003
   0.00000000  0.00000000 -0.42857143       0.003
   0.14285714 -0.00000000 -0.42857143       0.003
   0.28571429 -0.00000000 -0.42857143       0.003
   0.42857143 -0.00000000 -0.42857143       0.003
  -0.42857143 -0.00000000 -0.42857143       0.003
  -0.28571429 -0.00000000 -0.42857143       0.003
  -0.14285714  0.00000000 -0.42857143       0.003
   0.00000000  0.14285714 -0.42857143       0.003
   0.14285714  0.14285714 -0.42857143       0.003
   0.28571429  0.14285714 -0.42857143       0.003
   0.42857143  0.14285714 -0.42857143       0.003
  -0.42857143  0.14285714 -0.42857143       0.003
  -0.28571429  0.14285714 -0.42857143       0.003
  -0.14285714  0.14285714 -0.42857143       0.003
  -0.00000000  0.28571429 -0.42857143       0.003
   0.14285714  0.28571429 -0.42857143       0.003
   0.28571429  0.28571429 -0.42857143       0.003
   0.42857143  0.28571429 -0.42857143       0.003
  -0.42857143  0.28571429 -0.42857143       0.003
  -0.28571429  0.28571429 -0.42857143       0.003
  -0.14285714  0.28571429 -0.42857143       0.003
   0.00000000  0.42857143 -0.42857143       0.003
   0.14285714  0.42857143 -0.42857143       0.003
   0.28571429  0.42857143 -0.42857143       0.003
   0.42857143  0.42857143 -0.42857143       0.003
  -0.42857143  0.42857143 -0.42857143       0.003
  -0.28571429  0.42857143 -0.42857143       0.003
  -0.14285714  0.42857143 -0.42857143       0.003
   0.00000000 -0.42857143 -0.42857143       0.003
   0.14285714 -0.42857143 -0.42857143       0.003
   0.28571429 -0.42857143 -0.42857143       0.003
   0.42857143 -0.42857143 -0.42857143       0.003
  -0.42857143 -0.42857143 -0.42857143       0.003
  -0.28571429 -0.42857143 -0.42857143       0.003
  -0.14285714 -0.42857143 -0.42857143       0.003
   0.00000000 -0.28571429 -0.42857143       0.003
   0.14285714 -0.28571429 -0.42857143       0.003
   0.28571429 -0.28571429 -0.42857143       0.003
   0.42857143 -0.28571429 -0.42857143       0.003
  -0.42857143 -0.28571429 -0.42857143       0.003
  -0.28571429 -0.28571429 -0.42857143       0.003
  -0.14285714 -0.28571429 -0.42857143       0.003
   0.00000000 -0.14285714 -0.42857143       0.003
   0.14285714 -0.14285714 -0.42857143       0.003
   0.28571429 -0.14285714 -0.42857143       0.003
   0.42857143 -0.14285714 -0.42857143       0.003
  -0.42857143 -0.14285714 -0.42857143       0.003
  -0.28571429 -0.14285714 -0.42857143       0.003
  -0.14285714 -0.14285714 -0.42857143       0.003
   0.00000000  0.00000000 -0.28571429       0.003
   0.14285714 -0.00000000 -0.28571429       0.003
   0.28571429  0.00000000 -0.28571429       0.003
   0.42857143  0.00000000 -0.28571429       0.003
  -0.42857143  0.00000000 -0.28571429       0.003
  -0.28571429  0.00000000 -0.28571429       0.003
  -0.14285714 -0.00000000 -0.28571429       0.003
   0.00000000  0.14285714 -0.28571429       0.003
   0.14285714  0.14285714 -0.28571429       0.003
   0.28571429  0.14285714 -0.28571429       0.003
   0.42857143  0.14285714 -0.28571429       0.003
  -0.42857143  0.14285714 -0.28571429       0.003
  -0.28571429  0.14285714 -0.28571429       0.003
  -0.14285714  0.14285714 -0.28571429       0.003
   0.00000000  0.28571429 -0.28571429       0.003
   0.14285714  0.28571429 -0.28571429       0.003
   0.28571429  0.28571429 -0.28571429       0.003
   0.42857143  0.28571429 -0.28571429       0.003
  -0.42857143  0.28571429 -0.28571429       0.003
  -0.28571429  0.28571429 -0.28571429       0.003
  -0.14285714  0.28571429 -0.28571429       0.003
   0.00000000  0.42857143 -0.28571429       0.003
   0.14285714  0.42857143 -0.28571429       0.003
   0.28571429  0.42857143 -0.28571429       0.003
   0.42857143  0.42857143 -0.28571429       0.003
  -0.42857143  0.42857143 -0.28571429       0.003
  -0.28571429  0.42857143 -0.28571429       0.003
  -0.14285714  0.42857143 -0.28571429       0.003
   0.00000000 -0.42857143 -0.28571429       0.003
   0.14285714 -0.42857143 -0.28571429       0.003
   0.28571429 -0.42857143 -0.28571429       0.003
   0.42857143 -0.42857143 -0.28571429       0.003
  -0.42857143 -0.42857143 -0.28571429       0.003
  -0.28571429 -0.42857143 -0.28571429       0.003
  -0.14285714 -0.42857143 -0.28571429       0.003
   0.00000000 -0.28571429 -0.28571429       0.003
   0.14285714 -0.28571429 -0.28571429       0.003
   0.28571429 -0.28571429 -0.28571429       0.003
   0.42857143 -0.28571429 -0.28571429       0.003
  -0.42857143 -0.28571429 -0.28571429       0.003
  -0.28571429 -0.28571429 -0.28571429       0.003
  -0.14285714 -0.28571429 -0.28571429       0.003
   0.00000000 -0.14285714 -0.28571429       0.003
   0.14285714 -0.14285714 -0.28571429       0.003
   0.28571429 -0.14285714 -0.28571429       0.003
   0.42857143 -0.14285714 -0.28571429       0.003
  -0.42857143 -0.14285714 -0.28571429       0.003
  -0.28571429 -0.14285714 -0.28571429       0.003
  -0.14285714 -0.14285714 -0.28571429       0.003
   0.00000000  0.00000000 -0.14285714       0.003
   0.14285714 -0.00000000 -0.14285714       0.003
   0.28571429  0.00000000 -0.14285714       0.003
   0.42857143  0.00000000 -0.14285714       0.003
  -0.42857143 -0.00000000 -0.14285714       0.003
  -0.28571429  0.00000000 -0.14285714       0.003
  -0.14285714  0.00000000 -0.14285714       0.003
   0.00000000  0.14285714 -0.14285714       0.003
   0.14285714  0.14285714 -0.14285714       0.003
   0.28571429  0.14285714 -0.14285714       0.003
   0.42857143  0.14285714 -0.14285714       0.003
[...]
    0.000000    8.406333    8.405410    8.406092    0.023923    0.025060    0.023021
    0.328828    0.842628    0.842536    0.842604    0.002395    0.002509    0.002305
    0.657656    0.424362    0.424316    0.424350    0.001202    0.001259    0.001157
    0.986484    0.286352    0.286320    0.286343    0.000807    0.000844    0.000776
    1.315311    0.218472    0.218449    0.218466    0.000610    0.000638    0.000587
    1.644139    0.178725    0.178707    0.178720    0.000494    0.000516    0.000475
    1.972967    0.153139    0.153123    0.153135    0.000417    0.000436    0.000401
    2.301795    0.135753    0.135739    0.135749    0.000364    0.000379    0.000350
    2.630623    0.123623    0.123611    0.123620    0.000325    0.000338    0.000312
    2.959451    0.115155    0.115144    0.115152    0.000295    0.000307    0.000283
    3.288279    0.109445    0.109435    0.109442    0.000272    0.000282    0.000261
    3.617106    0.105993    0.105983    0.105990    0.000254    0.000263    0.000244
    3.945934    0.104574    0.104565    0.104571    0.000240    0.000248    0.000230
    4.274762    0.105203    0.105195    0.105201    0.000229    0.000236    0.000220
    4.603590    0.108204    0.108196    0.108202    0.000221    0.000227    0.000211
    4.932418    0.114495    0.114487    0.114492    0.000214    0.000220    0.000205
    5.261246    0.126964    0.126956    0.126962    0.000209    0.000214    0.000200
    5.590074    0.166305    0.166297    0.166303    0.000206    0.000211    0.000197
    5.918901    0.223466    0.223458    0.223463    0.000205    0.000209    0.000196
    6.247729    0.454228    0.454221    0.454226    0.000205    0.000208    0.000196
    6.576557    0.848255    0.848248    0.848253    0.000205    0.000208    0.000196
    6.905385    0.485607    0.485600    0.485605    0.000215    0.000217    0.000205
    7.234213    1.227068    1.227061    1.227066    0.000213    0.000214    0.000203
    7.563041    1.727942    1.727935    1.727940    0.000216    0.000216    0.000206
    7.891868    3.135093    3.135085    3.135090    0.000220    0.000220    0.000209
    8.220696    2.906720    2.906712    2.906717    0.000227    0.000226    0.000216
    8.549524    3.574044    3.574035    3.574040    0.000233    0.000229    0.000220
    8.878352    4.690408    4.690396    4.690403    0.000407    0.000410    0.000393
    9.207180    4.389368    4.389358    4.389364    0.000258    0.000252    0.000244
    9.536008    3.739900    3.739890    3.739897    0.000283    0.000277    0.000268
    9.864836    3.726178    3.726167    3.726174    0.000305    0.000298    0.000289
   10.193663    4.100156    4.100146    4.100152    0.000337    0.000329    0.000320
   10.522491    3.680982    3.680968    3.680976    0.000371    0.000359    0.000351
   10.851319    4.546586    4.546571    4.546580    0.000397    0.000382    0.000374
   11.180147    2.849684    2.849667    2.849677    0.000463    0.000444    0.000437
   11.508975    2.390199    2.390178    2.390190    0.000530    0.000505    0.000499
   11.837803    2.209621    2.209595    2.209609    0.000613    0.000581    0.000576
   12.166631    2.703244    2.703210    2.703228    0.000732    0.000689    0.000686
   12.495458    1.822493    1.822447    1.822469    0.000897    0.000839    0.000838
   12.824286    1.172133    1.172060    1.172093    0.001139    0.001056    0.001060
   13.153114    1.317910    1.317774    1.317830    0.001537    0.001413    0.001420
   13.481942    1.245701    1.245313    1.245459    0.002308    0.002114    0.002098
   13.810770    1.177335    1.173437    1.174859    0.005046    0.005020    0.004229
   14.139598    0.835364    0.834686    0.834826    0.005522    0.005043    0.005529
   14.468426    0.895115    0.893619    0.897003    0.001573   -0.002485   -0.000107
   14.797253    0.950079    0.948078    0.948080    0.010071    0.009008    0.008558
   15.126081    0.807839    0.807815    0.807115   -0.015549   -0.016993   -0.014881
   15.454909    0.355170    0.355115    0.355335   -0.012538   -0.012344   -0.011722
   15.783737    0.656700    0.657477    0.660096   -0.015505   -0.010718   -0.012723
   16.112565    0.594489    0.588710    0.592805    0.009989    0.008422    0.009531
   16.441393    0.254792    0.254382    0.254749    0.006959    0.006700    0.006607
   16.770221    0.162364    0.162262    0.162372    0.003190    0.003059    0.003023
   17.099048    0.034858    0.034814    0.034865    0.001857    0.001770    0.001756
   17.427876    0.019689    0.019665    0.019694    0.001219    0.001155    0.001152
   17.756704    0.013678    0.013662    0.013681    0.000862    0.000812    0.000813
   18.085532    0.010331    0.010321    0.010333    0.000640    0.000600    0.000603
   18.414360    0.008195    0.008187    0.008196    0.000493    0.000460    0.000464
   18.743188    0.006791    0.006784    0.006791    0.000391    0.000363    0.000367
   19.072016    0.006343    0.006338    0.006343    0.000316    0.000293    0.000297
   19.400843    0.005243    0.005239    0.005243    0.000261    0.000241    0.000245
   19.729671    0.006200    0.006197    0.006201    0.000219    0.000201    0.000205
   20.058499    0.006260    0.006257    0.006260    0.000185    0.000170    0.000174
   20.387327    0.006136    0.006134    0.006136    0.000159    0.000145    0.000149
   20.716155    0.004788    0.004786    0.004788    0.000138    0.000125    0.000129
   21.044983    0.004532    0.004531    0.004532    0.000120    0.000109    0.000113
   21.373810    0.005871    0.005869    0.005871    0.000106    0.000096    0.000099
   21.702638    0.004637    0.004636    0.004637    0.000094    0.000085    0.000088
   22.031466    0.005249    0.005248    0.005249    0.000083    0.000075    0.000078
   22.360294    0.005279    0.005278    0.005279    0.000075    0.000067    0.000070
   22.689122    0.005450    0.005449    0.005450    0.000067    0.000061    0.000063
   23.017950    0.003128    0.003127    0.003128    0.000061    0.000055    0.000057
   23.346778    0.001814    0.001814    0.001814    0.000055    0.000050    0.000052
   23.675605    0.002345    0.002345    0.002345    0.000051    0.000045    0.000047
   24.004433    0.001539    0.001538    0.001539    0.000047    0.000041    0.000043
   24.333261    0.001804    0.001804    0.001804    0.000043    0.000038    0.000040
   24.662089    0.000955    0.000955    0.000955    0.000040    0.000035    0.000037
   24.990917    0.000843    0.000843    0.000843    0.000037    0.000033    0.000035
   25.319745    0.001122    0.001122    0.001122    0.000035    0.000031    0.000033
   25.648573    0.000931    0.000931    0.000931    0.000033    0.000030    0.000031
   25.977400    0.000941    0.000941    0.000941    0.000033    0.000029    0.000030
   26.306228    0.000754    0.000753    0.000754    0.000032    0.000029    0.000030
   26.635056    0.000684    0.000684    0.000684    0.000022    0.000020    0.000020
   26.963884    0.000504    0.000503    0.000504    0.000014    0.000011    0.000012
   27.292712    0.000424    0.000424    0.000424    0.000017    0.000014    0.000015
   27.621540    0.000375    0.000375    0.000375    0.000017    0.000014    0.000016
   27.950368    0.000345    0.000345    0.000345    0.000017    0.000014    0.000015
   28.279195    0.000319    0.000319    0.000319    0.000016    0.000014    0.000015
   28.608023    0.000297    0.000297    0.000297    0.000015    0.000013    0.000014
   28.936851    0.000276    0.000276    0.000276    0.000014    0.000012    0.000013
   29.265679    0.000258    0.000258    0.000258    0.000014    0.000012    0.000013
   29.594507    0.000241    0.000241    0.000241    0.000013    0.000011    0.000012
   29.923335    0.000225    0.000225    0.000225    0.000012    0.000011    0.000011
   30.252163    0.000211    0.000211    0.000211    0.000012    0.000010    0.000011
   30.580990    0.000198    0.000198    0.000198    0.000011    0.000010    0.000010
   30.909818    0.000186    0.000186    0.000186    0.000011    0.000009    0.000010
   31.238646    0.000175    0.000175    0.000175    0.000010    0.000009    0.000009
   31.567474    0.000164    0.000164    0.000164    0.000010    0.000008    0.000009
   31.896302    0.000155    0.000155    0.000155    0.000009    0.000008    0.000008
   32.225130    0.000146    0.000146    0.000146    0.000009    0.000007    0.000008
   32.553958    0.000138    0.000137    0.000138    0.000008    0.000007    0.000008

  frequency dependent      REAL DIELECTRIC FUNCTION (independent particle, no local field effects) current-current (2nd set in vasprun.xml)
     E(ev)        X           Y           Z          XY          YZ          ZX
  --------------------------------------------------------------------------------------------------------------
    0.000000    2.381490    2.381338    2.381450    0.000139    0.000021    0.000111
    0.328828    2.383127    2.382975    2.383087    0.000139    0.000021    0.000111
    0.657656    2.388114    2.387962    2.388074    0.000139    0.000021    0.000112
    0.986484    2.396519    2.396367    2.396479    0.000139    0.000021    0.000112
    1.315311    2.408486    2.408333    2.408446    0.000140    0.000021    0.000112
    1.644139    2.424226    2.424073    2.424186    0.000141    0.000021    0.000113
    1.972967    2.444031    2.443876    2.443990    0.000141    0.000021    0.000113
    2.301795    2.468284    2.468129    2.468243    0.000142    0.000021    0.000114
    2.630623    2.497492    2.497335    2.497451    0.000143    0.000022    0.000115
    2.959451    2.532314    2.532155    2.532272    0.000144    0.000022    0.000116
    3.288279    2.573615    2.573455    2.573573    0.000146    0.000022    0.000117
    3.617106    2.622550    2.622389    2.622508    0.000147    0.000022    0.000118
    3.945934    2.680692    2.680528    2.680648    0.000149    0.000022    0.000119
    4.274762    2.750256    2.750090    2.750212    0.000151    0.000022    0.000121
    4.603590    2.834538    2.834370    2.834493    0.000153    0.000022    0.000122
    4.932418    2.938874    2.938702    2.938827    0.000155    0.000023    0.000124
    5.261246    3.073463    3.073288    3.073416    0.000158    0.000023    0.000126
    5.590074    3.266085    3.265907    3.266037    0.000161    0.000023    0.000128
    5.918901    3.397769    3.397588    3.397719    0.000164    0.000023    0.000130
    6.247729    3.860407    3.860221    3.860356    0.000166    0.000023    0.000132
    6.576557    3.623578    3.623387    3.623525    0.000172    0.000024    0.000136
    6.905385    4.075483    4.075287    4.075428    0.000167    0.000016    0.000130
    7.234213    4.430852    4.430650    4.430795    0.000206    0.000050    0.000168
    7.563041    4.265502    4.265293    4.265442    0.000188    0.000028    0.000149
    7.891868    5.360652    5.360437    5.360590    0.000195    0.000029    0.000154
    8.220696    3.468956    3.468733    3.468891    0.000205    0.000034    0.000163
    8.549524    3.029801    3.029568    3.029733    0.000222    0.000043    0.000177
    8.878352    1.994106    1.993870    1.994038    0.000259    0.000083    0.000217
    9.207180    2.535261    2.535006    2.535184    0.000206    0.000011    0.000157
    9.536008    1.887787    1.887519    1.887704    0.000232    0.000030    0.000181
    9.864836    1.004162    1.003879    1.004074    0.000240    0.000026    0.000186
   10.193663    0.979877    0.979576    0.979781    0.000235    0.000009    0.000177
   10.522491    1.162543    1.162223    1.162439    0.000275    0.000036    0.000213
   10.851319   -0.852197   -0.852545   -0.852314    0.000247   -0.000011    0.000179
   11.180147   -0.248736   -0.249115   -0.248867    0.000317    0.000040    0.000243
   11.508975   -0.491319   -0.491737   -0.491468    0.000323    0.000021    0.000241
   11.837803   -0.546527   -0.546996   -0.546702    0.000363    0.000032    0.000271
   12.166631   -0.576341   -0.576878   -0.576550    0.000399    0.000032    0.000293
   12.495458   -1.059842   -1.060477   -1.060103    0.000441    0.000027    0.000317
   12.824286   -1.007086   -1.007872   -1.007432    0.000518    0.000044    0.000367
   13.153114   -0.348700   -0.349756   -0.349204    0.000618    0.000065    0.000424
   13.481942   -0.719341   -0.721031   -0.720236    0.000808    0.000167    0.000534
   13.810770   -0.229379   -0.232597   -0.231329    0.000561   -0.000183    0.000328
   14.139598   -0.376207   -0.374119   -0.374390   -0.002017   -0.003729   -0.002074
   14.468426   -0.242974   -0.244269   -0.241136   -0.011063   -0.010368   -0.011397
   14.797253   -0.276135   -0.276502   -0.278779   -0.013131   -0.015528   -0.012368
   15.126081   -0.635758   -0.635133   -0.633373   -0.005450   -0.002578   -0.004146
   15.454909   -0.265023   -0.264715   -0.263101   -0.000038    0.001970    0.000808
   15.783737   -0.282549   -0.282104   -0.279660    0.009303    0.010309    0.009549
   16.112565   -0.201996   -0.202240   -0.204390    0.025359    0.026827    0.024181
   16.441393   -0.437401   -0.435902   -0.437470    0.000949    0.001574    0.000834
   16.770221   -0.246676   -0.245824   -0.246734   -0.000204    0.000230   -0.000218
   17.099048   -0.080309   -0.079699   -0.080340   -0.000342    0.000009   -0.000329
   17.427876    0.041240    0.041723    0.041228   -0.000345   -0.000046   -0.000323
   17.756704    0.128737    0.129138    0.128736   -0.000322   -0.000060   -0.000296
   18.085532    0.198272    0.198617    0.198279   -0.000294   -0.000062   -0.000268
   18.414360    0.256242    0.256544    0.256252   -0.000269   -0.000059   -0.000242
   18.743188    0.306060    0.306330    0.306074   -0.000245   -0.000056   -0.000220
   19.072016    0.349258    0.349502    0.349274   -0.000225   -0.000051   -0.000200
   19.400843    0.387853    0.388074    0.387869   -0.000207   -0.000048   -0.000183
   19.729671    0.422087    0.422290    0.422103   -0.000192   -0.000044   -0.000169
   20.058499    0.452049    0.452236    0.452065   -0.000178   -0.000041   -0.000156
   20.387327    0.478073    0.478247    0.478090   -0.000166   -0.000038   -0.000145
   20.716155    0.503368    0.503529    0.503384   -0.000155   -0.000035   -0.000135
   21.044983    0.526255    0.526406    0.526271   -0.000146   -0.000033   -0.000127
   21.373810    0.547708    0.547850    0.547724   -0.000137   -0.000031   -0.000119
   21.702638    0.566905    0.567039    0.566921   -0.000129   -0.000029   -0.000112
   22.031466    0.586140    0.586267    0.586156   -0.000122   -0.000027   -0.000105
   22.360294    0.600507    0.600626    0.600521   -0.000116   -0.000026   -0.000100
   22.689122    0.615915    0.616029    0.615930   -0.000110   -0.000024   -0.000095
   23.017950    0.629243    0.629351    0.629257   -0.000104   -0.000023   -0.000090
   23.346778    0.644842    0.644944    0.644856   -0.000099   -0.000022   -0.000085
   23.675605    0.657668    0.657766    0.657681   -0.000095   -0.000021   -0.000081
   24.004433    0.669863    0.669956    0.669876   -0.000091   -0.000020   -0.000078
   24.333261    0.681894    0.681983    0.681906   -0.000087   -0.000019   -0.000074
   24.662089    0.692586    0.692671    0.692598   -0.000083   -0.000018   -0.000071
   24.990917    0.703332    0.703414    0.703344   -0.000080   -0.000017   -0.000068
   25.319745    0.713415    0.713493    0.713426   -0.000077   -0.000017   -0.000066
   25.648573    0.721998    0.722074    0.722009   -0.000074   -0.000017   -0.000064
   25.977400    0.731051    0.731124    0.731062   -0.000072   -0.000017   -0.000062
   26.306228    0.739201    0.739272    0.739212   -0.000073   -0.000018   -0.000063
   26.635056    0.747322    0.747389    0.747332   -0.000092   -0.000041   -0.000082
   26.963884    0.754736    0.754801    0.754746   -0.000064   -0.000014   -0.000055
   27.292712    0.761981    0.762044    0.761991   -0.000061   -0.000013   -0.000052
   27.621540    0.768896    0.768956    0.768905   -0.000059   -0.000012   -0.000050
   27.950368    0.775469    0.775528    0.775478   -0.000057   -0.000012   -0.000048
   28.279195    0.781739    0.781795    0.781747   -0.000055   -0.000011   -0.000047
   28.608023    0.787727    0.787783    0.787736   -0.000053   -0.000011   -0.000045
   28.936851    0.793455    0.793508    0.793464   -0.000052   -0.000011   -0.000044
   29.265679    0.798938    0.798990    0.798946   -0.000050   -0.000010   -0.000042
   29.594507    0.804191    0.804242    0.804199   -0.000049   -0.000010   -0.000041
   29.923335    0.809229    0.809278    0.809237   -0.000047   -0.000010   -0.000040
   30.252163    0.814063    0.814110    0.814070   -0.000046   -0.000009   -0.000039
   30.580990    0.818705    0.818751    0.818712   -0.000045   -0.000009   -0.000038
   30.909818    0.823166    0.823211    0.823173   -0.000043   -0.000009   -0.000037
   31.238646    0.827455    0.827499    0.827462   -0.000042   -0.000009   -0.000036
   31.567474    0.831583    0.831625    0.831590   -0.000041   -0.000008   -0.000035
   31.896302    0.835556    0.835597    0.835563   -0.000040   -0.000008   -0.000034
   32.225130    0.839384    0.839424    0.839391   -0.000039   -0.000008   -0.000033
   32.553958    0.843073    0.843113    0.843080   -0.000038   -0.000008   -0.000032
 
 The outermost node in the dielectric function lies at epsilon=  17.3


--------------------------------------------------------------------------------------------------------


    OPTICS:  cpu time    0.3948: real time    0.3998
    4ORBIT:  cpu time    0.0000: real time    0.0000

 Spin-Orbit-Coupling matrix elements

 Ion:    1  E_soc:     -0.2996649
 l=   1
     0.0000000    -0.0499392    -0.0499392
    -0.0499392     0.0000000    -0.0499392
    -0.0499392    -0.0499392     0.0000000
 l=   2
     0.0000000    -0.0000009     0.0000000    -0.0000009    -0.0000040
    -0.0000009     0.0000000    -0.0000030    -0.0000009    -0.0000009
     0.0000000    -0.0000030     0.0000000    -0.0000030     0.0000000
    -0.0000009    -0.0000009    -0.0000030     0.0000000    -0.0000009
    -0.0000040    -0.0000009     0.0000000    -0.0000009     0.0000000
 l=   3
     0.0000000     0.0000000     0.0000000     0.0000000     0.0000000     0.0000000    -0.0000000
     0.0000000     0.0000000    -0.0000000     0.0000000    -0.0000000    -0.0000000    -0.0000000
     0.0000000    -0.0000000     0.0000000    -0.0000000    -0.0000000    -0.0000000     0.0000000
     0.0000000     0.0000000    -0.0000000     0.0000000    -0.0000000     0.0000000     0.0000000
     0.0000000    -0.0000000    -0.0000000    -0.0000000     0.0000000    -0.0000000     0.0000000
     0.0000000    -0.0000000    -0.0000000     0.0000000    -0.0000000     0.0000000    -0.0000000
    -0.0000000    -0.0000000     0.0000000     0.0000000     0.0000000    -0.0000000     0.0000000

 total amount of memory used by VASP MPI-rank0    51670. kBytes
=======================================================================

   base      :      30000. kBytes
   nonl-proj :       9836. kBytes
   fftplans  :       1930. kBytes
   grid      :       1806. kBytes
   one-center:        196. kBytes
   wavefun   :       7902. kBytes
 
  
  
 General timing and accounting informations for this job:
 ========================================================
  
                  Total CPU time used (sec):       33.299
                            User time (sec):       31.414
                          System time (sec):        1.885
                         Elapsed time (sec):       33.538
  
                   Maximum memory used (kb):      194236.
                   Average memory used (kb):           0.
  
                          Minor page faults:        54144
                          Major page faults:            0
                 Voluntary context switches:         4000
