<?xml version="1.0" encoding="ISO-8859-1"?>
<modeling>
 <generator>
  <i name="program" type="string">vasp </i>
  <i name="version" type="string">5.4.4.18Apr17-6-g9f103f2a35  </i>
  <i name="subversion" type="string">(build Nov 03 2018 10:20:46) complex            parallel </i>
  <i name="platform" type="string">LinuxIFC </i>
  <i name="date" type="string">2018 12 06 </i>
  <i name="time" type="string">03:13:25 </i>
 </generator>
 <incar>
  <i type="string" name="SYSTEM">   Og_FCC</i>
  <i type="string" name="PREC">accurate</i>
  <i type="string" name="ALGO">   Normal</i>
  <i type="logical" name="ADDGRID"> T  </i>
  <i type="logical" name="LSORBIT"> T  </i>
  <i type="int" name="ISPIN">     1</i>
  <i type="int" name="MAXMIX">    50</i>
  <i type="int" name="NELM">    50</i>
  <i type="int" name="NELMDL">    -5</i>
  <i type="int" name="NELMIN">     2</i>
  <i type="int" name="IBRION">    -1</i>
  <i type="int" name="NFREE">     5</i>
  <i name="EDIFF">      0.00000001</i>
  <i name="EDIFFG">      0.00001000</i>
  <i type="int" name="NSW">     1</i>
  <i type="int" name="ISIF">     3</i>
  <i type="int" name="ISYM">     0</i>
  <i name="SYMPREC">      0.00000010</i>
  <i name="ENCUT">    300.00000000</i>
  <i name="POTIM">      0.10000000</i>
  <i type="logical" name="LREAL"> F  </i>
  <i type="int" name="ISMEAR">     0</i>
  <i name="SIGMA">      0.00100000</i>
  <i type="int" name="NWRITE">     2</i>
  <i type="logical" name="LWAVE"> T  </i>
  <i type="logical" name="LCHARG"> F  </i>
  <i type="logical" name="LVTOT"> F  </i>
  <i type="logical" name="LOPTICS"> T  </i>
  <i type="logical" name="GGA_COMPAT"> F  </i>
  <v type="int" name="KPOINT_BSE">    -1     0     0     0</v>
  <i type="int" name="NELM">    50</i>
  <i type="string" name="GGA"> PE</i>
 </incar>
 <structure name="primitive_cell" >
  <crystal>
   <varray name="basis" >
    <v>       4.43220013       0.00000000       0.00000000 </v>
    <v>       2.21610006       3.83839790      -0.00000000 </v>
    <v>       2.21610006       1.27946597       3.61887625 </v>
   </varray>
   <i name="volume">     61.56630471 </i>
   <varray name="rec_basis" >
    <v>       0.22562158      -0.13026268      -0.09210962 </v>
    <v>       0.00000000       0.26052536      -0.09210962 </v>
    <v>      -0.00000000       0.00000000       0.27632887 </v>
   </varray>
  </crystal>
  <varray name="positions" >
   <v>       0.00000000       0.00000000       0.00000000 </v>
  </varray>
 </structure>
 <varray name="primitive_index" >
  <v type="int" >        1 </v>
 </varray>
 <kpoints>
  <generation param="Gamma">
   <v type="int" name="divisions">       7        7        7 </v>
   <v name="usershift">      0.00000000       0.00000000       0.00000000 </v>
   <v name="genvec1">      0.14285714       0.00000000       0.00000000 </v>
   <v name="genvec2">      0.00000000       0.14285714       0.00000000 </v>
   <v name="genvec3">      0.00000000       0.00000000       0.14285714 </v>
   <v name="shift">      0.00000000       0.00000000       0.00000000 </v>
  </generation>
  <varray name="kpointlist" >
   <v>       0.00000000       0.00000000       0.00000000 </v>
   <v>       0.14285714      -0.00000000       0.00000000 </v>
   <v>       0.28571429       0.00000000      -0.00000000 </v>
   <v>       0.42857143       0.00000000       0.00000000 </v>
   <v>      -0.42857143      -0.00000000       0.00000000 </v>
   <v>      -0.28571429      -0.00000000       0.00000000 </v>
   <v>      -0.14285714       0.00000000       0.00000000 </v>
   <v>       0.00000000       0.14285714      -0.00000000 </v>
   <v>       0.14285714       0.14285714       0.00000000 </v>
   <v>       0.28571429       0.14285714      -0.00000000 </v>
   <v>       0.42857143       0.14285714       0.00000000 </v>
   <v>      -0.42857143       0.14285714      -0.00000000 </v>
   <v>      -0.28571429       0.14285714      -0.00000000 </v>
   <v>      -0.14285714       0.14285714      -0.00000000 </v>
   <v>       0.00000000       0.28571429      -0.00000000 </v>
   <v>       0.14285714       0.28571429      -0.00000000 </v>
   <v>       0.28571429       0.28571429      -0.00000000 </v>
   <v>       0.42857143       0.28571429      -0.00000000 </v>
   <v>      -0.42857143       0.28571429      -0.00000000 </v>
   <v>      -0.28571429       0.28571429       0.00000000 </v>
   <v>      -0.14285714       0.28571429      -0.00000000 </v>
   <v>       0.00000000       0.42857143      -0.00000000 </v>
   <v>       0.14285714       0.42857143      -0.00000000 </v>
   <v>       0.28571429       0.42857143      -0.00000000 </v>
   <v>       0.42857143       0.42857143      -0.00000000 </v>
   <v>      -0.42857143       0.42857143      -0.00000000 </v>
   <v>      -0.28571429       0.42857143      -0.00000000 </v>
   <v>      -0.14285714       0.42857143      -0.00000000 </v>
   <v>       0.00000000      -0.42857143       0.00000000 </v>
   <v>       0.14285714      -0.42857143       0.00000000 </v>
   <v>       0.28571429      -0.42857143       0.00000000 </v>
   <v>       0.42857143      -0.42857143       0.00000000 </v>
   <v>      -0.42857143      -0.42857143       0.00000000 </v>
   <v>      -0.28571429      -0.42857143       0.00000000 </v>
   <v>      -0.14285714      -0.42857143       0.00000000 </v>
   <v>       0.00000000      -0.28571429       0.00000000 </v>
   <v>       0.14285714      -0.28571429       0.00000000 </v>
   <v>       0.28571429      -0.28571429      -0.00000000 </v>
   <v>       0.42857143      -0.28571429       0.00000000 </v>
   <v>      -0.42857143      -0.28571429       0.00000000 </v>
   <v>      -0.28571429      -0.28571429       0.00000000 </v>
   <v>      -0.14285714      -0.28571429       0.00000000 </v>
   <v>       0.00000000      -0.14285714       0.00000000 </v>
   <v>       0.14285714      -0.14285714       0.00000000 </v>
   <v>       0.28571429      -0.14285714       0.00000000 </v>
   <v>       0.42857143      -0.14285714       0.00000000 </v>
   <v>      -0.42857143      -0.14285714      -0.00000000 </v>
   <v>      -0.28571429      -0.14285714       0.00000000 </v>
   <v>      -0.14285714      -0.14285714       0.00000000 </v>
   <v>      -0.00000000      -0.00000000       0.14285714 </v>
   <v>       0.14285714      -0.00000000       0.14285714 </v>
   <v>       0.28571429      -0.00000000       0.14285714 </v>
   <v>       0.42857143       0.00000000       0.14285714 </v>
   <v>      -0.42857143      -0.00000000       0.14285714 </v>
   <v>      -0.28571429      -0.00000000       0.14285714 </v>
   <v>      -0.14285714       0.00000000       0.14285714 </v>
   <v>      -0.00000000       0.14285714       0.14285714 </v>
   <v>       0.14285714       0.14285714       0.14285714 </v>
   <v>       0.28571429       0.14285714       0.14285714 </v>
   <v>       0.42857143       0.14285714       0.14285714 </v>
   <v>      -0.42857143       0.14285714       0.14285714 </v>
   <v>      -0.28571429       0.14285714       0.14285714 </v>
   <v>      -0.14285714       0.14285714       0.14285714 </v>
   <v>      -0.00000000       0.28571429       0.14285714 </v>
   <v>       0.14285714       0.28571429       0.14285714 </v>
   <v>       0.28571429       0.28571429       0.14285714 </v>
   <v>       0.42857143       0.28571429       0.14285714 </v>
   <v>      -0.42857143       0.28571429       0.14285714 </v>
   <v>      -0.28571429       0.28571429       0.14285714 </v>
   <v>      -0.14285714       0.28571429       0.14285714 </v>
   <v>      -0.00000000       0.42857143       0.14285714 </v>
   <v>       0.14285714       0.42857143       0.14285714 </v>
   <v>       0.28571429       0.42857143       0.14285714 </v>
   <v>       0.42857143       0.42857143       0.14285714 </v>
   <v>      -0.42857143       0.42857143       0.14285714 </v>
   <v>      -0.28571429       0.42857143       0.14285714 </v>
   <v>      -0.14285714       0.42857143       0.14285714 </v>
   <v>       0.00000000      -0.42857143       0.14285714 </v>
   <v>       0.14285714      -0.42857143       0.14285714 </v>
   <v>       0.28571429      -0.42857143       0.14285714 </v>
   <v>       0.42857143      -0.42857143       0.14285714 </v>
   <v>      -0.42857143      -0.42857143       0.14285714 </v>
   <v>      -0.28571429      -0.42857143       0.14285714 </v>
   <v>      -0.14285714      -0.42857143       0.14285714 </v>
   <v>       0.00000000      -0.28571429       0.14285714 </v>
   <v>       0.14285714      -0.28571429       0.14285714 </v>
   <v>       0.28571429      -0.28571429       0.14285714 </v>
   <v>       0.42857143      -0.28571429       0.14285714 </v>
   <v>      -0.42857143      -0.28571429       0.14285714 </v>
   <v>      -0.28571429      -0.28571429       0.14285714 </v>
   <v>      -0.14285714      -0.28571429       0.14285714 </v>
   <v>      -0.00000000      -0.14285714       0.14285714 </v>
   <v>       0.14285714      -0.14285714       0.14285714 </v>
   <v>       0.28571429      -0.14285714       0.14285714 </v>
   <v>       0.42857143      -0.14285714       0.14285714 </v>
   <v>      -0.42857143      -0.14285714       0.14285714 </v>
   <v>      -0.28571429      -0.14285714       0.14285714 </v>
   <v>      -0.14285714      -0.14285714       0.14285714 </v>
   <v>      -0.00000000       0.00000000       0.28571429 </v>
   <v>       0.14285714       0.00000000       0.28571429 </v>
   <v>       0.28571429      -0.00000000       0.28571429 </v>
   <v>       0.42857143      -0.00000000       0.28571429 </v>
   <v>      -0.42857143      -0.00000000       0.28571429 </v>
   <v>      -0.28571429      -0.00000000       0.28571429 </v>
   <v>      -0.14285714       0.00000000       0.28571429 </v>
   <v>      -0.00000000       0.14285714       0.28571429 </v>
   <v>       0.14285714       0.14285714       0.28571429 </v>
   <v>       0.28571429       0.14285714       0.28571429 </v>
   <v>       0.42857143       0.14285714       0.28571429 </v>
   <v>      -0.42857143       0.14285714       0.28571429 </v>
   <v>      -0.28571429       0.14285714       0.28571429 </v>
   <v>      -0.14285714       0.14285714       0.28571429 </v>
   <v>      -0.00000000       0.28571429       0.28571429 </v>
   <v>       0.14285714       0.28571429       0.28571429 </v>
   <v>       0.28571429       0.28571429       0.28571429 </v>
   <v>       0.42857143       0.28571429       0.28571429 </v>
   <v>      -0.42857143       0.28571429       0.28571429 </v>
   <v>      -0.28571429       0.28571429       0.28571429 </v>
   <v>      -0.14285714       0.28571429       0.28571429 </v>
   <v>       0.00000000       0.42857143       0.28571429 </v>
   <v>       0.14285714       0.42857143       0.28571429 </v>
   <v>       0.28571429       0.42857143       0.28571429 </v>
   <v>       0.42857143       0.42857143       0.28571429 </v>
   <v>      -0.42857143       0.42857143       0.28571429 </v>
   <v>      -0.28571429       0.42857143       0.28571429 </v>
   <v>      -0.14285714       0.42857143       0.28571429 </v>
   <v>      -0.00000000      -0.42857143       0.28571429 </v>
   <v>       0.14285714      -0.42857143       0.28571429 </v>
   <v>       0.28571429      -0.42857143       0.28571429 </v>
   <v>       0.42857143      -0.42857143       0.28571429 </v>
   <v>      -0.42857143      -0.42857143       0.28571429 </v>
   <v>      -0.28571429      -0.42857143       0.28571429 </v>
   <v>      -0.14285714      -0.42857143       0.28571429 </v>
   <v>      -0.00000000      -0.28571429       0.28571429 </v>
   <v>       0.14285714      -0.28571429       0.28571429 </v>
   <v>       0.28571429      -0.28571429       0.28571429 </v>
   <v>       0.42857143      -0.28571429       0.28571429 </v>
   <v>      -0.42857143      -0.28571429       0.28571429 </v>
   <v>      -0.28571429      -0.28571429       0.28571429 </v>
   <v>      -0.14285714      -0.28571429       0.28571429 </v>
   <v>      -0.00000000      -0.14285714       0.28571429 </v>
   <v>       0.14285714      -0.14285714       0.28571429 </v>
   <v>       0.28571429      -0.14285714       0.28571429 </v>
   <v>       0.42857143      -0.14285714       0.28571429 </v>
   <v>      -0.42857143      -0.14285714       0.28571429 </v>
   <v>      -0.28571429      -0.14285714       0.28571429 </v>
   <v>      -0.14285714      -0.14285714       0.28571429 </v>
   <v>      -0.00000000      -0.00000000       0.42857143 </v>
   <v>       0.14285714      -0.00000000       0.42857143 </v>
   <v>       0.28571429       0.00000000       0.42857143 </v>
   <v>       0.42857143       0.00000000       0.42857143 </v>
   <v>      -0.42857143       0.00000000       0.42857143 </v>
   <v>      -0.28571429       0.00000000       0.42857143 </v>
   <v>      -0.14285714       0.00000000       0.42857143 </v>
   <v>      -0.00000000       0.14285714       0.42857143 </v>
   <v>       0.14285714       0.14285714       0.42857143 </v>
   <v>       0.28571429       0.14285714       0.42857143 </v>
   <v>       0.42857143       0.14285714       0.42857143 </v>
   <v>      -0.42857143       0.14285714       0.42857143 </v>
   <v>      -0.28571429       0.14285714       0.42857143 </v>
   <v>      -0.14285714       0.14285714       0.42857143 </v>
   <v>      -0.00000000       0.28571429       0.42857143 </v>
   <v>       0.14285714       0.28571429       0.42857143 </v>
   <v>       0.28571429       0.28571429       0.42857143 </v>
   <v>       0.42857143       0.28571429       0.42857143 </v>
   <v>      -0.42857143       0.28571429       0.42857143 </v>
   <v>      -0.28571429       0.28571429       0.42857143 </v>
   <v>      -0.14285714       0.28571429       0.42857143 </v>
   <v>      -0.00000000       0.42857143       0.42857143 </v>
   <v>       0.14285714       0.42857143       0.42857143 </v>
   <v>       0.28571429       0.42857143       0.42857143 </v>
   <v>       0.42857143       0.42857143       0.42857143 </v>
   <v>      -0.42857143       0.42857143       0.42857143 </v>
   <v>      -0.28571429       0.42857143       0.42857143 </v>
   <v>      -0.14285714       0.42857143       0.42857143 </v>
   <v>      -0.00000000      -0.42857143       0.42857143 </v>
   <v>       0.14285714      -0.42857143       0.42857143 </v>
   <v>       0.28571429      -0.42857143       0.42857143 </v>
   <v>       0.42857143      -0.42857143       0.42857143 </v>
   <v>      -0.42857143      -0.42857143       0.42857143 </v>
   <v>      -0.28571429      -0.42857143       0.42857143 </v>
   <v>      -0.14285714      -0.42857143       0.42857143 </v>
   <v>       0.00000000      -0.28571429       0.42857143 </v>
   <v>       0.14285714      -0.28571429       0.42857143 </v>
   <v>       0.28571429      -0.28571429       0.42857143 </v>
   <v>       0.42857143      -0.28571429       0.42857143 </v>
   <v>      -0.42857143      -0.28571429       0.42857143 </v>
   <v>      -0.28571429      -0.28571429       0.42857143 </v>
   <v>      -0.14285714      -0.28571429       0.42857143 </v>
   <v>       0.00000000      -0.14285714       0.42857143 </v>
   <v>       0.14285714      -0.14285714       0.42857143 </v>
   <v>       0.28571429      -0.14285714       0.42857143 </v>
   <v>       0.42857143      -0.14285714       0.42857143 </v>
   <v>      -0.42857143      -0.14285714       0.42857143 </v>
   <v>      -0.28571429      -0.14285714       0.42857143 </v>
   <v>      -0.14285714      -0.14285714       0.42857143 </v>
   <v>       0.00000000       0.00000000      -0.42857143 </v>
   <v>       0.14285714      -0.00000000      -0.42857143 </v>
   <v>       0.28571429      -0.00000000      -0.42857143 </v>
   <v>       0.42857143      -0.00000000      -0.42857143 </v>
   <v>      -0.42857143      -0.00000000      -0.42857143 </v>
   <v>      -0.28571429      -0.00000000      -0.42857143 </v>
   <v>      -0.14285714       0.00000000      -0.42857143 </v>
   <v>       0.00000000       0.14285714      -0.42857143 </v>
   <v>       0.14285714       0.14285714      -0.42857143 </v>
   <v>       0.28571429       0.14285714      -0.42857143 </v>
   <v>       0.42857143       0.14285714      -0.42857143 </v>
   <v>      -0.42857143       0.14285714      -0.42857143 </v>
   <v>      -0.28571429       0.14285714      -0.42857143 </v>
   <v>      -0.14285714       0.14285714      -0.42857143 </v>
   <v>      -0.00000000       0.28571429      -0.42857143 </v>
   <v>       0.14285714       0.28571429      -0.42857143 </v>
   <v>       0.28571429       0.28571429      -0.42857143 </v>
   <v>       0.42857143       0.28571429      -0.42857143 </v>
   <v>      -0.42857143       0.28571429      -0.42857143 </v>
   <v>      -0.28571429       0.28571429      -0.42857143 </v>
   <v>      -0.14285714       0.28571429      -0.42857143 </v>
   <v>       0.00000000       0.42857143      -0.42857143 </v>
   <v>       0.14285714       0.42857143      -0.42857143 </v>
   <v>       0.28571429       0.42857143      -0.42857143 </v>
   <v>       0.42857143       0.42857143      -0.42857143 </v>
   <v>      -0.42857143       0.42857143      -0.42857143 </v>
   <v>      -0.28571429       0.42857143      -0.42857143 </v>
   <v>      -0.14285714       0.42857143      -0.42857143 </v>
   <v>       0.00000000      -0.42857143      -0.42857143 </v>
   <v>       0.14285714      -0.42857143      -0.42857143 </v>
   <v>       0.28571429      -0.42857143      -0.42857143 </v>
   <v>       0.42857143      -0.42857143      -0.42857143 </v>
   <v>      -0.42857143      -0.42857143      -0.42857143 </v>
   <v>      -0.28571429      -0.42857143      -0.42857143 </v>
   <v>      -0.14285714      -0.42857143      -0.42857143 </v>
   <v>       0.00000000      -0.28571429      -0.42857143 </v>
   <v>       0.14285714      -0.28571429      -0.42857143 </v>
   <v>       0.28571429      -0.28571429      -0.42857143 </v>
   <v>       0.42857143      -0.28571429      -0.42857143 </v>
   <v>      -0.42857143      -0.28571429      -0.42857143 </v>
   <v>      -0.28571429      -0.28571429      -0.42857143 </v>
   <v>      -0.14285714      -0.28571429      -0.42857143 </v>
   <v>       0.00000000      -0.14285714      -0.42857143 </v>
   <v>       0.14285714      -0.14285714      -0.42857143 </v>
   <v>       0.28571429      -0.14285714      -0.42857143 </v>
   <v>       0.42857143      -0.14285714      -0.42857143 </v>
   <v>      -0.42857143      -0.14285714      -0.42857143 </v>
   <v>      -0.28571429      -0.14285714      -0.42857143 </v>
   <v>      -0.14285714      -0.14285714      -0.42857143 </v>
   <v>       0.00000000       0.00000000      -0.28571429 </v>
   <v>       0.14285714      -0.00000000      -0.28571429 </v>
   <v>       0.28571429       0.00000000      -0.28571429 </v>
   <v>       0.42857143       0.00000000      -0.28571429 </v>
   <v>      -0.42857143       0.00000000      -0.28571429 </v>
   <v>      -0.28571429       0.00000000      -0.28571429 </v>
   <v>      -0.14285714      -0.00000000      -0.28571429 </v>
   <v>       0.00000000       0.14285714      -0.28571429 </v>
   <v>       0.14285714       0.14285714      -0.28571429 </v>
   <v>       0.28571429       0.14285714      -0.28571429 </v>
   <v>       0.42857143       0.14285714      -0.28571429 </v>
   <v>      -0.42857143       0.14285714      -0.28571429 </v>
   <v>      -0.28571429       0.14285714      -0.28571429 </v>
   <v>      -0.14285714       0.14285714      -0.28571429 </v>
   <v>       0.00000000       0.28571429      -0.28571429 </v>
   <v>       0.14285714       0.28571429      -0.28571429 </v>
   <v>       0.28571429       0.28571429      -0.28571429 </v>
   <v>       0.42857143       0.28571429      -0.28571429 </v>
   <v>      -0.42857143       0.28571429      -0.28571429 </v>
   <v>      -0.28571429       0.28571429      -0.28571429 </v>
   <v>      -0.14285714       0.28571429      -0.28571429 </v>
   <v>       0.00000000       0.42857143      -0.28571429 </v>
   <v>       0.14285714       0.42857143      -0.28571429 </v>
   <v>       0.28571429       0.42857143      -0.28571429 </v>
   <v>       0.42857143       0.42857143      -0.28571429 </v>
   <v>      -0.42857143       0.42857143      -0.28571429 </v>
   <v>      -0.28571429       0.42857143      -0.28571429 </v>
   <v>      -0.14285714       0.42857143      -0.28571429 </v>
   <v>       0.00000000      -0.42857143      -0.28571429 </v>
   <v>       0.14285714      -0.42857143      -0.28571429 </v>
   <v>       0.28571429      -0.42857143      -0.28571429 </v>
   <v>       0.42857143      -0.42857143      -0.28571429 </v>
   <v>      -0.42857143      -0.42857143      -0.28571429 </v>
   <v>      -0.28571429      -0.42857143      -0.28571429 </v>
   <v>      -0.14285714      -0.42857143      -0.28571429 </v>
   <v>       0.00000000      -0.28571429      -0.28571429 </v>
   <v>       0.14285714      -0.28571429      -0.28571429 </v>
   <v>       0.28571429      -0.28571429      -0.28571429 </v>
   <v>       0.42857143      -0.28571429      -0.28571429 </v>
   <v>      -0.42857143      -0.28571429      -0.28571429 </v>
   <v>      -0.28571429      -0.28571429      -0.28571429 </v>
   <v>      -0.14285714      -0.28571429      -0.28571429 </v>
   <v>       0.00000000      -0.14285714      -0.28571429 </v>
   <v>       0.14285714      -0.14285714      -0.28571429 </v>
   <v>       0.28571429      -0.14285714      -0.28571429 </v>
   <v>       0.42857143      -0.14285714      -0.28571429 </v>
   <v>      -0.42857143      -0.14285714      -0.28571429 </v>
   <v>      -0.28571429      -0.14285714      -0.28571429 </v>
   <v>      -0.14285714      -0.14285714      -0.28571429 </v>
   <v>       0.00000000       0.00000000      -0.14285714 </v>
   <v>       0.14285714      -0.00000000      -0.14285714 </v>
   <v>       0.28571429       0.00000000      -0.14285714 </v>
   <v>       0.42857143       0.00000000      -0.14285714 </v>
   <v>      -0.42857143      -0.00000000      -0.14285714 </v>
   <v>      -0.28571429       0.00000000      -0.14285714 </v>
   <v>      -0.14285714       0.00000000      -0.14285714 </v>
   <v>       0.00000000       0.14285714      -0.14285714 </v>
   <v>       0.14285714       0.14285714      -0.14285714 </v>
   <v>       0.28571429       0.14285714      -0.14285714 </v>
   <v>       0.42857143       0.14285714      -0.14285714 </v>
   <v>      -0.42857143       0.14285714      -0.14285714 </v>
   <v>      -0.28571429       0.14285714      -0.14285714 </v>
   <v>      -0.14285714       0.14285714      -0.14285714 </v>
   <v>      -0.00000000       0.28571429      -0.14285714 </v>
   <v>       0.14285714       0.28571429      -0.14285714 </v>
   <v>       0.28571429       0.28571429      -0.14285714 </v>
   <v>       0.42857143       0.28571429      -0.14285714 </v>
   <v>      -0.42857143       0.28571429      -0.14285714 </v>
   <v>      -0.28571429       0.28571429      -0.14285714 </v>
   <v>      -0.14285714       0.28571429      -0.14285714 </v>
   <v>       0.00000000       0.42857143      -0.14285714 </v>
   <v>       0.14285714       0.42857143      -0.14285714 </v>
   <v>       0.28571429       0.42857143      -0.14285714 </v>
   <v>       0.42857143       0.42857143      -0.14285714 </v>
   <v>      -0.42857143       0.42857143      -0.14285714 </v>
   <v>      -0.28571429       0.42857143      -0.14285714 </v>
   <v>      -0.14285714       0.42857143      -0.14285714 </v>
   <v>       0.00000000      -0.42857143      -0.14285714 </v>
   <v>       0.14285714      -0.42857143      -0.14285714 </v>
   <v>       0.28571429      -0.42857143      -0.14285714 </v>
   <v>       0.42857143      -0.42857143      -0.14285714 </v>
   <v>      -0.42857143      -0.42857143      -0.14285714 </v>
   <v>      -0.28571429      -0.42857143      -0.14285714 </v>
   <v>      -0.14285714      -0.42857143      -0.14285714 </v>
   <v>       0.00000000      -0.28571429      -0.14285714 </v>
   <v>       0.14285714      -0.28571429      -0.14285714 </v>
   <v>       0.28571429      -0.28571429      -0.14285714 </v>
   <v>       0.42857143      -0.28571429      -0.14285714 </v>
   <v>      -0.42857143      -0.28571429      -0.14285714 </v>
   <v>      -0.28571429      -0.28571429      -0.14285714 </v>
   <v>      -0.14285714      -0.28571429      -0.14285714 </v>
   <v>       0.00000000      -0.14285714      -0.14285714 </v>
   <v>       0.14285714      -0.14285714      -0.14285714 </v>
   <v>       0.28571429      -0.14285714      -0.14285714 </v>
   <v>       0.42857143      -0.14285714      -0.14285714 </v>
   <v>      -0.42857143      -0.14285714      -0.14285714 </v>
   <v>      -0.28571429      -0.14285714      -0.14285714 </v>
   <v>      -0.14285714      -0.14285714      -0.14285714 </v>
  </varray>
  <varray name="weights" >
   <v>       0.00291545 </v>
   <v>       0.00291545 </v>
   <v>       0.00291545 </v>
   <v>       0.00291545 </v>
   <v>       0.00291545 </v>
   <v>       0.00291545 </v>
   <v>       0.00291545 </v>
   <v>       0.00291545 </v>
   <v>       0.00291545 </v>
   <v>       0.00291545 </v>
   <v>       0.00291545 </v>
   <v>       0.00291545 </v>
   <v>       0.00291545 </v>
   <v>       0.00291545 </v>
   <v>       0.00291545 </v>
   <v>       0.00291545 </v>
   <v>       0.00291545 </v>
   <v>       0.00291545 </v>
   <v>       0.00291545 </v>
   <v>       0.00291545 </v>
   <v>       0.00291545 </v>
   <v>       0.00291545 </v>
   <v>       0.00291545 </v>
   <v>       0.00291545 </v>
   <v>       0.00291545 </v>
   <v>       0.00291545 </v>
   <v>       0.00291545 </v>
   <v>       0.00291545 </v>
   <v>       0.00291545 </v>
   <v>       0.00291545 </v>
   <v>       0.00291545 </v>
   <v>       0.00291545 </v>
   <v>       0.00291545 </v>
   <v>       0.00291545 </v>
   <v>       0.00291545 </v>
   <v>       0.00291545 </v>
   <v>       0.00291545 </v>
   <v>       0.00291545 </v>
   <v>       0.00291545 </v>
   <v>       0.00291545 </v>
   <v>       0.00291545 </v>
   <v>       0.00291545 </v>
   <v>       0.00291545 </v>
   <v>       0.00291545 </v>
   <v>       0.00291545 </v>
   <v>       0.00291545 </v>
   <v>       0.00291545 </v>
   <v>       0.00291545 </v>
   <v>       0.00291545 </v>
   <v>       0.00291545 </v>
   <v>       0.00291545 </v>
   <v>       0.00291545 </v>
   <v>       0.00291545 </v>
   <v>       0.00291545 </v>
   <v>       0.00291545 </v>
   <v>       0.00291545 </v>
   <v>       0.00291545 </v>
   <v>       0.00291545 </v>
   <v>       0.00291545 </v>
   <v>       0.00291545 </v>
   <v>       0.00291545 </v>
   <v>       0.00291545 </v>
   <v>       0.00291545 </v>
   <v>       0.00291545 </v>
   <v>       0.00291545 </v>
   <v>       0.00291545 </v>
   <v>       0.00291545 </v>
   <v>       0.00291545 </v>
   <v>       0.00291545 </v>
   <v>       0.00291545 </v>
   <v>       0.00291545 </v>
   <v>       0.00291545 </v>
   <v>       0.00291545 </v>
   <v>       0.00291545 </v>
   <v>       0.00291545 </v>
   <v>       0.00291545 </v>
   <v>       0.00291545 </v>
   <v>       0.00291545 </v>
   <v>       0.00291545 </v>
   <v>       0.00291545 </v>
   <v>       0.00291545 </v>
   <v>       0.00291545 </v>
   <v>       0.00291545 </v>
   <v>       0.00291545 </v>
   <v>       0.00291545 </v>
   <v>       0.00291545 </v>
   <v>       0.00291545 </v>
   <v>       0.00291545 </v>
   <v>       0.00291545 </v>
   <v>       0.00291545 </v>
   <v>       0.00291545 </v>
   <v>       0.00291545 </v>
   <v>       0.00291545 </v>
   <v>       0.00291545 </v>
   <v>       0.00291545 </v>
   <v>       0.00291545 </v>
   <v>       0.00291545 </v>
   <v>       0.00291545 </v>
   <v>       0.00291545 </v>
   <v>       0.00291545 </v>
   <v>       0.00291545 </v>
   <v>       0.00291545 </v>
   <v>       0.00291545 </v>
   <v>       0.00291545 </v>
   <v>       0.00291545 </v>
   <v>       0.00291545 </v>
   <v>       0.00291545 </v>
   <v>       0.00291545 </v>
   <v>       0.00291545 </v>
   <v>       0.00291545 </v>
   <v>       0.00291545 </v>
   <v>       0.00291545 </v>
   <v>       0.00291545 </v>
   <v>       0.00291545 </v>
   <v>       0.00291545 </v>
   <v>       0.00291545 </v>
   <v>       0.00291545 </v>
   <v>       0.00291545 </v>
   <v>       0.00291545 </v>
   <v>       0.00291545 </v>
   <v>       0.00291545 </v>
   <v>       0.00291545 </v>
   <v>       0.00291545 </v>
   <v>       0.00291545 </v>
   <v>       0.00291545 </v>
   <v>       0.00291545 </v>
   <v>       0.00291545 </v>
   <v>       0.00291545 </v>
   <v>       0.00291545 </v>
   <v>       0.00291545 </v>
   <v>       0.00291545 </v>
   <v>       0.00291545 </v>
   <v>       0.00291545 </v>
   <v>       0.00291545 </v>
   <v>       0.00291545 </v>
   <v>       0.00291545 </v>
   <v>       0.00291545 </v>
   <v>       0.00291545 </v>
   <v>       0.00291545 </v>
   <v>       0.00291545 </v>
   <v>       0.00291545 </v>
   <v>       0.00291545 </v>
   <v>       0.00291545 </v>
   <v>       0.00291545 </v>
   <v>       0.00291545 </v>
   <v>       0.00291545 </v>
   <v>       0.00291545 </v>
   <v>       0.00291545 </v>
   <v>       0.00291545 </v>
   <v>       0.00291545 </v>
   <v>       0.00291545 </v>
   <v>       0.00291545 </v>
   <v>       0.00291545 </v>
   <v>       0.00291545 </v>
   <v>       0.00291545 </v>
   <v>       0.00291545 </v>
   <v>       0.00291545 </v>
   <v>       0.00291545 </v>
   <v>       0.00291545 </v>
   <v>       0.00291545 </v>
   <v>       0.00291545 </v>
   <v>       0.00291545 </v>
   <v>       0.00291545 </v>
   <v>       0.00291545 </v>
   <v>       0.00291545 </v>
   <v>       0.00291545 </v>
   <v>       0.00291545 </v>
   <v>       0.00291545 </v>
   <v>       0.00291545 </v>
   <v>       0.00291545 </v>
   <v>       0.00291545 </v>
   <v>       0.00291545 </v>
   <v>       0.00291545 </v>
   <v>       0.00291545 </v>
   <v>       0.00291545 </v>
   <v>       0.00291545 </v>
   <v>       0.00291545 </v>
   <v>       0.00291545 </v>
   <v>       0.00291545 </v>
   <v>       0.00291545 </v>
   <v>       0.00291545 </v>
   <v>       0.00291545 </v>
   <v>       0.00291545 </v>
   <v>       0.00291545 </v>
   <v>       0.00291545 </v>
   <v>       0.00291545 </v>
   <v>       0.00291545 </v>
   <v>       0.00291545 </v>
   <v>       0.00291545 </v>
   <v>       0.00291545 </v>
   <v>       0.00291545 </v>
   <v>       0.00291545 </v>
   <v>       0.00291545 </v>
   <v>       0.00291545 </v>
   <v>       0.00291545 </v>
   <v>       0.00291545 </v>
   <v>       0.00291545 </v>
   <v>       0.00291545 </v>
   <v>       0.00291545 </v>
   <v>       0.00291545 </v>
   <v>       0.00291545 </v>
   <v>       0.00291545 </v>
   <v>       0.00291545 </v>
   <v>       0.00291545 </v>
   <v>       0.00291545 </v>
   <v>       0.00291545 </v>
   <v>       0.00291545 </v>
   <v>       0.00291545 </v>
   <v>       0.00291545 </v>
   <v>       0.00291545 </v>
   <v>       0.00291545 </v>
   <v>       0.00291545 </v>
   <v>       0.00291545 </v>
   <v>       0.00291545 </v>
   <v>       0.00291545 </v>
   <v>       0.00291545 </v>
   <v>       0.00291545 </v>
   <v>       0.00291545 </v>
   <v>       0.00291545 </v>
   <v>       0.00291545 </v>
   <v>       0.00291545 </v>
   <v>       0.00291545 </v>
   <v>       0.00291545 </v>
   <v>       0.00291545 </v>
   <v>       0.00291545 </v>
   <v>       0.00291545 </v>
   <v>       0.00291545 </v>
   <v>       0.00291545 </v>
   <v>       0.00291545 </v>
   <v>       0.00291545 </v>
   <v>       0.00291545 </v>
   <v>       0.00291545 </v>
   <v>       0.00291545 </v>
   <v>       0.00291545 </v>
   <v>       0.00291545 </v>
   <v>       0.00291545 </v>
   <v>       0.00291545 </v>
   <v>       0.00291545 </v>
   <v>       0.00291545 </v>
   <v>       0.00291545 </v>
   <v>       0.00291545 </v>
   <v>       0.00291545 </v>
   <v>       0.00291545 </v>
   <v>       0.00291545 </v>
   <v>       0.00291545 </v>
   <v>       0.00291545 </v>
   <v>       0.00291545 </v>
   <v>       0.00291545 </v>
   <v>       0.00291545 </v>
   <v>       0.00291545 </v>
   <v>       0.00291545 </v>
   <v>       0.00291545 </v>
   <v>       0.00291545 </v>
   <v>       0.00291545 </v>
   <v>       0.00291545 </v>
   <v>       0.00291545 </v>
   <v>       0.00291545 </v>
   <v>       0.00291545 </v>
   <v>       0.00291545 </v>
   <v>       0.00291545 </v>
   <v>       0.00291545 </v>
   <v>       0.00291545 </v>
   <v>       0.00291545 </v>
   <v>       0.00291545 </v>
   <v>       0.00291545 </v>
   <v>       0.00291545 </v>
   <v>       0.00291545 </v>
   <v>       0.00291545 </v>
   <v>       0.00291545 </v>
   <v>       0.00291545 </v>
   <v>       0.00291545 </v>
   <v>       0.00291545 </v>
   <v>       0.00291545 </v>
   <v>       0.00291545 </v>
   <v>       0.00291545 </v>
   <v>       0.00291545 </v>
   <v>       0.00291545 </v>
   <v>       0.00291545 </v>
   <v>       0.00291545 </v>
   <v>       0.00291545 </v>
   <v>       0.00291545 </v>
   <v>       0.00291545 </v>
   <v>       0.00291545 </v>
   <v>       0.00291545 </v>
   <v>       0.00291545 </v>
   <v>       0.00291545 </v>
   <v>       0.00291545 </v>
   <v>       0.00291545 </v>
   <v>       0.00291545 </v>
   <v>       0.00291545 </v>
   <v>       0.00291545 </v>
   <v>       0.00291545 </v>
   <v>       0.00291545 </v>
   <v>       0.00291545 </v>
   <v>       0.00291545 </v>
   <v>       0.00291545 </v>
   <v>       0.00291545 </v>
   <v>       0.00291545 </v>
   <v>       0.00291545 </v>
   <v>       0.00291545 </v>
   <v>       0.00291545 </v>
   <v>       0.00291545 </v>
   <v>       0.00291545 </v>
   <v>       0.00291545 </v>
   <v>       0.00291545 </v>
   <v>       0.00291545 </v>
   <v>       0.00291545 </v>
   <v>       0.00291545 </v>
   <v>       0.00291545 </v>
   <v>       0.00291545 </v>
   <v>       0.00291545 </v>
   <v>       0.00291545 </v>
   <v>       0.00291545 </v>
   <v>       0.00291545 </v>
   <v>       0.00291545 </v>
   <v>       0.00291545 </v>
   <v>       0.00291545 </v>
   <v>       0.00291545 </v>
   <v>       0.00291545 </v>
   <v>       0.00291545 </v>
   <v>       0.00291545 </v>
   <v>       0.00291545 </v>
   <v>       0.00291545 </v>
   <v>       0.00291545 </v>
   <v>       0.00291545 </v>
   <v>       0.00291545 </v>
   <v>       0.00291545 </v>
   <v>       0.00291545 </v>
   <v>       0.00291545 </v>
   <v>       0.00291545 </v>
   <v>       0.00291545 </v>
   <v>       0.00291545 </v>
   <v>       0.00291545 </v>
   <v>       0.00291545 </v>
   <v>       0.00291545 </v>
   <v>       0.00291545 </v>
   <v>       0.00291545 </v>
   <v>       0.00291545 </v>
   <v>       0.00291545 </v>
   <v>       0.00291545 </v>
   <v>       0.00291545 </v>
   <v>       0.00291545 </v>
   <v>       0.00291545 </v>
  </varray>
 </kpoints>
 <parameters>
  <separator name="general" >
   <i type="string" name="SYSTEM">Og_FCC</i>
   <i type="logical" name="LCOMPAT"> F  </i>
  </separator>
  <separator name="electronic" >
   <i type="string" name="PREC">accura</i>
   <i name="ENMAX">    300.00000000</i>
   <i name="ENAUG">    605.90000000</i>
   <i name="EDIFF">      0.00000001</i>
   <i type="int" name="IALGO">    38</i>
   <i type="int" name="IWAVPR">    10</i>
   <i type="int" name="NBANDS">    20</i>
   <i name="NELECT">      8.00000000</i>
   <i type="int" name="TURBO">     0</i>
   <i type="int" name="IRESTART">     0</i>
   <i type="int" name="NREBOOT">     0</i>
   <i type="int" name="NMIN">     0</i>
   <i name="EREF">      0.00000000</i>
   <separator name="electronic smearing" >
    <i type="int" name="ISMEAR">     0</i>
    <i name="SIGMA">      0.00100000</i>
    <i name="KSPACING">      0.50000000</i>
    <i type="logical" name="KGAMMA"> T  </i>
   </separator>
   <separator name="electronic projectors" >
    <i type="logical" name="LREAL"> F  </i>
    <v name="ROPT">      0.00000000</v>
    <i type="int" name="LMAXPAW">  -100</i>
    <i type="int" name="LMAXMIX">     2</i>
    <i type="logical" name="NLSPLINE"> F  </i>
   </separator>
   <separator name="electronic startup" >
    <i type="int" name="ISTART">     0</i>
    <i type="int" name="ICHARG">     2</i>
    <i type="int" name="INIWAV">     1</i>
   </separator>
   <separator name="electronic spin" >
    <i type="int" name="ISPIN">     1</i>
    <i type="logical" name="LNONCOLLINEAR"> T  </i>
    <v name="MAGMOM">      1.00000000      1.00000000      1.00000000</v>
    <i name="NUPDOWN">     -1.00000000</i>
    <i type="logical" name="LSORBIT"> T  </i>
    <v name="SAXIS">      0.00000000      0.00000000      1.00000000</v>
    <i type="logical" name="LSPIRAL"> F  </i>
    <v name="QSPIRAL">      0.00000000      0.00000000      0.00000000</v>
    <i type="logical" name="LZEROZ"> F  </i>
   </separator>
   <separator name="electronic exchange-correlation" >
    <i type="logical" name="LASPH"> F  </i>
    <i type="logical" name="LMETAGGA"> F  </i>
   </separator>
   <separator name="electronic convergence" >
    <i type="int" name="NELM">    50</i>
    <i type="int" name="NELMDL">    -5</i>
    <i type="int" name="NELMIN">     2</i>
    <i name="ENINI">    300.00000000</i>
    <separator name="electronic convergence detail" >
     <i type="logical" name="LDIAG"> T  </i>
     <i type="logical" name="LSUBROT"> F  </i>
     <i name="WEIMIN">      0.00000000</i>
     <i name="EBREAK">      0.00000000</i>
     <i name="DEPER">      0.30000000</i>
     <i type="int" name="NRMM">     4</i>
     <i name="TIME">      0.40000000</i>
    </separator>
   </separator>
   <separator name="electronic mixer" >
    <i name="AMIX">      0.40000000</i>
    <i name="BMIX">      1.00000000</i>
    <i name="AMIN">      0.10000000</i>
    <i name="AMIX_MAG">      1.60000000</i>
    <i name="BMIX_MAG">      1.00000000</i>
    <separator name="electronic mixer details" >
     <i type="int" name="IMIX">     4</i>
     <i type="logical" name="MIXFIRST"> F  </i>
     <i type="int" name="MAXMIX">    50</i>
     <i name="WC">    100.00000000</i>
     <i type="int" name="INIMIX">     1</i>
     <i type="int" name="MIXPRE">     1</i>
     <i type="int" name="MREMOVE">     5</i>
    </separator>
   </separator>
   <separator name="electronic dipolcorrection" >
    <i type="logical" name="LDIPOL"> F  </i>
    <i type="logical" name="LMONO"> F  </i>
    <i type="int" name="IDIPOL">     0</i>
    <i name="EPSILON">      1.00000000</i>
    <v name="DIPOL">   -100.00000000   -100.00000000   -100.00000000</v>
    <i name="EFIELD">      0.00000000</i>
   </separator>
  </separator>
  <separator name="grids" >
   <i type="int" name="NGX">    28</i>
   <i type="int" name="NGY">    28</i>
   <i type="int" name="NGZ">    28</i>
   <i type="int" name="NGXF">    56</i>
   <i type="int" name="NGYF">    56</i>
   <i type="int" name="NGZF">    56</i>
   <i type="logical" name="ADDGRID"> T  </i>
  </separator>
  <separator name="ionic" >
   <i type="int" name="NSW">     1</i>
   <i type="int" name="IBRION">    -1</i>
   <i type="int" name="MDALGO">     0</i>
   <i type="int" name="ISIF">     3</i>
   <i name="PSTRESS">      0.00000000</i>
   <i name="EDIFFG">      0.00001000</i>
   <i type="int" name="NFREE">     5</i>
   <i name="POTIM">      0.10000000</i>
   <i name="SMASS">     -3.00000000</i>
   <i name="SCALEE">      1.00000000</i>
  </separator>
  <separator name="ionic md" >
   <i name="TEBEG">      0.00010000</i>
   <i name="TEEND">      0.00010000</i>
   <i type="int" name="NBLOCK">     1</i>
   <i type="int" name="KBLOCK">     1</i>
   <i type="int" name="NPACO">   256</i>
   <i name="APACO">     16.00000000</i>
  </separator>
  <separator name="symmetry" >
   <i type="int" name="ISYM">     0</i>
   <i name="SYMPREC">      0.00000010</i>
  </separator>
  <separator name="dos" >
   <i type="int" name="LORBIT">     0</i>
   <v name="RWIGS">     -1.00000000</v>
   <i type="int" name="NEDOS">   301</i>
   <i name="EMIN">     10.00000000</i>
   <i name="EMAX">    -10.00000000</i>
   <i name="EFERMI">      0.00000000</i>
  </separator>
  <separator name="writing" >
   <i type="int" name="NWRITE">     2</i>
   <i type="logical" name="LWAVE"> T  </i>
   <i type="logical" name="LDOWNSAMPLE"> F  </i>
   <i type="logical" name="LCHARG"> F  </i>
   <i type="logical" name="LPARD"> F  </i>
   <i type="logical" name="LVTOT"> F  </i>
   <i type="logical" name="LVHAR"> F  </i>
   <i type="logical" name="LELF"> F  </i>
   <i type="logical" name="LOPTICS"> T  </i>
   <v name="STM">      0.00000000      0.00000000      0.00000000      0.00000000      0.00000000      0.00000000      0.00000000</v>
  </separator>
  <separator name="performance" >
   <i type="int" name="NPAR">     4</i>
   <i type="int" name="NSIM">     4</i>
   <i type="int" name="NBLK">    -1</i>
   <i type="logical" name="LPLANE"> T  </i>
   <i type="logical" name="LSCALAPACK"> T  </i>
   <i type="logical" name="LSCAAWARE"> F  </i>
   <i type="logical" name="LSCALU"> F  </i>
   <i type="logical" name="LASYNC"> F  </i>
   <i type="logical" name="LORBITALREAL"> F  </i>
  </separator>
  <separator name="miscellaneous" >
   <i type="int" name="IDIOT">     3</i>
   <i type="int" name="ISPECIAL">     0</i>
   <i type="logical" name="LMUSIC"> F  </i>
   <v name="POMASS">    131.29400000</v>
   <v name="DARWINR">      0.00000000</v>
   <v name="DARWINV">      1.00000000</v>
   <i type="logical" name="LCORR"> T  </i>
  </separator>
  <i type="logical" name="GGA_COMPAT"> F  </i>
  <i type="logical" name="LBERRY"> F  </i>
  <i type="int" name="ICORELEVEL">     0</i>
  <i type="logical" name="LDAU"> F  </i>
  <i type="int" name="I_CONSTRAINED_M">     0</i>
  <separator name="electronic exchange-correlation" >
   <i type="string" name="GGA">PE</i>
   <i type="int" name="VOSKOWN">     0</i>
   <i type="logical" name="LHFCALC"> F  </i>
   <i type="string" name="PRECFOCK"></i>
   <i type="logical" name="LSYMGRAD"> F  </i>
   <i type="logical" name="LHFONE"> F  </i>
   <i type="logical" name="LRHFCALC"> F  </i>
   <i type="logical" name="LTHOMAS"> F  </i>
   <i type="logical" name="LMODELHF"> F  </i>
   <i name="ENCUT4O">     -1.00000000</i>
   <i type="int" name="EXXOEP">     0</i>
   <i type="int" name="FOURORBIT">     0</i>
   <i name="AEXX">      0.00000000</i>
   <i name="HFALPHA">      0.00000000</i>
   <i name="MCALPHA">      0.00000000</i>
   <i name="ALDAX">      1.00000000</i>
   <i name="AGGAX">      1.00000000</i>
   <i name="ALDAC">      1.00000000</i>
   <i name="AGGAC">      1.00000000</i>
   <i type="int" name="NKREDX">     1</i>
   <i type="int" name="NKREDY">     1</i>
   <i type="int" name="NKREDZ">     1</i>
   <i type="logical" name="SHIFTRED"> F  </i>
   <i type="logical" name="ODDONLY"> F  </i>
   <i type="logical" name="EVENONLY"> F  </i>
   <i type="int" name="LMAXFOCK">     0</i>
   <i type="int" name="NMAXFOCKAE">     0</i>
   <i type="logical" name="LFOCKAEDFT"> F  </i>
   <i name="HFSCREEN">      0.00000000</i>
   <i name="HFSCREENC">      0.00000000</i>
   <i type="int" name="NBANDSGWLOW">     0</i>
  </separator>
  <separator name="vdW DFT" >
   <i type="logical" name="LUSE_VDW"> F  </i>
   <i name="Zab_VDW">     -0.84910000</i>
   <i name="PARAM1">      0.12340000</i>
   <i name="PARAM2">      1.00000000</i>
   <i name="PARAM3">      0.00000000</i>
  </separator>
  <separator name="model GW" >
   <i type="int" name="MODEL_GW">     0</i>
   <i name="MODEL_EPS0">     36.93978283</i>
   <i name="MODEL_ALPHA">      1.00000000</i>
  </separator>
  <separator name="linear response parameters" >
   <i type="logical" name="LEPSILON"> F  </i>
   <i type="logical" name="LRPA"> F  </i>
   <i type="logical" name="LNABLA"> F  </i>
   <i type="logical" name="LVEL"> F  </i>
   <i type="int" name="KINTER">     0</i>
   <i name="CSHIFT">      0.10000000</i>
   <i name="OMEGAMAX">     -1.00000000</i>
   <i name="DEG_THRESHOLD">      0.00200000</i>
   <i name="RTIME">     -0.10000000</i>
   <i name="WPLASMAI">      0.00000000</i>
   <v name="DFIELD">      0.00000000      0.00000000      0.00000000</v>
   <v name="WPLASMA">      0.00000000      0.00000000      0.00000000      0.00000000      0.00000000      0.00000000      0.00000000      0.00000000      0.00000000</v>
  </separator>
  <separator name="orbital magnetization" >
   <i type="logical" name="NUCIND"> F  </i>
   <v name="MAGPOS">      0.00000000      0.00000000      0.00000000</v>
   <i type="logical" name="LNICSALL"> T  </i>
   <i type="logical" name="ORBITALMAG"> F  </i>
   <i type="logical" name="LMAGBLOCH"> F  </i>
   <i type="logical" name="LCHIMAG"> F  </i>
   <i type="logical" name="LGAUGE"> T  </i>
   <i type="int" name="MAGATOM">     0</i>
   <v name="MAGDIPOL">      0.00000000      0.00000000      0.00000000</v>
   <v name="AVECCONST">      0.00000000      0.00000000      0.00000000</v>
  </separator>
  <separator name="response functions" >
   <i type="logical" name="LADDER"> F  </i>
   <i type="logical" name="LRPAFORCE"> F  </i>
   <i type="logical" name="LFXC"> F  </i>
   <i type="logical" name="LHARTREE"> T  </i>
   <i type="int" name="IBSE">     0</i>
   <v type="int" name="KPOINT">    -1     0     0     0</v>
   <i type="logical" name="LTCTE"> F  </i>
   <i type="logical" name="LTETE"> F  </i>
   <i type="logical" name="LTRIPLET"> F  </i>
   <i type="logical" name="LFXCEPS"> F  </i>
   <i type="logical" name="LFXHEG"> F  </i>
   <i type="int" name="NATURALO">     2</i>
   <i type="logical" name="L2ORDER"> F  </i>
   <i type="logical" name="LMP2LT"> F  </i>
   <i type="logical" name="LUSEW"> F  </i>
   <i name="ENCUTGW">     -2.00000000</i>
   <i name="ENCUTGWSOFT">     -2.00000000</i>
   <i name="ENCUTLF">     -1.00000000</i>
   <i type="int" name="LMAXMP2">    -1</i>
   <i name="SCISSOR">      0.00000000</i>
   <i type="int" name="NOMEGA">     0</i>
   <i type="int" name="NOMEGAR">     0</i>
   <i type="int" name="NBANDSGW">    -1</i>
   <i type="int" name="NBANDSO">    -1</i>
   <i type="int" name="NBANDSV">    -1</i>
   <i type="int" name="NELM">    50</i>
   <i type="int" name="NELMHF">     1</i>
   <i type="int" name="DIM">     3</i>
   <i type="int" name="ANTIRES">     0</i>
   <i name="OMEGAMAX">    -30.00000000</i>
   <i name="OMEGAMIN">    -30.00000000</i>
   <i name="OMEGATL">   -200.00000000</i>
   <i type="int" name="OMEGAGRID">   140</i>
   <i name="CSHIFT">     -0.10000000</i>
   <i type="logical" name="SELFENERGY"> F  </i>
   <i type="logical" name="LSPECTRAL"> F  </i>
   <i type="logical" name="LSPECTRALGW"> F  </i>
   <i type="logical" name="LSINGLES"> F  </i>
   <i type="logical" name="LFERMIGW"> F  </i>
   <i type="logical" name="ODDONLYGW"> F  </i>
   <i type="logical" name="EVENONLYGW"> F  </i>
   <i type="int" name="NKREDLFX">     1</i>
   <i type="int" name="NKREDLFY">     1</i>
   <i type="int" name="NKREDLFZ">     1</i>
   <i type="int" name="MAXMEM">  2800</i>
   <i type="int" name="TELESCOPE">     0</i>
   <i type="int" name="TAUPAR">     1</i>
   <i type="int" name="OMEGAPAR">    -1</i>
   <i name="LAMBDA">      1.00000000</i>
  </separator>
  <separator name="External order field" >
   <i name="OFIELD_KAPPA">      0.00000000</i>
   <v name="OFIELD_K">      0.00000000      0.00000000      0.00000000</v>
   <i name="OFIELD_Q6_NEAR">      0.00000000</i>
   <i name="OFIELD_Q6_FAR">      0.00000000</i>
   <i name="OFIELD_A">      0.00000000</i>
  </separator>
 </parameters>
 <atominfo>
  <atoms>       1 </atoms>
  <types>       1 </types>
  <array name="atoms" >
   <dimension dim="1">ion</dimension>
   <field type="string">element</field>
   <field type="int">atomtype</field>
   <set>
    <rc><c>Xe</c><c>   1</c></rc>
   </set>
  </array>
  <array name="atomtypes" >
   <dimension dim="1">type</dimension>
   <field type="int">atomspertype</field>
   <field type="string">element</field>
   <field>mass</field>
   <field>valence</field>
   <field type="string">pseudopotential</field>
   <set>
    <rc><c>   1</c><c>Xe</c><c>    131.29400000</c><c>      8.00000000</c><c>  PAW_PBE Xe_GW 08Jan2009               </c></rc>
   </set>
  </array>
 </atominfo>
 <structure name="initialpos" >
  <crystal>
   <varray name="basis" >
    <v>       4.43220013       0.00000000       0.00000000 </v>
    <v>       2.21610006       3.83839790      -0.00000000 </v>
    <v>       2.21610006       1.27946597       3.61887625 </v>
   </varray>
   <i name="volume">     61.56630471 </i>
   <varray name="rec_basis" >
    <v>       0.22562158      -0.13026268      -0.09210962 </v>
    <v>       0.00000000       0.26052536      -0.09210962 </v>
    <v>      -0.00000000       0.00000000       0.27632887 </v>
   </varray>
  </crystal>
  <varray name="positions" >
   <v>       0.00000000       0.00000000       0.00000000 </v>
  </varray>
  <varray name="velocities" >
   <v>       0.00000000       0.00000000       0.00000000 </v>
  </varray>
 </structure>
 <calculation>
  <scstep>
   <time name="dav">    1.52    1.52</time>
   <time name="total">    1.59    1.59</time>
   <energy>
    <i name="alphaZ">     21.17661221 </i>
    <i name="ewald">   -337.05282163 </i>
    <i name="hartreedc">    -68.63715467 </i>
    <i name="XCdc">    -72.62660138 </i>
    <i name="pawpsdc">    428.58020317 </i>
    <i name="pawaedc">   -340.45230929 </i>
    <i name="eentropy">     -0.00000000 </i>
    <i name="bandstr">    -28.21478293 </i>
    <i name="atom">    429.50278051 </i>
    <i name="e_fr_energy">     32.27592599 </i>
    <i name="e_wo_entrp">     32.27592599 </i>
    <i name="e_0_energy">     32.27592599 </i>
   </energy>
  </scstep>
  <scstep>
   <time name="dav">    1.90    1.90</time>
   <time name="total">    1.90    1.90</time>
   <energy>
    <i name="e_fr_energy">      2.66273324 </i>
    <i name="e_wo_entrp">      2.66273324 </i>
    <i name="e_0_energy">      2.66273324 </i>
   </energy>
  </scstep>
  <scstep>
   <time name="dav">    1.77    1.77</time>
   <time name="total">    1.77    1.77</time>
   <energy>
    <i name="e_fr_energy">      0.31649071 </i>
    <i name="e_wo_entrp">      0.31649071 </i>
    <i name="e_0_energy">      0.31649071 </i>
   </energy>
  </scstep>
  <scstep>
   <time name="dav">    1.73    1.72</time>
   <time name="total">    1.73    1.73</time>
   <energy>
    <i name="e_fr_energy">      0.29241595 </i>
    <i name="e_wo_entrp">      0.29241595 </i>
    <i name="e_0_energy">      0.29241595 </i>
   </energy>
  </scstep>
  <scstep>
   <time name="dav">    1.76    1.76</time>
   <time name="total">    1.86    1.86</time>
   <energy>
    <i name="e_fr_energy">      0.29223570 </i>
    <i name="e_wo_entrp">      0.29223570 </i>
    <i name="e_0_energy">      0.29223570 </i>
   </energy>
  </scstep>
  <scstep>
   <time name="dav">    1.57    1.57</time>
   <time name="total">    1.73    1.73</time>
   <energy>
    <i name="e_fr_energy">     -0.06941920 </i>
    <i name="e_wo_entrp">     -0.06941920 </i>
    <i name="e_0_energy">     -0.06941920 </i>
   </energy>
  </scstep>
  <scstep>
   <time name="dav">    1.52    1.52</time>
   <time name="total">    1.69    1.69</time>
   <energy>
    <i name="e_fr_energy">     -0.15435792 </i>
    <i name="e_wo_entrp">     -0.15435792 </i>
    <i name="e_0_energy">     -0.15435792 </i>
   </energy>
  </scstep>
  <scstep>
   <time name="dav">    1.74    1.74</time>
   <time name="total">    1.90    1.90</time>
   <energy>
    <i name="e_fr_energy">     -0.15470445 </i>
    <i name="e_wo_entrp">     -0.15470445 </i>
    <i name="e_0_energy">     -0.15470445 </i>
   </energy>
  </scstep>
  <scstep>
   <time name="dav">    1.63    1.62</time>
   <time name="total">    1.78    1.78</time>
   <energy>
    <i name="e_fr_energy">     -0.15472485 </i>
    <i name="e_wo_entrp">     -0.15472485 </i>
    <i name="e_0_energy">     -0.15472485 </i>
   </energy>
  </scstep>
  <scstep>
   <time name="dav">    1.59    1.59</time>
   <time name="total">    1.75    1.74</time>
   <energy>
    <i name="e_fr_energy">     -0.15473316 </i>
    <i name="e_wo_entrp">     -0.15473316 </i>
    <i name="e_0_energy">     -0.15473316 </i>
   </energy>
  </scstep>
  <scstep>
   <time name="dav">    1.62    1.62</time>
   <time name="total">    1.78    1.78</time>
   <energy>
    <i name="e_fr_energy">     -0.15473168 </i>
    <i name="e_wo_entrp">     -0.15473168 </i>
    <i name="e_0_energy">     -0.15473168 </i>
   </energy>
  </scstep>
  <scstep>
   <time name="dav">    1.66    1.66</time>
   <time name="total">    1.82    1.82</time>
   <energy>
    <i name="e_fr_energy">     -0.15473175 </i>
    <i name="e_wo_entrp">     -0.15473175 </i>
    <i name="e_0_energy">     -0.15473175 </i>
   </energy>
  </scstep>
  <scstep>
   <time name="dav">    1.63    1.63</time>
   <time name="total">    1.79    1.79</time>
   <energy>
    <i name="e_fr_energy">     -0.15473192 </i>
    <i name="e_wo_entrp">     -0.15473192 </i>
    <i name="e_0_energy">     -0.15473192 </i>
   </energy>
  </scstep>
  <scstep>
   <time name="dav">    1.54    1.54</time>
   <time name="total">    1.70    1.70</time>
   <energy>
    <i name="e_fr_energy">     -0.15473196 </i>
    <i name="e_wo_entrp">     -0.15473196 </i>
    <i name="e_0_energy">     -0.15473196 </i>
   </energy>
  </scstep>
  <scstep>
   <time name="dav">    1.40    1.40</time>
   <time name="total">    1.46    1.46</time>
   <energy>
    <i name="alphaZ">     21.17661221 </i>
    <i name="ewald">   -337.05282163 </i>
    <i name="hartreedc">    -68.69434260 </i>
    <i name="XCdc">    -72.83462751 </i>
    <i name="pawpsdc">    432.11105623 </i>
    <i name="pawaedc">   -343.99918326 </i>
    <i name="eentropy">     -0.00000000 </i>
    <i name="bandstr">    -60.36420590 </i>
    <i name="atom">    429.50278051 </i>
    <i name="e_fr_energy">     -0.15473196 </i>
    <i name="e_wo_entrp">     -0.15473196 </i>
    <i name="e_0_energy">     -0.15473196 </i>
   </energy>
  </scstep>
  <structure>
   <crystal>
    <varray name="basis" >
     <v>       4.43220013       0.00000000       0.00000000 </v>
     <v>       2.21610006       3.83839790      -0.00000000 </v>
     <v>       2.21610006       1.27946597       3.61887625 </v>
    </varray>
    <i name="volume">     61.56630471 </i>
    <varray name="rec_basis" >
     <v>       0.22562158      -0.13026268      -0.09210962 </v>
     <v>       0.00000000       0.26052536      -0.09210962 </v>
     <v>      -0.00000000       0.00000000       0.27632887 </v>
    </varray>
   </crystal>
   <varray name="positions" >
    <v>       0.00000000       0.00000000       0.00000000 </v>
   </varray>
  </structure>
  <varray name="forces" >
   <v>       0.00000000      -0.00000000      -0.00000000 </v>
  </varray>
  <varray name="stress" >
   <v>      -0.53193255       0.00000351       0.00001618 </v>
   <v>       0.00000339      -0.53190607       0.00003124 </v>
   <v>       0.00001618       0.00003125      -0.53192582 </v>
  </varray>
  <energy>
   <i name="e_fr_energy">     -0.32453248 </i>
   <i name="e_wo_entrp">     -0.32453248 </i>
   <i name="e_0_energy">     -0.00000000 </i>
  </energy>
  <time name="totalsc">   28.49   28.64</time>
  <eigenvalues>
   <array>
    <dimension dim="1">band</dimension>
    <dimension dim="2">kpoint</dimension>
    <dimension dim="3">spin</dimension>
    <field>eigene</field>
    <field>occ</field>
    <set>
     <set comment="spin 1">
      <set comment="kpoint 1">
       <r>  -16.3282    1.0000 </r>
       <r>  -16.3282    1.0000 </r>
       <r>   -4.9360    1.0000 </r>
       <r>   -4.9360    1.0000 </r>
       <r>   -3.5985    1.0000 </r>
       <r>   -3.5985    1.0000 </r>
       <r>   -3.5985    1.0000 </r>
       <r>   -3.5985    1.0000 </r>
       <r>    2.1897    0.0000 </r>
       <r>    2.1897    0.0000 </r>
       <r>    6.6605    0.0000 </r>
       <r>    6.6605    0.0000 </r>
       <r>    6.6605    0.0000 </r>
       <r>    6.6605    0.0000 </r>
       <r>    6.7151    0.0000 </r>
       <r>    6.7151    0.0000 </r>
       <r>    8.7969    0.0000 </r>
       <r>    8.7969    0.0000 </r>
       <r>    8.7969    0.0000 </r>
       <r>    8.7969    0.0000 </r>
      </set>
      <set comment="kpoint 2">
       <r>  -16.2939    1.0000 </r>
       <r>  -16.2939    1.0000 </r>
       <r>   -5.0619    1.0000 </r>
       <r>   -5.0619    1.0000 </r>
       <r>   -3.8463    1.0000 </r>
       <r>   -3.8463    1.0000 </r>
       <r>   -3.6363    1.0000 </r>
       <r>   -3.6363    1.0000 </r>
       <r>    2.7008    0.0000 </r>
       <r>    2.7008    0.0000 </r>
       <r>    6.1751    0.0000 </r>
       <r>    6.1752    0.0000 </r>
       <r>    6.8294    0.0000 </r>
       <r>    6.8294    0.0000 </r>
       <r>    6.8793    0.0000 </r>
       <r>    6.8793    0.0000 </r>
       <r>    8.3738    0.0000 </r>
       <r>    8.3738    0.0000 </r>
       <r>    8.3977    0.0000 </r>
       <r>    8.3977    0.0000 </r>
      </set>
      <set comment="kpoint 3">
       <r>  -16.2155    1.0000 </r>
       <r>  -16.2155    1.0000 </r>
       <r>   -5.4107    1.0000 </r>
       <r>   -5.4107    1.0000 </r>
       <r>   -4.2131    1.0000 </r>
       <r>   -4.2131    1.0000 </r>
       <r>   -3.7184    1.0000 </r>
       <r>   -3.7184    1.0000 </r>
       <r>    3.5279    0.0000 </r>
       <r>    3.5279    0.0000 </r>
       <r>    5.9960    0.0000 </r>
       <r>    5.9960    0.0000 </r>
       <r>    6.7202    0.0000 </r>
       <r>    6.7202    0.0000 </r>
       <r>    6.7826    0.0000 </r>
       <r>    6.7826    0.0000 </r>
       <r>    8.7036    0.0000 </r>
       <r>    8.7036    0.0000 </r>
       <r>    8.7548    0.0000 </r>
       <r>    8.7548    0.0000 </r>
      </set>
      <set comment="kpoint 4">
       <r>  -16.1502    1.0000 </r>
       <r>  -16.1501    1.0000 </r>
       <r>   -5.7294    1.0000 </r>
       <r>   -5.7294    1.0000 </r>
       <r>   -4.3899    1.0000 </r>
       <r>   -4.3899    1.0000 </r>
       <r>   -3.7814    1.0000 </r>
       <r>   -3.7814    1.0000 </r>
       <r>    3.7129    0.0000 </r>
       <r>    3.7129    0.0000 </r>
       <r>    6.4012    0.0000 </r>
       <r>    6.4012    0.0000 </r>
       <r>    6.4578    0.0000 </r>
       <r>    6.4578    0.0000 </r>
       <r>    6.6995    0.0000 </r>
       <r>    6.6995    0.0000 </r>
       <r>    9.3475    0.0000 </r>
       <r>    9.3475    0.0000 </r>
       <r>   10.0957    0.0000 </r>
       <r>   10.1019    0.0000 </r>
      </set>
      <set comment="kpoint 5">
       <r>  -16.1502    1.0000 </r>
       <r>  -16.1501    1.0000 </r>
       <r>   -5.7294    1.0000 </r>
       <r>   -5.7294    1.0000 </r>
       <r>   -4.3899    1.0000 </r>
       <r>   -4.3899    1.0000 </r>
       <r>   -3.7814    1.0000 </r>
       <r>   -3.7814    1.0000 </r>
       <r>    3.7129    0.0000 </r>
       <r>    3.7129    0.0000 </r>
       <r>    6.4012    0.0000 </r>
       <r>    6.4012    0.0000 </r>
       <r>    6.4578    0.0000 </r>
       <r>    6.4578    0.0000 </r>
       <r>    6.6995    0.0000 </r>
       <r>    6.6995    0.0000 </r>
       <r>    9.3475    0.0000 </r>
       <r>    9.3475    0.0000 </r>
       <r>   10.0952    0.0000 </r>
       <r>   10.1031    0.0000 </r>
      </set>
      <set comment="kpoint 6">
       <r>  -16.2155    1.0000 </r>
       <r>  -16.2155    1.0000 </r>
       <r>   -5.4107    1.0000 </r>
       <r>   -5.4107    1.0000 </r>
       <r>   -4.2131    1.0000 </r>
       <r>   -4.2131    1.0000 </r>
       <r>   -3.7184    1.0000 </r>
       <r>   -3.7184    1.0000 </r>
       <r>    3.5279    0.0000 </r>
       <r>    3.5279    0.0000 </r>
       <r>    5.9960    0.0000 </r>
       <r>    5.9960    0.0000 </r>
       <r>    6.7202    0.0000 </r>
       <r>    6.7202    0.0000 </r>
       <r>    6.7826    0.0000 </r>
       <r>    6.7826    0.0000 </r>
       <r>    8.7036    0.0000 </r>
       <r>    8.7036    0.0000 </r>
       <r>    8.7548    0.0000 </r>
       <r>    8.7548    0.0000 </r>
      </set>
      <set comment="kpoint 7">
       <r>  -16.2939    1.0000 </r>
       <r>  -16.2939    1.0000 </r>
       <r>   -5.0619    1.0000 </r>
       <r>   -5.0619    1.0000 </r>
       <r>   -3.8463    1.0000 </r>
       <r>   -3.8463    1.0000 </r>
       <r>   -3.6363    1.0000 </r>
       <r>   -3.6363    1.0000 </r>
       <r>    2.7008    0.0000 </r>
       <r>    2.7008    0.0000 </r>
       <r>    6.1751    0.0000 </r>
       <r>    6.1752    0.0000 </r>
       <r>    6.8294    0.0000 </r>
       <r>    6.8294    0.0000 </r>
       <r>    6.8793    0.0000 </r>
       <r>    6.8793    0.0000 </r>
       <r>    8.3738    0.0000 </r>
       <r>    8.3738    0.0000 </r>
       <r>    8.3977    0.0000 </r>
       <r>    8.3977    0.0000 </r>
      </set>
      <set comment="kpoint 8">
       <r>  -16.2939    1.0000 </r>
       <r>  -16.2939    1.0000 </r>
       <r>   -5.0619    1.0000 </r>
       <r>   -5.0619    1.0000 </r>
       <r>   -3.8463    1.0000 </r>
       <r>   -3.8463    1.0000 </r>
       <r>   -3.6363    1.0000 </r>
       <r>   -3.6363    1.0000 </r>
       <r>    2.7008    0.0000 </r>
       <r>    2.7008    0.0000 </r>
       <r>    6.1751    0.0000 </r>
       <r>    6.1752    0.0000 </r>
       <r>    6.8294    0.0000 </r>
       <r>    6.8294    0.0000 </r>
       <r>    6.8793    0.0000 </r>
       <r>    6.8793    0.0000 </r>
       <r>    8.3738    0.0000 </r>
       <r>    8.3738    0.0000 </r>
       <r>    8.3977    0.0000 </r>
       <r>    8.3977    0.0000 </r>
      </set>
      <set comment="kpoint 9">
       <r>  -16.2827    1.0000 </r>
       <r>  -16.2826    1.0000 </r>
       <r>   -5.0916    1.0000 </r>
       <r>   -5.0916    1.0000 </r>
       <r>   -3.8739    1.0000 </r>
       <r>   -3.8739    1.0000 </r>
       <r>   -3.7127    1.0000 </r>
       <r>   -3.7127    1.0000 </r>
       <r>    2.8755    0.0000 </r>
       <r>    2.8755    0.0000 </r>
       <r>    5.8680    0.0000 </r>
       <r>    5.8680    0.0000 </r>
       <r>    7.0361    0.0000 </r>
       <r>    7.0361    0.0000 </r>
       <r>    7.1042    0.0000 </r>
       <r>    7.1042    0.0000 </r>
       <r>    7.4455    0.0000 </r>
       <r>    7.4455    0.0000 </r>
       <r>    9.0278    0.0000 </r>
       <r>    9.0279    0.0000 </r>
      </set>
      <set comment="kpoint 10">
       <r>  -16.2188    1.0000 </r>
       <r>  -16.2188    1.0000 </r>
       <r>   -5.3356    1.0000 </r>
       <r>   -5.3356    1.0000 </r>
       <r>   -4.1908    1.0000 </r>
       <r>   -4.1908    1.0000 </r>
       <r>   -3.8105    1.0000 </r>
       <r>   -3.8105    1.0000 </r>
       <r>    3.6641    0.0000 </r>
       <r>    3.6641    0.0000 </r>
       <r>    5.4853    0.0000 </r>
       <r>    5.4853    0.0000 </r>
       <r>    6.4162    0.0000 </r>
       <r>    6.4162    0.0000 </r>
       <r>    7.2756    0.0000 </r>
       <r>    7.2756    0.0000 </r>
       <r>    8.0088    0.0000 </r>
       <r>    8.0088    0.0000 </r>
       <r>    9.3324    0.0000 </r>
       <r>    9.3324    0.0000 </r>
      </set>
      <set comment="kpoint 11">
       <r>  -16.1485    1.0000 </r>
       <r>  -16.1485    1.0000 </r>
       <r>   -5.6349    1.0000 </r>
       <r>   -5.6349    1.0000 </r>
       <r>   -4.4304    1.0000 </r>
       <r>   -4.4304    1.0000 </r>
       <r>   -3.9049    1.0000 </r>
       <r>   -3.9049    1.0000 </r>
       <r>    4.0989    0.0000 </r>
       <r>    4.0989    0.0000 </r>
       <r>    5.6316    0.0000 </r>
       <r>    5.6316    0.0000 </r>
       <r>    6.2877    0.0000 </r>
       <r>    6.2877    0.0000 </r>
       <r>    6.9572    0.0000 </r>
       <r>    6.9572    0.0000 </r>
       <r>    9.2949    0.0000 </r>
       <r>    9.2949    0.0000 </r>
       <r>   10.4616    0.0000 </r>
       <r>   10.4783    0.0000 </r>
      </set>
      <set comment="kpoint 12">
       <r>  -16.1263    1.0000 </r>
       <r>  -16.1263    1.0000 </r>
       <r>   -5.7296    1.0000 </r>
       <r>   -5.7296    1.0000 </r>
       <r>   -4.5018    1.0000 </r>
       <r>   -4.5018    1.0000 </r>
       <r>   -3.9272    1.0000 </r>
       <r>   -3.9272    1.0000 </r>
       <r>    4.1747    0.0000 </r>
       <r>    4.1747    0.0000 </r>
       <r>    5.5717    0.0000 </r>
       <r>    5.5717    0.0000 </r>
       <r>    6.7252    0.0000 </r>
       <r>    6.7252    0.0000 </r>
       <r>    6.8319    0.0000 </r>
       <r>    6.8319    0.0000 </r>
       <r>    9.9372    0.0000 </r>
       <r>    9.9372    0.0000 </r>
       <r>   10.0874    0.0000 </r>
       <r>   10.0874    0.0000 </r>
      </set>
      <set comment="kpoint 13">
       <r>  -16.1704    1.0000 </r>
       <r>  -16.1704    1.0000 </r>
       <r>   -5.5423    1.0000 </r>
       <r>   -5.5423    1.0000 </r>
       <r>   -4.3897    1.0000 </r>
       <r>   -4.3897    1.0000 </r>
       <r>   -3.8553    1.0000 </r>
       <r>   -3.8553    1.0000 </r>
       <r>    4.1275    0.0000 </r>
       <r>    4.1275    0.0000 </r>
       <r>    5.8649    0.0000 </r>
       <r>    5.8649    0.0000 </r>
       <r>    6.0717    0.0000 </r>
       <r>    6.0717    0.0000 </r>
       <r>    6.8933    0.0000 </r>
       <r>    6.8933    0.0000 </r>
       <r>    8.3346    0.0000 </r>
       <r>    8.3346    0.0000 </r>
       <r>   10.4956    0.0000 </r>
       <r>   10.5418    0.0000 </r>
      </set>
      <set comment="kpoint 14">
       <r>  -16.2449    1.0000 </r>
       <r>  -16.2449    1.0000 </r>
       <r>   -5.2449    1.0000 </r>
       <r>   -5.2449    1.0000 </r>
       <r>   -4.0995    1.0000 </r>
       <r>   -4.0995    1.0000 </r>
       <r>   -3.7324    1.0000 </r>
       <r>   -3.7324    1.0000 </r>
       <r>    3.3875    0.0000 </r>
       <r>    3.3875    0.0000 </r>
       <r>    5.7722    0.0000 </r>
       <r>    5.7722    0.0000 </r>
       <r>    6.6634    0.0000 </r>
       <r>    6.6634    0.0000 </r>
       <r>    7.2031    0.0000 </r>
       <r>    7.2031    0.0000 </r>
       <r>    7.5313    0.0000 </r>
       <r>    7.5313    0.0000 </r>
       <r>    9.0512    0.0000 </r>
       <r>    9.0512    0.0000 </r>
      </set>
      <set comment="kpoint 15">
       <r>  -16.2155    1.0000 </r>
       <r>  -16.2155    1.0000 </r>
       <r>   -5.4107    1.0000 </r>
       <r>   -5.4107    1.0000 </r>
       <r>   -4.2131    1.0000 </r>
       <r>   -4.2131    1.0000 </r>
       <r>   -3.7184    1.0000 </r>
       <r>   -3.7184    1.0000 </r>
       <r>    3.5279    0.0000 </r>
       <r>    3.5279    0.0000 </r>
       <r>    5.9960    0.0000 </r>
       <r>    5.9960    0.0000 </r>
       <r>    6.7202    0.0000 </r>
       <r>    6.7202    0.0000 </r>
       <r>    6.7826    0.0000 </r>
       <r>    6.7826    0.0000 </r>
       <r>    8.7036    0.0000 </r>
       <r>    8.7036    0.0000 </r>
       <r>    8.7548    0.0000 </r>
       <r>    8.7548    0.0000 </r>
      </set>
      <set comment="kpoint 16">
       <r>  -16.2188    1.0000 </r>
       <r>  -16.2188    1.0000 </r>
       <r>   -5.3356    1.0000 </r>
       <r>   -5.3356    1.0000 </r>
       <r>   -4.1908    1.0000 </r>
       <r>   -4.1908    1.0000 </r>
       <r>   -3.8105    1.0000 </r>
       <r>   -3.8105    1.0000 </r>
       <r>    3.6641    0.0000 </r>
       <r>    3.6641    0.0000 </r>
       <r>    5.4853    0.0000 </r>
       <r>    5.4853    0.0000 </r>
       <r>    6.4162    0.0000 </r>
       <r>    6.4162    0.0000 </r>
       <r>    7.2756    0.0000 </r>
       <r>    7.2756    0.0000 </r>
       <r>    8.0088    0.0000 </r>
       <r>    8.0088    0.0000 </r>
       <r>    9.3324    0.0000 </r>
       <r>    9.3324    0.0000 </r>
      </set>
      <set comment="kpoint 17">
       <r>  -16.1781    1.0000 </r>
       <r>  -16.1781    1.0000 </r>
       <r>   -5.4425    1.0000 </r>
       <r>   -5.4425    1.0000 </r>
       <r>   -4.3225    1.0000 </r>
       <r>   -4.3225    1.0000 </r>
       <r>   -3.9529    1.0000 </r>
       <r>   -3.9529    1.0000 </r>
       <r>    3.8512    0.0000 </r>
       <r>    3.8512    0.0000 </r>
       <r>    4.8708    0.0000 </r>
       <r>    4.8708    0.0000 </r>
       <r>    6.4730    0.0000 </r>
       <r>    6.4730    0.0000 </r>
       <r>    8.1168    0.0000 </r>
       <r>    8.1168    0.0000 </r>
       <r>    8.2316    0.0000 </r>
       <r>    8.2316    0.0000 </r>
       <r>    9.6761    0.0000 </r>
       <r>    9.6761    0.0000 </r>
      </set>
      <set comment="kpoint 18">
       <r>  -16.1229    1.0000 </r>
       <r>  -16.1229    1.0000 </r>
       <r>   -5.6202    1.0000 </r>
       <r>   -5.6202    1.0000 </r>
       <r>   -4.5104    1.0000 </r>
       <r>   -4.5104    1.0000 </r>
       <r>   -4.0813    1.0000 </r>
       <r>   -4.0813    1.0000 </r>
       <r>    3.9964    0.0000 </r>
       <r>    3.9964    0.0000 </r>
       <r>    4.8131    0.0000 </r>
       <r>    4.8131    0.0000 </r>
       <r>    6.5246    0.0000 </r>
       <r>    6.5246    0.0000 </r>
       <r>    8.2177    0.0000 </r>
       <r>    8.2177    0.0000 </r>
       <r>    9.3806    0.0000 </r>
       <r>    9.3807    0.0000 </r>
       <r>   10.6504    0.0000 </r>
       <r>   10.6504    0.0000 </r>
      </set>
      <set comment="kpoint 19">
       <r>  -16.0948    1.0000 </r>
       <r>  -16.0948    1.0000 </r>
       <r>   -5.6829    1.0000 </r>
       <r>   -5.6829    1.0000 </r>
       <r>   -4.6557    1.0000 </r>
       <r>   -4.6557    1.0000 </r>
       <r>   -4.1443    1.0000 </r>
       <r>   -4.1443    1.0000 </r>
       <r>    4.2853    0.0000 </r>
       <r>    4.2853    0.0000 </r>
       <r>    5.2491    0.0000 </r>
       <r>    5.2491    0.0000 </r>
       <r>    6.5509    0.0000 </r>
       <r>    6.5509    0.0000 </r>
       <r>    7.7714    0.0000 </r>
       <r>    7.7714    0.0000 </r>
       <r>    9.3969    0.0000 </r>
       <r>    9.3969    0.0000 </r>
       <r>   10.0946    0.0000 </r>
       <r>   10.0946    0.0000 </r>
      </set>
      <set comment="kpoint 20">
       <r>  -16.1165    1.0000 </r>
       <r>  -16.1165    1.0000 </r>
       <r>   -5.6313    1.0000 </r>
       <r>   -5.6313    1.0000 </r>
       <r>   -4.6282    1.0000 </r>
       <r>   -4.6282    1.0000 </r>
       <r>   -4.0474    1.0000 </r>
       <r>   -4.0474    1.0000 </r>
       <r>    4.8281    0.0000 </r>
       <r>    4.8281    0.0000 </r>
       <r>    5.3265    0.0000 </r>
       <r>    5.3265    0.0000 </r>
       <r>    6.0085    0.0000 </r>
       <r>    6.0085    0.0000 </r>
       <r>    7.3788    0.0000 </r>
       <r>    7.3788    0.0000 </r>
       <r>    8.6997    0.0000 </r>
       <r>    8.6997    0.0000 </r>
       <r>    9.9656    0.0000 </r>
       <r>    9.9656    0.0000 </r>
      </set>
      <set comment="kpoint 21">
       <r>  -16.1704    1.0000 </r>
       <r>  -16.1704    1.0000 </r>
       <r>   -5.5423    1.0000 </r>
       <r>   -5.5423    1.0000 </r>
       <r>   -4.3897    1.0000 </r>
       <r>   -4.3897    1.0000 </r>
       <r>   -3.8553    1.0000 </r>
       <r>   -3.8553    1.0000 </r>
       <r>    4.1275    0.0000 </r>
       <r>    4.1275    0.0000 </r>
       <r>    5.8649    0.0000 </r>
       <r>    5.8649    0.0000 </r>
       <r>    6.0717    0.0000 </r>
       <r>    6.0717    0.0000 </r>
       <r>    6.8933    0.0000 </r>
       <r>    6.8933    0.0000 </r>
       <r>    8.3346    0.0000 </r>
       <r>    8.3346    0.0000 </r>
       <r>   10.4955    0.0000 </r>
       <r>   10.5326    0.0000 </r>
      </set>
      <set comment="kpoint 22">
       <r>  -16.1502    1.0000 </r>
       <r>  -16.1501    1.0000 </r>
       <r>   -5.7294    1.0000 </r>
       <r>   -5.7294    1.0000 </r>
       <r>   -4.3899    1.0000 </r>
       <r>   -4.3899    1.0000 </r>
       <r>   -3.7814    1.0000 </r>
       <r>   -3.7814    1.0000 </r>
       <r>    3.7129    0.0000 </r>
       <r>    3.7129    0.0000 </r>
       <r>    6.4012    0.0000 </r>
       <r>    6.4012    0.0000 </r>
       <r>    6.4578    0.0000 </r>
       <r>    6.4578    0.0000 </r>
       <r>    6.6995    0.0000 </r>
       <r>    6.6995    0.0000 </r>
       <r>    9.3475    0.0000 </r>
       <r>    9.3475    0.0000 </r>
       <r>   10.0958    0.0000 </r>
       <r>   10.0979    0.0000 </r>
      </set>
      <set comment="kpoint 23">
       <r>  -16.1485    1.0000 </r>
       <r>  -16.1485    1.0000 </r>
       <r>   -5.6349    1.0000 </r>
       <r>   -5.6349    1.0000 </r>
       <r>   -4.4304    1.0000 </r>
       <r>   -4.4304    1.0000 </r>
       <r>   -3.9049    1.0000 </r>
       <r>   -3.9049    1.0000 </r>
       <r>    4.0989    0.0000 </r>
       <r>    4.0989    0.0000 </r>
       <r>    5.6316    0.0000 </r>
       <r>    5.6316    0.0000 </r>
       <r>    6.2877    0.0000 </r>
       <r>    6.2877    0.0000 </r>
       <r>    6.9572    0.0000 </r>
       <r>    6.9572    0.0000 </r>
       <r>    9.2949    0.0000 </r>
       <r>    9.2949    0.0000 </r>
       <r>   10.4616    0.0000 </r>
       <r>   10.4703    0.0000 </r>
      </set>
      <set comment="kpoint 24">
       <r>  -16.1229    1.0000 </r>
       <r>  -16.1229    1.0000 </r>
       <r>   -5.6202    1.0000 </r>
       <r>   -5.6202    1.0000 </r>
       <r>   -4.5104    1.0000 </r>
       <r>   -4.5104    1.0000 </r>
       <r>   -4.0813    1.0000 </r>
       <r>   -4.0813    1.0000 </r>
       <r>    3.9964    0.0000 </r>
       <r>    3.9964    0.0000 </r>
       <r>    4.8131    0.0000 </r>
       <r>    4.8131    0.0000 </r>
       <r>    6.5246    0.0000 </r>
       <r>    6.5246    0.0000 </r>
       <r>    8.2177    0.0000 </r>
       <r>    8.2177    0.0000 </r>
       <r>    9.3806    0.0000 </r>
       <r>    9.3807    0.0000 </r>
       <r>   10.6504    0.0000 </r>
       <r>   10.6504    0.0000 </r>
      </set>
      <set comment="kpoint 25">
       <r>  -16.0919    1.0000 </r>
       <r>  -16.0919    1.0000 </r>
       <r>   -5.7165    1.0000 </r>
       <r>   -5.7165    1.0000 </r>
       <r>   -4.5858    1.0000 </r>
       <r>   -4.5858    1.0000 </r>
       <r>   -4.1315    1.0000 </r>
       <r>   -4.1315    1.0000 </r>
       <r>    3.5291    0.0000 </r>
       <r>    3.5291    0.0000 </r>
       <r>    4.3308    0.0000 </r>
       <r>    4.3308    0.0000 </r>
       <r>    7.7625    0.0000 </r>
       <r>    7.7625    0.0000 </r>
       <r>    9.7385    0.0000 </r>
       <r>    9.7385    0.0000 </r>
       <r>    9.9078    0.0000 </r>
       <r>    9.9078    0.0000 </r>
       <r>   10.4700    0.0000 </r>
       <r>   10.4700    0.0000 </r>
      </set>
      <set comment="kpoint 26">
       <r>  -16.0794    1.0000 </r>
       <r>  -16.0794    1.0000 </r>
       <r>   -5.7272    1.0000 </r>
       <r>   -5.7272    1.0000 </r>
       <r>   -4.6421    1.0000 </r>
       <r>   -4.6421    1.0000 </r>
       <r>   -4.2014    1.0000 </r>
       <r>   -4.2014    1.0000 </r>
       <r>    3.6951    0.0000 </r>
       <r>    3.6951    0.0000 </r>
       <r>    4.5692    0.0000 </r>
       <r>    4.5692    0.0000 </r>
       <r>    7.6054    0.0000 </r>
       <r>    7.6054    0.0000 </r>
       <r>    9.1390    0.0000 </r>
       <r>    9.1390    0.0000 </r>
       <r>    9.8200    0.0000 </r>
       <r>    9.8200    0.0000 </r>
       <r>   10.7253    0.0000 </r>
       <r>   10.7253    0.0000 </r>
      </set>
      <set comment="kpoint 27">
       <r>  -16.0948    1.0000 </r>
       <r>  -16.0948    1.0000 </r>
       <r>   -5.6829    1.0000 </r>
       <r>   -5.6829    1.0000 </r>
       <r>   -4.6557    1.0000 </r>
       <r>   -4.6557    1.0000 </r>
       <r>   -4.1443    1.0000 </r>
       <r>   -4.1443    1.0000 </r>
       <r>    4.2853    0.0000 </r>
       <r>    4.2853    0.0000 </r>
       <r>    5.2491    0.0000 </r>
       <r>    5.2491    0.0000 </r>
       <r>    6.5509    0.0000 </r>
       <r>    6.5509    0.0000 </r>
       <r>    7.7714    0.0000 </r>
       <r>    7.7714    0.0000 </r>
       <r>    9.3969    0.0000 </r>
       <r>    9.3969    0.0000 </r>
       <r>   10.0946    0.0000 </r>
       <r>   10.0946    0.0000 </r>
      </set>
      <set comment="kpoint 28">
       <r>  -16.1263    1.0000 </r>
       <r>  -16.1263    1.0000 </r>
       <r>   -5.7296    1.0000 </r>
       <r>   -5.7296    1.0000 </r>
       <r>   -4.5018    1.0000 </r>
       <r>   -4.5018    1.0000 </r>
       <r>   -3.9272    1.0000 </r>
       <r>   -3.9272    1.0000 </r>
       <r>    4.1747    0.0000 </r>
       <r>    4.1747    0.0000 </r>
       <r>    5.5717    0.0000 </r>
       <r>    5.5717    0.0000 </r>
       <r>    6.7252    0.0000 </r>
       <r>    6.7252    0.0000 </r>
       <r>    6.8319    0.0000 </r>
       <r>    6.8319    0.0000 </r>
       <r>    9.9372    0.0000 </r>
       <r>    9.9372    0.0000 </r>
       <r>   10.0874    0.0000 </r>
       <r>   10.0874    0.0000 </r>
      </set>
      <set comment="kpoint 29">
       <r>  -16.1502    1.0000 </r>
       <r>  -16.1501    1.0000 </r>
       <r>   -5.7294    1.0000 </r>
       <r>   -5.7294    1.0000 </r>
       <r>   -4.3899    1.0000 </r>
       <r>   -4.3899    1.0000 </r>
       <r>   -3.7814    1.0000 </r>
       <r>   -3.7814    1.0000 </r>
       <r>    3.7129    0.0000 </r>
       <r>    3.7129    0.0000 </r>
       <r>    6.4012    0.0000 </r>
       <r>    6.4012    0.0000 </r>
       <r>    6.4578    0.0000 </r>
       <r>    6.4578    0.0000 </r>
       <r>    6.6995    0.0000 </r>
       <r>    6.6995    0.0000 </r>
       <r>    9.3475    0.0000 </r>
       <r>    9.3475    0.0000 </r>
       <r>   10.0953    0.0000 </r>
       <r>   10.0980    0.0000 </r>
      </set>
      <set comment="kpoint 30">
       <r>  -16.1263    1.0000 </r>
       <r>  -16.1263    1.0000 </r>
       <r>   -5.7296    1.0000 </r>
       <r>   -5.7296    1.0000 </r>
       <r>   -4.5018    1.0000 </r>
       <r>   -4.5018    1.0000 </r>
       <r>   -3.9272    1.0000 </r>
       <r>   -3.9272    1.0000 </r>
       <r>    4.1747    0.0000 </r>
       <r>    4.1747    0.0000 </r>
       <r>    5.5717    0.0000 </r>
       <r>    5.5717    0.0000 </r>
       <r>    6.7252    0.0000 </r>
       <r>    6.7252    0.0000 </r>
       <r>    6.8319    0.0000 </r>
       <r>    6.8319    0.0000 </r>
       <r>    9.9372    0.0000 </r>
       <r>    9.9372    0.0000 </r>
       <r>   10.0874    0.0000 </r>
       <r>   10.0874    0.0000 </r>
      </set>
      <set comment="kpoint 31">
       <r>  -16.0948    1.0000 </r>
       <r>  -16.0948    1.0000 </r>
       <r>   -5.6829    1.0000 </r>
       <r>   -5.6829    1.0000 </r>
       <r>   -4.6557    1.0000 </r>
       <r>   -4.6557    1.0000 </r>
       <r>   -4.1443    1.0000 </r>
       <r>   -4.1443    1.0000 </r>
       <r>    4.2853    0.0000 </r>
       <r>    4.2853    0.0000 </r>
       <r>    5.2491    0.0000 </r>
       <r>    5.2491    0.0000 </r>
       <r>    6.5509    0.0000 </r>
       <r>    6.5509    0.0000 </r>
       <r>    7.7714    0.0000 </r>
       <r>    7.7714    0.0000 </r>
       <r>    9.3969    0.0000 </r>
       <r>    9.3969    0.0000 </r>
       <r>   10.0946    0.0000 </r>
       <r>   10.0946    0.0000 </r>
      </set>
      <set comment="kpoint 32">
       <r>  -16.0794    1.0000 </r>
       <r>  -16.0794    1.0000 </r>
       <r>   -5.7272    1.0000 </r>
       <r>   -5.7272    1.0000 </r>
       <r>   -4.6421    1.0000 </r>
       <r>   -4.6421    1.0000 </r>
       <r>   -4.2014    1.0000 </r>
       <r>   -4.2014    1.0000 </r>
       <r>    3.6951    0.0000 </r>
       <r>    3.6951    0.0000 </r>
       <r>    4.5692    0.0000 </r>
       <r>    4.5692    0.0000 </r>
       <r>    7.6054    0.0000 </r>
       <r>    7.6054    0.0000 </r>
       <r>    9.1390    0.0000 </r>
       <r>    9.1390    0.0000 </r>
       <r>    9.8200    0.0000 </r>
       <r>    9.8200    0.0000 </r>
       <r>   10.7253    0.0000 </r>
       <r>   10.7253    0.0000 </r>
      </set>
      <set comment="kpoint 33">
       <r>  -16.0919    1.0000 </r>
       <r>  -16.0919    1.0000 </r>
       <r>   -5.7165    1.0000 </r>
       <r>   -5.7165    1.0000 </r>
       <r>   -4.5858    1.0000 </r>
       <r>   -4.5858    1.0000 </r>
       <r>   -4.1315    1.0000 </r>
       <r>   -4.1315    1.0000 </r>
[...]
       <r>     3.6828     0.0000     0.0000 </r>
       <r>     3.7832     0.0000     0.0000 </r>
       <r>     3.8836     0.0000     0.0000 </r>
       <r>     3.9840     0.0000     0.0000 </r>
       <r>     4.0843     0.0000     0.0000 </r>
       <r>     4.1847     0.0000     0.0000 </r>
       <r>     4.2851     0.0000     0.0000 </r>
       <r>     4.3855     0.0000     0.0000 </r>
       <r>     4.4858     0.0000     0.0000 </r>
       <r>     4.5862     0.0000     0.0000 </r>
       <r>     4.6866     0.0000     0.0000 </r>
       <r>     4.7870     0.0000     0.0000 </r>
       <r>     4.8873     0.0000     0.0000 </r>
       <r>     4.9877     0.0000     0.0000 </r>
       <r>     5.0881     0.0000     0.0000 </r>
       <r>     5.1885     0.0000     0.0000 </r>
       <r>     5.2888     0.0000     0.0000 </r>
       <r>     5.3892     0.0000     0.0000 </r>
       <r>     5.4896     0.0000     0.0000 </r>
       <r>     5.5900     0.0000     0.0000 </r>
       <r>     5.6903     0.0000     0.0000 </r>
       <r>     5.7907     0.0000     0.0000 </r>
       <r>     5.8911     0.0000     0.0000 </r>
       <r>     5.9914     0.0000     0.0000 </r>
       <r>     6.0918     0.0000     0.0000 </r>
       <r>     6.1922     0.0000     0.0000 </r>
       <r>     6.2926     0.0000     0.0000 </r>
       <r>     6.3929     0.0000     0.0000 </r>
       <r>     6.4933     0.0000     0.0000 </r>
       <r>     6.5937     0.0000     0.0000 </r>
       <r>     6.6941     0.0000     0.0000 </r>
       <r>     6.7944     0.0000     0.0000 </r>
       <r>     6.8948     0.0000     0.0000 </r>
       <r>     6.9952     0.0000     0.0000 </r>
       <r>     7.0956     0.0000     0.0000 </r>
       <r>     7.1959     0.0000     0.0000 </r>
       <r>     7.2963     0.0000     0.0000 </r>
       <r>     7.3967     0.0000     0.0000 </r>
       <r>     7.4971     0.0000     0.0000 </r>
       <r>     7.5974     0.0000     0.0000 </r>
       <r>     7.6978     0.0000     0.0000 </r>
       <r>     7.7982     0.0000     0.0000 </r>
       <r>     7.8986     0.0000     0.0000 </r>
       <r>     7.9989     0.0000     0.0000 </r>
       <r>     8.0993     0.0000     0.0000 </r>
       <r>     8.1997     0.0000     0.0000 </r>
       <r>     8.3001     0.0000     0.0000 </r>
       <r>     8.4004     0.0000     0.0000 </r>
       <r>     8.5008     0.0000     0.0000 </r>
       <r>     8.6012     0.0000     0.0000 </r>
       <r>     8.7016     0.0000     0.0000 </r>
       <r>     8.8019     0.0000     0.0000 </r>
       <r>     8.9023     0.0000     0.0000 </r>
       <r>     9.0027     0.0000     0.0000 </r>
       <r>     9.1031     0.0000     0.0000 </r>
       <r>     9.2034     0.0000     0.0000 </r>
       <r>     9.3038     0.0000     0.0000 </r>
       <r>     9.4042     0.0000     0.0000 </r>
       <r>     9.5046     0.0000     0.0000 </r>
       <r>     9.6049     0.0000     0.0000 </r>
       <r>     9.7053     0.0000     0.0000 </r>
       <r>     9.8057     0.0000     0.0000 </r>
       <r>     9.9061     0.0000     0.0000 </r>
       <r>    10.0064     0.0000     0.0000 </r>
       <r>    10.1068     0.0000     0.0000 </r>
       <r>    10.2072     0.0000     0.0000 </r>
       <r>    10.3076     0.0000     0.0000 </r>
       <r>    10.4079     0.0000     0.0000 </r>
       <r>    10.5083     0.0000     0.0000 </r>
       <r>    10.6087     0.0000     0.0000 </r>
       <r>    10.7091     0.0000     0.0000 </r>
       <r>    10.8094     0.0000     0.0000 </r>
       <r>    10.9098     0.0000     0.0000 </r>
       <r>    11.0102     0.0000     0.0000 </r>
       <r>    11.1106     0.0000     0.0000 </r>
       <r>    11.2109     0.0000     0.0000 </r>
       <r>    11.3113     0.0000     0.0000 </r>
       <r>    11.4117     0.0000     0.0000 </r>
       <r>    11.5121     0.0000     0.0000 </r>
       <r>    11.6124     0.0000     0.0000 </r>
       <r>    11.7128     0.0000     0.0000 </r>
       <r>    11.8132     0.0000     0.0000 </r>
       <r>    11.9136     0.0000     0.0000 </r>
       <r>    12.0139     0.0000     0.0000 </r>
       <r>    12.1143     0.0000     0.0000 </r>
       <r>    12.2147     0.0000     0.0000 </r>
       <r>    12.3151     0.0000     0.0000 </r>
       <r>    12.4154     0.0000     0.0000 </r>
      </set>
      <set comment="spin 4">
       <r>   -17.6970     0.0000     0.0000 </r>
       <r>   -17.5966     0.0000     0.0000 </r>
       <r>   -17.4962     0.0000     0.0000 </r>
       <r>   -17.3959     0.0000     0.0000 </r>
       <r>   -17.2955     0.0000     0.0000 </r>
       <r>   -17.1951     0.0000     0.0000 </r>
       <r>   -17.0947     0.0000     0.0000 </r>
       <r>   -16.9944     0.0000     0.0000 </r>
       <r>   -16.8940     0.0000     0.0000 </r>
       <r>   -16.7936     0.0000     0.0000 </r>
       <r>   -16.6932     0.0000     0.0000 </r>
       <r>   -16.5929     0.0000     0.0000 </r>
       <r>   -16.4925     0.0000     0.0000 </r>
       <r>   -16.3921     0.0000     0.0000 </r>
       <r>   -16.2917     0.0000     0.0000 </r>
       <r>   -16.1914     0.0000     0.0000 </r>
       <r>   -16.0910     0.0000     0.0000 </r>
       <r>   -15.9906     0.0000     0.0000 </r>
       <r>   -15.8902     0.0000     0.0000 </r>
       <r>   -15.7899     0.0000     0.0000 </r>
       <r>   -15.6895     0.0000     0.0000 </r>
       <r>   -15.5891     0.0000     0.0000 </r>
       <r>   -15.4887     0.0000     0.0000 </r>
       <r>   -15.3884     0.0000     0.0000 </r>
       <r>   -15.2880     0.0000     0.0000 </r>
       <r>   -15.1876     0.0000     0.0000 </r>
       <r>   -15.0872     0.0000     0.0000 </r>
       <r>   -14.9869     0.0000     0.0000 </r>
       <r>   -14.8865     0.0000     0.0000 </r>
       <r>   -14.7861     0.0000     0.0000 </r>
       <r>   -14.6857     0.0000     0.0000 </r>
       <r>   -14.5854     0.0000     0.0000 </r>
       <r>   -14.4850     0.0000     0.0000 </r>
       <r>   -14.3846     0.0000     0.0000 </r>
       <r>   -14.2842     0.0000     0.0000 </r>
       <r>   -14.1839     0.0000     0.0000 </r>
       <r>   -14.0835     0.0000     0.0000 </r>
       <r>   -13.9831     0.0000     0.0000 </r>
       <r>   -13.8827     0.0000     0.0000 </r>
       <r>   -13.7824     0.0000     0.0000 </r>
       <r>   -13.6820     0.0000     0.0000 </r>
       <r>   -13.5816     0.0000     0.0000 </r>
       <r>   -13.4812     0.0000     0.0000 </r>
       <r>   -13.3809     0.0000     0.0000 </r>
       <r>   -13.2805     0.0000     0.0000 </r>
       <r>   -13.1801     0.0000     0.0000 </r>
       <r>   -13.0797     0.0000     0.0000 </r>
       <r>   -12.9794     0.0000     0.0000 </r>
       <r>   -12.8790     0.0000     0.0000 </r>
       <r>   -12.7786     0.0000     0.0000 </r>
       <r>   -12.6782     0.0000     0.0000 </r>
       <r>   -12.5779     0.0000     0.0000 </r>
       <r>   -12.4775     0.0000     0.0000 </r>
       <r>   -12.3771     0.0000     0.0000 </r>
       <r>   -12.2767     0.0000     0.0000 </r>
       <r>   -12.1764     0.0000     0.0000 </r>
       <r>   -12.0760     0.0000     0.0000 </r>
       <r>   -11.9756     0.0000     0.0000 </r>
       <r>   -11.8752     0.0000     0.0000 </r>
       <r>   -11.7749     0.0000     0.0000 </r>
       <r>   -11.6745     0.0000     0.0000 </r>
       <r>   -11.5741     0.0000     0.0000 </r>
       <r>   -11.4737     0.0000     0.0000 </r>
       <r>   -11.3734     0.0000     0.0000 </r>
       <r>   -11.2730     0.0000     0.0000 </r>
       <r>   -11.1726     0.0000     0.0000 </r>
       <r>   -11.0722     0.0000     0.0000 </r>
       <r>   -10.9719     0.0000     0.0000 </r>
       <r>   -10.8715     0.0000     0.0000 </r>
       <r>   -10.7711     0.0000     0.0000 </r>
       <r>   -10.6708     0.0000     0.0000 </r>
       <r>   -10.5704     0.0000     0.0000 </r>
       <r>   -10.4700     0.0000     0.0000 </r>
       <r>   -10.3696     0.0000     0.0000 </r>
       <r>   -10.2693     0.0000     0.0000 </r>
       <r>   -10.1689     0.0000     0.0000 </r>
       <r>   -10.0685     0.0000     0.0000 </r>
       <r>    -9.9681     0.0000     0.0000 </r>
       <r>    -9.8678     0.0000     0.0000 </r>
       <r>    -9.7674     0.0000     0.0000 </r>
       <r>    -9.6670     0.0000     0.0000 </r>
       <r>    -9.5666     0.0000     0.0000 </r>
       <r>    -9.4663     0.0000     0.0000 </r>
       <r>    -9.3659     0.0000     0.0000 </r>
       <r>    -9.2655     0.0000     0.0000 </r>
       <r>    -9.1651     0.0000     0.0000 </r>
       <r>    -9.0648     0.0000     0.0000 </r>
       <r>    -8.9644     0.0000     0.0000 </r>
       <r>    -8.8640     0.0000     0.0000 </r>
       <r>    -8.7636     0.0000     0.0000 </r>
       <r>    -8.6633     0.0000     0.0000 </r>
       <r>    -8.5629     0.0000     0.0000 </r>
       <r>    -8.4625     0.0000     0.0000 </r>
       <r>    -8.3621     0.0000     0.0000 </r>
       <r>    -8.2618     0.0000     0.0000 </r>
       <r>    -8.1614     0.0000     0.0000 </r>
       <r>    -8.0610     0.0000     0.0000 </r>
       <r>    -7.9606     0.0000     0.0000 </r>
       <r>    -7.8603     0.0000     0.0000 </r>
       <r>    -7.7599     0.0000     0.0000 </r>
       <r>    -7.6595     0.0000     0.0000 </r>
       <r>    -7.5591     0.0000     0.0000 </r>
       <r>    -7.4588     0.0000     0.0000 </r>
       <r>    -7.3584     0.0000     0.0000 </r>
       <r>    -7.2580     0.0000     0.0000 </r>
       <r>    -7.1576     0.0000     0.0000 </r>
       <r>    -7.0573     0.0000     0.0000 </r>
       <r>    -6.9569     0.0000     0.0000 </r>
       <r>    -6.8565     0.0000     0.0000 </r>
       <r>    -6.7561     0.0000     0.0000 </r>
       <r>    -6.6558     0.0000     0.0000 </r>
       <r>    -6.5554     0.0000     0.0000 </r>
       <r>    -6.4550     0.0000     0.0000 </r>
       <r>    -6.3546     0.0000     0.0000 </r>
       <r>    -6.2543     0.0000     0.0000 </r>
       <r>    -6.1539     0.0000     0.0000 </r>
       <r>    -6.0535     0.0000     0.0000 </r>
       <r>    -5.9531     0.0000     0.0000 </r>
       <r>    -5.8528     0.0000     0.0000 </r>
       <r>    -5.7524     0.0000     0.0000 </r>
       <r>    -5.6520     0.0000     0.0000 </r>
       <r>    -5.5516     0.0000     0.0000 </r>
       <r>    -5.4513     0.0000     0.0000 </r>
       <r>    -5.3509     0.0000     0.0000 </r>
       <r>    -5.2505     0.0000     0.0000 </r>
       <r>    -5.1501     0.0000     0.0000 </r>
       <r>    -5.0498     0.0000     0.0000 </r>
       <r>    -4.9494     0.0000     0.0000 </r>
       <r>    -4.8490     0.0000     0.0000 </r>
       <r>    -4.7486     0.0000     0.0000 </r>
       <r>    -4.6483     0.0000     0.0000 </r>
       <r>    -4.5479     0.0000     0.0000 </r>
       <r>    -4.4475     0.0000     0.0000 </r>
       <r>    -4.3471     0.0000     0.0000 </r>
       <r>    -4.2468     0.0000     0.0000 </r>
       <r>    -4.1464     0.0000     0.0000 </r>
       <r>    -4.0460     0.0000     0.0000 </r>
       <r>    -3.9456     0.0000     0.0000 </r>
       <r>    -3.8453     0.0000     0.0000 </r>
       <r>    -3.7449     0.0000     0.0000 </r>
       <r>    -3.6445     0.0000     0.0000 </r>
       <r>    -3.5441     0.0000     0.0000 </r>
       <r>    -3.4438     0.0000     0.0000 </r>
       <r>    -3.3434     0.0000     0.0000 </r>
       <r>    -3.2430     0.0000     0.0000 </r>
       <r>    -3.1426     0.0000     0.0000 </r>
       <r>    -3.0423     0.0000     0.0000 </r>
       <r>    -2.9419     0.0000     0.0000 </r>
       <r>    -2.8415     0.0000     0.0000 </r>
       <r>    -2.7411     0.0000     0.0000 </r>
       <r>    -2.6408     0.0000     0.0000 </r>
       <r>    -2.5404     0.0000     0.0000 </r>
       <r>    -2.4400     0.0000     0.0000 </r>
       <r>    -2.3397     0.0000     0.0000 </r>
       <r>    -2.2393     0.0000     0.0000 </r>
       <r>    -2.1389     0.0000     0.0000 </r>
       <r>    -2.0385     0.0000     0.0000 </r>
       <r>    -1.9382     0.0000     0.0000 </r>
       <r>    -1.8378     0.0000     0.0000 </r>
       <r>    -1.7374     0.0000     0.0000 </r>
       <r>    -1.6370     0.0000     0.0000 </r>
       <r>    -1.5367     0.0000     0.0000 </r>
       <r>    -1.4363     0.0000     0.0000 </r>
       <r>    -1.3359     0.0000     0.0000 </r>
       <r>    -1.2355     0.0000     0.0000 </r>
       <r>    -1.1352     0.0000     0.0000 </r>
       <r>    -1.0348     0.0000     0.0000 </r>
       <r>    -0.9344     0.0000     0.0000 </r>
       <r>    -0.8340     0.0000     0.0000 </r>
       <r>    -0.7337     0.0000     0.0000 </r>
       <r>    -0.6333     0.0000     0.0000 </r>
       <r>    -0.5329     0.0000     0.0000 </r>
       <r>    -0.4325     0.0000     0.0000 </r>
       <r>    -0.3322     0.0000     0.0000 </r>
       <r>    -0.2318     0.0000     0.0000 </r>
       <r>    -0.1314     0.0000     0.0000 </r>
       <r>    -0.0310     0.0000     0.0000 </r>
       <r>     0.0693     0.0000     0.0000 </r>
       <r>     0.1697     0.0000     0.0000 </r>
       <r>     0.2701     0.0000     0.0000 </r>
       <r>     0.3705     0.0000     0.0000 </r>
       <r>     0.4708     0.0000     0.0000 </r>
       <r>     0.5712     0.0000     0.0000 </r>
       <r>     0.6716     0.0000     0.0000 </r>
       <r>     0.7720     0.0000     0.0000 </r>
       <r>     0.8723     0.0000     0.0000 </r>
       <r>     0.9727     0.0000     0.0000 </r>
       <r>     1.0731     0.0000     0.0000 </r>
       <r>     1.1735     0.0000     0.0000 </r>
       <r>     1.2738     0.0000     0.0000 </r>
       <r>     1.3742     0.0000     0.0000 </r>
       <r>     1.4746     0.0000     0.0000 </r>
       <r>     1.5750     0.0000     0.0000 </r>
       <r>     1.6753     0.0000     0.0000 </r>
       <r>     1.7757     0.0000     0.0000 </r>
       <r>     1.8761     0.0000     0.0000 </r>
       <r>     1.9765     0.0000     0.0000 </r>
       <r>     2.0768     0.0000     0.0000 </r>
       <r>     2.1772     0.0000     0.0000 </r>
       <r>     2.2776     0.0000     0.0000 </r>
       <r>     2.3780     0.0000     0.0000 </r>
       <r>     2.4783     0.0000     0.0000 </r>
       <r>     2.5787     0.0000     0.0000 </r>
       <r>     2.6791     0.0000     0.0000 </r>
       <r>     2.7795     0.0000     0.0000 </r>
       <r>     2.8798     0.0000     0.0000 </r>
       <r>     2.9802     0.0000     0.0000 </r>
       <r>     3.0806     0.0000     0.0000 </r>
       <r>     3.1810     0.0000     0.0000 </r>
       <r>     3.2813     0.0000     0.0000 </r>
       <r>     3.3817     0.0000     0.0000 </r>
       <r>     3.4821     0.0000     0.0000 </r>
       <r>     3.5825     0.0000     0.0000 </r>
       <r>     3.6828     0.0000     0.0000 </r>
       <r>     3.7832     0.0000     0.0000 </r>
       <r>     3.8836     0.0000     0.0000 </r>
       <r>     3.9840     0.0000     0.0000 </r>
       <r>     4.0843     0.0000     0.0000 </r>
       <r>     4.1847     0.0000     0.0000 </r>
       <r>     4.2851     0.0000     0.0000 </r>
       <r>     4.3855     0.0000     0.0000 </r>
       <r>     4.4858     0.0000     0.0000 </r>
       <r>     4.5862     0.0000     0.0000 </r>
       <r>     4.6866     0.0000     0.0000 </r>
       <r>     4.7870     0.0000     0.0000 </r>
       <r>     4.8873     0.0000     0.0000 </r>
       <r>     4.9877     0.0000     0.0000 </r>
       <r>     5.0881     0.0000     0.0000 </r>
       <r>     5.1885     0.0000     0.0000 </r>
       <r>     5.2888     0.0000     0.0000 </r>
       <r>     5.3892     0.0000     0.0000 </r>
       <r>     5.4896     0.0000     0.0000 </r>
       <r>     5.5900     0.0000     0.0000 </r>
       <r>     5.6903     0.0000     0.0000 </r>
       <r>     5.7907     0.0000     0.0000 </r>
       <r>     5.8911     0.0000     0.0000 </r>
       <r>     5.9914     0.0000     0.0000 </r>
       <r>     6.0918     0.0000     0.0000 </r>
       <r>     6.1922     0.0000     0.0000 </r>
       <r>     6.2926     0.0000     0.0000 </r>
       <r>     6.3929     0.0000     0.0000 </r>
       <r>     6.4933     0.0000     0.0000 </r>
       <r>     6.5937     0.0000     0.0000 </r>
       <r>     6.6941     0.0000     0.0000 </r>
       <r>     6.7944     0.0000     0.0000 </r>
       <r>     6.8948     0.0000     0.0000 </r>
       <r>     6.9952     0.0000     0.0000 </r>
       <r>     7.0956     0.0000     0.0000 </r>
       <r>     7.1959     0.0000     0.0000 </r>
       <r>     7.2963     0.0000     0.0000 </r>
       <r>     7.3967     0.0000     0.0000 </r>
       <r>     7.4971     0.0000     0.0000 </r>
       <r>     7.5974     0.0000     0.0000 </r>
       <r>     7.6978     0.0000     0.0000 </r>
       <r>     7.7982     0.0000     0.0000 </r>
       <r>     7.8986     0.0000     0.0000 </r>
       <r>     7.9989     0.0000     0.0000 </r>
       <r>     8.0993     0.0000     0.0000 </r>
       <r>     8.1997     0.0000     0.0000 </r>
       <r>     8.3001     0.0000     0.0000 </r>
       <r>     8.4004     0.0000     0.0000 </r>
       <r>     8.5008     0.0000     0.0000 </r>
       <r>     8.6012     0.0000     0.0000 </r>
       <r>     8.7016     0.0000     0.0000 </r>
       <r>     8.8019     0.0000     0.0000 </r>
       <r>     8.9023     0.0000     0.0000 </r>
       <r>     9.0027     0.0000     0.0000 </r>
       <r>     9.1031     0.0000     0.0000 </r>
       <r>     9.2034     0.0000     0.0000 </r>
       <r>     9.3038     0.0000     0.0000 </r>
       <r>     9.4042     0.0000     0.0000 </r>
       <r>     9.5046     0.0000     0.0000 </r>
       <r>     9.6049     0.0000     0.0000 </r>
       <r>     9.7053     0.0000     0.0000 </r>
       <r>     9.8057     0.0000     0.0000 </r>
       <r>     9.9061     0.0000     0.0000 </r>
       <r>    10.0064     0.0000     0.0000 </r>
       <r>    10.1068     0.0000     0.0000 </r>
       <r>    10.2072     0.0000     0.0000 </r>
       <r>    10.3076     0.0000     0.0000 </r>
       <r>    10.4079     0.0000     0.0000 </r>
       <r>    10.5083     0.0000     0.0000 </r>
       <r>    10.6087     0.0000     0.0000 </r>
       <r>    10.7091     0.0000     0.0000 </r>
       <r>    10.8094     0.0000     0.0000 </r>
       <r>    10.9098     0.0000     0.0000 </r>
       <r>    11.0102     0.0000     0.0000 </r>
       <r>    11.1106     0.0000     0.0000 </r>
       <r>    11.2109     0.0000     0.0000 </r>
       <r>    11.3113     0.0000     0.0000 </r>
       <r>    11.4117     0.0000     0.0000 </r>
       <r>    11.5121     0.0000     0.0000 </r>
       <r>    11.6124     0.0000     0.0000 </r>
       <r>    11.7128     0.0000     0.0000 </r>
       <r>    11.8132     0.0000     0.0000 </r>
       <r>    11.9136     0.0000     0.0000 </r>
       <r>    12.0139     0.0000     0.0000 </r>
       <r>    12.1143     0.0000     0.0000 </r>
       <r>    12.2147     0.0000     0.0000 </r>
       <r>    12.3151     0.0000     0.0000 </r>
       <r>    12.4154     0.0000     0.0000 </r>
      </set>
     </set>
    </array>
   </total>
  </dos>
 </calculation>
 <structure name="finalpos" >
  <crystal>
   <varray name="basis" >
    <v>       4.43220013       0.00000000       0.00000000 </v>
    <v>       2.21610006       3.83839790      -0.00000000 </v>
    <v>       2.21610006       1.27946597       3.61887625 </v>
   </varray>
   <i name="volume">     61.56630471 </i>
   <varray name="rec_basis" >
    <v>       0.22562158      -0.13026268      -0.09210962 </v>
    <v>       0.00000000       0.26052536      -0.09210962 </v>
    <v>      -0.00000000       0.00000000       0.27632887 </v>
   </varray>
  </crystal>
  <varray name="positions" >
   <v>       0.00000000       0.00000000       0.00000000 </v>
  </varray>
  <varray name="velocities" >
   <v>       0.00000000       0.00000000       0.00000000 </v>
  </varray>
 </structure>
</modeling>
