   1   1   0   0
  0.1628488E+02  0.2845115E-09  0.2845115E-09  0.2845115E-09  0.1000000E-15
  1.000000000000000E-004
  CAR 
 Og_FCC                                  
    246.78696814    -28.31361706  301    -14.32933731      1.00000000
    -28.314  0.0000E+00  0.0000E+00
    -27.397  0.0000E+00  0.0000E+00
    -26.480  0.0000E+00  0.0000E+00
    -25.563  0.0000E+00  0.0000E+00
    -24.646  0.0000E+00  0.0000E+00
    -23.729  0.0000E+00  0.0000E+00
    -22.812  0.0000E+00  0.0000E+00
    -21.895  0.0000E+00  0.0000E+00
    -20.978  0.0000E+00  0.0000E+00
    -20.061  0.0000E+00  0.0000E+00
    -19.144  0.0000E+00  0.0000E+00
    -18.227  0.0000E+00  0.0000E+00
    -17.310  0.0000E+00  0.0000E+00
    -16.393  0.0000E+00  0.0000E+00
    -15.476  0.0000E+00  0.1389E+00
    -14.559  0.0000E+00  0.2000E+01
    -13.642  0.0000E+00  0.2000E+01
    -12.725  0.0000E+00  0.2000E+01
    -11.808  0.0000E+00  0.2000E+01
    -10.891  0.0000E+00  0.2000E+01
     -9.974  0.0000E+00  0.2000E+01
     -9.057  0.0000E+00  0.2000E+01
     -8.140  0.0000E+00  0.2000E+01
     -7.223  0.0000E+00  0.2000E+01
     -6.306  0.0000E+00  0.2000E+01
     -5.389  0.0000E+00  0.2000E+01
     -4.472  0.0000E+00  0.2000E+01
     -3.555  0.0000E+00  0.2000E+01
     -2.638  0.0000E+00  0.2000E+01
     -1.721  0.0000E+00  0.2000E+01
     -0.804  0.0000E+00  0.2000E+01
      0.113  0.0000E+00  0.2000E+01
      1.030  0.0000E+00  0.2000E+01
      1.947  0.0000E+00  0.2000E+01
      2.864  0.0000E+00  0.2000E+01
      3.781  0.0000E+00  0.3028E+01
      4.698  0.0000E+00  0.3306E+01
      5.615  0.0000E+00  0.3889E+01
      6.532  0.0000E+00  0.4000E+01
      7.449  0.0000E+00  0.4111E+01
      8.366  0.0000E+00  0.4333E+01
      9.283  0.0000E+00  0.4778E+01
     10.200  0.0000E+00  0.5509E+01
     11.117  0.0000E+00  0.5509E+01
     12.034  0.0000E+00  0.5806E+01
     12.951  0.0000E+00  0.6472E+01
     13.868  0.0000E+00  0.6806E+01
     14.785  0.0000E+00  0.7139E+01
     15.702  0.0000E+00  0.7278E+01
     16.619  0.0000E+00  0.8296E+01
     17.536  0.0000E+00  0.8630E+01
     18.453  0.0000E+00  0.9519E+01
     19.370  0.0000E+00  0.9741E+01
     20.287  0.0000E+00  0.1028E+02
     21.204  0.0000E+00  0.1031E+02
     22.121  0.0000E+00  0.1144E+02
     23.038  0.0000E+00  0.1197E+02
     23.955  0.0000E+00  0.1264E+02
     24.872  0.0000E+00  0.1296E+02
     25.789  0.0000E+00  0.1351E+02
     26.706  0.0000E+00  0.1406E+02
     27.624  0.0000E+00  0.1436E+02
     28.541  0.0000E+00  0.1509E+02
     29.458  0.0000E+00  0.1572E+02
     30.375  0.0000E+00  0.1628E+02
     31.292  0.0000E+00  0.1739E+02
     32.209  0.0000E+00  0.1756E+02
     33.126  0.0000E+00  0.1843E+02
     34.043  0.0000E+00  0.1876E+02
     34.960  0.0000E+00  0.1943E+02
     35.877  0.0000E+00  0.2009E+02
     36.794  0.0000E+00  0.2070E+02
     37.711  0.0000E+00  0.2119E+02
     38.628  0.2138E+00  0.2183E+02
     39.545  0.0000E+00  0.2322E+02
     40.462  0.0000E+00  0.2381E+02
     41.379  0.2423E+00  0.2463E+02
     42.296  0.0000E+00  0.2502E+02
     43.213  0.0000E+00  0.2582E+02
     44.130  0.0000E+00  0.2610E+02
     45.047  0.0000E+00  0.2662E+02
     45.964  0.0000E+00  0.2712E+02
     46.881  0.0000E+00  0.2812E+02
     47.798  0.0000E+00  0.2949E+02
     48.715  0.0000E+00  0.3010E+02
     49.632  0.0000E+00  0.3105E+02
     50.549  0.0000E+00  0.3160E+02
     51.466  0.0000E+00  0.3236E+02
     52.383  0.0000E+00  0.3321E+02
     53.300  0.0000E+00  0.3416E+02
     54.217  0.0000E+00  0.3438E+02
     55.134  0.0000E+00  0.3508E+02
     56.051  0.3750E-14  0.3575E+02
     56.968  0.0000E+00  0.3609E+02
     57.885  0.0000E+00  0.3754E+02
     58.802  0.0000E+00  0.3856E+02
     59.719  0.0000E+00  0.3965E+02
     60.636  0.0000E+00  0.3991E+02
     61.553  0.0000E+00  0.4141E+02
     62.470  0.0000E+00  0.4237E+02
     63.387  0.0000E+00  0.4304E+02
     64.304  0.0000E+00  0.4356E+02
     65.221  0.0000E+00  0.4422E+02
     66.138  0.0000E+00  0.4456E+02
     67.055  0.0000E+00  0.4547E+02
     67.972  0.0000E+00  0.4625E+02
     68.889  0.0000E+00  0.4769E+02
     69.806  0.0000E+00  0.4845E+02
     70.723  0.0000E+00  0.4943E+02
     71.640  0.0000E+00  0.4980E+02
     72.557  0.0000E+00  0.5154E+02
     73.474  0.0000E+00  0.5293E+02
     74.391  0.0000E+00  0.5389E+02
     75.308  0.0000E+00  0.5489E+02
     76.225  0.0000E+00  0.5511E+02
     77.142  0.0000E+00  0.5556E+02
     78.059  0.3029E-01  0.5591E+02
     78.976  0.0000E+00  0.5732E+02
     79.893  0.7976E-01  0.5803E+02
     80.810  0.0000E+00  0.5903E+02
     81.727  0.1212E+00  0.6040E+02
     82.644  0.0000E+00  0.6132E+02
     83.561  0.5634E-04  0.6197E+02
     84.478  0.0000E+00  0.6364E+02
     85.395  0.0000E+00  0.6453E+02
     86.312  0.0000E+00  0.6548E+02
     87.229  0.0000E+00  0.6653E+02
     88.146  0.0000E+00  0.6798E+02
     89.063  0.0000E+00  0.6845E+02
     89.980  0.0000E+00  0.6928E+02
     90.897  0.0000E+00  0.7017E+02
     91.814  0.0000E+00  0.7074E+02
     92.731  0.0000E+00  0.7171E+02
     93.648  0.0000E+00  0.7258E+02
     94.565  0.0000E+00  0.7331E+02
     95.482  0.0000E+00  0.7471E+02
     96.399  0.0000E+00  0.7551E+02
     97.316  0.3029E-01  0.7734E+02
     98.233  0.0000E+00  0.7890E+02
     99.150  0.1616E+00  0.7982E+02
    100.067  0.0000E+00  0.8116E+02
    100.984  0.0000E+00  0.8177E+02
    101.901  0.0000E+00  0.8277E+02
    102.818  0.0000E+00  0.8377E+02
    103.735  0.0000E+00  0.8510E+02
    104.652  0.0000E+00  0.8560E+02
    105.569  0.0000E+00  0.8640E+02
    106.486  0.0000E+00  0.8745E+02
    107.403  0.0000E+00  0.8849E+02
    108.320  0.0000E+00  0.8930E+02
    109.237  0.0000E+00  0.9074E+02
    110.154  0.0000E+00  0.9128E+02
    111.071  0.0000E+00  0.9250E+02
    111.988  0.0000E+00  0.9397E+02
    112.905  0.0000E+00  0.9473E+02
    113.822  0.0000E+00  0.9638E+02
    114.739  0.0000E+00  0.9795E+02
    115.656  0.0000E+00  0.9947E+02
    116.573  0.0000E+00  0.1007E+03
    117.490  0.0000E+00  0.1016E+03
    118.407  0.0000E+00  0.1025E+03
    119.324  0.1616E+00  0.1026E+03
    120.241  0.0000E+00  0.1031E+03
    121.158  0.0000E+00  0.1048E+03
    122.075  0.0000E+00  0.1064E+03
    122.992  0.0000E+00  0.1077E+03
    123.909  0.0000E+00  0.1082E+03
    124.826  0.0000E+00  0.1101E+03
    125.743  0.0000E+00  0.1108E+03
    126.660  0.0000E+00  0.1118E+03
    127.577  0.0000E+00  0.1130E+03
    128.494  0.0000E+00  0.1140E+03
    129.411  0.0000E+00  0.1153E+03
    130.328  0.0000E+00  0.1167E+03
    131.245  0.0000E+00  0.1178E+03
    132.162  0.6960E-05  0.1197E+03
    133.079  0.0000E+00  0.1211E+03
    133.996  0.0000E+00  0.1222E+03
    134.913  0.0000E+00  0.1237E+03
    135.830  0.0000E+00  0.1240E+03
    136.747  0.0000E+00  0.1250E+03
    137.664  0.0000E+00  0.1265E+03
    138.581  0.0000E+00  0.1273E+03
    139.498  0.0000E+00  0.1282E+03
    140.415  0.0000E+00  0.1294E+03
    141.332  0.0000E+00  0.1308E+03
    142.249  0.0000E+00  0.1324E+03
    143.166  0.0000E+00  0.1333E+03
    144.083  0.0000E+00  0.1340E+03
    145.000  0.2768E-01  0.1354E+03
    145.917  0.0000E+00  0.1371E+03
    146.834  0.0000E+00  0.1388E+03
    147.751  0.0000E+00  0.1402E+03
    148.668  0.2423E+00  0.1418E+03
    149.585  0.2423E+00  0.1428E+03
    150.502  0.2859E-15  0.1439E+03
    151.419  0.0000E+00  0.1450E+03
    152.336  0.0000E+00  0.1457E+03
    153.253  0.0000E+00  0.1474E+03
    154.170  0.0000E+00  0.1487E+03
    155.087  0.1212E+00  0.1505E+03
    156.004  0.0000E+00  0.1516E+03
    156.921  0.0000E+00  0.1525E+03
    157.838  0.3165E-02  0.1531E+03
    158.755  0.0000E+00  0.1546E+03
    159.672  0.0000E+00  0.1560E+03
    160.589  0.0000E+00  0.1568E+03
    161.506  0.6701E-09  0.1581E+03
    162.423  0.8511E-01  0.1599E+03
    163.340  0.0000E+00  0.1610E+03
    164.257  0.0000E+00  0.1632E+03
    165.174  0.0000E+00  0.1645E+03
    166.091  0.1665E-03  0.1660E+03
    167.008  0.0000E+00  0.1675E+03
    167.925  0.0000E+00  0.1687E+03
    168.842  0.0000E+00  0.1695E+03
    169.759  0.0000E+00  0.1704E+03
    170.676  0.0000E+00  0.1717E+03
    171.593  0.0000E+00  0.1736E+03
    172.510  0.0000E+00  0.1746E+03
    173.427  0.0000E+00  0.1759E+03
    174.344  0.1550E-01  0.1777E+03
    175.261  0.0000E+00  0.1791E+03
    176.178  0.0000E+00  0.1804E+03
    177.095  0.0000E+00  0.1822E+03
    178.012  0.0000E+00  0.1829E+03
    178.929  0.0000E+00  0.1839E+03
    179.846  0.0000E+00  0.1846E+03
    180.763  0.4560E-04  0.1858E+03
    181.680  0.0000E+00  0.1875E+03
    182.597  0.8547E-07  0.1886E+03
    183.514  0.0000E+00  0.1907E+03
    184.431  0.0000E+00  0.1923E+03
    185.348  0.0000E+00  0.1938E+03
    186.265  0.0000E+00  0.1951E+03
    187.182  0.0000E+00  0.1968E+03
    188.099  0.0000E+00  0.1985E+03
    189.016  0.0000E+00  0.1999E+03
    189.933  0.0000E+00  0.2011E+03
    190.850  0.0000E+00  0.2025E+03
    191.767  0.0000E+00  0.2045E+03
    192.684  0.0000E+00  0.2053E+03
    193.601  0.0000E+00  0.2062E+03
    194.518  0.0000E+00  0.2069E+03
    195.435  0.0000E+00  0.2080E+03
    196.352  0.0000E+00  0.2104E+03
    197.269  0.0000E+00  0.2118E+03
    198.186  0.0000E+00  0.2133E+03
    199.103  0.1052E-06  0.2145E+03
    200.020  0.0000E+00  0.2163E+03
    200.937  0.0000E+00  0.2175E+03
    201.854  0.0000E+00  0.2186E+03
    202.771  0.0000E+00  0.2197E+03
    203.688  0.0000E+00  0.2211E+03
    204.605  0.0000E+00  0.2227E+03
    205.522  0.0000E+00  0.2249E+03
    206.439  0.0000E+00  0.2265E+03
    207.356  0.2423E+00  0.2280E+03
    208.273  0.0000E+00  0.2295E+03
    209.190  0.0000E+00  0.2310E+03
    210.107  0.0000E+00  0.2322E+03
    211.024  0.0000E+00  0.2336E+03
    211.941  0.0000E+00  0.2351E+03
    212.858  0.0000E+00  0.2363E+03
    213.775  0.0000E+00  0.2385E+03
    214.692  0.0000E+00  0.2399E+03
    215.609  0.2423E+00  0.2412E+03
    216.526  0.2423E+00  0.2425E+03
    217.443  0.0000E+00  0.2445E+03
    218.360  0.0000E+00  0.2455E+03
    219.277  0.0000E+00  0.2461E+03
    220.194  0.0000E+00  0.2474E+03
    221.111  0.0000E+00  0.2490E+03
    222.028  0.0000E+00  0.2499E+03
    222.945  0.2423E+00  0.2508E+03
    223.862  0.0000E+00  0.2513E+03
    224.779  0.0000E+00  0.2521E+03
    225.696  0.1886E+00  0.2536E+03
    226.613  0.0000E+00  0.2548E+03
    227.530  0.0000E+00  0.2552E+03
    228.447  0.0000E+00  0.2553E+03
    229.364  0.0000E+00  0.2559E+03
    230.281  0.0000E+00  0.2559E+03
    231.198  0.0000E+00  0.2559E+03
    232.115  0.0000E+00  0.2559E+03
    233.032  0.0000E+00  0.2559E+03
    233.949  0.0000E+00  0.2559E+03
    234.866  0.0000E+00  0.2560E+03
    235.783  0.0000E+00  0.2560E+03
    236.700  0.0000E+00  0.2560E+03
    237.617  0.0000E+00  0.2560E+03
    238.534  0.0000E+00  0.2560E+03
    239.451  0.0000E+00  0.2560E+03
    240.368  0.0000E+00  0.2560E+03
    241.285  0.0000E+00  0.2560E+03
    242.202  0.0000E+00  0.2560E+03
    243.119  0.0000E+00  0.2560E+03
    244.036  0.0000E+00  0.2560E+03
    244.953  0.0000E+00  0.2560E+03
    245.870  0.0000E+00  0.2560E+03
    246.787  0.0000E+00  0.2560E+03
