    1    1    1    1
  0.1628488E+02  0.2845115E-09  0.2845115E-09  0.2845115E-09  0.1000000E-15
  1.000000000000000E-004
  CAR 
 Og_FCC                                  
      2    112    128
 
  0.0000000E+00  0.0000000E+00  0.0000000E+00  0.4629630E-02
    1      -15.809045   1.000000
    2        3.750159   0.000000
    3       20.703959   0.000000
    4       20.703963   0.000000
    5       20.703964   0.000000
    6       24.011118   0.000000
    7       24.011122   0.000000
    8       24.011122   0.000000
    9       25.252547   0.000000
   10       31.784684   0.000000
   11       32.503704   0.000000
   12       32.503711   0.000000
   13       32.503711   0.000000
   14       32.562842   0.000000
   15       32.562842   0.000000
   16       56.852639   0.000000
   17       66.657753   0.000000
   18       66.657763   0.000000
   19       66.657763   0.000000
   20       69.354520   0.000000
   21       69.354529   0.000000
   22       69.354529   0.000000
   23       69.752005   0.000000
   24       69.752005   0.000000
   25       69.752019   0.000000
   26       69.789273   0.000000
   27       69.789273   0.000000
   28       86.221938   0.000000
   29       92.283097   0.000000
   30       92.283122   0.000000
   31       92.283122   0.000000
   32       95.645935   0.000000
   33       95.645935   0.000000
   34       97.281454   0.000000
   35       97.281459   0.000000
   36       97.281459   0.000000
   37       97.312192   0.000000
   38       97.312208   0.000000
   39       97.312208   0.000000
   40       97.666403   0.000000
   41       97.666403   0.000000
   42       97.666408   0.000000
   43       97.810680   0.000000
   44       97.810680   0.000000
   45       97.810698   0.000000
   46       98.507600   0.000000
   47       98.989523   0.000000
   48       98.989545   0.000000
   49       98.989545   0.000000
   50       99.043792   0.000000
   51       99.043792   0.000000
   52      106.722033   0.000000
   53      106.749637   0.000000
   54      106.749651   0.000000
   55      106.749651   0.000000
   56      107.200910   0.000000
   57      107.200923   0.000000
   58      107.200923   0.000000
   59      107.371544   0.000000
   60      141.490140   0.000000
   61      142.947442   0.000000
   62      142.947468   0.000000
   63      142.947469   0.000000
   64      144.637821   0.000000
   65      144.637821   0.000000
   66      160.033904   0.000000
   67      165.297179   0.000000
   68      165.297179   0.000000
   69      165.297183   0.000000
   70      170.020496   0.000000
   71      170.020496   0.000000
   72      170.020520   0.000000
   73      172.078849   0.000000
   74      172.078849   0.000000
   75      172.228094   0.000000
   76      172.364054   0.000000
   77      172.364074   0.000000
   78      172.364074   0.000000
   79      172.640733   0.000000
   80      172.640733   0.000000
   81      172.640744   0.000000
   82      172.714019   0.000000
   83      172.714067   0.000000
   84      172.714067   0.000000
   85      172.750201   0.000000
   86      172.750201   0.000000
   87      174.934763   0.000000
   88      174.934779   0.000000
   89      174.934779   0.000000
   90      179.824360   0.000000
   91      179.964610   0.000000
   92      179.964645   0.000000
   93      179.964645   0.000000
   94      181.103445   0.000000
   95      181.103445   0.000000
   96      181.103462   0.000000
   97      181.142785   0.000000
   98      181.142785   0.000000
   99      181.142790   0.000000
  100      181.373719   0.000000
  101      181.373755   0.000000
  102      181.373755   0.000000
  103      181.419675   0.000000
  104      181.616887   0.000000
  105      181.616887   0.000000
  106      181.616927   0.000000
  107      181.710565   0.000000
  108      181.710565   0.000000
  109      183.771304   0.000000
  110      183.771330   0.000000
  111      183.771330   0.000000
  112      185.151383   0.000000
  113      185.151383   0.000000
  114      213.984930   0.000000
  115      215.506951   0.000000
  116      215.506984   0.000000
  117      215.506984   0.000000
  118      217.521158   0.000000
  119      218.158620   0.000000
  120      218.158620   0.000000
  121      218.158671   0.000000
  122      218.228735   0.000000
  123      218.228747   0.000000
  124      218.228747   0.000000
  125      218.284606   0.000000
  126      218.284642   0.000000
  127      218.284642   0.000000
  128      218.514675   0.000000
 
  0.1666667E+00 -0.1387779E-16  0.1387779E-16  0.9259259E-02
    1      -15.589648   1.000000
    2        3.575395   0.000000
    3       16.133089   0.000000
    4       19.551099   0.000000
    5       19.551102   0.000000
    6       24.281484   0.000000
    7       25.759156   0.000000
    8       25.759165   0.000000
    9       27.554506   0.000000
   10       28.206806   0.000000
   11       28.206808   0.000000
   12       32.364795   0.000000
   13       38.917842   0.000000
   14       39.342887   0.000000
   15       39.342891   0.000000
   16       51.850758   0.000000
   17       57.594086   0.000000
   18       57.594089   0.000000
   19       63.884667   0.000000
   20       68.135937   0.000000
   21       68.135946   0.000000
   22       70.333420   0.000000
   23       70.333436   0.000000
   24       70.515318   0.000000
   25       77.689712   0.000000
   26       79.483659   0.000000
   27       82.050642   0.000000
   28       82.050657   0.000000
   29       82.688134   0.000000
   30       82.688142   0.000000
   31       86.802287   0.000000
   32       87.645131   0.000000
   33       87.645146   0.000000
   34       89.157679   0.000000
   35       89.157689   0.000000
   36       89.242511   0.000000
   37       89.446704   0.000000
   38       94.580026   0.000000
   39       94.868839   0.000000
   40       94.868853   0.000000
   41       97.997591   0.000000
   42       99.143529   0.000000
   43       99.143545   0.000000
   44      102.308380   0.000000
   45      102.506444   0.000000
   46      102.506453   0.000000
   47      104.760765   0.000000
   48      106.527165   0.000000
   49      106.527174   0.000000
   50      107.704964   0.000000
   51      107.704974   0.000000
   52      107.793131   0.000000
   53      112.675306   0.000000
   54      114.030830   0.000000
   55      114.030844   0.000000
   56      114.068794   0.000000
   57      114.068797   0.000000
   58      114.146904   0.000000
   59      126.197571   0.000000
   60      130.629447   0.000000
   61      132.082542   0.000000
   62      132.082555   0.000000
   63      145.952755   0.000000
   64      150.639281   0.000000
   65      150.639283   0.000000
   66      154.754210   0.000000
   67      156.055316   0.000000
   68      156.055329   0.000000
   69      156.241699   0.000000
   70      157.679690   0.000000
   71      157.679699   0.000000
   72      162.313165   0.000000
   73      163.445804   0.000000
   74      163.445814   0.000000
   75      163.518755   0.000000
   76      163.824982   0.000000
   77      163.824998   0.000000
   78      166.423792   0.000000
   79      166.423801   0.000000
   80      167.617842   0.000000
   81      168.714856   0.000000
   82      170.441206   0.000000
   83      170.441240   0.000000
   84      173.272256   0.000000
   85      174.354619   0.000000
   86      174.354658   0.000000
   87      174.643579   0.000000
   88      176.584613   0.000000
   89      176.778561   0.000000
   90      176.778576   0.000000
   91      176.849364   0.000000
   92      176.946756   0.000000
   93      176.946779   0.000000
   94      177.297719   0.000000
   95      177.297722   0.000000
   96      184.694243   0.000000
   97      188.145777   0.000000
   98      188.264060   0.000000
   99      188.264083   0.000000
  100      188.315539   0.000000
  101      188.504753   0.000000
  102      188.504765   0.000000
  103      189.603389   0.000000
  104      189.603402   0.000000
  105      192.049437   0.000000
  106      194.127392   0.000000
  107      194.127401   0.000000
  108      195.167246   0.000000
  109      195.167249   0.000000
  110      196.969738   0.000000
  111      200.513001   0.000000
  112      200.699498   0.000000
  113      200.952231   0.000000
  114      200.952246   0.000000
  115      201.326268   0.000000
  116      201.326281   0.000000
  117      205.873848   0.000000
  118      206.587726   0.000000
  119      207.570649   0.000000
  120      207.570671   0.000000
  121      208.583407   0.000000
  122      208.583413   0.000000
  123      218.007406   0.000000
  124      218.014673   0.000000
  125      218.014713   0.000000
  126      218.844718   0.000000
  127      221.573673   0.000000
  128      221.573712   0.000000
 
  0.3333333E+00 -0.5551115E-16  0.4163336E-16  0.9259259E-02
    1      -15.118872   1.000000
    2        3.255207   0.000000
    3       11.719198   0.000000
    4       18.666311   0.000000
    5       18.666313   0.000000
    6       23.347093   0.000000
    7       23.347101   0.000000
    8       23.869954   0.000000
    9       28.702667   0.000000
   10       32.311817   0.000000
   11       32.311818   0.000000
   12       40.951365   0.000000
   13       44.136076   0.000000
   14       47.437751   0.000000
   15       47.437751   0.000000
   16       47.935661   0.000000
   17       47.935666   0.000000
   18       48.374836   0.000000
   19       62.027277   0.000000
   20       68.733735   0.000000
   21       68.733739   0.000000
   22       69.154658   0.000000
   23       70.787464   0.000000
   24       70.787475   0.000000
   25       72.585247   0.000000
   26       72.585267   0.000000
   27       72.781138   0.000000
   28       73.681346   0.000000
   29       79.891033   0.000000
   30       81.011723   0.000000
   31       81.011738   0.000000
   32       82.252321   0.000000
   33       82.252328   0.000000
   34       82.336922   0.000000
   35       91.419855   0.000000
   36       93.851886   0.000000
   37       93.851900   0.000000
   38       95.030718   0.000000
   39       96.774456   0.000000
   40       96.774469   0.000000
   41       97.133961   0.000000
   42       97.478282   0.000000
   43       97.478285   0.000000
   44      105.733877   0.000000
   45      106.383265   0.000000
   46      106.383278   0.000000
   47      114.881650   0.000000
   48      117.592549   0.000000
   49      117.592560   0.000000
   50      119.318576   0.000000
   51      119.318586   0.000000
   52      119.399721   0.000000
   53      120.394457   0.000000
   54      122.064305   0.000000
   55      122.064320   0.000000
   56      122.923026   0.000000
   57      122.923038   0.000000
   58      123.132228   0.000000
   59      128.159245   0.000000
   60      130.178236   0.000000
   61      131.269879   0.000000
   62      131.269882   0.000000
   63      131.929212   0.000000
   64      131.929223   0.000000
   65      140.939299   0.000000
   66      143.138466   0.000000
   67      143.138481   0.000000
   68      146.970746   0.000000
   69      147.170129   0.000000
   70      147.170140   0.000000
   71      147.265739   0.000000
   72      147.320220   0.000000
   73      147.836084   0.000000
   74      147.836098   0.000000
   75      164.109041   0.000000
   76      165.031193   0.000000
   77      165.031214   0.000000
   78      167.858179   0.000000
   79      169.589989   0.000000
   80      169.590023   0.000000
   81      170.505798   0.000000
   82      171.235358   0.000000
   83      171.391622   0.000000
   84      171.391636   0.000000
   85      172.049225   0.000000
   86      172.130025   0.000000
   87      172.130052   0.000000
   88      172.557559   0.000000
   89      172.557580   0.000000
   90      173.155182   0.000000
   91      173.730460   0.000000
   92      173.730478   0.000000
   93      180.224098   0.000000
   94      181.087452   0.000000
   95      181.087463   0.000000
   96      181.137464   0.000000
   97      182.231190   0.000000
   98      182.231217   0.000000
   99      193.191240   0.000000
  100      194.714169   0.000000
  101      195.457103   0.000000
  102      195.457135   0.000000
  103      195.919726   0.000000
  104      196.508841   0.000000
  105      196.625687   0.000000
  106      196.654715   0.000000
  107      196.654730   0.000000
  108      197.856434   0.000000
  109      197.856453   0.000000
  110      198.959619   0.000000
  111      198.959646   0.000000
  112      204.589194   0.000000
  113      205.590052   0.000000
  114      206.020768   0.000000
  115      206.020792   0.000000
  116      208.080880   0.000000
  117      208.080893   0.000000
  118      215.738796   0.000000
  119      217.257787   0.000000
  120      217.257814   0.000000
  121      218.278130   0.000000
  122      218.300944   0.000000
  123      218.929118   0.000000
  124      218.929137   0.000000
  125      219.146502   0.000000
  126      219.146506   0.000000
  127      220.852859   0.000000
  128      220.852897   0.000000
 
  0.5000000E+00 -0.5551115E-16  0.0000000E+00  0.4629630E-02
    1      -14.850134   1.000000
    2        3.107406   0.000000
    3       10.119268   0.000000
    4       18.530813   0.000000
    5       18.530814   0.000000
    6       22.033654   0.000000
    7       22.033663   0.000000
    8       23.013558   0.000000
    9       32.476995   0.000000
   10       37.387898   0.000000
   11       38.968081   0.000000
   12       38.968090   0.000000
   13       39.320105   0.000000
   14       39.320118   0.000000
   15       51.202929   0.000000
   16       54.279055   0.000000
   17       57.424217   0.000000
   18       57.424229   0.000000
   19       58.081585   0.000000
   20       58.081606   0.000000
   21       59.669688   0.000000
   22       60.045238   0.000000
   23       68.124249   0.000000
   24       72.130712   0.000000
   25       72.130721   0.000000
   26       75.357929   0.000000
   27       75.357966   0.000000
   28       75.682165   0.000000
   29       77.356325   0.000000
   30       77.633041   0.000000
   31       77.633057   0.000000
   32       77.889016   0.000000
   33       77.926161   0.000000
   34       77.926172   0.000000
   35       92.992262   0.000000
   36       94.248606   0.000000
   37       94.248622   0.000000
   38       95.106705   0.000000
   39       95.106718   0.000000
   40       95.326694   0.000000
   41      107.082698   0.000000
   42      109.636795   0.000000
   43      112.195844   0.000000
   44      112.195847   0.000000
   45      113.738524   0.000000
   46      113.738539   0.000000
   47      113.739002   0.000000
   48      113.739007   0.000000
   49      113.912982   0.000000
   50      114.003673   0.000000
   51      114.003696   0.000000
   52      114.037848   0.000000
   53      126.519676   0.000000
   54      128.580142   0.000000
   55      128.870300   0.000000
   56      128.870310   0.000000
   57      131.630492   0.000000
   58      131.630514   0.000000
   59      132.164373   0.000000
   60      132.164385   0.000000
   61      132.433027   0.000000
   62      132.688656   0.000000
   63      132.829874   0.000000
   64      132.829906   0.000000
   65      133.976939   0.000000
   66      134.002491   0.000000
   67      134.002508   0.000000
   68      134.006042   0.000000
   69      134.006049   0.000000
   70      134.181298   0.000000
   71      148.832879   0.000000
   72      149.800883   0.000000
   73      150.898561   0.000000
   74      150.898563   0.000000
   75      151.502469   0.000000
   76      151.502477   0.000000
   77      164.852420   0.000000
   78      164.852437   0.000000
   79      165.355199   0.000000
   80      167.796801   0.000000
   81      169.205208   0.000000
   82      169.966465   0.000000
   83      169.966512   0.000000
   84      170.564082   0.000000
   85      170.632362   0.000000
   86      170.734595   0.000000
   87      170.734621   0.000000
   88      171.322900   0.000000
   89      171.522343   0.000000
   90      171.522366   0.000000
   91      184.492069   0.000000
   92      185.796097   0.000000
   93      185.796108   0.000000
   94      186.376724   0.000000
   95      187.643959   0.000000
   96      187.643983   0.000000
   97      187.925786   0.000000
   98      188.116445   0.000000
   99      188.171362   0.000000
  100      188.327243   0.000000
  101      188.327286   0.000000
  102      188.421776   0.000000
  103      188.421797   0.000000
  104      189.227728   0.000000
  105      190.674977   0.000000
  106      190.675004   0.000000
  107      191.146356   0.000000
  108      191.146363   0.000000
  109      205.104521   0.000000
  110      205.285045   0.000000
  111      205.285075   0.000000
  112      205.917026   0.000000
  113      206.498343   0.000000
  114      206.866845   0.000000
  115      206.950550   0.000000
  116      206.950560   0.000000
  117      207.852579   0.000000
  118      207.852639   0.000000
  119      211.089653   0.000000
  120      211.089657   0.000000
  121      221.509590   0.000000
  122      222.351461   0.000000
  123      222.351495   0.000000
  124      223.034889   0.000000
  125      223.871941   0.000000
  126      224.432731   0.000000
  127      224.432747   0.000000
  128      226.161675   0.000000
 
  0.0000000E+00  0.1666667E+00 -0.6938894E-17  0.9259259E-02
    1      -15.589648   1.000000
    2        3.575395   0.000000
    3       16.133089   0.000000
    4       19.551099   0.000000
    5       19.551102   0.000000
    6       24.281484   0.000000
    7       25.759156   0.000000
    8       25.759165   0.000000
    9       27.554506   0.000000
   10       28.206806   0.000000
   11       28.206808   0.000000
   12       32.364795   0.000000
   13       38.917842   0.000000
   14       39.342887   0.000000
   15       39.342891   0.000000
   16       51.850758   0.000000
   17       57.594086   0.000000
   18       57.594089   0.000000
   19       63.884668   0.000000
   20       68.135937   0.000000
   21       68.135946   0.000000
   22       70.333420   0.000000
   23       70.333436   0.000000
   24       70.515318   0.000000
   25       77.689712   0.000000
   26       79.483659   0.000000
   27       82.050642   0.000000
   28       82.050657   0.000000
   29       82.688134   0.000000
   30       82.688142   0.000000
   31       86.802287   0.000000
   32       87.645131   0.000000
   33       87.645146   0.000000
   34       89.157679   0.000000
   35       89.157689   0.000000
   36       89.242511   0.000000
   37       89.446704   0.000000
   38       94.580026   0.000000
   39       94.868839   0.000000
   40       94.868853   0.000000
   41       97.997591   0.000000
   42       99.143529   0.000000
   43       99.143545   0.000000
   44      102.308380   0.000000
   45      102.506444   0.000000
   46      102.506453   0.000000
   47      104.760765   0.000000
   48      106.527165   0.000000
   49      106.527174   0.000000
   50      107.704964   0.000000
   51      107.704974   0.000000
   52      107.793131   0.000000
   53      112.675306   0.000000
   54      114.030830   0.000000
   55      114.030844   0.000000
   56      114.068794   0.000000
   57      114.068797   0.000000
   58      114.146904   0.000000
   59      126.197571   0.000000
   60      130.629447   0.000000
   61      132.082542   0.000000
   62      132.082555   0.000000
   63      145.952755   0.000000
   64      150.639281   0.000000
   65      150.639283   0.000000
   66      154.754210   0.000000
   67      156.055316   0.000000
   68      156.055329   0.000000
   69      156.241699   0.000000
   70      157.679690   0.000000
   71      157.679699   0.000000
   72      162.313165   0.000000
   73      163.445804   0.000000
   74      163.445814   0.000000
   75      163.518755   0.000000
   76      163.824982   0.000000
   77      163.824998   0.000000
   78      166.423792   0.000000
   79      166.423801   0.000000
   80      167.617843   0.000000
   81      168.714856   0.000000
   82      170.441206   0.000000
   83      170.441240   0.000000
   84      173.272256   0.000000
   85      174.354619   0.000000
   86      174.354658   0.000000
   87      174.643579   0.000000
   88      176.584613   0.000000
   89      176.778561   0.000000
   90      176.778576   0.000000
   91      176.849364   0.000000
   92      176.946756   0.000000
   93      176.946779   0.000000
   94      177.297719   0.000000
   95      177.297722   0.000000
   96      184.694243   0.000000
   97      188.145777   0.000000
   98      188.264060   0.000000
   99      188.264083   0.000000
  100      188.315539   0.000000
  101      188.504753   0.000000
  102      188.504765   0.000000
  103      189.603389   0.000000
  104      189.603402   0.000000
  105      192.049437   0.000000
  106      194.127392   0.000000
  107      194.127401   0.000000
  108      195.167246   0.000000
  109      195.167249   0.000000
  110      196.969738   0.000000
  111      200.513001   0.000000
  112      200.699498   0.000000
  113      200.952231   0.000000
  114      200.952246   0.000000
  115      201.326268   0.000000
  116      201.326281   0.000000
  117      205.873848   0.000000
  118      206.587726   0.000000
  119      207.570649   0.000000
  120      207.570671   0.000000
  121      208.583407   0.000000
  122      208.583413   0.000000
  123      218.007406   0.000000
  124      218.014673   0.000000
  125      218.014713   0.000000
  126      218.844718   0.000000
  127      221.573673   0.000000
  128      221.573712   0.000000
 
  0.1666667E+00  0.1666667E+00  0.1387779E-16  0.9259259E-02
    1      -15.521727   1.000000
    2        3.590297   0.000000
    3       17.132929   0.000000
    4       17.132932   0.000000
    5       19.440454   0.000000
    6       21.491564   0.000000
    7       22.550591   0.000000
    8       29.140822   0.000000
    9       29.140825   0.000000
   10       31.886225   0.000000
   11       33.588994   0.000000
   12       33.830784   0.000000
   13       34.016807   0.000000
   14       34.016812   0.000000
   15       45.183657   0.000000
   16       51.412372   0.000000
   17       57.340717   0.000000
   18       57.340722   0.000000
   19       58.432989   0.000000
   20       65.867737   0.000000
   21       69.166965   0.000000
   22       69.166979   0.000000
   23       70.372882   0.000000
   24       75.230248   0.000000
   25       78.414178   0.000000
   26       79.781284   0.000000
   27       79.781286   0.000000
   28       81.357247   0.000000
   29       82.218497   0.000000
   30       82.218501   0.000000
   31       83.172024   0.000000
   32       87.407269   0.000000
   33       89.176027   0.000000
   34       89.176042   0.000000
   35       91.426994   0.000000
   36       92.348156   0.000000
   37       92.898993   0.000000
   38       92.899011   0.000000
   39       93.154425   0.000000
   40       95.983460   0.000000
   41       96.132586   0.000000
   42       96.132591   0.000000
   43       96.364508   0.000000
   44      100.665493   0.000000
   45      102.930749   0.000000
   46      102.930759   0.000000
   47      104.118670   0.000000
   48      105.443089   0.000000
   49      105.526587   0.000000
   50      105.526603   0.000000
   51      105.619788   0.000000
   52      112.505029   0.000000
   53      116.781601   0.000000
   54      116.781602   0.000000
   55      118.100965   0.000000
   56      119.423878   0.000000
   57      120.452451   0.000000
   58      120.553497   0.000000
   59      120.553509   0.000000
   60      121.007966   0.000000
   61      141.845531   0.000000
   62      143.852971   0.000000
   63      143.852987   0.000000
   64      145.663415   0.000000
   65      147.467445   0.000000
   66      152.535430   0.000000
   67      152.535432   0.000000
   68      153.308261   0.000000
   69      155.082253   0.000000
   70      155.082269   0.000000
   71      155.146704   0.000000
   72      155.219227   0.000000
   73      157.828120   0.000000
   74      158.040010   0.000000
   75      158.040023   0.000000
   76      158.152394   0.000000
   77      164.718052   0.000000
   78      164.792317   0.000000
   79      164.792331   0.000000
   80      168.084843   0.000000
   81      169.155353   0.000000
   82      169.583823   0.000000
   83      169.583843   0.000000
   84      170.273636   0.000000
   85      170.588877   0.000000
   86      176.052778   0.000000
   87      177.631481   0.000000
   88      177.631501   0.000000
   89      180.571999   0.000000
   90      181.986661   0.000000
   91      181.986685   0.000000
   92      182.168725   0.000000
   93      182.340252   0.000000
   94      182.606318   0.000000
   95      182.606339   0.000000
   96      183.607999   0.000000
   97      184.452699   0.000000
   98      186.892029   0.000000
   99      190.537010   0.000000
  100      190.537023   0.000000
  101      191.152593   0.000000
  102      192.300209   0.000000
  103      192.300223   0.000000
  104      192.304519   0.000000
  105      192.505457   0.000000
  106      193.443933   0.000000
  107      194.853486   0.000000
  108      194.853509   0.000000
  109      195.117646   0.000000
  110      195.687435   0.000000
  111      195.914997   0.000000
  112      196.826056   0.000000
  113      196.826059   0.000000
  114      204.935084   0.000000
  115      206.102006   0.000000
  116      206.102039   0.000000
  117      207.032849   0.000000
  118      207.032869   0.000000
  119      207.036559   0.000000
  120      207.231192   0.000000
  121      207.299534   0.000000
  122      208.949969   0.000000
  123      209.130036   0.000000
  124      209.130040   0.000000
  125      210.120541   0.000000
  126      216.892585   0.000000
  127      216.892590   0.000000
  128      217.766745   0.000000
 
  0.3333333E+00  0.1666667E+00  0.2775558E-16  0.9259259E-02
    1      -15.142554   1.000000
    2        3.554320   0.000000
    3       12.550171   0.000000
    4       15.906762   0.000000
    5       17.895160   0.000000
    6       21.220996   0.000000
    7       23.434821   0.000000
    8       28.555800   0.000000
    9       30.650372   0.000000
   10       32.464892   0.000000
   11       35.059168   0.000000
   12       38.934956   0.000000
   13       41.518847   0.000000
   14       42.875526   0.000000
   15       44.175637   0.000000
   16       47.361942   0.000000
   17       53.007148   0.000000
   18       56.055934   0.000000
   19       58.630730   0.000000
   20       59.660937   0.000000
   21       64.583207   0.000000
   22       69.210957   0.000000
   23       70.592512   0.000000
   24       71.900261   0.000000
   25       72.619209   0.000000
   26       74.978164   0.000000
   27       78.306861   0.000000
   28       78.317797   0.000000
   29       79.964501   0.000000
   30       81.327197   0.000000
   31       83.563094   0.000000
   32       83.716954   0.000000
   33       84.506506   0.000000
   34       84.822851   0.000000
   35       90.225961   0.000000
   36       90.539666   0.000000
   37       93.758964   0.000000
   38       96.000581   0.000000
   39       96.426956   0.000000
   40       97.066895   0.000000
   41       97.306674   0.000000
   42       97.370854   0.000000
   43      100.772263   0.000000
   44      103.054749   0.000000
   45      103.114006   0.000000
   46      103.605926   0.000000
   47      105.119189   0.000000
   48      108.925650   0.000000
   49      113.768214   0.000000
   50      115.194381   0.000000
   51      115.427157   0.000000
   52      120.616155   0.000000
   53      121.745816   0.000000
   54      122.255132   0.000000
   55      125.839787   0.000000
   56      126.938697   0.000000
   57      129.140062   0.000000
   58      129.454681   0.000000
   59      129.681913   0.000000
   60      133.770027   0.000000
   61      133.891245   0.000000
   62      134.417082   0.000000
   63      134.601435   0.000000
   64      138.455905   0.000000
   65      139.722129   0.000000
   66      140.726601   0.000000
   67      141.747561   0.000000
   68      141.876822   0.000000
   69      145.960611   0.000000
   70      148.660515   0.000000
   71      151.495159   0.000000
   72      152.853785   0.000000
   73      153.114866   0.000000
   74      154.179878   0.000000
   75      154.283139   0.000000
   76      158.024611   0.000000
   77      159.264637   0.000000
   78      159.440009   0.000000
   79      159.586130   0.000000
   80      162.392249   0.000000
   81      163.869056   0.000000
   82      165.729627   0.000000
   83      166.093069   0.000000
   84      167.067138   0.000000
   85      171.441596   0.000000
   86      176.501642   0.000000
   87      176.871243   0.000000
   88      177.685394   0.000000
   89      178.575100   0.000000
   90      182.072280   0.000000
   91      182.572840   0.000000
   92      182.781728   0.000000
   93      183.090223   0.000000
   94      184.244205   0.000000
   95      184.873577   0.000000
   96      184.929491   0.000000
   97      186.053596   0.000000
   98      187.703215   0.000000
   99      189.587703   0.000000
  100      190.479205   0.000000
  101      190.908749   0.000000
  102      191.524046   0.000000
  103      191.667260   0.000000
  104      195.023510   0.000000
  105      195.972833   0.000000
  106      195.980755   0.000000
  107      197.001276   0.000000
  108      197.570220   0.000000
  109      198.304053   0.000000
  110      200.745967   0.000000
  111      202.457655   0.000000
  112      202.944271   0.000000
  113      203.078424   0.000000
  114      204.219013   0.000000
  115      204.814917   0.000000
  116      207.774723   0.000000
  117      208.538667   0.000000
  118      209.205990   0.000000
  119      209.950494   0.000000
  120      210.366000   0.000000
  121      214.192625   0.000000