   1   1   0   0
  0.9073226E+02  0.5043812E-09  0.5043812E-09  0.5043812E-09  0.1000000E-15
  1.000000000000000E-004
  CAR 
 Og_FCC                                  
     11.12613475    -32.82419910  301     -1.70348848      1.00000000
    -32.824  0.0000E+00  0.0000E+00
    -32.678  0.0000E+00  0.0000E+00
    -32.531  0.0000E+00  0.0000E+00
    -32.385  0.0000E+00  0.0000E+00
    -32.238  0.0000E+00  0.0000E+00
    -32.092  0.0000E+00  0.0000E+00
    -31.945  0.0000E+00  0.0000E+00
    -31.799  0.0000E+00  0.0000E+00
    -31.652 -0.3485E-27 -0.5106E-28
    -31.506 -0.1099E-17 -0.1611E-18
    -31.359 -0.4365E-10 -0.6395E-11
    -31.213 -0.2198E-04 -0.3220E-05
    -31.066 -0.1200E+00 -0.1759E-01
    -30.920 -0.1080E+01 -0.1758E+00
    -30.773  0.6154E+02  0.8840E+01
    -30.627  0.8477E+01  0.1008E+02
    -30.480 -0.5613E+00  0.1000E+02
    -30.334 -0.3976E-03  0.1000E+02
    -30.187 -0.2765E-08  0.1000E+02
    -30.041  0.0000E+00  0.1000E+02
    -29.894  0.0000E+00  0.1000E+02
    -29.748  0.0000E+00  0.1000E+02
    -29.601  0.0000E+00  0.1000E+02
    -29.455  0.0000E+00  0.1000E+02
    -29.308  0.0000E+00  0.1000E+02
    -29.162  0.0000E+00  0.1000E+02
    -29.015  0.0000E+00  0.1000E+02
    -28.869  0.0000E+00  0.1000E+02
    -28.722  0.0000E+00  0.1000E+02
    -28.576  0.0000E+00  0.1000E+02
    -28.429  0.0000E+00  0.1000E+02
    -28.283  0.0000E+00  0.1000E+02
    -28.136  0.0000E+00  0.1000E+02
    -27.990  0.0000E+00  0.1000E+02
    -27.843  0.0000E+00  0.1000E+02
    -27.697  0.0000E+00  0.1000E+02
    -27.550  0.0000E+00  0.1000E+02
    -27.404  0.0000E+00  0.1000E+02
    -27.257  0.0000E+00  0.1000E+02
    -27.111  0.0000E+00  0.1000E+02
    -26.964  0.0000E+00  0.1000E+02
    -26.818  0.0000E+00  0.1000E+02
    -26.671  0.0000E+00  0.1000E+02
    -26.525  0.0000E+00  0.1000E+02
    -26.378  0.0000E+00  0.1000E+02
    -26.232  0.0000E+00  0.1000E+02
    -26.085  0.0000E+00  0.1000E+02
    -25.939  0.0000E+00  0.1000E+02
    -25.792  0.0000E+00  0.1000E+02
    -25.646  0.0000E+00  0.1000E+02
    -25.499  0.0000E+00  0.1000E+02
    -25.353  0.0000E+00  0.1000E+02
    -25.206  0.0000E+00  0.1000E+02
    -25.060  0.0000E+00  0.1000E+02
    -24.913  0.0000E+00  0.1000E+02
    -24.767  0.0000E+00  0.1000E+02
    -24.620 -0.2966E-31  0.1000E+02
    -24.474 -0.3478E-21  0.1000E+02
    -24.327 -0.5309E-13  0.1000E+02
    -24.181 -0.1061E-06  0.1000E+02
    -24.034 -0.2504E-02  0.1000E+02
    -23.888 -0.4223E+00  0.9938E+01
    -23.741  0.7824E+01  0.1108E+02
    -23.595  0.6621E+01  0.1205E+02
    -23.448 -0.3667E+00  0.1200E+02
    -23.302 -0.1455E-02  0.1200E+02
    -23.155 -0.4486E-07  0.1200E+02
    -23.009 -0.1678E-13  0.1200E+02
    -22.862  0.0000E+00  0.1200E+02
    -22.716  0.0000E+00  0.1200E+02
    -22.569  0.0000E+00  0.1200E+02
    -22.423  0.0000E+00  0.1200E+02
    -22.276  0.0000E+00  0.1200E+02
    -22.130  0.0000E+00  0.1200E+02
    -21.983  0.0000E+00  0.1200E+02
    -21.837  0.0000E+00  0.1200E+02
    -21.690  0.0000E+00  0.1200E+02
    -21.544  0.0000E+00  0.1200E+02
    -21.397  0.0000E+00  0.1200E+02
    -21.251  0.0000E+00  0.1200E+02
    -21.104  0.0000E+00  0.1200E+02
    -20.958  0.0000E+00  0.1200E+02
    -20.811  0.0000E+00  0.1200E+02
    -20.665  0.0000E+00  0.1200E+02
    -20.518  0.0000E+00  0.1200E+02
    -20.372  0.0000E+00  0.1200E+02
    -20.225  0.0000E+00  0.1200E+02
    -20.079  0.0000E+00  0.1200E+02
    -19.932  0.0000E+00  0.1200E+02
    -19.786  0.0000E+00  0.1200E+02
    -19.639  0.0000E+00  0.1200E+02
    -19.493  0.0000E+00  0.1200E+02
    -19.346  0.0000E+00  0.1200E+02
    -19.200  0.0000E+00  0.1200E+02
    -19.053  0.0000E+00  0.1200E+02
    -18.907  0.0000E+00  0.1200E+02
    -18.760  0.0000E+00  0.1200E+02
    -18.614  0.0000E+00  0.1200E+02
    -18.467  0.0000E+00  0.1200E+02
    -18.321  0.0000E+00  0.1200E+02
    -18.174  0.0000E+00  0.1200E+02
    -18.028  0.0000E+00  0.1200E+02
    -17.881  0.0000E+00  0.1200E+02
    -17.735  0.0000E+00  0.1200E+02
    -17.588  0.0000E+00  0.1200E+02
    -17.442  0.0000E+00  0.1200E+02
    -17.295  0.0000E+00  0.1200E+02
    -17.149  0.0000E+00  0.1200E+02
    -17.002  0.0000E+00  0.1200E+02
    -16.856  0.0000E+00  0.1200E+02
    -16.709  0.0000E+00  0.1200E+02
    -16.563  0.0000E+00  0.1200E+02
    -16.416  0.0000E+00  0.1200E+02
    -16.270  0.0000E+00  0.1200E+02
    -16.123  0.0000E+00  0.1200E+02
    -15.977  0.0000E+00  0.1200E+02
    -15.830  0.0000E+00  0.1200E+02
    -15.684  0.0000E+00  0.1200E+02
    -15.537  0.0000E+00  0.1200E+02
    -15.391  0.0000E+00  0.1200E+02
    -15.244  0.0000E+00  0.1200E+02
    -15.098  0.0000E+00  0.1200E+02
    -14.951  0.0000E+00  0.1200E+02
    -14.805  0.0000E+00  0.1200E+02
    -14.658  0.0000E+00  0.1200E+02
    -14.512  0.0000E+00  0.1200E+02
    -14.365  0.0000E+00  0.1200E+02
    -14.219  0.0000E+00  0.1200E+02
    -14.072  0.0000E+00  0.1200E+02
    -13.926  0.0000E+00  0.1200E+02
    -13.779  0.0000E+00  0.1200E+02
    -13.633  0.0000E+00  0.1200E+02
    -13.486  0.0000E+00  0.1200E+02
    -13.340  0.0000E+00  0.1200E+02
    -13.193  0.0000E+00  0.1200E+02
    -13.047  0.0000E+00  0.1200E+02
    -12.900  0.0000E+00  0.1200E+02
    -12.754  0.0000E+00  0.1200E+02
    -12.607  0.0000E+00  0.1200E+02
    -12.461  0.0000E+00  0.1200E+02
    -12.314  0.0000E+00  0.1200E+02
    -12.168  0.0000E+00  0.1200E+02
    -12.021  0.0000E+00  0.1200E+02
    -11.875  0.0000E+00  0.1200E+02
    -11.728  0.0000E+00  0.1200E+02
    -11.582  0.0000E+00  0.1200E+02
    -11.435  0.0000E+00  0.1200E+02
    -11.289  0.0000E+00  0.1200E+02
    -11.142  0.0000E+00  0.1200E+02
    -10.996  0.0000E+00  0.1200E+02
    -10.849  0.0000E+00  0.1200E+02
    -10.703  0.0000E+00  0.1200E+02
    -10.556  0.0000E+00  0.1200E+02
    -10.410  0.0000E+00  0.1200E+02
    -10.263  0.0000E+00  0.1200E+02
    -10.117  0.0000E+00  0.1200E+02
     -9.970  0.0000E+00  0.1200E+02
     -9.824  0.0000E+00  0.1200E+02
     -9.677  0.0000E+00  0.1200E+02
     -9.531  0.0000E+00  0.1200E+02
     -9.384  0.0000E+00  0.1200E+02
     -9.238  0.0000E+00  0.1200E+02
     -9.091  0.0000E+00  0.1200E+02
     -8.945  0.0000E+00  0.1200E+02
     -8.798  0.0000E+00  0.1200E+02
     -8.652  0.0000E+00  0.1200E+02
     -8.505  0.0000E+00  0.1200E+02
     -8.359  0.0000E+00  0.1200E+02
     -8.212  0.0000E+00  0.1200E+02
     -8.066  0.0000E+00  0.1200E+02
     -7.919  0.0000E+00  0.1200E+02
     -7.773  0.0000E+00  0.1200E+02
     -7.626  0.0000E+00  0.1200E+02
     -7.480  0.0000E+00  0.1200E+02
     -7.333  0.0000E+00  0.1200E+02
     -7.187  0.0000E+00  0.1200E+02
     -7.040  0.0000E+00  0.1200E+02
     -6.894  0.0000E+00  0.1200E+02
     -6.747  0.0000E+00  0.1200E+02
     -6.600  0.0000E+00  0.1200E+02
     -6.454  0.0000E+00  0.1200E+02
     -6.307  0.0000E+00  0.1200E+02
     -6.161  0.0000E+00  0.1200E+02
     -6.014  0.0000E+00  0.1200E+02
     -5.868  0.0000E+00  0.1200E+02
     -5.721  0.0000E+00  0.1200E+02
     -5.575  0.0000E+00  0.1200E+02
     -5.428  0.0000E+00  0.1200E+02
     -5.282  0.0000E+00  0.1200E+02
     -5.135  0.0000E+00  0.1200E+02
     -4.989  0.0000E+00  0.1200E+02
     -4.842  0.0000E+00  0.1200E+02
     -4.696  0.0000E+00  0.1200E+02
     -4.549  0.0000E+00  0.1200E+02
     -4.403  0.0000E+00  0.1200E+02
     -4.256  0.0000E+00  0.1200E+02
     -4.110  0.0000E+00  0.1200E+02
     -3.963  0.0000E+00  0.1200E+02
     -3.817 -0.1365E-33  0.1200E+02
     -3.670 -0.1835E-23  0.1200E+02
     -3.524 -0.3124E-15  0.1200E+02
     -3.377 -0.7040E-09  0.1200E+02
     -3.231 -0.1990E-04  0.1200E+02
     -3.084 -0.8253E-02  0.1200E+02
     -2.938  0.2288E-01  0.1200E+02
     -2.791  0.2248E+01  0.1233E+02
     -2.645  0.6858E+01  0.1334E+02
     -2.498  0.3019E+01  0.1378E+02
     -2.352  0.2891E+01  0.1420E+02
     -2.205  0.4086E+01  0.1480E+02
     -2.059  0.6368E+01  0.1573E+02
     -1.912  0.9036E+01  0.1706E+02
     -1.766  0.5817E+01  0.1791E+02
     -1.619  0.6683E+00  0.1801E+02
     -1.473 -0.4977E-01  0.1800E+02
     -1.326 -0.3076E-03  0.1800E+02
     -1.180 -0.2076E-07  0.1800E+02
     -1.033 -0.1926E-13  0.1800E+02
     -0.887  0.0000E+00  0.1800E+02
     -0.740  0.0000E+00  0.1800E+02
     -0.594  0.0000E+00  0.1800E+02
     -0.447  0.0000E+00  0.1800E+02
     -0.301  0.0000E+00  0.1800E+02
     -0.154  0.0000E+00  0.1800E+02
     -0.008  0.0000E+00  0.1800E+02
      0.139  0.0000E+00  0.1800E+02
      0.285  0.0000E+00  0.1800E+02
      0.432  0.0000E+00  0.1800E+02
      0.578 -0.1798E-38  0.1800E+02
      0.725 -0.1221E-27  0.1800E+02
      0.871 -0.1095E-18  0.1800E+02
      1.018 -0.1219E-11  0.1800E+02
      1.164 -0.1687E-06  0.1800E+02
      1.311 -0.2283E-03  0.1800E+02
      1.457  0.3498E-02  0.1800E+02
      1.604  0.2390E-01  0.1800E+02
      1.750 -0.4429E-02  0.1800E+02
      1.897  0.6616E-01  0.1801E+02
      2.043  0.2133E+00  0.1804E+02
      2.190  0.1034E+00  0.1806E+02
      2.336 -0.1528E-01  0.1806E+02
      2.483  0.1763E+00  0.1808E+02
      2.629  0.1360E+00  0.1810E+02
      2.776  0.4861E+00  0.1817E+02
      2.922  0.4071E+00  0.1823E+02
      3.069 -0.2644E-01  0.1823E+02
      3.215  0.3434E-01  0.1823E+02
      3.362  0.7477E+00  0.1834E+02
      3.508  0.8069E+00  0.1846E+02
      3.655  0.8426E+00  0.1859E+02
      3.801  0.1445E+00  0.1861E+02
      3.948  0.1664E+01  0.1885E+02
      4.094  0.2339E+00  0.1889E+02
      4.241  0.1212E+01  0.1906E+02
      4.387  0.1548E+01  0.1929E+02
      4.534  0.1597E+01  0.1952E+02
      4.680  0.1045E+01  0.1968E+02
      4.827  0.1314E+00  0.1970E+02
      4.973  0.1165E+01  0.1987E+02
      5.120  0.6748E+00  0.1997E+02
      5.266  0.1031E+00  0.1998E+02
      5.413  0.1291E+00  0.2000E+02
      5.559  0.7751E+00  0.2011E+02
      5.706  0.9304E+00  0.2025E+02
      5.852  0.1585E+01  0.2048E+02
      5.999  0.3546E+01  0.2100E+02
      6.145  0.1825E+01  0.2127E+02
      6.292  0.6747E+00  0.2137E+02
      6.438  0.3952E+01  0.2195E+02
      6.585  0.5177E+01  0.2270E+02
      6.731  0.1389E+01  0.2291E+02
      6.878  0.1038E+01  0.2306E+02
      7.024  0.1248E+01  0.2324E+02
      7.171  0.2061E+01  0.2355E+02
      7.317  0.2222E+01  0.2387E+02
      7.464  0.2344E+01  0.2421E+02
      7.610  0.2238E+01  0.2454E+02
      7.757  0.3543E+01  0.2506E+02
      7.903  0.2148E+01  0.2538E+02
      8.050  0.8271E+00  0.2550E+02
      8.196  0.1101E+01  0.2566E+02
      8.343  0.3918E+00  0.2572E+02
      8.489  0.4249E+00  0.2578E+02
      8.636  0.4946E+00  0.2585E+02
      8.782  0.1456E+00  0.2587E+02
      8.929  0.5923E+00  0.2596E+02
      9.075  0.1504E+00  0.2598E+02
      9.222  0.1380E+00  0.2600E+02
      9.368 -0.2460E-02  0.2600E+02
      9.515 -0.2895E-03  0.2600E+02
      9.661 -0.5415E-07  0.2600E+02
      9.808 -0.1097E-12  0.2600E+02
      9.954  0.0000E+00  0.2600E+02
     10.101  0.0000E+00  0.2600E+02
     10.247  0.0000E+00  0.2600E+02
     10.394  0.0000E+00  0.2600E+02
     10.540  0.0000E+00  0.2600E+02
     10.687  0.0000E+00  0.2600E+02
     10.833  0.0000E+00  0.2600E+02
     10.980  0.0000E+00  0.2600E+02
     11.126  0.0000E+00  0.2600E+02
