    1    1    1    1
  0.9073226E+02  0.5043812E-09  0.5043812E-09  0.5043812E-09  0.1000000E-15
  1.000000000000000E-004
  CAR 
 Og_FCC                                  
     18     29     13
 
  0.0000000E+00  0.0000000E+00  0.0000000E+00  0.1953125E-02
    1      -30.826176   1.000000
    2      -30.826176   1.000000
    3      -30.826176   1.000000
    4      -30.825870   1.000000
    5      -30.825870   1.000000
    6      -23.759459   1.000000
    7       -1.726819   0.691610
    8       -1.726819   0.691610
    9       -1.726819   0.691609
   10        1.508401   0.000000
   11        7.412803   0.000000
   12        7.412803   0.000000
   13        7.412803   0.000000
 
  0.1250000E+00  0.1490978E-16  0.1387779E-16  0.1562500E-01
    1      -30.826148   1.000000
    2      -30.826133   1.000000
    3      -30.826133   1.000000
    4      -30.825872   1.000000
    5      -30.825872   1.000000
    6      -23.757549   1.000000
    7       -1.982093   1.000294
    8       -1.749876   0.849619
    9       -1.749876   0.849619
   10        1.920051   0.000000
   11        6.909890   0.000000
   12        7.519761   0.000000
   13        7.519764   0.000000
 
  0.2500000E+00  0.2981956E-16  0.2775558E-16  0.1562500E-01
    1      -30.826098   1.000000
    2      -30.826097   1.000000
    3      -30.826045   1.000000
    4      -30.825690   1.000000
    5      -30.825690   1.000000
    6      -23.752775   1.000000
    7       -2.451266   1.000000
    8       -1.804282   1.025931
    9       -1.804282   1.025931
   10        2.752809   0.000000
   11        6.556680   0.000000
   12        7.498526   0.000000
   13        7.498526   0.000000
 
  0.3750000E+00  0.3095971E-17  0.0000000E+00  0.1562500E-01
    1      -30.826132   1.000000
    2      -30.826132   1.000000
    3      -30.825952   1.000000
    4      -30.825453   1.000000
    5      -30.825453   1.000000
    6      -23.748040   1.000000
    7       -2.811607   1.000000
    8       -1.857029   1.026049
    9       -1.857029   1.026049
   10        3.378450   0.000000
   11        6.831525   0.000000
   12        7.234477   0.000000
   13        7.234477   0.000000
 
  0.5000000E+00  0.5963911E-16  0.5551115E-16  0.7812500E-02
    1      -30.826156   1.000000
    2      -30.826156   1.000000
    3      -30.825916   1.000000
    4      -30.825358   1.000000
    5      -30.825358   1.000000
    6      -23.746107   1.000000
    7       -2.941519   1.000000
    8       -1.878408   1.016458
    9       -1.878407   1.016458
   10        3.558362   0.000000
   11        7.118982   0.000000
   12        7.118982   0.000000
   13        7.158860   0.000000
 
  0.1250000E+00  0.1250000E+00  0.2775558E-16  0.1171875E-01
    1      -30.826220   1.000000
    2      -30.826045   1.000000
    3      -30.826045   1.000000
    4      -30.825933   1.000000
    5      -30.825831   1.000000
    6      -23.756884   1.000000
    7       -1.988559   1.000210
    8       -1.795482   1.014699
    9       -1.795482   1.014699
   10        2.062129   0.000000
   11        6.704356   0.000000
   12        7.637124   0.000000
   13        7.638001   0.000000
 
  0.2500000E+00  0.1250000E+00  0.0000000E+00  0.4687500E-01
    1      -30.826202   1.000000
    2      -30.825997   1.000000
    3      -30.825967   1.000000
    4      -30.825827   1.000000
    5      -30.825678   1.000000
    6      -23.753073   1.000000
    7       -2.339071   1.000000
    8       -1.864630   1.022539
    9       -1.849092   1.029560
   10        2.775174   0.000000
   11        6.341662   0.000000
   12        7.175527   0.000000
   13        7.789076   0.000000
 
  0.3750000E+00  0.1250000E+00  0.0000000E+00  0.4687500E-01
    1      -30.826149   1.000000
    2      -30.825992   1.000000
    3      -30.825953   1.000000
    4      -30.825610   1.000000
    5      -30.825431   1.000000
    6      -23.748307   1.000000
    7       -2.694347   1.000000
    8       -1.931570   1.002913
    9       -1.916375   1.005158
   10        3.532764   0.000000
   11        6.400713   0.000000
   12        6.724793   0.000000
   13        7.599896   0.000000
 
  0.5000000E+00  0.1250000E+00  0.5551115E-16  0.4687500E-01
    1      -30.826154   1.000000
    2      -30.826044   1.000000
    3      -30.825865   1.000000
    4      -30.825452   1.000000
    5      -30.825352   1.000000
    6      -23.745458   1.000000
    7       -2.876173   1.000000
    8       -2.010420   1.000063
    9       -1.922427   1.004137
   10        3.886168   0.000000
   11        6.365653   0.000000
   12        7.243375   0.000000
   13        7.376314   0.000000
 
 -0.3750000E+00  0.1250000E+00  0.0000000E+00  0.4687500E-01
    1      -30.826128   1.000000
    2      -30.826048   1.000000
    3      -30.825880   1.000000
    4      -30.825467   1.000000
    5      -30.825402   1.000000
    6      -23.746100   1.000000
    7       -2.834219   1.000000
    8       -2.037692   1.000012
    9       -1.879741   1.015913
   10        3.828461   0.000000
   11        6.449190   0.000000
   12        7.059926   0.000000
   13        7.346604   0.000000
 
 -0.2500000E+00  0.1250000E+00 -0.6938894E-17  0.4687500E-01
    1      -30.826087   1.000000
    2      -30.826010   1.000000
    3      -30.825990   1.000000
    4      -30.825731   1.000000
    5      -30.825511   1.000000
    6      -23.749907   1.000000
    7       -2.586420   1.000000
    8       -1.990177   1.000193
    9       -1.811356   1.031483
   10        3.308095   0.000000
   11        6.452021   0.000000
   12        6.884017   0.000000
   13        7.564346   0.000000
 
 -0.1250000E+00  0.1250000E+00  0.9364699E-17  0.2343750E-01
    1      -30.826107   1.000000
    2      -30.826063   1.000000
    3      -30.826052   1.000000
    4      -30.825902   1.000000
    5      -30.825720   1.000000
    6      -23.754651   1.000000
    7       -2.233696   1.000000
    8       -1.872642   1.018918
    9       -1.756692   0.887182
   10        2.480038   0.000000
   11        6.562854   0.000000
   12        7.383586   0.000000
   13        7.717776   0.000000
 
  0.2500000E+00  0.2500000E+00  0.5551115E-16  0.1171875E-01
    1      -30.826328   1.000000
    2      -30.826024   1.000000
    3      -30.825700   1.000000
    4      -30.825700   1.000000
    5      -30.825691   1.000000
    6      -23.750618   1.000000
    7       -2.430912   1.000000
    8       -1.953444   1.001160
    9       -1.953444   1.001160
   10        3.241433   0.000000
   11        5.929221   0.000000
   12        6.781595   0.000000
   13        8.257082   0.000000
 
  0.3750000E+00  0.2500000E+00  0.0000000E+00  0.4687500E-01
    1      -30.826300   1.000000
    2      -30.826034   1.000000
    3      -30.825721   1.000000
    4      -30.825525   1.000000
    5      -30.825422   1.000000
    6      -23.746778   1.000000
    7       -2.641100   1.000000
    8       -2.064696   1.000002
    9       -2.018358   1.000040
   10        3.888463   0.000000
   11        5.805178   0.000000
   12        6.434133   0.000000
   13        8.362917   0.000000
 
  0.5000000E+00  0.2500000E+00  0.0000000E+00  0.4687500E-01
    1      -30.826209   1.000000
    2      -30.825903   1.000000
    3      -30.825755   1.000000
    4      -30.825471   1.000000
    5      -30.825312   1.000000
    6      -23.743865   1.000000
    7       -2.752117   1.000000
    8       -2.234777   1.000000
    9       -2.024641   1.000027
   10        4.421355   0.000000
   11        5.961518   0.000000
   12        6.505473   0.000000
   13        8.093143   0.000000
 
 -0.3750000E+00  0.2500000E+00  0.5551115E-16  0.4687500E-01
    1      -30.826157   1.000000
    2      -30.825795   1.000000
    3      -30.825706   1.000000
    4      -30.825538   1.000000
    5      -30.825443   1.000000
    6      -23.743606   1.000000
    7       -2.721486   1.000000
    8       -2.358563   1.000000
    9       -1.969105   1.000560
   10        4.622909   0.000000
   11        5.904772   0.000000
   12        7.004068   0.000000
   13        7.873849   0.000000
 
 -0.2500000E+00  0.2500000E+00  0.1872940E-16  0.2343750E-01
    1      -30.826114   1.000000
    2      -30.825842   1.000000
    3      -30.825825   1.000000
    4      -30.825692   1.000000
    5      -30.825472   1.000000
    6      -23.746130   1.000000
    7       -2.659482   1.000000
    8       -2.262159   1.000000
    9       -1.881069   1.015379
   10        4.172914   0.000000
   11        6.176211   0.000000
   12        6.493237   0.000000
   13        7.760225   0.000000
 
  0.3750000E+00  0.3750000E+00  0.1110223E-15  0.1171875E-01
    1      -30.826417   1.000000
    2      -30.826098   1.000000
    3      -30.825522   1.000000
    4      -30.825341   1.000000
    5      -30.825341   1.000000
    6      -23.744287   1.000000
    7       -2.741185   1.000000
    8       -2.101669   1.000000
    9       -2.101669   1.000000
   10        4.036963   0.000000
   11        5.446030   0.000000
   12        6.867523   0.000000
   13        9.128392   0.000000
 
  0.5000000E+00  0.3750000E+00  0.1110223E-15  0.4687500E-01
    1      -30.826360   1.000000
    2      -30.826067   1.000000
    3      -30.825521   1.000000
    4      -30.825285   1.000000
    5      -30.825251   1.000000
    6      -23.742312   1.000000
    7       -2.785525   1.000000
    8       -2.229787   1.000000
    9       -2.121713   1.000000
   10        4.278271   0.000000
   11        5.512835   0.000000
   12        7.203879   0.000000
   13        8.870999   0.000000
 
 -0.3750000E+00  0.3750000E+00  0.1979646E-17  0.2343750E-01
    1      -30.826233   1.000000
    2      -30.825884   1.000000
    3      -30.825591   1.000000
    4      -30.825410   1.000000
    5      -30.825332   1.000000
    6      -23.742039   1.000000
    7       -2.674933   1.000000
    8       -2.455813   1.000000
    9       -2.068441   1.000002
   10        4.648650   0.000000
   11        5.941091   0.000000
   12        7.353844   0.000000
   13        7.397233   0.000000
 
  0.5000000E+00  0.5000000E+00  0.1110223E-15  0.5859375E-02
    1      -30.826457   1.000000
    2      -30.826123   1.000000
    3      -30.825457   1.000000
    4      -30.825195   1.000000
    5      -30.825195   1.000000
    6      -23.741655   1.000000
    7       -2.846795   1.000000
    8       -2.160556   1.000000
    9       -2.160556   1.000000
   10        4.092122   0.000000
   11        5.283415   0.000000
   12        8.210336   0.000000
   13        8.971355   0.000000
 
  0.3750000E+00  0.2500000E+00  0.1250000E+00  0.4687500E-01
    1      -30.826163   1.000000
    2      -30.826021   1.000000
    3      -30.825865   1.000000
    4      -30.825706   1.000000
    5      -30.825507   1.000000
    6      -23.749259   1.000000
    7       -2.543035   1.000000
    8       -2.048688   1.000006
    9       -1.883226   1.014533
   10        3.501615   0.000000
   11        6.138637   0.000000
   12        6.572918   0.000000
   13        8.094460   0.000000
 
  0.5000000E+00  0.2500000E+00  0.1250000E+00  0.9375000E-01
    1      -30.826101   1.000000
    2      -30.825984   1.000000
    3      -30.825835   1.000000
    4      -30.825540   1.000000
    5      -30.825400   1.000000
    6      -23.745458   1.000000
    7       -2.718741   1.000000
    8       -2.189778   1.000000
    9       -1.951846   1.001246
   10        4.234251   0.000000
   11        6.066502   0.000000
   12        6.435010   0.000000
   13        7.884925   0.000000
 
 -0.3750000E+00  0.2500000E+00  0.1250000E+00  0.4687500E-01
    1      -30.826113   1.000000
    2      -30.825957   1.000000
    3      -30.825733   1.000000
    4      -30.825543   1.000000
    5      -30.825361   1.000000
    6      -23.743909   1.000000
    7       -2.787079   1.000000
    8       -2.235819   1.000000
    9       -1.988884   1.000206
   10        4.501889   0.000000
   11        5.884524   0.000000
   12        7.081325   0.000000
   13        7.705913   0.000000
 
  0.5000000E+00  0.3750000E+00  0.1250000E+00  0.4687500E-01
    1      -30.826242   1.000000
    2      -30.826045   1.000000
    3      -30.825669   1.000000
    4      -30.825379   1.000000
    5      -30.825343   1.000000
    6      -23.743890   1.000000
    7       -2.716341   1.000000
    8       -2.212272   1.000000
    9       -2.083395   1.000001
   10        4.397609   0.000000
   11        5.777963   0.000000
   12        6.330425   0.000000
   13        8.600581   0.000000
 
 -0.3750000E+00  0.3750000E+00  0.1250000E+00  0.9375000E-01
    1      -30.826127   1.000000
    2      -30.825913   1.000000
    3      -30.825682   1.000000
    4      -30.825522   1.000000
    5      -30.825265   1.000000
    6      -23.742325   1.000000
    7       -2.673305   1.000000
    8       -2.401245   1.000000
    9       -2.111763   1.000000
   10        4.912165   0.000000
   11        5.917467   0.000000
   12        6.494424   0.000000
   13        7.634752   0.000000
 
 -0.2500000E+00  0.3750000E+00  0.1250000E+00  0.4687500E-01
    1      -30.826081   1.000000
    2      -30.825820   1.000000
    3      -30.825759   1.000000
    4      -30.825574   1.000000
    5      -30.825358   1.000000
    6      -23.742974   1.000000
    7       -2.627913   1.000000
    8       -2.456434   1.000000
    9       -2.045750   1.000007
   10        5.069194   0.000000
   11        5.659578   0.000000
   12        6.596170   0.000000
   13        7.682823   0.000000
 
 -0.3750000E+00  0.5000000E+00  0.1250000E+00  0.2343750E-01
    1      -30.826269   1.000000
    2      -30.826042   1.000000
    3      -30.825524   1.000000
    4      -30.825374   1.000000
    5      -30.825185   1.000000
    6      -23.741651   1.000000
    7       -2.759349   1.000000
    8       -2.276873   1.000000
    9       -2.181553   1.000000
   10        4.502660   0.000000
   11        5.646932   0.000000
   12        7.421244   0.000000
   13        7.680584   0.000000
 
 -0.2500000E+00  0.5000000E+00  0.2500000E+00  0.1171875E-01
    1      -30.825945   1.000000
    2      -30.825826   1.000000
    3      -30.825826   1.000000
    4      -30.825625   1.000000
    5      -30.825189   1.000000
    6      -23.741642   1.000000
    7       -2.532208   1.000000
    8       -2.532208   1.000000
    9       -2.202111   1.000000
   10        5.431908   0.000000
   11        5.953568   0.000000
   12        6.585302   0.000000
   13        6.585302   0.000000
