 vasp.5.4.4.18Apr17-6-g9f103f2a35 (build Nov 03 2018 10:20:43) complex          
  
 executed on             LinuxIFC date 2018.12.03  16:13:33
 running on    8 total cores
 distrk:  each k-point on    2 cores,    4 groups
 distr:  one band on NCORES_PER_BAND=   2 cores,    1 groups


--------------------------------------------------------------------------------------------------------


 INCAR:
 POTCAR:    PAW Og, JanMewes Oct 18               

 ----------------------------------------------------------------------------- 
|                                                                             |
|           W    W    AA    RRRRR   N    N  II  N    N   GGGG   !!!           |
|           W    W   A  A   R    R  NN   N  II  NN   N  G    G  !!!           |
|           W    W  A    A  R    R  N N  N  II  N N  N  G       !!!           |
|           W WW W  AAAAAA  RRRRR   N  N N  II  N  N N  G  GGG   !            |
|           WW  WW  A    A  R   R   N   NN  II  N   NN  G    G                |
|           W    W  A    A  R    R  N    N  II  N    N   GGGG   !!!           |
|                                                                             |
|      You have enabled k-point parallelism (KPAR>1).                         |
|      This developmental code was originally  written by Paul Kent at ORNL,  |
|      and carefully double checked in Vienna.                                |
|      GW as well as linear response parallelism added by Martijn Marsman     |
|      and Georg Kresse.                                                      |
|      Carefully verify results versus KPAR=1.                                |
|      Report problems to Paul Kent and Vienna.                               |
|                                                                             |
 ----------------------------------------------------------------------------- 

 POTCAR:    PAW Og, JanMewes Oct 18               
   VRHFIN =Og : 10d 2s 6p, PE                                                   
   LEXCH  = PE                                                                  
   EATOM  =  2640.5573 eV,  194.0755 Ry                                         
                                                                                
   TITEL  = PAW Og, JanMewes Oct 18                                             
   LULTRA =        F    use ultrasoft PP ?                                      
   IUNSCR =        1    unscreen: 0-lin 1-nonlin 2-no                           
   RPACOR =    1.700    partial core radius                                     
   POMASS =    0.010; ZVAL   =   18.000    mass and valenz                      
   RCORE  =    2.600    outmost cutoff radius                                   
   RWIGS  =    3.500; RWIGS  =    1.852    wigner-seitz radius (au A)           
   ENMAX  =  339.336; ENMIN  =  254.502 eV                                      
   ICORE  =        3    local potential                                         
   LCOR   =        T    correct aug charges                                     
   LPAW   =        T    paw PP                                                  
   EAUG   =  361.025                                                            
   DEXC   =   -0.000                                                            
   RAUG   =    1.300    factor for augmentation sphere                          
   RDEP   =    2.775    radius for radial grids                                 
   RDEPT  =    2.135    core radius for aug-charge                              
   QCUT   =   -4.994; QGAM   =    9.988    optimization parameters              
                                                                                
   Atomic configuration                                                         
   22 entries                                                                   
     n  l   j            E        occ.                                          
     1  0  0.50   -225781.4217   2.0000                                         
     2  0  0.50    -47342.3774   2.0000                                         
     2  1  1.50    -33463.4058   6.0000                                         
     3  0  0.50    -12845.8060   2.0000                                         
     3  1  1.50     -9184.5562   6.0000                                         
     3  2  2.50     -7322.6146  10.0000                                         
     4  0  0.50     -3781.9433   2.0000                                         
     4  1  1.50     -2605.9204   6.0000                                         
     4  2  2.50     -1899.4626  10.0000                                         
     4  3  3.50     -1273.6890  14.0000                                         
     5  0  0.50     -1046.0643   2.0000                                         
     5  1  1.50      -650.9265   6.0000                                         
     5  2  2.50      -388.1490  10.0000                                         
     5  3  3.50      -152.1121  14.0000                                         
     6  0  0.50      -224.6639   2.0000                                         
     6  1  0.50      -184.3267   2.0000                                         
     6  1  1.50       -97.8537   4.0000                                         
     6  2  2.50       -35.6667  10.0000                                         
     7  0  0.50       -28.5889   2.0000                                         
     8  0  0.50        -1.3606   0.0000                                         
     7  1  1.50        -7.0827   6.0000                                         
     6  3  3.50        -0.0136   0.0000                                         
   Description                                                                  
     l       E           TYP  RCUT    TYP  RCUT                                 
     2    -35.6666962     23  2.100                                             
     2     34.0145650     23  2.300                                             
     0    -28.5889381     23  1.600                                             
     0     40.8174780     23  2.200                                             
     1     -7.0826811     23  2.200                                             
     1    148.3035034     23  1.900                                             
     3      6.8029130      7  2.600                                             
  local pseudopotential read in
  partial core-charges read in
  partial kinetic energy density read in
  kinetic energy density of atom read in
  atomic valenz-charges read in
  non local Contribution for L=           2  read in
    real space projection operators read in
  non local Contribution for L=           2  read in
    real space projection operators read in
  non local Contribution for L=           0  read in
    real space projection operators read in
  non local Contribution for L=           0  read in
    real space projection operators read in
  non local Contribution for L=           1  read in
    real space projection operators read in
  non local Contribution for L=           1  read in
    real space projection operators read in
    PAW grid and wavefunctions read in
 
   number of l-projection  operators is LMAX  =           6
   number of lm-projection operators is LMMAX =          18
 
  PAW Og, JanMewes Oct 18               :
 energy of atom  1       EATOM=-2640.5573
 kinetic energy error for atom=    0.0286 (will be added to EATOM!!)
 
 
 POSCAR: Og_FCC                                  
  positions in direct lattice
  velocities in cartesian coordinates
 exchange correlation table for  LEXCH =        8
   RHO(1)=    0.500       N(1)  =     2000
   RHO(2)=  100.500       N(2)  =     4000
 


--------------------------------------------------------------------------------------------------------


 ion  position               nearest neighbor table
   1  0.000  0.000  0.000-
 
  LATTYP: Found a face centered cubic cell.
 ALAT       =     7.1330275536
  
  Lattice vectors:
  
 A1 = (   5.0438121535,   0.0000000000,   0.0000000000)
 A2 = (   2.5219060767,   4.3680694568,  -0.0000000000)
 A3 = (   2.5219060767,   1.4560231523,   4.1182553783)


Analysis of symmetry for initial positions (statically):
=====================================================================
 Subroutine PRICEL returns:
 Original cell was already a primitive cell.
 

 Routine SETGRP: Setting up the symmetry group for a 
 face centered cubic supercell.


 Subroutine GETGRP returns: Found 48 space group operations
 (whereof 48 operations were pure point group operations)
 out of a pool of 48 trial point group operations.


The static configuration has the point symmetry O_h .


Analysis of symmetry for dynamics (positions and initial velocities):
=====================================================================
 Subroutine PRICEL returns:
 Original cell was already a primitive cell.
 

 Routine SETGRP: Setting up the symmetry group for a 
 face centered cubic supercell.


 Subroutine GETGRP returns: Found 48 space group operations
 (whereof 48 operations were pure point group operations)
 out of a pool of 48 trial point group operations.


The dynamic configuration has the point symmetry O_h .


 Subroutine INISYM returns: Found 48 space group operations
 (whereof 48 operations are pure point group operations),
 and found     1 'primitive' translations

 
 

Automatic generation of k-mesh.
 generate k-points for:    8    8    8
Space group operators:
 irot       det(A)        alpha          n_x          n_y          n_z        tau_x        tau_y        tau_z
    1     1.000000     0.000000     1.000000     0.000000     0.000000     0.000000     0.000000     0.000000
    2    -1.000000     0.000000     1.000000     0.000000     0.000000     0.000000     0.000000     0.000000
    3     1.000000   120.000000    -0.816497    -0.471405    -0.333333     0.000000     0.000000     0.000000
    4    -1.000000   120.000000    -0.816497    -0.471405    -0.333333     0.000000     0.000000     0.000000
    5     1.000000   120.000000     0.816497     0.471405     0.333333     0.000000     0.000000     0.000000
    6    -1.000000   120.000000     0.816497     0.471405     0.333333     0.000000     0.000000     0.000000
    7     1.000000    90.000000    -0.707107    -0.408248     0.577350     0.000000     0.000000     0.000000
    8    -1.000000    90.000000    -0.707107    -0.408248     0.577350     0.000000     0.000000     0.000000
    9     1.000000   180.000000     1.000000     0.000000     0.000000     0.000000     0.000000     0.000000
   10    -1.000000   180.000000     1.000000     0.000000     0.000000     0.000000     0.000000     0.000000
   11     1.000000    90.000000     0.707107    -0.408248     0.577350     0.000000     0.000000     0.000000
   12    -1.000000    90.000000     0.707107    -0.408248     0.577350     0.000000     0.000000     0.000000
   13     1.000000   180.000000     0.707107     0.408248    -0.577350     0.000000     0.000000     0.000000
   14    -1.000000   180.000000     0.707107     0.408248    -0.577350     0.000000     0.000000     0.000000
   15     1.000000   120.000000     0.816497    -0.471405    -0.333333     0.000000     0.000000     0.000000
   16    -1.000000   120.000000     0.816497    -0.471405    -0.333333     0.000000     0.000000     0.000000
   17     1.000000   120.000000     0.000000    -0.942809     0.333333     0.000000     0.000000     0.000000
   18    -1.000000   120.000000     0.000000    -0.942809     0.333333     0.000000     0.000000     0.000000
   19     1.000000    90.000000     0.707107     0.408248    -0.577350     0.000000     0.000000     0.000000
   20    -1.000000    90.000000     0.707107     0.408248    -0.577350     0.000000     0.000000     0.000000
   21     1.000000    90.000000    -0.000000    -0.816497    -0.577350     0.000000     0.000000     0.000000
   22    -1.000000    90.000000    -0.000000    -0.816497    -0.577350     0.000000     0.000000     0.000000
   23     1.000000   180.000000     0.500000     0.866025    -0.000000     0.000000     0.000000     0.000000
   24    -1.000000   180.000000     0.500000     0.866025    -0.000000     0.000000     0.000000     0.000000
   25     1.000000   120.000000     0.000000     0.942809    -0.333333     0.000000     0.000000     0.000000
   26    -1.000000   120.000000     0.000000     0.942809    -0.333333     0.000000     0.000000     0.000000
   27     1.000000   120.000000     0.000000    -0.000000    -1.000000     0.000000     0.000000     0.000000
   28    -1.000000   120.000000     0.000000    -0.000000    -1.000000     0.000000     0.000000     0.000000
   29     1.000000   180.000000     0.000000    -0.816497    -0.577350     0.000000     0.000000     0.000000
   30    -1.000000   180.000000     0.000000    -0.816497    -0.577350     0.000000     0.000000     0.000000
   31     1.000000    90.000000    -0.707107     0.408248    -0.577350     0.000000     0.000000     0.000000
   32    -1.000000    90.000000    -0.707107     0.408248    -0.577350     0.000000     0.000000     0.000000
   33     1.000000   180.000000     0.500000     0.288675     0.816497     0.000000     0.000000     0.000000
   34    -1.000000   180.000000     0.500000     0.288675     0.816497     0.000000     0.000000     0.000000
   35     1.000000    90.000000    -0.000000     0.816497     0.577350     0.000000     0.000000     0.000000
   36    -1.000000    90.000000    -0.000000     0.816497     0.577350     0.000000     0.000000     0.000000
   37     1.000000   120.000000    -0.816497     0.471405     0.333333     0.000000     0.000000     0.000000
   38    -1.000000   120.000000    -0.816497     0.471405     0.333333     0.000000     0.000000     0.000000
   39     1.000000   179.999999    -0.707107     0.408248    -0.577350     0.000000     0.000000     0.000000
   40    -1.000000   179.999999    -0.707107     0.408248    -0.577350     0.000000     0.000000     0.000000
   41     1.000000   120.000000     0.000000     0.000000     1.000000     0.000000     0.000000     0.000000
   42    -1.000000   120.000000     0.000000     0.000000     1.000000     0.000000     0.000000     0.000000
   43     1.000000   180.000000     0.000000     0.577350    -0.816497     0.000000     0.000000     0.000000
   44    -1.000000   180.000000     0.000000     0.577350    -0.816497     0.000000     0.000000     0.000000
   45     1.000000   180.000000    -0.500000     0.866025    -0.000000     0.000000     0.000000     0.000000
   46    -1.000000   180.000000    -0.500000     0.866025    -0.000000     0.000000     0.000000     0.000000
   47     1.000000   180.000000    -0.500000     0.288675     0.816497     0.000000     0.000000     0.000000
   48    -1.000000   180.000000    -0.500000     0.288675     0.816497     0.000000     0.000000     0.000000
 
 Subroutine IBZKPT returns following result:
 ===========================================
 
 Found     29 irreducible k-points:
 
 Following reciprocal coordinates:
            Coordinates               Weight
  0.000000  0.000000  0.000000      1.000000
  0.125000  0.000000  0.000000      8.000000
  0.250000  0.000000  0.000000      8.000000
  0.375000  0.000000  0.000000      8.000000
  0.500000  0.000000  0.000000      4.000000
  0.125000  0.125000  0.000000      6.000000
  0.250000  0.125000  0.000000     24.000000
  0.375000  0.125000  0.000000     24.000000
  0.500000  0.125000  0.000000     24.000000
 -0.375000  0.125000  0.000000     24.000000
 -0.250000  0.125000 -0.000000     24.000000
 -0.125000  0.125000  0.000000     12.000000
  0.250000  0.250000  0.000000      6.000000
  0.375000  0.250000  0.000000     24.000000
  0.500000  0.250000  0.000000     24.000000
 -0.375000  0.250000  0.000000     24.000000
 -0.250000  0.250000  0.000000     12.000000
  0.375000  0.375000  0.000000      6.000000
  0.500000  0.375000  0.000000     24.000000
 -0.375000  0.375000  0.000000     12.000000
  0.500000  0.500000  0.000000      3.000000
  0.375000  0.250000  0.125000     24.000000
  0.500000  0.250000  0.125000     48.000000
 -0.375000  0.250000  0.125000     24.000000
  0.500000  0.375000  0.125000     24.000000
 -0.375000  0.375000  0.125000     48.000000
 -0.250000  0.375000  0.125000     24.000000
 -0.375000  0.500000  0.125000     12.000000
 -0.250000  0.500000  0.250000      6.000000
 
 Following cartesian coordinates:
            Coordinates               Weight
  0.000000  0.000000  0.000000      1.000000
  0.025278 -0.014595 -0.010320      8.000000
  0.050557 -0.029189 -0.020640      8.000000
  0.075835 -0.043784 -0.030960      8.000000
  0.101114 -0.058378 -0.041280      4.000000
  0.025278  0.014595 -0.020640      6.000000
  0.050557  0.000000 -0.030960     24.000000
  0.075835 -0.014595 -0.041280     24.000000
  0.101114 -0.029189 -0.051600     24.000000
 -0.075835  0.072973  0.020640     24.000000
 -0.050557  0.058378  0.010320     24.000000
 -0.025278  0.043784 -0.000000     12.000000
  0.050557  0.029189 -0.041280      6.000000
  0.075835  0.014595 -0.051600     24.000000
  0.101114  0.000000 -0.061919     24.000000
 -0.075835  0.102162  0.010320     24.000000
 -0.050557  0.087567 -0.000000     12.000000
  0.075835  0.043784 -0.061919      6.000000
  0.101114  0.029189 -0.072239     24.000000
 -0.075835  0.131351 -0.000000     12.000000
  0.101114  0.058378 -0.082559      3.000000
  0.075835  0.014595 -0.020640     24.000000
  0.101114  0.000000 -0.030960     48.000000
 -0.075835  0.102162  0.041280     24.000000
  0.101114  0.029189 -0.041280     24.000000
 -0.075835  0.131351  0.030960     48.000000
 -0.050557  0.116756  0.020640     24.000000
 -0.075835  0.160540  0.020640     12.000000
 -0.050557  0.145945  0.041280      6.000000
 


--------------------------------------------------------------------------------------------------------




 Dimension of arrays:
   k-points           NKPTS =     29   k-points in BZ     NKDIM =     29   number of bands    NBANDS=     13
   number of dos      NEDOS =    301   number of ions     NIONS =      1
   non local maximal  LDIM  =      6   non local SUM 2l+1 LMDIM =     18
   total plane-waves  NPLWV =  64000
   max r-space proj   IRMAX =      1   max aug-charges    IRDMAX= 339021
   dimension x,y,z NGX =    40 NGY =   40 NGZ =   40
   dimension x,y,z NGXF=    80 NGYF=   80 NGZF=   80
   support grid    NGXF=   160 NGYF=  160 NGZF=  160
   ions per type =               1
   NGX,Y,Z   is equivalent  to a cutoff of  13.18, 13.18, 13.18 a.u.
   NGXF,Y,Z  is equivalent  to a cutoff of  26.37, 26.37, 26.37 a.u.

 SYSTEM =  Og_FCC                                  
 POSCAR =  Og_FCC                                  

 Startparameter for this run:
   NWRITE =      2    write-flag & timer
   PREC   = accura    normal or accurate (medium, high low for compatibility)
   ISTART =      0    job   : 0-new  1-cont  2-samecut
   ICHARG =      2    charge: 1-file 2-atom 10-const
   ISPIN  =      1    spin polarized calculation?
   LNONCOLLINEAR =      F non collinear calculations
   LSORBIT =      F    spin-orbit coupling
   INIWAV =      1    electr: 0-lowe 1-rand  2-diag
   LASPH  =      F    aspherical Exc in radial PAW
   METAGGA=      F    non-selfconsistent MetaGGA calc.

 Electronic Relaxation 1
   ENCUT  =  600.0 eV  44.10 Ry    6.64 a.u.  10.07 10.07 10.07*2*pi/ulx,y,z
   ENINI  =  600.0     initial cutoff
   ENAUG  =  361.0 eV  augmentation charge cutoff
   NELM   =    100;   NELMIN=  5; NELMDL= -5     # of ELM steps 
   EDIFF  = 0.1E-06   stopping-criterion for ELM
   LREAL  =      F    real-space projection
   NLSPLINE    = F    spline interpolate recip. space projectors
   LCOMPAT=      F    compatible to vasp.4.4
   GGA_COMPAT  = F    GGA compatible to vasp.4.4-vasp.4.6
   LMAXPAW     = -100 max onsite density
   LMAXMIX     =    2 max onsite mixed and CHGCAR
   VOSKOWN=      0    Vosko Wilk Nusair interpolation
   ROPT   =    0.00000
 Ionic relaxation
   EDIFFG = 0.1E-04   stopping-criterion for IOM
   NSW    =      1    number of steps for IOM
   NBLOCK =      1;   KBLOCK =      1    inner block; outer block 
   IBRION =     -1    ionic relax: 0-MD 1-quasi-New 2-CG
   NFREE  =      5    steps in history (QN), initial steepest desc. (CG)
   ISIF   =      7    stress and relaxation
   IWAVPR =     10    prediction:  0-non 1-charg 2-wave 3-comb
   ISYM   =      2    0-nonsym 1-usesym 2-fastsym
   LCORR  =      T    Harris-Foulkes like correction to forces

   POTIM  = 0.1000    time-step for ionic-motion
   TEIN   =    0.0    initial temperature
   TEBEG  =    0.0;   TEEND  =   0.0 temperature during run
   SMASS  =  -3.00    Nose mass-parameter (am)
   estimated Nose-frequenzy (Omega)   =  0.10E-29 period in steps =****** mass=  -0.581E-27a.u.
   SCALEE = 1.0000    scale energy and forces
   NPACO  =    256;   APACO  = 16.0  distance and # of slots for P.C.
   PSTRESS=    0.0 pullay stress

  Mass of Ions in am
   POMASS =   0.01
  Ionic Valenz
   ZVAL   =  18.00
  Atomic Wigner-Seitz radii
   RWIGS  =  -1.00
  virtual crystal weights 
   VCA    =   1.00
   NELECT =      18.0000    total number of electrons
   NUPDOWN=      -1.0000    fix difference up-down

 DOS related values:
   EMIN   =  10.00;   EMAX   =-10.00  energy-range for DOS
   EFERMI =   0.00
   ISMEAR =     1;   SIGMA  =   0.10  broadening in eV -4-tet -1-fermi 0-gaus

 Electronic relaxation 2 (details)
   IALGO  =     68    algorithm
   LDIAG  =      T    sub-space diagonalisation (order eigenvalues)
   LSUBROT=      F    optimize rotation matrix (better conditioning)
   TURBO    =      0    0=normal 1=particle mesh
   IRESTART =      0    0=no restart 2=restart with 2 vectors
   NREBOOT  =      0    no. of reboots
   NMIN     =      0    reboot dimension
   EREF     =   0.00    reference energy to select bands
   IMIX   =      4    mixing-type and parameters
     AMIX     =   0.40;   BMIX     =  1.00
     AMIX_MAG =   1.60;   BMIX_MAG =  1.00
     AMIN     =   0.10
     WC   =   100.;   INIMIX=   1;  MIXPRE=   1;  MAXMIX=  50

 Intra band minimization:
   WEIMIN = 0.0000     energy-eigenvalue tresh-hold
   EBREAK =  0.19E-08  absolut break condition
   DEPER  =   0.30     relativ break condition  

   TIME   =   0.40     timestep for ELM

  volume/ion in A,a.u.               =      90.73       612.29
  Fermi-wavevector in a.u.,A,eV,Ry     =   0.954799  1.804308 12.403620  0.911640
  Thomas-Fermi vector in A             =   2.083578
 
 Write flags
   LWAVE        =      F    write WAVECAR
   LDOWNSAMPLE  =      F    k-point downsampling of WAVECAR
   LCHARG       =      F    write CHGCAR
   LVTOT        =      F    write LOCPOT, total local potential
   LVHAR        =      F    write LOCPOT, Hartree potential only
   LELF         =      F    write electronic localiz. function (ELF)
   LORBIT       =      0    0 simple, 1 ext, 2 COOP (PROOUT), +10 PAW based schemes


 Dipole corrections
   LMONO  =      F    monopole corrections only (constant potential shift)
   LDIPOL =      F    correct potential (dipole corrections)
   IDIPOL =      0    1-x, 2-y, 3-z, 4-all directions 
   EPSILON=  1.0000000 bulk dielectric constant

 Exchange correlation treatment:
   GGA     =    PE    GGA type
   LEXCH   =     8    internal setting for exchange type
   VOSKOWN=      0    Vosko Wilk Nusair interpolation
   LHFCALC =     F    Hartree Fock is set to
   LHFONE  =     F    Hartree Fock one center treatment
   AEXX    =    0.0000 exact exchange contribution

 Linear response parameters
   LEPSILON=     F    determine dielectric tensor
   LRPA    =     F    only Hartree local field effects (RPA)
   LNABLA  =     F    use nabla operator in PAW spheres
   LVEL    =     F    velocity operator in full k-point grid
   LINTERFAST=   F  fast interpolation
   KINTER  =     0    interpolate to denser k-point grid
   CSHIFT  =0.1000    complex shift for real part using Kramers Kronig
   OMEGAMAX=  -1.0    maximum frequency
   DEG_THRESHOLD= 0.2000000E-02 threshold for treating states as degnerate
   RTIME   =   -0.100 relaxation time in fs
  (WPLASMAI=    0.000 imaginary part of plasma frequency in eV, 0.658/RTIME)
   DFIELD  = 0.0000000 0.0000000 0.0000000 field for delta impulse in time
 
 Orbital magnetization related:
   ORBITALMAG=     F  switch on orbital magnetization
   LCHIMAG   =     F  perturbation theory with respect to B field
   DQ        =  0.001000  dq finite difference perturbation B field
   LLRAUG    =     F  two centre corrections for induced B field



--------------------------------------------------------------------------------------------------------


 Static calculation
 charge density and potential will be updated during run
 non-spin polarized calculation
 RMM-DIIS sequential band-by-band and
  variant of blocked Davidson during initial phase
 perform sub-space diagonalisation
    before iterative eigenvector-optimisation
 modified Broyden-mixing scheme, WC =      100.0
 initial mixing is a Kerker type mixing with AMIX =  0.4000 and BMIX =      1.0000
 Hartree-type preconditioning will be used
 using additional bands            4
 reciprocal scheme for non local part
 use partial core corrections
 calculate Harris-corrections to forces 
   (improved forces if not selfconsistent)
 use gradient corrections 
 use of overlap-Matrix (Vanderbilt PP)
 Methfessel and Paxton  Order N= 1 SIGMA  =   0.10


--------------------------------------------------------------------------------------------------------


  energy-cutoff  :      600.00
  volume of cell :       90.73
      direct lattice vectors                 reciprocal lattice vectors
     5.043812153  0.000000000  0.000000000     0.198262737 -0.114467044 -0.080940423
     2.521906077  4.368069457 -0.000000000     0.000000000  0.228934089 -0.080940423
     2.521906077  1.456023152  4.118255378    -0.000000000  0.000000000  0.242821270

  length of vectors
     5.043812153  5.043812153  5.043812154     0.242821270  0.242821270  0.242821270


 
 k-points in units of 2pi/SCALE and weight: read from INCAR                         
   0.00000000  0.00000000  0.00000000       0.002
   0.02527850 -0.01459455 -0.01031990       0.016
   0.05055700 -0.02918910 -0.02063981       0.016
   0.07583550 -0.04378364 -0.03095971       0.016
   0.10111400 -0.05837819 -0.04127962       0.008
   0.02527850  0.01459455 -0.02063981       0.012
   0.05055700  0.00000000 -0.03095971       0.047
   0.07583550 -0.01459455 -0.04127962       0.047
   0.10111400 -0.02918910 -0.05159952       0.047
  -0.07583550  0.07297274  0.02063981       0.047
  -0.05055700  0.05837819  0.01031990       0.047
  -0.02527850  0.04378364 -0.00000000       0.023
   0.05055700  0.02918910 -0.04127962       0.012
   0.07583550  0.01459455 -0.05159952       0.047
   0.10111400  0.00000000 -0.06191942       0.047
  -0.07583550  0.10216184  0.01031990       0.047
  -0.05055700  0.08756729 -0.00000000       0.023
   0.07583550  0.04378364 -0.06191942       0.012
   0.10111400  0.02918910 -0.07223933       0.047
  -0.07583550  0.13135093 -0.00000000       0.023
   0.10111400  0.05837819 -0.08255923       0.006
   0.07583550  0.01459455 -0.02063981       0.047
   0.10111400  0.00000000 -0.03095971       0.094
  -0.07583550  0.10216184  0.04127962       0.047
   0.10111400  0.02918910 -0.04127962       0.047
  -0.07583550  0.13135093  0.03095971       0.094
  -0.05055700  0.11675639  0.02063981       0.047
  -0.07583550  0.16054003  0.02063981       0.023
  -0.05055700  0.14594548  0.04127962       0.012
 
 k-points in reciprocal lattice and weights: read from INCAR                         
   0.00000000  0.00000000  0.00000000       0.002
   0.12500000  0.00000000  0.00000000       0.016
   0.25000000  0.00000000  0.00000000       0.016
   0.37500000  0.00000000  0.00000000       0.016
   0.50000000  0.00000000  0.00000000       0.008
   0.12500000  0.12500000  0.00000000       0.012
   0.25000000  0.12500000  0.00000000       0.047
   0.37500000  0.12500000  0.00000000       0.047
   0.50000000  0.12500000  0.00000000       0.047
  -0.37500000  0.12500000  0.00000000       0.047
  -0.25000000  0.12500000 -0.00000000       0.047
  -0.12500000  0.12500000  0.00000000       0.023
   0.25000000  0.25000000  0.00000000       0.012
   0.37500000  0.25000000  0.00000000       0.047
   0.50000000  0.25000000  0.00000000       0.047
  -0.37500000  0.25000000  0.00000000       0.047
  -0.25000000  0.25000000  0.00000000       0.023
   0.37500000  0.37500000  0.00000000       0.012
   0.50000000  0.37500000  0.00000000       0.047
  -0.37500000  0.37500000  0.00000000       0.023
   0.50000000  0.50000000  0.00000000       0.006
   0.37500000  0.25000000  0.12500000       0.047
   0.50000000  0.25000000  0.12500000       0.094
  -0.37500000  0.25000000  0.12500000       0.047
   0.50000000  0.37500000  0.12500000       0.047
  -0.37500000  0.37500000  0.12500000       0.094
  -0.25000000  0.37500000  0.12500000       0.047
  -0.37500000  0.50000000  0.12500000       0.023
  -0.25000000  0.50000000  0.25000000       0.012
 
 position of ions in fractional coordinates (direct lattice) 
   0.00000000  0.00000000  0.00000000
 
 position of ions in cartesian coordinates  (Angst):
   0.00000000  0.00000000  0.00000000
 


--------------------------------------------------------------------------------------------------------


 k-point  1 :   0.0000 0.0000 0.0000  plane waves:    2975
 k-point  2 :   0.1250 0.0000 0.0000  plane waves:    3014
 k-point  3 :   0.2500 0.0000 0.0000  plane waves:    3001
 k-point  4 :   0.3750 0.0000 0.0000  plane waves:    3016
 k-point  5 :   0.5000 0.0000 0.0000  plane waves:    3040
 k-point  6 :   0.1250 0.1250 0.0000  plane waves:    3006
 k-point  7 :   0.2500 0.1250 0.0000  plane waves:    3012
 k-point  8 :   0.3750 0.1250 0.0000  plane waves:    3006
 k-point  9 :   0.5000 0.1250 0.0000  plane waves:    3039
 k-point 10 :  -0.3750 0.1250 0.0000  plane waves:    3029
 k-point 11 :  -0.2500 0.1250-0.0000  plane waves:    3016
 k-point 12 :  -0.1250 0.1250 0.0000  plane waves:    3012
 k-point 13 :   0.2500 0.2500 0.0000  plane waves:    3042
 k-point 14 :   0.3750 0.2500 0.0000  plane waves:    3031
 k-point 15 :   0.5000 0.2500 0.0000  plane waves:    3022
 k-point 16 :  -0.3750 0.2500 0.0000  plane waves:    3031
 k-point 17 :  -0.2500 0.2500 0.0000  plane waves:    3042
 k-point 18 :   0.3750 0.3750 0.0000  plane waves:    3034
 k-point 19 :   0.5000 0.3750 0.0000  plane waves:    3028
 k-point 20 :  -0.3750 0.3750 0.0000  plane waves:    3032
 k-point 21 :   0.5000 0.5000 0.0000  plane waves:    3026
 k-point 22 :   0.3750 0.2500 0.1250  plane waves:    3017
 k-point 23 :   0.5000 0.2500 0.1250  plane waves:    3032
 k-point 24 :  -0.3750 0.2500 0.1250  plane waves:    3052
 k-point 25 :   0.5000 0.3750 0.1250  plane waves:    3032
 k-point 26 :  -0.3750 0.3750 0.1250  plane waves:    3044
 k-point 27 :  -0.2500 0.3750 0.1250  plane waves:    3044
 k-point 28 :  -0.3750 0.5000 0.1250  plane waves:    3024
 k-point 29 :  -0.2500 0.5000 0.2500  plane waves:    3028

 maximum and minimum number of plane-waves per node :      1532     1479

 maximum number of plane-waves:      3052
 maximum index in each direction: 
   IXMAX=   10   IYMAX=   10   IZMAX=   10
   IXMIN=  -10   IYMIN=  -10   IZMIN=  -10


 parallel 3D FFT for wavefunctions:
    minimum data exchange during FFTs selected (reduces bandwidth)
 parallel 3D FFT for charge:
    minimum data exchange during FFTs selected (reduces bandwidth)


 total amount of memory used by VASP MPI-rank0    98293. kBytes
=======================================================================

   base      :      30000. kBytes
   nonl-proj :       6422. kBytes
   fftplans  :      38722. kBytes
   grid      :      13785. kBytes
   one-center:         15. kBytes
   wavefun   :       9349. kBytes
 
     INWAV:  cpu time    0.0000: real time    0.0004
 Broyden mixing: mesh for mixing (old mesh)
   NGX = 21   NGY = 21   NGZ = 21
  (NGX  = 80   NGY  = 80   NGZ  = 80)
  gives a total of   9261 points

 initial charge density was supplied:
 charge density of overlapping atoms calculated
 number of electron      18.0000000 magnetization 
 keeping initial charge density in first step


--------------------------------------------------------------------------------------------------------


 Maximum index for augmentation-charges       164409 (set IRDMAX)


--------------------------------------------------------------------------------------------------------


 First call to EWALD:  gamma=   0.394
 Maximum number of real-space cells 3x 3x 3
 Maximum number of reciprocal cells 3x 3x 3

    FEWALD:  cpu time    0.0017: real time    0.0017


--------------------------------------- Iteration      1(   1)  ---------------------------------------


    POTLOK:  cpu time    0.1480: real time    0.1485
    SETDIJ:  cpu time    0.1165: real time    0.1164
     EDDAV:  cpu time    0.3216: real time    0.3215
       DOS:  cpu time    0.0004: real time    0.0004
    --------------------------------------------
      LOOP:  cpu time    0.5866: real time    0.5869

 eigenvalue-minimisations  :   754
 total energy-change (2. order) : 0.3193769E+03  (-0.8510987E+03)
 number of electron      18.0000000 magnetization 
 augmentation part       18.0000000 magnetization 

 Free energy of the ion-electron system (eV)
  ---------------------------------------------------
  alpha Z        PSCENC =        42.04961645
  Ewald energy   TEWEN  =     -1499.42055927
  -Hartree energ DENC   =      -829.03028450
  -exchange      EXHF   =         0.00000000
  -V(xc)+E(xc)   XCENC  =       -69.60702378
  PAW double counting   =      2268.42939301    -2184.22833953
  entropy T*S    EENTRO =        -0.00142855
  eigenvalues    EBANDS =       -49.34321319
  atomic energy  EATOM  =      2640.52872706
  Solvation  Ediel_sol  =         0.00000000
  ---------------------------------------------------
  free energy    TOTEN  =       319.37688769 eV

  energy without entropy =      319.37831623  energy(sigma->0) =      319.37736387


--------------------------------------------------------------------------------------------------------




--------------------------------------- Iteration      1(   2)  ---------------------------------------


     EDDAV:  cpu time    0.3844: real time    0.3845
       DOS:  cpu time    0.0004: real time    0.0004
    --------------------------------------------
      LOOP:  cpu time    0.3848: real time    0.3849

 eigenvalue-minimisations  :  1162
 total energy-change (2. order) :-0.3058992E+03  (-0.2917214E+03)
 number of electron      18.0000000 magnetization 
 augmentation part       18.0000000 magnetization 

 Free energy of the ion-electron system (eV)
  ---------------------------------------------------
  alpha Z        PSCENC =        42.04961645
  Ewald energy   TEWEN  =     -1499.42055927
  -Hartree energ DENC   =      -829.03028450
  -exchange      EXHF   =         0.00000000
  -V(xc)+E(xc)   XCENC  =       -69.60702378
  PAW double counting   =      2268.42939301    -2184.22833953
  entropy T*S    EENTRO =         0.00065618
  eigenvalues    EBANDS =      -355.24447909
  atomic energy  EATOM  =      2640.52872706
  Solvation  Ediel_sol  =         0.00000000
  ---------------------------------------------------
  free energy    TOTEN  =        13.47770651 eV

  energy without entropy =       13.47705034  energy(sigma->0) =       13.47748779


--------------------------------------------------------------------------------------------------------




--------------------------------------- Iteration      1(   3)  ---------------------------------------


     EDDAV:  cpu time    0.3366: real time    0.3365
       DOS:  cpu time    0.0004: real time    0.0004
    --------------------------------------------
      LOOP:  cpu time    0.3370: real time    0.3369

 eigenvalue-minimisations  :   919
 total energy-change (2. order) :-0.1325894E+02  (-0.1323527E+02)
 number of electron      18.0000000 magnetization 
 augmentation part       18.0000000 magnetization 

 Free energy of the ion-electron system (eV)
  ---------------------------------------------------
  alpha Z        PSCENC =        42.04961645
  Ewald energy   TEWEN  =     -1499.42055927
  -Hartree energ DENC   =      -829.03028450
  -exchange      EXHF   =         0.00000000
  -V(xc)+E(xc)   XCENC  =       -69.60702378
  PAW double counting   =      2268.42939301    -2184.22833953
  entropy T*S    EENTRO =         0.00306099
  eigenvalues    EBANDS =      -368.50582705
  atomic energy  EATOM  =      2640.52872706
  Solvation  Ediel_sol  =         0.00000000
  ---------------------------------------------------
  free energy    TOTEN  =         0.21876336 eV

  energy without entropy =        0.21570237  energy(sigma->0) =        0.21774303


--------------------------------------------------------------------------------------------------------




--------------------------------------- Iteration      1(   4)  ---------------------------------------


     EDDAV:  cpu time    0.3720: real time    0.3719
       DOS:  cpu time    0.0004: real time    0.0004
    --------------------------------------------
      LOOP:  cpu time    0.3724: real time    0.3723

 eigenvalue-minimisations  :  1083
 total energy-change (2. order) :-0.2280557E+00  (-0.2280301E+00)
 number of electron      18.0000000 magnetization 
 augmentation part       18.0000000 magnetization 

 Free energy of the ion-electron system (eV)
  ---------------------------------------------------
  alpha Z        PSCENC =        42.04961645
  Ewald energy   TEWEN  =     -1499.42055927
  -Hartree energ DENC   =      -829.03028450
  -exchange      EXHF   =         0.00000000
  -V(xc)+E(xc)   XCENC  =       -69.60702378
  PAW double counting   =      2268.42939301    -2184.22833953
  entropy T*S    EENTRO =         0.00296264
  eigenvalues    EBANDS =      -368.73378443
  atomic energy  EATOM  =      2640.52872706
  Solvation  Ediel_sol  =         0.00000000
  ---------------------------------------------------
  free energy    TOTEN  =        -0.00929236 eV

  energy without entropy =       -0.01225501  energy(sigma->0) =       -0.01027991


--------------------------------------------------------------------------------------------------------




--------------------------------------- Iteration      1(   5)  ---------------------------------------


     EDDAV:  cpu time    0.3374: real time    0.3373
       DOS:  cpu time    0.0004: real time    0.0004
    CHARGE:  cpu time    0.1459: real time    0.1460
    MIXING:  cpu time    0.0062: real time    0.0062
    --------------------------------------------
      LOOP:  cpu time    0.4900: real time    0.4900

 eigenvalue-minimisations  :   947
 total energy-change (2. order) :-0.5588714E-02  (-0.5588604E-02)
 number of electron      18.0000000 magnetization 
 augmentation part        2.9928719 magnetization 

 Broyden mixing:
  rms(total) = 0.13247E-01    rms(broyden)= 0.12033E-01
  rms(prec ) = 0.21807E-01
  weight for this iteration     100.00

 Free energy of the ion-electron system (eV)
  ---------------------------------------------------
  alpha Z        PSCENC =        42.04961645
  Ewald energy   TEWEN  =     -1499.42055927
  -Hartree energ DENC   =      -829.03028450
  -exchange      EXHF   =         0.00000000
  -V(xc)+E(xc)   XCENC  =       -69.60702378
  PAW double counting   =      2268.42939301    -2184.22833953
  entropy T*S    EENTRO =         0.00295858
  eigenvalues    EBANDS =      -368.73936908
  atomic energy  EATOM  =      2640.52872706
  Solvation  Ediel_sol  =         0.00000000
  ---------------------------------------------------
  free energy    TOTEN  =        -0.01488108 eV

  energy without entropy =       -0.01783966  energy(sigma->0) =       -0.01586727


--------------------------------------------------------------------------------------------------------




--------------------------------------- Iteration      1(   6)  ---------------------------------------


    POTLOK:  cpu time    0.1467: real time    0.1468
    SETDIJ:  cpu time    0.1133: real time    0.1132
    EDDIAG:  cpu time    0.0685: real time    0.0685
  RMM-DIIS:  cpu time    0.3459: real time    0.3458
    ORTHCH:  cpu time    0.0026: real time    0.0026
       DOS:  cpu time    0.0004: real time    0.0004
    CHARGE:  cpu time    0.1450: real time    0.1449
    MIXING:  cpu time    0.0047: real time    0.0047
    --------------------------------------------
      LOOP:  cpu time    0.8271: real time    0.8268

 eigenvalue-minimisations  :   909
 total energy-change (2. order) :-0.4785574E-03  (-0.4142335E-03)
 number of electron      18.0000000 magnetization 
 augmentation part        2.9916980 magnetization 

 Broyden mixing:
  rms(total) = 0.69605E-02    rms(broyden)= 0.68733E-02
  rms(prec ) = 0.12549E-01
  weight for this iteration     100.00

 eigenvalues of (default mixing * dielectric matrix)
  average eigenvalue GAMMA=   2.2301
  2.2301

 Free energy of the ion-electron system (eV)
  ---------------------------------------------------
  alpha Z        PSCENC =        42.04961645
  Ewald energy   TEWEN  =     -1499.42055927
  -Hartree energ DENC   =      -828.79867478
  -exchange      EXHF   =         0.00000000
  -V(xc)+E(xc)   XCENC  =       -69.62237273
  PAW double counting   =      2266.43381700    -2182.21229406
  entropy T*S    EENTRO =         0.00296477
  eigenvalues    EBANDS =      -368.97658408
  atomic energy  EATOM  =      2640.52872706
  Solvation  Ediel_sol  =         0.00000000
  ---------------------------------------------------
  free energy    TOTEN  =        -0.01535964 eV

  energy without entropy =       -0.01832441  energy(sigma->0) =       -0.01634789


--------------------------------------------------------------------------------------------------------




--------------------------------------- Iteration      1(   7)  ---------------------------------------


    POTLOK:  cpu time    0.1462: real time    0.1462
    SETDIJ:  cpu time    0.1118: real time    0.1118
    EDDIAG:  cpu time    0.0676: real time    0.0676
  RMM-DIIS:  cpu time    0.3548: real time    0.3546
    ORTHCH:  cpu time    0.0026: real time    0.0025
       DOS:  cpu time    0.0004: real time    0.0004
    CHARGE:  cpu time    0.1442: real time    0.1442
    MIXING:  cpu time    0.0048: real time    0.0048
    --------------------------------------------
      LOOP:  cpu time    0.8324: real time    0.8321

 eigenvalue-minimisations  :   964
 total energy-change (2. order) :-0.3875363E-03  (-0.1222508E-03)
 number of electron      18.0000000 magnetization 
 augmentation part        2.9913522 magnetization 

 Broyden mixing:
  rms(total) = 0.10232E-02    rms(broyden)= 0.99882E-03
  rms(prec ) = 0.19508E-02
  weight for this iteration     100.00

 eigenvalues of (default mixing * dielectric matrix)
  average eigenvalue GAMMA=   1.9209
  1.3077  2.5340

 Free energy of the ion-electron system (eV)
  ---------------------------------------------------
  alpha Z        PSCENC =        42.04961645
  Ewald energy   TEWEN  =     -1499.42055927
  -Hartree energ DENC   =      -828.47518909
  -exchange      EXHF   =         0.00000000
  -V(xc)+E(xc)   XCENC  =       -69.64111650
  PAW double counting   =      2264.75842375    -2180.52225376
  entropy T*S    EENTRO =         0.00297196
  eigenvalues    EBANDS =      -369.29636777
  atomic energy  EATOM  =      2640.52872706
  Solvation  Ediel_sol  =         0.00000000
  ---------------------------------------------------
  free energy    TOTEN  =        -0.01574717 eV

  energy without entropy =       -0.01871913  energy(sigma->0) =       -0.01673783


--------------------------------------------------------------------------------------------------------




--------------------------------------- Iteration      1(   8)  ---------------------------------------


    POTLOK:  cpu time    0.1444: real time    0.1445
    SETDIJ:  cpu time    0.1117: real time    0.1117
    EDDIAG:  cpu time    0.0675: real time    0.0675
  RMM-DIIS:  cpu time    0.3509: real time    0.3508
    ORTHCH:  cpu time    0.0026: real time    0.0026
       DOS:  cpu time    0.0004: real time    0.0004
    CHARGE:  cpu time    0.1447: real time    0.1447
    MIXING:  cpu time    0.0049: real time    0.0049
    --------------------------------------------
      LOOP:  cpu time    0.8272: real time    0.8270

 eigenvalue-minimisations  :   970
 total energy-change (2. order) :-0.1570732E-04  (-0.9025045E-05)
 number of electron      18.0000000 magnetization 
 augmentation part        2.9910373 magnetization 

 Broyden mixing:
  rms(total) = 0.60123E-03    rms(broyden)= 0.59954E-03
  rms(prec ) = 0.11093E-02
  weight for this iteration     100.00

 eigenvalues of (default mixing * dielectric matrix)
  average eigenvalue GAMMA=   1.9631
  2.7325  2.3281  0.8288

 Free energy of the ion-electron system (eV)
  ---------------------------------------------------
  alpha Z        PSCENC =        42.04961645
  Ewald energy   TEWEN  =     -1499.42055927
  -Hartree energ DENC   =      -828.45955380
  -exchange      EXHF   =         0.00000000
  -V(xc)+E(xc)   XCENC  =       -69.64213942
  PAW double counting   =      2265.35251379    -2181.12745703
  entropy T*S    EENTRO =         0.00297087
  eigenvalues    EBANDS =      -369.29988154
  atomic energy  EATOM  =      2640.52872706
  Solvation  Ediel_sol  =         0.00000000
  ---------------------------------------------------
  free energy    TOTEN  =        -0.01576288 eV

  energy without entropy =       -0.01873375  energy(sigma->0) =       -0.01675317


--------------------------------------------------------------------------------------------------------




--------------------------------------- Iteration      1(   9)  ---------------------------------------


    POTLOK:  cpu time    0.1453: real time    0.1454
    SETDIJ:  cpu time    0.1117: real time    0.1117
    EDDIAG:  cpu time    0.0675: real time    0.0675
  RMM-DIIS:  cpu time    0.3919: real time    0.3917
    ORTHCH:  cpu time    0.0026: real time    0.0025
       DOS:  cpu time    0.0004: real time    0.0004
    CHARGE:  cpu time    0.1443: real time    0.1443
    MIXING:  cpu time    0.0051: real time    0.0051
    --------------------------------------------
      LOOP:  cpu time    0.8697: real time    0.8686

 eigenvalue-minimisations  :  1056
 total energy-change (2. order) :-0.8672343E-05  (-0.2589791E-05)
 number of electron      18.0000000 magnetization 
 augmentation part        2.9909481 magnetization 

 Broyden mixing:
  rms(total) = 0.21486E-03    rms(broyden)= 0.21458E-03
  rms(prec ) = 0.41309E-03
  weight for this iteration     100.00

 eigenvalues of (default mixing * dielectric matrix)
  average eigenvalue GAMMA=   1.9908
  0.9006  2.7265  2.4880  1.8480

 Free energy of the ion-electron system (eV)
  ---------------------------------------------------
  alpha Z        PSCENC =        42.04961645
  Ewald energy   TEWEN  =     -1499.42055927
  -Hartree energ DENC   =      -828.45541235
  -exchange      EXHF   =         0.00000000
  -V(xc)+E(xc)   XCENC  =       -69.64163341
  PAW double counting   =      2266.23303710    -2182.02075916
  entropy T*S    EENTRO =         0.00296933
  eigenvalues    EBANDS =      -369.29175729
  atomic energy  EATOM  =      2640.52872706
  Solvation  Ediel_sol  =         0.00000000
  ---------------------------------------------------
  free energy    TOTEN  =        -0.01577155 eV

  energy without entropy =       -0.01874088  energy(sigma->0) =       -0.01676133


--------------------------------------------------------------------------------------------------------




--------------------------------------- Iteration      1(  10)  ---------------------------------------


    POTLOK:  cpu time    0.1440: real time    0.1441
    SETDIJ:  cpu time    0.1114: real time    0.1113
    EDDIAG:  cpu time    0.0676: real time    0.0675
  RMM-DIIS:  cpu time    0.3690: real time    0.3688
    ORTHCH:  cpu time    0.0025: real time    0.0025
       DOS:  cpu time    0.0004: real time    0.0004
    CHARGE:  cpu time    0.1445: real time    0.1445
    MIXING:  cpu time    0.0051: real time    0.0051
    --------------------------------------------
      LOOP:  cpu time    0.8436: real time    0.8443

 eigenvalue-minimisations  :  1010
 total energy-change (2. order) :-0.9205178E-06  (-0.3802310E-06)
 number of electron      18.0000000 magnetization 
 augmentation part        2.9910007 magnetization 

 Broyden mixing:
  rms(total) = 0.24191E-04    rms(broyden)= 0.23821E-04
  rms(prec ) = 0.61786E-04
  weight for this iteration     100.00

 eigenvalues of (default mixing * dielectric matrix)
  average eigenvalue GAMMA=   1.9393
  3.3393  2.4988  1.7820  0.9155  1.1607

 Free energy of the ion-electron system (eV)
  ---------------------------------------------------
  alpha Z        PSCENC =        42.04961645
  Ewald energy   TEWEN  =     -1499.42055927
  -Hartree energ DENC   =      -828.44341880
  -exchange      EXHF   =         0.00000000
  -V(xc)+E(xc)   XCENC  =       -69.64162018
  PAW double counting   =      2266.24174028    -2182.02798653
  entropy T*S    EENTRO =         0.00296963
  eigenvalues    EBANDS =      -369.30524111
  atomic energy  EATOM  =      2640.52872706
  Solvation  Ediel_sol  =         0.00000000
  ---------------------------------------------------
  free energy    TOTEN  =        -0.01577247 eV

  energy without entropy =       -0.01874210  energy(sigma->0) =       -0.01676235


--------------------------------------------------------------------------------------------------------




--------------------------------------- Iteration      1(  11)  ---------------------------------------


    POTLOK:  cpu time    0.1466: real time    0.1467
    SETDIJ:  cpu time    0.1123: real time    0.1123
    EDDIAG:  cpu time    0.0679: real time    0.0680
  RMM-DIIS:  cpu time    0.3245: real time    0.3243
    ORTHCH:  cpu time    0.0026: real time    0.0026
       DOS:  cpu time    0.0004: real time    0.0004
    CHARGE:  cpu time    0.1445: real time    0.1444
    MIXING:  cpu time    0.0055: real time    0.0054
    --------------------------------------------
      LOOP:  cpu time    0.8042: real time    0.8041

 eigenvalue-minimisations  :   839
 total energy-change (2. order) :-0.3526488E-06  (-0.8247814E-07)
 number of electron      18.0000000 magnetization 
 augmentation part        2.9910026 magnetization 

 Broyden mixing:
  rms(total) = 0.26261E-04    rms(broyden)= 0.26054E-04
  rms(prec ) = 0.55153E-04
  weight for this iteration     100.00

 eigenvalues of (default mixing * dielectric matrix)
  average eigenvalue GAMMA=   2.0853
  3.3753  0.8932  0.9848  2.5255  2.5255  2.2076

 Free energy of the ion-electron system (eV)
  ---------------------------------------------------
  alpha Z        PSCENC =        42.04961645
  Ewald energy   TEWEN  =     -1499.42055927
  -Hartree energ DENC   =      -828.44397097
  -exchange      EXHF   =         0.00000000
  -V(xc)+E(xc)   XCENC  =       -69.64155810
  PAW double counting   =      2266.28846964    -2182.07543135
  entropy T*S    EENTRO =         0.00296952
  eigenvalues    EBANDS =      -369.30403580
  atomic energy  EATOM  =      2640.52872706
  Solvation  Ediel_sol  =         0.00000000
  ---------------------------------------------------
  free energy    TOTEN  =        -0.01577282 eV

  energy without entropy =       -0.01874234  energy(sigma->0) =       -0.01676266


--------------------------------------------------------------------------------------------------------




--------------------------------------- Iteration      1(  12)  ---------------------------------------


    POTLOK:  cpu time    0.1455: real time    0.1457
    SETDIJ:  cpu time    0.1116: real time    0.1115
    EDDIAG:  cpu time    0.0676: real time    0.0675
  RMM-DIIS:  cpu time    0.2579: real time    0.2578
    ORTHCH:  cpu time    0.0025: real time    0.0025
       DOS:  cpu time    0.0004: real time    0.0004
    --------------------------------------------
      LOOP:  cpu time    0.5854: real time    0.5855

 eigenvalue-minimisations  :   664
 total energy-change (2. order) : 0.1514172E-07  (-0.1528191E-07)
 number of electron      18.0000000 magnetization 
 augmentation part        2.9910026 magnetization 

 Free energy of the ion-electron system (eV)
  ---------------------------------------------------
  alpha Z        PSCENC =        42.04961645
  Ewald energy   TEWEN  =     -1499.42055927
  -Hartree energ DENC   =      -828.44765505
  -exchange      EXHF   =         0.00000000
  -V(xc)+E(xc)   XCENC  =       -69.64152688
  PAW double counting   =      2266.28401631    -2182.07133909
  entropy T*S    EENTRO =         0.00296939
  eigenvalues    EBANDS =      -369.30002174
  atomic energy  EATOM  =      2640.52872706
  Solvation  Ediel_sol  =         0.00000000
  ---------------------------------------------------
  free energy    TOTEN  =        -0.01577281 eV

  energy without entropy =       -0.01874220  energy(sigma->0) =       -0.01676261


--------------------------------------------------------------------------------------------------------




 average (electrostatic) potential at core
  the test charge radii are     1.2024
  (the norm of the test charge is              1.0000)
       1-115.1686
 
 
 
 E-fermi :  -1.7035     XC(G=0):  -6.1905     alpha+bet : -4.8364


 k-point     1 :       0.0000    0.0000    0.0000
  band No.  band energies     occupation 
      1     -30.8262      2.00000
      2     -30.8262      2.00000
      3     -30.8262      2.00000
      4     -30.8259      2.00000
      5     -30.8259      2.00000
      6     -23.7595      2.00000
      7      -1.7268      1.38322
      8      -1.7268      1.38322
      9      -1.7268      1.38322
     10       1.5084      0.00000
     11       7.4128      0.00000
     12       7.4128      0.00000
     13       7.4128      0.00000

 k-point     2 :       0.1250    0.0000    0.0000
  band No.  band energies     occupation 
      1     -30.8261      2.00000
      2     -30.8261      2.00000
      3     -30.8261      2.00000
      4     -30.8259      2.00000
      5     -30.8259      2.00000
      6     -23.7575      2.00000
      7      -1.9821      2.00059
      8      -1.7499      1.69924
      9      -1.7499      1.69924
     10       1.9201      0.00000
     11       6.9099      0.00000
     12       7.5198      0.00000
     13       7.5198      0.00000

 k-point     3 :       0.2500    0.0000    0.0000
  band No.  band energies     occupation 
      1     -30.8261      2.00000
      2     -30.8261      2.00000
      3     -30.8260      2.00000
      4     -30.8257      2.00000
      5     -30.8257      2.00000
      6     -23.7528      2.00000
      7      -2.4513      2.00000
      8      -1.8043      2.05186
      9      -1.8043      2.05186
     10       2.7528      0.00000
     11       6.5567      0.00000
     12       7.4985      0.00000
     13       7.4985      0.00000

 k-point     4 :       0.3750    0.0000    0.0000
  band No.  band energies     occupation 
      1     -30.8261      2.00000
      2     -30.8261      2.00000
      3     -30.8260      2.00000
      4     -30.8255      2.00000
      5     -30.8255      2.00000
      6     -23.7480      2.00000
      7      -2.8116      2.00000
      8      -1.8570      2.05210
      9      -1.8570      2.05210
     10       3.3784      0.00000
     11       6.8315      0.00000
     12       7.2345      0.00000
     13       7.2345      0.00000

 k-point     5 :       0.5000    0.0000    0.0000
  band No.  band energies     occupation 
      1     -30.8262      2.00000
      2     -30.8262      2.00000
      3     -30.8259      2.00000
      4     -30.8254      2.00000
      5     -30.8254      2.00000
      6     -23.7461      2.00000
      7      -2.9415      2.00000
      8      -1.8784      2.03292
      9      -1.8784      2.03292
     10       3.5584      0.00000
     11       7.1190      0.00000
     12       7.1190      0.00000
     13       7.1589      0.00000

 k-point     6 :       0.1250    0.1250    0.0000
  band No.  band energies     occupation 
      1     -30.8262      2.00000
      2     -30.8260      2.00000
      3     -30.8260      2.00000
      4     -30.8259      2.00000
      5     -30.8258      2.00000
      6     -23.7569      2.00000
      7      -1.9886      2.00042
      8      -1.7955      2.02940
      9      -1.7955      2.02940
     10       2.0621      0.00000
     11       6.7044      0.00000
     12       7.6371      0.00000
     13       7.6380      0.00000

 k-point     7 :       0.2500    0.1250    0.0000
  band No.  band energies     occupation 
      1     -30.8262      2.00000
      2     -30.8260      2.00000
      3     -30.8260      2.00000
      4     -30.8258      2.00000
      5     -30.8257      2.00000
      6     -23.7531      2.00000
      7      -2.3391      2.00000
      8      -1.8646      2.04508
      9      -1.8491      2.05912
     10       2.7752      0.00000
     11       6.3417      0.00000
     12       7.1755      0.00000
     13       7.7891      0.00000

 k-point     8 :       0.3750    0.1250    0.0000
  band No.  band energies     occupation 
      1     -30.8261      2.00000
      2     -30.8260      2.00000
      3     -30.8260      2.00000
      4     -30.8256      2.00000
      5     -30.8254      2.00000
      6     -23.7483      2.00000
      7      -2.6943      2.00000
      8      -1.9316      2.00583
      9      -1.9164      2.01032
     10       3.5328      0.00000
     11       6.4007      0.00000
     12       6.7248      0.00000
     13       7.5999      0.00000

 k-point     9 :       0.5000    0.1250    0.0000
  band No.  band energies     occupation 
      1     -30.8262      2.00000
      2     -30.8260      2.00000
      3     -30.8259      2.00000
      4     -30.8255      2.00000
      5     -30.8254      2.00000
      6     -23.7455      2.00000
      7      -2.8762      2.00000
      8      -2.0104      2.00013
      9      -1.9224      2.00827
     10       3.8862      0.00000
     11       6.3657      0.00000
     12       7.2434      0.00000
     13       7.3763      0.00000

 k-point    10 :      -0.3750    0.1250    0.0000
  band No.  band energies     occupation 
      1     -30.8261      2.00000
      2     -30.8260      2.00000
      3     -30.8259      2.00000
      4     -30.8255      2.00000
      5     -30.8254      2.00000
      6     -23.7461      2.00000
      7      -2.8342      2.00000
      8      -2.0377      2.00002
      9      -1.8797      2.03183
     10       3.8285      0.00000
     11       6.4492      0.00000
     12       7.0599      0.00000
     13       7.3466      0.00000

 k-point    11 :      -0.2500    0.1250   -0.0000
  band No.  band energies     occupation 
      1     -30.8261      2.00000
      2     -30.8260      2.00000
      3     -30.8260      2.00000
      4     -30.8257      2.00000
      5     -30.8255      2.00000
      6     -23.7499      2.00000
      7      -2.5864      2.00000
      8      -1.9902      2.00039
      9      -1.8114      2.06297
     10       3.3081      0.00000
     11       6.4520      0.00000
     12       6.8840      0.00000
     13       7.5643      0.00000

 k-point    12 :      -0.1250    0.1250    0.0000
  band No.  band energies     occupation 
      1     -30.8261      2.00000
      2     -30.8261      2.00000
      3     -30.8261      2.00000
      4     -30.8259      2.00000
      5     -30.8257      2.00000
      6     -23.7547      2.00000
      7      -2.2337      2.00000
      8      -1.8726      2.03784
      9      -1.7567      1.77436
     10       2.4800      0.00000
     11       6.5629      0.00000
     12       7.3836      0.00000
     13       7.7178      0.00000

 k-point    13 :       0.2500    0.2500    0.0000
  band No.  band energies     occupation 
      1     -30.8263      2.00000
      2     -30.8260      2.00000
      3     -30.8257      2.00000
      4     -30.8257      2.00000
      5     -30.8257      2.00000
      6     -23.7506      2.00000
      7      -2.4309      2.00000
      8      -1.9534      2.00232
      9      -1.9534      2.00232
     10       3.2414      0.00000
     11       5.9292      0.00000
     12       6.7816      0.00000
     13       8.2571      0.00000

 k-point    14 :       0.3750    0.2500    0.0000
  band No.  band energies     occupation 
      1     -30.8263      2.00000
      2     -30.8260      2.00000
      3     -30.8257      2.00000
      4     -30.8255      2.00000
      5     -30.8254      2.00000
      6     -23.7468      2.00000
      7      -2.6411      2.00000
      8      -2.0647      2.00000
      9      -2.0184      2.00008
     10       3.8885      0.00000
     11       5.8052      0.00000
     12       6.4341      0.00000
     13       8.3629      0.00000

 k-point    15 :       0.5000    0.2500    0.0000
  band No.  band energies     occupation 
      1     -30.8262      2.00000
      2     -30.8259      2.00000
      3     -30.8258      2.00000
      4     -30.8255      2.00000
      5     -30.8253      2.00000
      6     -23.7439      2.00000
      7      -2.7521      2.00000
      8      -2.2348      2.00000
      9      -2.0246      2.00005
     10       4.4214      0.00000
     11       5.9615      0.00000
     12       6.5055      0.00000
     13       8.0931      0.00000

 k-point    16 :      -0.3750    0.2500    0.0000
  band No.  band energies     occupation 
      1     -30.8262      2.00000
      2     -30.8258      2.00000
      3     -30.8257      2.00000
      4     -30.8255      2.00000
      5     -30.8254      2.00000
      6     -23.7436      2.00000
      7      -2.7215      2.00000
      8      -2.3586      2.00000
      9      -1.9691      2.00112
     10       4.6229      0.00000
     11       5.9048      0.00000
     12       7.0041      0.00000
     13       7.8738      0.00000

 k-point    17 :      -0.2500    0.2500    0.0000
  band No.  band energies     occupation 
      1     -30.8261      2.00000
      2     -30.8258      2.00000
      3     -30.8258      2.00000
      4     -30.8257      2.00000
      5     -30.8255      2.00000
      6     -23.7461      2.00000
      7      -2.6595      2.00000
      8      -2.2622      2.00000
      9      -1.8811      2.03076
     10       4.1729      0.00000
     11       6.1762      0.00000
     12       6.4932      0.00000
     13       7.7602      0.00000

 k-point    18 :       0.3750    0.3750    0.0000
  band No.  band energies     occupation 
      1     -30.8264      2.00000
      2     -30.8261      2.00000
      3     -30.8255      2.00000
      4     -30.8253      2.00000
      5     -30.8253      2.00000
      6     -23.7443      2.00000
      7      -2.7412      2.00000
      8      -2.1017      2.00000
      9      -2.1017      2.00000
     10       4.0370      0.00000
     11       5.4460      0.00000
     12       6.8675      0.00000
     13       9.1284      0.00000

 k-point    19 :       0.5000    0.3750    0.0000
  band No.  band energies     occupation 
      1     -30.8264      2.00000
      2     -30.8261      2.00000
      3     -30.8255      2.00000
      4     -30.8253      2.00000
      5     -30.8253      2.00000
      6     -23.7423      2.00000
      7      -2.7855      2.00000
      8      -2.2298      2.00000
      9      -2.1217      2.00000
     10       4.2783      0.00000
     11       5.5128      0.00000
     12       7.2039      0.00000
     13       8.8710      0.00000

 k-point    20 :      -0.3750    0.3750    0.0000
  band No.  band energies     occupation 
      1     -30.8262      2.00000
      2     -30.8259      2.00000
      3     -30.8256      2.00000
      4     -30.8254      2.00000
      5     -30.8253      2.00000
      6     -23.7420      2.00000
      7      -2.6749      2.00000
      8      -2.4558      2.00000
      9      -2.0684      2.00000
     10       4.6486      0.00000
     11       5.9411      0.00000
     12       7.3538      0.00000
     13       7.3972      0.00000

 k-point    21 :       0.5000    0.5000    0.0000
  band No.  band energies     occupation 
      1     -30.8265      2.00000
      2     -30.8261      2.00000
      3     -30.8255      2.00000
      4     -30.8252      2.00000
      5     -30.8252      2.00000
      6     -23.7417      2.00000
      7      -2.8468      2.00000
      8      -2.1606      2.00000
      9      -2.1606      2.00000
     10       4.0921      0.00000
     11       5.2834      0.00000
     12       8.2103      0.00000
     13       8.9714      0.00000

 k-point    22 :       0.3750    0.2500    0.1250
  band No.  band energies     occupation 
      1     -30.8262      2.00000
      2     -30.8260      2.00000
      3     -30.8259      2.00000
      4     -30.8257      2.00000
      5     -30.8255      2.00000
      6     -23.7493      2.00000
      7      -2.5430      2.00000
      8      -2.0487      2.00001
      9      -1.8832      2.02907
     10       3.5016      0.00000
     11       6.1386      0.00000
     12       6.5729      0.00000
     13       8.0945      0.00000

 k-point    23 :       0.5000    0.2500    0.1250
  band No.  band energies     occupation 
      1     -30.8261      2.00000
      2     -30.8260      2.00000
      3     -30.8258      2.00000
      4     -30.8255      2.00000
      5     -30.8254      2.00000
      6     -23.7455      2.00000
      7      -2.7187      2.00000
      8      -2.1898      2.00000
      9      -1.9518      2.00249
     10       4.2343      0.00000
     11       6.0665      0.00000
     12       6.4350      0.00000
     13       7.8849      0.00000

 k-point    24 :      -0.3750    0.2500    0.1250
  band No.  band energies     occupation 
      1     -30.8261      2.00000
      2     -30.8260      2.00000
      3     -30.8257      2.00000
      4     -30.8255      2.00000
      5     -30.8254      2.00000
      6     -23.7439      2.00000
      7      -2.7871      2.00000
      8      -2.2358      2.00000
      9      -1.9889      2.00041
     10       4.5019      0.00000
     11       5.8845      0.00000
     12       7.0813      0.00000
     13       7.7059      0.00000

 k-point    25 :       0.5000    0.3750    0.1250
  band No.  band energies     occupation 
      1     -30.8262      2.00000
      2     -30.8260      2.00000
      3     -30.8257      2.00000
      4     -30.8254      2.00000
      5     -30.8253      2.00000
      6     -23.7439      2.00000
      7      -2.7163      2.00000
      8      -2.2123      2.00000
      9      -2.0834      2.00000
     10       4.3976      0.00000
     11       5.7780      0.00000
     12       6.3304      0.00000
     13       8.6006      0.00000

 k-point    26 :      -0.3750    0.3750    0.1250
  band No.  band energies     occupation 
      1     -30.8261      2.00000
      2     -30.8259      2.00000
      3     -30.8257      2.00000
      4     -30.8255      2.00000
      5     -30.8253      2.00000
      6     -23.7423      2.00000
      7      -2.6733      2.00000
      8      -2.4012      2.00000
      9      -2.1118      2.00000
     10       4.9122      0.00000
     11       5.9175      0.00000
     12       6.4944      0.00000
     13       7.6348      0.00000

 k-point    27 :      -0.2500    0.3750    0.1250
  band No.  band energies     occupation 
      1     -30.8261      2.00000
      2     -30.8258      2.00000
      3     -30.8258      2.00000
      4     -30.8256      2.00000
      5     -30.8254      2.00000
      6     -23.7430      2.00000
      7      -2.6279      2.00000
      8      -2.4564      2.00000
      9      -2.0458      2.00001
     10       5.0692      0.00000
     11       5.6596      0.00000
     12       6.5962      0.00000
     13       7.6828      0.00000

 k-point    28 :      -0.3750    0.5000    0.1250
  band No.  band energies     occupation 
      1     -30.8263      2.00000
      2     -30.8260      2.00000
      3     -30.8255      2.00000
      4     -30.8254      2.00000
      5     -30.8252      2.00000
      6     -23.7417      2.00000
      7      -2.7593      2.00000
      8      -2.2769      2.00000
      9      -2.1816      2.00000
     10       4.5027      0.00000
     11       5.6469      0.00000
     12       7.4212      0.00000
     13       7.6806      0.00000

 k-point    29 :      -0.2500    0.5000    0.2500
  band No.  band energies     occupation 
      1     -30.8259      2.00000
      2     -30.8258      2.00000
      3     -30.8258      2.00000
      4     -30.8256      2.00000
      5     -30.8252      2.00000
      6     -23.7416      2.00000
      7      -2.5322      2.00000
      8      -2.5322      2.00000
      9      -2.2021      2.00000
     10       5.4319      0.00000
     11       5.9536      0.00000
     12       6.5853      0.00000
     13       6.5853      0.00000


--------------------------------------------------------------------------------------------------------


 soft charge-density along one line, spin component           1
         0         1         2         3         4         5         6         7         8         9
 total charge-density along one line
 
 pseudopotential strength for first ion, spin component:           1
-23.282  -0.000   0.000   0.000   0.000   9.649   0.000  -0.000
 -0.000 -23.282  -0.000  -0.000   0.000   0.000   9.649   0.000
  0.000  -0.000 -23.282  -0.000   0.000  -0.000   0.000   9.649
  0.000  -0.000  -0.000 -23.282  -0.000  -0.000   0.000   0.000
  0.000   0.000   0.000  -0.000 -23.282  -0.000  -0.000  -0.000
  9.649   0.000  -0.000  -0.000  -0.000  19.582  -0.000   0.000
  0.000   9.649   0.000   0.000  -0.000  -0.000  19.582   0.000
 -0.000   0.000   9.649   0.000  -0.000   0.000   0.000  19.582
 -0.000   0.000   0.000   9.649   0.000   0.000   0.000   0.000
 -0.000  -0.000  -0.000   0.000   9.649  -0.000   0.000   0.000
  0.000   0.000  -0.000   0.000   0.000   0.000   0.000  -0.000
  0.000   0.000  -0.000   0.000   0.000  -0.000  -0.000   0.000
  0.000   0.000   0.000  -0.000   0.000   0.000  -0.000   0.000
 -0.000  -0.000   0.000   0.000   0.000  -0.000  -0.000   0.000
 -0.000  -0.000  -0.000   0.000   0.000  -0.000  -0.000  -0.000
  0.000   0.000   0.000  -0.000   0.000   0.000   0.000   0.000
 -0.000  -0.000   0.000   0.000   0.000  -0.000  -0.000   0.000
 -0.000  -0.000  -0.000   0.000   0.000  -0.000  -0.000  -0.000
 total augmentation occupancy for first ion, spin component:           1
  2.000   0.000   0.000   0.000   0.000   0.000   0.000  -0.000  -0.000  -0.000  -0.000  -0.000   0.000   0.000   0.000   0.000
  0.000   2.000   0.000   0.000   0.000   0.000   0.000   0.000   0.000  -0.000  -0.000   0.000   0.000   0.000   0.000   0.000
 -0.000   0.000   2.000   0.000  -0.000   0.000   0.000   0.000  -0.000  -0.000   0.000  -0.000   0.000   0.000   0.000   0.000
  0.000   0.000   0.000   2.000   0.000  -0.000  -0.000   0.000   0.000   0.000  -0.000   0.000   0.000   0.000   0.000   0.000
  0.000   0.000  -0.000   0.000   2.000   0.000  -0.000  -0.000   0.000   0.000   0.000   0.000   0.000   0.000   0.000   0.000
  0.000   0.000  -0.000  -0.000   0.000   0.000   0.000   0.000   0.000   0.000   0.000   0.000   0.000   0.000   0.000   0.000
  0.000   0.000   0.000   0.000  -0.000   0.000   0.000  -0.000   0.000   0.000   0.000  -0.000   0.000   0.000   0.000   0.000
 -0.000   0.000   0.000   0.000  -0.000   0.000  -0.000   0.000   0.000  -0.000  -0.000  -0.000   0.000   0.000   0.000   0.000
 -0.000  -0.000   0.000   0.000   0.000   0.000   0.000   0.000   0.000   0.000   0.000   0.000   0.000   0.000   0.000   0.000
  0.000  -0.000  -0.000   0.000   0.000   0.000   0.000  -0.000   0.000   0.000   0.000  -0.000   0.000   0.000   0.000   0.000
  0.000  -0.000   0.000  -0.000   0.000  -0.000   0.000   0.000   0.000   0.000   2.004  -0.001   0.000   0.000   0.000   0.000
 -0.000   0.000  -0.000   0.000   0.000   0.000  -0.000  -0.000  -0.000  -0.000  -0.001   0.000   0.000   0.000   0.000   0.000
  0.000   0.000   0.000   0.000   0.000   0.000   0.000   0.000   0.000   0.000   0.000   0.000   1.994   0.000   0.000   0.001
  0.000   0.000   0.000   0.000   0.000   0.000   0.000   0.000   0.000   0.000   0.000   0.000   0.000   1.994   0.000   0.000
  0.000   0.000   0.000   0.000   0.000   0.000   0.000   0.000   0.000   0.000   0.000   0.000   0.000   0.000   1.994   0.000
  0.000   0.000   0.000   0.000   0.000   0.000   0.000   0.000   0.000   0.000   0.000   0.000   0.001   0.000   0.000   0.000
  0.000   0.000   0.000   0.000   0.000   0.000   0.000   0.000   0.000   0.000   0.000   0.000   0.000   0.001   0.000   0.000
  0.000   0.000   0.000   0.000   0.000   0.000   0.000   0.000   0.000   0.000   0.000   0.000   0.000   0.000   0.001   0.000


------------------------ aborting loop because EDIFF is reached ----------------------------------------


    CHARGE:  cpu time    0.1445: real time    0.1445
    FORLOC:  cpu time    0.0047: real time    0.0047
    FORNL :  cpu time    0.6574: real time    0.6571
    STRESS:  cpu time    2.2066: real time    2.2055
    FORCOR:  cpu time    0.1406: real time    0.1406
    FORHAR:  cpu time    0.0254: real time    0.0254
    MIXING:  cpu time    0.0170: real time    0.0170
    OFIELD:  cpu time    0.0000: real time    0.0000

  FORCE on cell =-STRESS in cart. coord.  units (eV):
  Direction    XX          YY          ZZ          XY          YZ          ZX
  --------------------------------------------------------------------------------------
  Alpha Z    42.04962    42.04962    42.04962
  Ewald    -499.80687  -499.80687  -499.80687     0.00000    -0.00000     0.00000
  Hartree   276.14793   276.14793   276.14793     0.00000    -0.00000     0.00000
  E(xc)    -110.38351  -110.38351  -110.38351     0.00000     0.00000     0.00000
  Local    -274.73541  -274.73543  -274.73543     0.00001     0.00000     0.00001
  n-local    98.73723   100.97647   102.13756     0.79028    -0.21910     2.20711
  augment    79.64856    79.64857    79.64857    -0.00001    -0.00000    -0.00001
  Kinetic   384.84842   386.71568   387.71720     0.73870    -0.07630     1.90465
  Fock        0.00000     0.00000     0.00000     0.00000     0.00000     0.00000
  -------------------------------------------------------------------------------------
  Total      -0.03549    -0.03549    -0.03549     0.00000     0.00000     0.00000
  in kB      -0.62669    -0.62669    -0.62669     0.00000     0.00000     0.00000
  external pressure =       -0.63 kB  Pullay stress =        0.00 kB


 VOLUME and BASIS-vectors are now :
 -----------------------------------------------------------------------------
  energy-cutoff  :      600.00
  volume of cell :       90.73
      direct lattice vectors                 reciprocal lattice vectors
     5.043812153  0.000000000  0.000000000     0.198262737 -0.114467044 -0.080940423
     2.521906077  4.368069457 -0.000000000     0.000000000  0.228934089 -0.080940423
     2.521906077  1.456023152  4.118255378    -0.000000000  0.000000000  0.242821270

  length of vectors
     5.043812153  5.043812153  5.043812154     0.242821270  0.242821270  0.242821270


 FORCES acting on ions
    electron-ion (+dipol)            ewald-force                    non-local-force                 convergence-correction
 -----------------------------------------------------------------------------------------------
   -.403E-13 0.756E-14 -.647E-13   0.389E-14 0.150E-15 -.539E-15   -.424E-21 0.159E-21 0.000E+00   -.192E-12 -.175E-13 -.131E-12
 -----------------------------------------------------------------------------------------------
   -.403E-13 0.756E-14 -.647E-13   0.389E-14 0.150E-15 -.539E-15   -.424E-21 0.159E-21 0.000E+00   -.192E-12 -.175E-13 -.131E-12
 
 
 POSITION                                       TOTAL-FORCE (eV/Angst)
 -----------------------------------------------------------------------------------
      0.00000      0.00000      0.00000        -0.000000      0.000000     -0.000000
 -----------------------------------------------------------------------------------
    total drift:                               -0.000000     -0.000000     -0.000000


--------------------------------------------------------------------------------------------------------



  FREE ENERGIE OF THE ION-ELECTRON SYSTEM (eV)
  ---------------------------------------------------
  free  energy   TOTEN  =        -0.01577281 eV

  energy  without entropy=       -0.01874220  energy(sigma->0) =       -0.01676261
 


--------------------------------------------------------------------------------------------------------


    POTLOK:  cpu time    0.2569: real time    0.2567


--------------------------------------------------------------------------------------------------------


     LOOP+:  cpu time   11.3386: real time   11.3382
    4ORBIT:  cpu time    0.0000: real time    0.0000

 total amount of memory used by VASP MPI-rank0    98293. kBytes
=======================================================================

   base      :      30000. kBytes
   nonl-proj :       6422. kBytes
   fftplans  :      38722. kBytes
   grid      :      13785. kBytes
   one-center:         15. kBytes
   wavefun   :       9349. kBytes
 
  
  
 General timing and accounting informations for this job:
 ========================================================
  
                  Total CPU time used (sec):       12.912
                            User time (sec):       11.990
                          System time (sec):        0.923
                         Elapsed time (sec):       12.861
  
                   Maximum memory used (kb):      221228.
                   Average memory used (kb):           0.
  
                          Minor page faults:        65933
                          Major page faults:            0
                 Voluntary context switches:          702
