Og_FCC                                  
           1
     5.043812    0.000000    0.000000
     2.521906    4.368069   -0.000000
     2.521906    1.456023    4.118255
   Og
   1
Direct configuration=     1
   0.00000000  0.00000000  0.00000000
