    1    1    1    1
  0.6083477E+02  0.4414576E-09  0.4414576E-09  0.4414576E-09  0.1000000E-15
  1.000000000000000E-004
  CAR 
 Og_FCC                                  
     18    343     28
 
  0.0000000E+00  0.0000000E+00  0.0000000E+00  0.2915452E-02
    1      -43.766538   1.000000
    2      -43.766538   1.000000
    3      -43.766537   1.000000
    4      -43.766537   1.000000
    5      -39.363220   1.000000
    6      -39.363220   1.000000
    7      -39.362443   1.000000
    8      -39.362443   1.000000
    9      -39.362442   1.000000
   10      -39.362442   1.000000
   11      -17.061893   1.000000
   12      -17.061893   1.000000
   13       -4.660921   1.000000
   14       -4.660921   1.000000
   15       -0.892144   1.000000
   16       -0.892144   1.000000
   17       -0.892144   1.000000
   18       -0.892144   1.000000
   19        2.822517   0.000000
   20        2.822518   0.000000
   21        8.076268   0.000000
   22        8.076268   0.000000
   23        8.076268   0.000000
   24        8.076268   0.000000
   25        8.242036   0.000000
   26        8.242036   0.000000
   27        9.834396   0.000000
   28        9.834396   0.000000
 
  0.1428571E+00 -0.1258766E-16 -0.6938894E-17  0.2915452E-02
    1      -43.766513   1.000000
    2      -43.766513   1.000000
    3      -43.766454   1.000000
    4      -43.766454   1.000000
    5      -39.362853   1.000000
    6      -39.362853   1.000000
    7      -39.362291   1.000000
    8      -39.362291   1.000000
    9      -39.362072   1.000000
   10      -39.362072   1.000000
   11      -17.030124   1.000000
   12      -17.030124   1.000000
   13       -4.782372   1.000000
   14       -4.782372   1.000000
   15       -1.358947   1.000000
   16       -1.358947   1.000000
   17       -0.951799   1.000000
   18       -0.951799   1.000000
   19        3.520871   0.000000
   20        3.520871   0.000000
   21        7.477360   0.000000
   22        7.477360   0.000000
   23        8.246774   0.000000
   24        8.246774   0.000000
   25        8.393598   0.000000
   26        8.393598   0.000000
   27        9.945254   0.000000
   28        9.945254   0.000000
 
  0.2857143E+00  0.2580261E-17 -0.1387779E-16  0.2915452E-02
    1      -43.766457   1.000000
    2      -43.766457   1.000000
    3      -43.766244   1.000000
    4      -43.766244   1.000000
    5      -39.362875   1.000000
    6      -39.362875   1.000000
    7      -39.362385   1.000000
    8      -39.362385   1.000000
    9      -39.361909   1.000000
   10      -39.361909   1.000000
   11      -16.958403   1.000000
   12      -16.958403   1.000000
   13       -5.072563   1.000000
   14       -5.072563   1.000000
   15       -2.042570   1.000000
   16       -2.042570   1.000000
   17       -1.078918   1.000000
   18       -1.078918   1.000000
   19        4.450640   0.000000
   20        4.450640   0.000000
   21        7.472961   0.000000
   22        7.472961   0.000000
   23        8.088580   0.000000
   24        8.088580   0.000000
   25        8.268218   0.000000
   26        8.268219   0.000000
   27       10.042769   0.000000
   28       10.042769   0.000000
 
  0.4285714E+00  0.3870391E-17  0.2775558E-16  0.2915452E-02
    1      -43.766417   1.000000
    2      -43.766417   1.000000
    3      -43.766082   1.000000
    4      -43.766082   1.000000
    5      -39.363090   1.000000
    6      -39.363090   1.000000
    7      -39.361905   1.000000
    8      -39.361905   1.000000
    9      -39.361873   1.000000
   10      -39.361873   1.000000
   11      -16.899290   1.000000
   12      -16.899290   1.000000
   13       -5.319580   1.000000
   14       -5.319580   1.000000
   15       -2.415325   1.000000
   16       -2.415325   1.000000
   17       -1.174731   1.000000
   18       -1.174731   1.000000
   19        4.613344   0.000000
   20        4.613344   0.000000
   21        7.736440   0.000000
   22        7.736440   0.000000
   23        7.901400   0.000000
   24        7.901400   0.000000
   25        8.336780   0.000000
   26        8.336780   0.000000
   27       10.023987   0.000000
   28       10.023987   0.000000
 
 -0.4285714E+00 -0.3870391E-17 -0.2775558E-16  0.2915452E-02
    1      -43.766417   1.000000
    2      -43.766417   1.000000
    3      -43.766082   1.000000
    4      -43.766082   1.000000
    5      -39.363090   1.000000
    6      -39.363090   1.000000
    7      -39.361905   1.000000
    8      -39.361905   1.000000
    9      -39.361873   1.000000
   10      -39.361873   1.000000
   11      -16.899290   1.000000
   12      -16.899290   1.000000
   13       -5.319580   1.000000
   14       -5.319580   1.000000
   15       -2.415325   1.000000
   16       -2.415325   1.000000
   17       -1.174731   1.000000
   18       -1.174731   1.000000
   19        4.613344   0.000000
   20        4.613344   0.000000
   21        7.736440   0.000000
   22        7.736440   0.000000
   23        7.901400   0.000000
   24        7.901400   0.000000
   25        8.336780   0.000000
   26        8.336780   0.000000
   27       10.023987   0.000000
   28       10.023987   0.000000
 
 -0.2857143E+00 -0.2580261E-17  0.1387779E-16  0.2915452E-02
    1      -43.766457   1.000000
    2      -43.766457   1.000000
    3      -43.766244   1.000000
    4      -43.766244   1.000000
    5      -39.362875   1.000000
    6      -39.362875   1.000000
    7      -39.362385   1.000000
    8      -39.362385   1.000000
    9      -39.361909   1.000000
   10      -39.361909   1.000000
   11      -16.958403   1.000000
   12      -16.958403   1.000000
   13       -5.072563   1.000000
   14       -5.072563   1.000000
   15       -2.042570   1.000000
   16       -2.042570   1.000000
   17       -1.078918   1.000000
   18       -1.078918   1.000000
   19        4.450640   0.000000
   20        4.450640   0.000000
   21        7.472961   0.000000
   22        7.472961   0.000000
   23        8.088580   0.000000
   24        8.088580   0.000000
   25        8.268218   0.000000
   26        8.268219   0.000000
   27       10.042769   0.000000
   28       10.042769   0.000000
 
 -0.1428571E+00  0.1258766E-16  0.6938894E-17  0.2915452E-02
    1      -43.766513   1.000000
    2      -43.766513   1.000000
    3      -43.766454   1.000000
    4      -43.766454   1.000000
    5      -39.362853   1.000000
    6      -39.362853   1.000000
    7      -39.362291   1.000000
    8      -39.362291   1.000000
    9      -39.362072   1.000000
   10      -39.362072   1.000000
   11      -17.030124   1.000000
   12      -17.030124   1.000000
   13       -4.782372   1.000000
   14       -4.782372   1.000000
   15       -1.358947   1.000000
   16       -1.358947   1.000000
   17       -0.951799   1.000000
   18       -0.951799   1.000000
   19        3.520871   0.000000
   20        3.520871   0.000000
   21        7.477360   0.000000
   22        7.477360   0.000000
   23        8.246774   0.000000
   24        8.246774   0.000000
   25        8.393598   0.000000
   26        8.393598   0.000000
   27        9.945254   0.000000
   28        9.945254   0.000000
 
  0.0000000E+00  0.1428571E+00  0.6938894E-17  0.2915452E-02
    1      -43.766513   1.000000
    2      -43.766513   1.000000
    3      -43.766454   1.000000
    4      -43.766454   1.000000
    5      -39.362853   1.000000
    6      -39.362853   1.000000
    7      -39.362291   1.000000
    8      -39.362291   1.000000
    9      -39.362072   1.000000
   10      -39.362072   1.000000
   11      -17.030124   1.000000
   12      -17.030124   1.000000
   13       -4.782372   1.000000
   14       -4.782372   1.000000
   15       -1.358947   1.000000
   16       -1.358947   1.000000
   17       -0.951799   1.000000
   18       -0.951799   1.000000
   19        3.520871   0.000000
   20        3.520871   0.000000
   21        7.477360   0.000000
   22        7.477360   0.000000
   23        8.246774   0.000000
   24        8.246774   0.000000
   25        8.393598   0.000000
   26        8.393598   0.000000
   27        9.945254   0.000000
   28        9.945254   0.000000
 
  0.1428571E+00  0.1428571E+00 -0.2775558E-16  0.2915452E-02
    1      -43.766488   1.000000
    2      -43.766488   1.000000
    3      -43.766445   1.000000
    4      -43.766445   1.000000
    5      -39.362584   1.000000
    6      -39.362584   1.000000
    7      -39.362122   1.000000
    8      -39.362122   1.000000
    9      -39.361783   1.000000
   10      -39.361783   1.000000
   11      -17.019360   1.000000
   12      -17.019360   1.000000
   13       -4.816502   1.000000
   14       -4.816502   1.000000
   15       -1.404906   1.000000
   16       -1.404906   1.000000
   17       -1.078546   1.000000
   18       -1.078546   1.000000
   19        3.766710   0.000000
   20        3.766710   0.000000
   21        7.094453   0.000000
   22        7.094453   0.000000
   23        8.437024   0.000000
   24        8.437024   0.000000
   25        8.688735   0.000000
   26        8.688735   0.000000
   27        8.805297   0.000000
   28        8.805297   0.000000
 
  0.2857143E+00  0.1428571E+00 -0.2775558E-16  0.2915452E-02
    1      -43.766434   1.000000
    2      -43.766434   1.000000
    3      -43.766285   1.000000
    4      -43.766285   1.000000
    5      -39.362488   1.000000
    6      -39.362488   1.000000
    7      -39.362291   1.000000
    8      -39.362291   1.000000
    9      -39.361773   1.000000
   10      -39.361773   1.000000
   11      -16.961256   1.000000
   12      -16.961256   1.000000
   13       -5.034481   1.000000
   14       -5.034481   1.000000
   15       -1.947726   1.000000
   16       -1.947726   1.000000
   17       -1.235697   1.000000
   18       -1.235697   1.000000
   19        4.699999   0.000000
   20        4.699999   0.000000
   21        6.754668   0.000000
   22        6.754668   0.000000
   23        7.652630   0.000000
   24        7.652630   0.000000
   25        8.788306   0.000000
   26        8.788306   0.000000
   27        9.583150   0.000000
   28        9.583150   0.000000
 
  0.4285714E+00  0.1428571E+00  0.0000000E+00  0.2915452E-02
    1      -43.766377   1.000000
    2      -43.766377   1.000000
    3      -43.766113   1.000000
    4      -43.766113   1.000000
    5      -39.362496   1.000000
    6      -39.362496   1.000000
    7      -39.362012   1.000000
    8      -39.362012   1.000000
    9      -39.361577   1.000000
   10      -39.361577   1.000000
   11      -16.897484   1.000000
   12      -16.897484   1.000000
   13       -5.277579   1.000000
   14       -5.277579   1.000000
   15       -2.383659   1.000000
   16       -2.383659   1.000000
   17       -1.385380   1.000000
   18       -1.385380   1.000000
   19        5.117900   0.000000
   20        5.117900   0.000000
   21        6.926197   0.000000
   22        6.926197   0.000000
   23        7.753205   0.000000
   24        7.753205   0.000000
   25        8.431877   0.000000
   26        8.431877   0.000000
   27       10.671814   0.000000
   28       10.671814   0.000000
 
 -0.4285714E+00  0.1428571E+00 -0.2775558E-16  0.2915452E-02
    1      -43.766359   1.000000
    2      -43.766359   1.000000
    3      -43.766061   1.000000
    4      -43.766061   1.000000
    5      -39.362659   1.000000
    6      -39.362659   1.000000
    7      -39.361706   1.000000
    8      -39.361706   1.000000
    9      -39.361658   1.000000
   10      -39.361658   1.000000
   11      -16.877465   1.000000
   12      -16.877465   1.000000
   13       -5.354073   1.000000
   14       -5.354073   1.000000
   15       -2.506066   1.000000
   16       -2.506066   1.000000
   17       -1.427844   1.000000
   18       -1.427844   1.000000
   19        5.189704   0.000000
   20        5.189704   0.000000
   21        6.822232   0.000000
   22        6.822232   0.000000
   23        8.139306   0.000000
   24        8.139306   0.000000
   25        8.621300   0.000000
   26        8.621300   0.000000
   27       10.986948   0.000000
   28       10.986948   0.000000
 
 -0.2857143E+00  0.1428571E+00  0.4163336E-16  0.2915452E-02
    1      -43.766397   1.000000
    2      -43.766397   1.000000
    3      -43.766164   1.000000
    4      -43.766164   1.000000
    5      -39.362860   1.000000
    6      -39.362860   1.000000
    7      -39.362202   1.000000
    8      -39.362202   1.000000
    9      -39.361813   1.000000
   10      -39.361813   1.000000
   11      -16.917496   1.000000
   12      -16.917496   1.000000
   13       -5.204700   1.000000
   14       -5.204700   1.000000
   15       -2.284064   1.000000
   16       -2.284064   1.000000
   17       -1.322544   1.000000
   18       -1.322544   1.000000
   19        5.158733   0.000000
   20        5.158733   0.000000
   21        7.191773   0.000000
   22        7.191773   0.000000
   23        7.505265   0.000000
   24        7.505265   0.000000
   25        8.311105   0.000000
   26        8.311105   0.000000
   27        9.852648   0.000000
   28        9.852648   0.000000
 
 -0.1428571E+00  0.1428571E+00 -0.1808581E-17  0.2915452E-02
    1      -43.766466   1.000000
    2      -43.766466   1.000000
    3      -43.766337   1.000000
    4      -43.766337   1.000000
    5      -39.362614   1.000000
    6      -39.362614   1.000000
    7      -39.362489   1.000000
    8      -39.362489   1.000000
    9      -39.362015   1.000000
   10      -39.362015   1.000000
   11      -16.985298   1.000000
   12      -16.985298   1.000000
   13       -4.951316   1.000000
   14       -4.951316   1.000000
   15       -1.789388   1.000000
   16       -1.789388   1.000000
   17       -1.118424   1.000000
   18       -1.118424   1.000000
   19        4.368546   0.000000
   20        4.368546   0.000000
   21        7.062912   0.000000
   22        7.062912   0.000000
   23        8.021057   0.000000
   24        8.021057   0.000000
   25        8.672797   0.000000
   26        8.672797   0.000000
   27        8.975794   0.000000
   28        8.975794   0.000000
 
  0.0000000E+00  0.2857143E+00  0.1387779E-16  0.2915452E-02
    1      -43.766457   1.000000
    2      -43.766457   1.000000
    3      -43.766244   1.000000
    4      -43.766244   1.000000
    5      -39.362875   1.000000
    6      -39.362875   1.000000
    7      -39.362385   1.000000
    8      -39.362385   1.000000
    9      -39.361909   1.000000
   10      -39.361909   1.000000
   11      -16.958403   1.000000
   12      -16.958403   1.000000
   13       -5.072563   1.000000
   14       -5.072563   1.000000
   15       -2.042570   1.000000
   16       -2.042570   1.000000
   17       -1.078918   1.000000
   18       -1.078918   1.000000
   19        4.450640   0.000000
   20        4.450640   0.000000
   21        7.472961   0.000000
   22        7.472961   0.000000
   23        8.088580   0.000000
   24        8.088580   0.000000
   25        8.268218   0.000000
   26        8.268218   0.000000
   27       10.042769   0.000000
   28       10.042769   0.000000
 
  0.1428571E+00  0.2857143E+00 -0.2775558E-16  0.2915452E-02
    1      -43.766434   1.000000
    2      -43.766434   1.000000
    3      -43.766285   1.000000
    4      -43.766285   1.000000
    5      -39.362488   1.000000
    6      -39.362488   1.000000
    7      -39.362291   1.000000
    8      -39.362291   1.000000
    9      -39.361773   1.000000
   10      -39.361773   1.000000
   11      -16.961256   1.000000
   12      -16.961256   1.000000
   13       -5.034481   1.000000
   14       -5.034481   1.000000
   15       -1.947726   1.000000
   16       -1.947726   1.000000
   17       -1.235697   1.000000
   18       -1.235697   1.000000
   19        4.699999   0.000000
   20        4.699999   0.000000
   21        6.754668   0.000000
   22        6.754668   0.000000
   23        7.652630   0.000000
   24        7.652630   0.000000
   25        8.788306   0.000000
   26        8.788306   0.000000
   27        9.583150   0.000000
   28        9.583150   0.000000
 
  0.2857143E+00  0.2857143E+00 -0.2775558E-16  0.2915452E-02
    1      -43.766366   1.000000
    2      -43.766366   1.000000
    3      -43.766223   1.000000
    4      -43.766223   1.000000
    5      -39.362677   1.000000
    6      -39.362677   1.000000
    7      -39.362333   1.000000
    8      -39.362333   1.000000
    9      -39.361649   1.000000
   10      -39.361649   1.000000
   11      -16.924524   1.000000
   12      -16.924524   1.000000
   13       -5.145613   1.000000
   14       -5.145613   1.000000
   15       -2.133275   1.000000
   16       -2.133275   1.000000
   17       -1.454413   1.000000
   18       -1.454413   1.000000
   19        4.937312   0.000000
   20        4.937312   0.000000
   21        6.026167   0.000000
   22        6.026167   0.000000
   23        7.731079   0.000000
   24        7.731079   0.000000
   25        9.614092   0.000000
   26        9.614092   0.000000
   27        9.972755   0.000000
   28        9.972755   0.000000
 
  0.4285714E+00  0.2857143E+00  0.0000000E+00  0.2915452E-02
    1      -43.766302   1.000000
    2      -43.766302   1.000000
    3      -43.766109   1.000000
    4      -43.766109   1.000000
    5      -39.362696   1.000000
    6      -39.362696   1.000000
    7      -39.362102   1.000000
    8      -39.362102   1.000000
    9      -39.361493   1.000000
   10      -39.361493   1.000000
   11      -16.874270   1.000000
   12      -16.874270   1.000000
   13       -5.307681   1.000000
   14       -5.307681   1.000000
   15       -2.417119   1.000000
   16       -2.417119   1.000000
   17       -1.659401   1.000000
   18       -1.659401   1.000000
   19        5.062882   0.000000
   20        5.062882   0.000000
   21        6.044122   0.000000
   22        6.044122   0.000000
   23        7.879921   0.000000
   24        7.879921   0.000000
   25        9.788667   0.000000
   26        9.788667   0.000000
   27       10.999962   0.000000
   28       10.999962   0.000000
 
 -0.4285714E+00  0.2857143E+00  0.0000000E+00  0.2915452E-02
    1      -43.766259   1.000000
    2      -43.766259   1.000000
    3      -43.766057   1.000000
    4      -43.766057   1.000000
    5      -39.362443   1.000000
    6      -39.362443   1.000000
    7      -39.361728   1.000000
    8      -39.361728   1.000000
    9      -39.361408   1.000000
   10      -39.361408   1.000000
   11      -16.848857   1.000000
   12      -16.848857   1.000000
   13       -5.380984   1.000000
   14       -5.380984   1.000000
   15       -2.574100   1.000000
   16       -2.574100   1.000000
   17       -1.793825   1.000000
   18       -1.793825   1.000000
   19        5.342245   0.000000
   20        5.342245   0.000000
   21        6.652943   0.000000
   22        6.652943   0.000000
   23        8.105643   0.000000
   24        8.105643   0.000000
   25        9.317039   0.000000
   26        9.317039   0.000000
   27       10.402922   0.000000
   28       10.402922   0.000000
 
 -0.2857143E+00  0.2857143E+00  0.8888411E-17  0.2915452E-02
    1      -43.766292   1.000000
    2      -43.766292   1.000000
    3      -43.766096   1.000000
    4      -43.766096   1.000000
    5      -39.362267   1.000000
    6      -39.362267   1.000000
    7      -39.361610   1.000000
    8      -39.361610   1.000000
    9      -39.361332   1.000000
   10      -39.361332   1.000000
   11      -16.868003   1.000000
   12      -16.868003   1.000000
   13       -5.330163   1.000000
   14       -5.330163   1.000000
   15       -2.526347   1.000000
   16       -2.526347   1.000000
   17       -1.663451   1.000000
   18       -1.663451   1.000000
   19        5.868922   0.000000
   20        5.868922   0.000000
   21        6.685048   0.000000
   22        6.685048   0.000000
   23        7.626993   0.000000
   24        7.626993   0.000000
   25        8.878466   0.000000
   26        8.878466   0.000000
   27       10.226972   0.000000
   28       10.226972   0.000000
 
 -0.1428571E+00  0.2857143E+00 -0.6938894E-17  0.2915452E-02
    1      -43.766397   1.000000
    2      -43.766397   1.000000
    3      -43.766164   1.000000
    4      -43.766164   1.000000
    5      -39.362860   1.000000
    6      -39.362860   1.000000
    7      -39.362202   1.000000
    8      -39.362202   1.000000
    9      -39.361813   1.000000
   10      -39.361813   1.000000
   11      -16.917496   1.000000
   12      -16.917496   1.000000
   13       -5.204700   1.000000
   14       -5.204700   1.000000
   15       -2.284064   1.000000
   16       -2.284064   1.000000
   17       -1.322544   1.000000
   18       -1.322544   1.000000
   19        5.158733   0.000000
   20        5.158733   0.000000
   21        7.191773   0.000000
   22        7.191773   0.000000
   23        7.505265   0.000000
   24        7.505265   0.000000
   25        8.311105   0.000000
   26        8.311105   0.000000
   27        9.852648   0.000000
   28        9.852648   0.000000
 
  0.0000000E+00  0.4285714E+00  0.0000000E+00  0.2915452E-02
    1      -43.766417   1.000000
    2      -43.766417   1.000000
    3      -43.766082   1.000000
    4      -43.766082   1.000000
    5      -39.363090   1.000000
    6      -39.363090   1.000000
    7      -39.361905   1.000000
    8      -39.361905   1.000000
    9      -39.361873   1.000000
   10      -39.361873   1.000000
   11      -16.899290   1.000000
   12      -16.899290   1.000000
   13       -5.319580   1.000000
   14       -5.319580   1.000000
   15       -2.415325   1.000000
   16       -2.415325   1.000000
   17       -1.174731   1.000000
   18       -1.174731   1.000000
   19        4.613344   0.000000
   20        4.613344   0.000000
   21        7.736440   0.000000
   22        7.736440   0.000000
   23        7.901400   0.000000
   24        7.901400   0.000000
   25        8.336780   0.000000
   26        8.336780   0.000000
   27       10.023987   0.000000
   28       10.023987   0.000000
 
  0.1428571E+00  0.4285714E+00  0.0000000E+00  0.2915452E-02
    1      -43.766377   1.000000
    2      -43.766377   1.000000
    3      -43.766113   1.000000
    4      -43.766113   1.000000
    5      -39.362496   1.000000
    6      -39.362496   1.000000
    7      -39.362012   1.000000
    8      -39.362012   1.000000
    9      -39.361577   1.000000
   10      -39.361577   1.000000
   11      -16.897484   1.000000
   12      -16.897484   1.000000
   13       -5.277579   1.000000
   14       -5.277579   1.000000
   15       -2.383659   1.000000
   16       -2.383659   1.000000
   17       -1.385380   1.000000
   18       -1.385380   1.000000
   19        5.117900   0.000000
   20        5.117900   0.000000
   21        6.926197   0.000000
   22        6.926197   0.000000
   23        7.753205   0.000000
   24        7.753205   0.000000
   25        8.431877   0.000000
   26        8.431877   0.000000
   27       10.671814   0.000000
   28       10.671814   0.000000
 
  0.2857143E+00  0.4285714E+00  0.0000000E+00  0.2915452E-02
    1      -43.766302   1.000000
    2      -43.766302   1.000000
    3      -43.766109   1.000000
    4      -43.766109   1.000000
    5      -39.362696   1.000000
    6      -39.362696   1.000000
    7      -39.362102   1.000000
    8      -39.362102   1.000000
    9      -39.361493   1.000000
   10      -39.361493   1.000000
   11      -16.874270   1.000000
   12      -16.874270   1.000000
   13       -5.307681   1.000000
   14       -5.307681   1.000000
   15       -2.417119   1.000000
   16       -2.417119   1.000000
   17       -1.659401   1.000000
   18       -1.659401   1.000000
   19        5.062882   0.000000
   20        5.062882   0.000000
   21        6.044122   0.000000
   22        6.044122   0.000000
   23        7.879921   0.000000
   24        7.879921   0.000000
   25        9.788667   0.000000
   26        9.788667   0.000000
   27       10.999962   0.000000
   28       10.999962   0.000000
 
  0.4285714E+00  0.4285714E+00  0.0000000E+00  0.2915452E-02
    1      -43.766258   1.000000
    2      -43.766258   1.000000
    3      -43.766030   1.000000
    4      -43.766030   1.000000
    5      -39.362602   1.000000
    6      -39.362602   1.000000
    7      -39.361896   1.000000
    8      -39.361896   1.000000
    9      -39.361061   1.000000
   10      -39.361061   1.000000
   11      -16.845842   1.000000
   12      -16.845842   1.000000
   13       -5.390832   1.000000
   14       -5.390832   1.000000
   15       -2.539196   1.000000
   16       -2.539196   1.000000
   17       -1.722584   1.000000
   18       -1.722584   1.000000
   19        4.532093   0.000000
   20        4.532093   0.000000
   21        5.470505   0.000000
   22        5.470505   0.000000
   23        9.287032   0.000000
   24        9.287032   0.000000
   25       11.222196   0.000000
   26       11.222196   0.000000
   27       11.643152   0.000000
   28       11.643152   0.000000
 
 -0.4285714E+00  0.4285714E+00 -0.1549205E-16  0.2915452E-02
    1      -43.766231   1.000000
    2      -43.766231   1.000000
    3      -43.766017   1.000000
    4      -43.766017   1.000000
    5      -39.362775   1.000000
    6      -39.362775   1.000000
    7      -39.361940   1.000000
    8      -39.361940   1.000000
    9      -39.361233   1.000000
   10      -39.361233   1.000000
   11      -16.834909   1.000000
   12      -16.834909   1.000000
   13       -5.416133   1.000000
   14       -5.416133   1.000000
   15       -2.584937   1.000000
   16       -2.584937   1.000000
   17       -1.845959   1.000000
   18       -1.845959   1.000000
   19        4.726900   0.000000
   20        4.726900   0.000000
   21        5.790318   0.000000
   22        5.790318   0.000000
   23        9.227732   0.000000
   24        9.227732   0.000000
   25       10.757843   0.000000
   26       10.757843   0.000000
   27       11.006975   0.000000
   28       11.006975   0.000000
 
 -0.2857143E+00  0.4285714E+00 -0.2081668E-16  0.2915452E-02
    1      -43.766259   1.000000
    2      -43.766259   1.000000
    3      -43.766057   1.000000
    4      -43.766057   1.000000
    5      -39.362443   1.000000
    6      -39.362443   1.000000
    7      -39.361728   1.000000
    8      -39.361728   1.000000
    9      -39.361408   1.000000
   10      -39.361408   1.000000
   11      -16.848857   1.000000
   12      -16.848857   1.000000
   13       -5.380984   1.000000
   14       -5.380984   1.000000
   15       -2.574100   1.000000
   16       -2.574100   1.000000
   17       -1.793825   1.000000
   18       -1.793825   1.000000
   19        5.342245   0.000000
   20        5.342245   0.000000
   21        6.652943   0.000000
   22        6.652943   0.000000
   23        8.105643   0.000000
   24        8.105643   0.000000
   25        9.317039   0.000000
   26        9.317039   0.000000
   27       10.402922   0.000000
   28       10.402922   0.000000
 
 -0.1428571E+00  0.4285714E+00  0.1387779E-16  0.2915452E-02
    1      -43.766359   1.000000
    2      -43.766359   1.000000
    3      -43.766061   1.000000
    4      -43.766061   1.000000
    5      -39.362659   1.000000
    6      -39.362659   1.000000
    7      -39.361706   1.000000
    8      -39.361706   1.000000
    9      -39.361658   1.000000
   10      -39.361658   1.000000
   11      -16.877465   1.000000
   12      -16.877465   1.000000
   13       -5.354073   1.000000
   14       -5.354073   1.000000
   15       -2.506066   1.000000
   16       -2.506066   1.000000
   17       -1.427844   1.000000
   18       -1.427844   1.000000
   19        5.189704   0.000000
   20        5.189704   0.000000
   21        6.822232   0.000000
   22        6.822232   0.000000
   23        8.139306   0.000000
   24        8.139306   0.000000
   25        8.621300   0.000000
   26        8.621300   0.000000
   27       10.986948   0.000000
   28       10.986948   0.000000
 
  0.0000000E+00 -0.4285714E+00  0.0000000E+00  0.2915452E-02
    1      -43.766417   1.000000
    2      -43.766417   1.000000
    3      -43.766082   1.000000
    4      -43.766082   1.000000
    5      -39.363090   1.000000
    6      -39.363090   1.000000
    7      -39.361905   1.000000
    8      -39.361905   1.000000
    9      -39.361873   1.000000
   10      -39.361873   1.000000
   11      -16.899290   1.000000
   12      -16.899290   1.000000
   13       -5.319580   1.000000
   14       -5.319580   1.000000
   15       -2.415325   1.000000
   16       -2.415325   1.000000
   17       -1.174731   1.000000
   18       -1.174731   1.000000
   19        4.613344   0.000000
   20        4.613344   0.000000
   21        7.736440   0.000000
   22        7.736440   0.000000
   23        7.901400   0.000000
   24        7.901400   0.000000
   25        8.336780   0.000000
   26        8.336780   0.000000
   27       10.023987   0.000000
   28       10.023987   0.000000
 
  0.1428571E+00 -0.4285714E+00 -0.1387779E-16  0.2915452E-02
    1      -43.766359   1.000000
    2      -43.766359   1.000000
    3      -43.766061   1.000000
    4      -43.766061   1.000000
    5      -39.362659   1.000000
    6      -39.362659   1.000000
    7      -39.361706   1.000000
    8      -39.361706   1.000000
    9      -39.361658   1.000000
   10      -39.361658   1.000000
   11      -16.877465   1.000000
   12      -16.877465   1.000000
   13       -5.354073   1.000000
   14       -5.354073   1.000000
   15       -2.506066   1.000000
   16       -2.506066   1.000000
   17       -1.427844   1.000000
   18       -1.427844   1.000000
   19        5.189704   0.000000
   20        5.189704   0.000000
   21        6.822232   0.000000
   22        6.822232   0.000000
   23        8.139306   0.000000
   24        8.139306   0.000000
   25        8.621300   0.000000
   26        8.621300   0.000000
   27       10.986948   0.000000
   28       10.986948   0.000000
 
  0.2857143E+00 -0.4285714E+00  0.2081668E-16  0.2915452E-02
    1      -43.766259   1.000000
    2      -43.766259   1.000000
    3      -43.766057   1.000000
    4      -43.766057   1.000000