    1    1  999    1
  0.6273947E+02  0.4460176E-09  0.4460176E-09  0.4460176E-09  0.1000000E-15
  1.000000000000000E-004
  CAR 
 Cn_FCC                                  
      8     35      8
 
  0.0000000E+00  0.0000000E+00  0.0000000E+00  0.1371742E-02
    1      -17.223531   1.000000
    2       -4.529964   0.688699
    3       -4.529964   0.688699
    4       -4.529962   0.688686
    5        2.337566   0.000000
    6        6.951745   0.000000
    7        6.951745   0.000000
    8        6.951747   0.000000
 
  0.1111111E+00  0.1017021E-17  0.1387779E-16  0.1097394E-01
    1      -17.202279   1.000000
    2       -4.735730   1.002841
    3       -4.551279   0.837023
    4       -4.551278   0.837014
    5        2.656759   0.000000
    6        6.559253   0.000000
    7        7.074444   0.000000
    8        7.074445   0.000000
 
  0.2222222E+00 -0.1184375E-16  0.6938894E-16  0.1097394E-01
    1      -17.147555   1.000000
    2       -5.201843   1.000000
    3       -4.604182   1.021939
    4       -4.604181   1.021937
    5        3.356944   0.000000
    6        6.120749   0.000000
    7        7.145317   0.000000
    8        7.145318   0.000000
 
  0.3333333E+00  0.3080664E-16  0.5551115E-16  0.1097394E-01
    1      -17.083650   1.000000
    2       -5.664914   1.000000
    3       -4.662557   1.025126
    4       -4.662556   1.025127
    5        3.827721   0.000000
    6        6.300330   0.000000
    7        6.866297   0.000000
    8        6.866300   0.000000
 
  0.4444444E+00 -0.2368749E-16  0.1387779E-15  0.1097394E-01
    1      -17.040904   1.000000
    2       -5.940026   1.000000
    3       -4.699687   1.010055
    4       -4.699686   1.010056
    5        3.899350   0.000000
    6        6.641690   0.000000
    7        6.641693   0.000000
    8        6.786971   0.000000
 
  0.1111111E+00  0.1111111E+00  0.2775558E-16  0.8230453E-02
    1      -17.195210   1.000000
    2       -4.732112   1.003273
    3       -4.593856   1.005550
    4       -4.593855   1.005547
    5        2.763681   0.000000
    6        6.351635   0.000000
    7        7.194720   0.000000
    8        7.194721   0.000000
 
  0.2222222E+00  0.1111111E+00  0.5551115E-16  0.3292181E-01
    1      -17.151656   1.000000
    2       -5.079248   1.000000
    3       -4.662147   1.025315
    4       -4.638588   1.034333
    5        3.353041   0.000000
    6        5.921657   0.000000
    7        7.048427   0.000000
    8        7.405082   0.000000
 
  0.3333333E+00  0.1111111E+00  0.5551115E-16  0.3292181E-01
    1      -17.090680   1.000000
    2       -5.518376   1.000000
    3       -4.723228   1.004573
    4       -4.711321   1.006938
    5        3.964268   0.000000
    6        5.867813   0.000000
    7        6.515886   0.000000
    8        7.265222   0.000000
 
  0.4444444E+00  0.1111111E+00  0.1110223E-15  0.3292181E-01
    1      -17.040603   1.000000
    2       -5.835639   1.000000
    3       -4.793131   1.000199
    4       -4.749844   1.001585
    5        4.162150   0.000000
    6        5.912939   0.000000
    7        6.751426   0.000000
    8        6.974355   0.000000
 
 -0.4444444E+00  0.1111111E+00 -0.1526557E-15  0.3292181E-01
    1      -17.026190   1.000000
    2       -5.919938   1.000000
    3       -4.845209   1.000009
    4       -4.730932   1.003426
    5        4.192003   0.000000
    6        5.886691   0.000000
    7        6.832832   0.000000
    8        7.053456   0.000000
 
 -0.3333333E+00  0.1111111E+00 -0.8326673E-16  0.3292181E-01
    1      -17.054822   1.000000
    2       -5.746599   1.000000
    3       -4.842224   1.000011
    4       -4.674617   1.019602
    5        4.177307   0.000000
    6        6.067900   0.000000
    7        6.557068   0.000000
    8        6.932397   0.000000
 
 -0.2222222E+00  0.1111111E+00 -0.4857226E-16  0.3292181E-01
    1      -17.111936   1.000000
    2       -5.377813   1.000000
    3       -4.778650   1.000417
    4       -4.605553   1.023549
    5        3.827752   0.000000
    6        5.941638   0.000000
    7        6.690806   0.000000
    8        7.260266   0.000000
 
 -0.1111111E+00  0.1111111E+00 -0.8520579E-17  0.1646091E-01
    1      -17.169860   1.000000
    2       -4.971547   1.000000
    3       -4.664368   1.024288
    4       -4.556107   0.865100
    5        3.119682   0.000000
    6        6.173560   0.000000
    7        7.098710   0.000000
    8        7.278054   0.000000
 
  0.2222222E+00  0.2222222E+00  0.5551115E-16  0.8230453E-02
    1      -17.122437   1.000000
    2       -5.171841   1.000000
    3       -4.749541   1.001606
    4       -4.749540   1.001606
    5        3.667279   0.000000
    6        5.462901   0.000000
    7        6.821906   0.000000
    8        7.892051   0.000000
 
  0.3333333E+00  0.2222222E+00  0.5551115E-16  0.3292181E-01
    1      -17.072728   1.000000
    2       -5.456621   1.000000
    3       -4.848252   1.000008
    4       -4.824492   1.000034
    5        4.073530   0.000000
    6        5.229395   0.000000
    7        6.431535   0.000000
    8        8.071670   0.000000
 
  0.4444444E+00  0.2222222E+00  0.1387779E-15  0.3292181E-01
    1      -17.025308   1.000000
    2       -5.698894   1.000000
    3       -4.994985   1.000000
    4       -4.854166   1.000005
    5        4.347905   0.000000
    6        5.343778   0.000000
    7        6.347039   0.000000
    8        7.796035   0.000000
 
 -0.4444444E+00  0.2222222E+00 -0.1110223E-15  0.3292181E-01
    1      -17.003101   1.000000
    2       -5.783714   1.000000
    3       -5.135489   1.000000
    4       -4.826415   1.000030
    5        4.586534   0.000000
    6        5.345671   0.000000
    7        6.716265   0.000000
    8        7.511152   0.000000
 
 -0.3333333E+00  0.2222222E+00 -0.6938894E-16  0.3292181E-01
    1      -17.017233   1.000000
    2       -5.702164   1.000000
    3       -5.178388   1.000000
    4       -4.752805   1.001394
    5        4.890812   0.000000
    6        5.370585   0.000000
    7        6.374109   0.000000
    8        7.395604   0.000000
 
 -0.2222222E+00  0.2222222E+00 -0.6972178E-16  0.1646091E-01
    1      -17.060560   1.000000
    2       -5.544069   1.000000
    3       -5.040883   1.000000
    4       -4.665362   1.023828
    5        4.601695   0.000000
    6        5.854076   0.000000
    7        5.886857   0.000000
    8        7.434051   0.000000
 
  0.3333333E+00  0.3333333E+00  0.5551115E-16  0.8230453E-02
    1      -17.037753   1.000000
    2       -5.587368   1.000000
    3       -4.917085   1.000000
    4       -4.917084   1.000000
    5        3.889565   0.000000
    6        4.803040   0.000000
    7        7.003742   0.000000
    8        8.977504   0.000000
 
  0.4444444E+00  0.3333333E+00  0.1665335E-15  0.3292181E-01
    1      -17.001878   1.000000
    2       -5.721613   1.000000
    3       -5.045858   1.000000
    4       -4.960518   1.000000
    5        3.871849   0.000000
    6        4.763908   0.000000
    7        7.233630   0.000000
    8        9.017210   0.000000
 
 -0.4444444E+00  0.3333333E+00 -0.1387779E-15  0.3292181E-01
    1      -16.982239   1.000000
    2       -5.706223   1.000000
    3       -5.279255   1.000000
    4       -4.937224   1.000000
    5        4.095820   0.000000
    6        5.135307   0.000000
    7        7.107979   0.000000
    8        8.561317   0.000000
 
 -0.3333333E+00  0.3333333E+00 -0.7252374E-16  0.1646091E-01
    1      -16.988399   1.000000
    2       -5.533466   1.000000
    3       -5.504461   1.000000
    4       -4.856576   1.000004
    5        4.532938   0.000000
    6        5.524647   0.000000
    7        6.626554   0.000000
    8        8.016892   0.000000
 
  0.4444444E+00  0.4444444E+00  0.1110223E-15  0.8230453E-02
    1      -16.981301   1.000000
    2       -5.825328   1.000000
    3       -5.021585   1.000000
    4       -5.021584   1.000000
    5        3.546665   0.000000
    6        4.462805   0.000000
    7        8.156983   0.000000
    8       10.369145   0.000000
 
 -0.4444444E+00  0.4444444E+00 -0.1394436E-15  0.1646091E-01
    1      -16.973513   1.000000
    2       -5.813866   1.000000
    3       -5.125374   1.000000
    4       -5.012643   1.000000
    5        3.654260   0.000000
    6        4.604997   0.000000
    7        8.030342   0.000000
    8        9.741842   0.000000
 
  0.3333333E+00  0.2222222E+00  0.1111111E+00  0.3292181E-01
    1      -17.104927   1.000000
    2       -5.330252   1.000000
    3       -4.835350   1.000018
    4       -4.672022   1.020768
    5        3.944911   0.000000
    6        5.620697   0.000000
    7        6.454467   0.000000
    8        7.884665   0.000000
 
  0.4444444E+00  0.2222222E+00  0.1111111E+00  0.6584362E-01
    1      -17.050622   1.000000
    2       -5.615048   1.000000
    3       -4.977400   1.000000
    4       -4.738992   1.002493
    5        4.490972   0.000000
    6        5.623154   0.000000
    7        6.022481   0.000000
    8        7.567656   0.000000
 
 -0.4444444E+00  0.2222222E+00  0.1111111E+00  0.6584362E-01
    1      -17.014460   1.000000
    2       -5.800308   1.000000
    3       -5.042249   1.000000
    4       -4.798459   1.000149
    5        4.661784   0.000000
    6        5.347140   0.000000
    7        6.623995   0.000000
    8        7.330969   0.000000
 
  0.4444444E+00  0.3333333E+00  0.1111111E+00  0.3292181E-01
    1      -17.029800   1.000000
    2       -5.614289   1.000000
    3       -5.018130   1.000000
    4       -4.878437   1.000001
    5        4.240910   0.000000
    6        5.100773   0.000000
    7        6.377310   0.000000
    8        8.546774   0.000000
 
 -0.4444444E+00  0.3333333E+00  0.1111111E+00  0.6584362E-01
    1      -16.996256   1.000000
    2       -5.686689   1.000000
    3       -5.196698   1.000000
    4       -4.932286   1.000000
    5        4.437576   0.000000
    6        5.319572   0.000000
    7        6.342191   0.000000
    8        8.193097   0.000000
 
 -0.3333333E+00  0.3333333E+00  0.1111111E+00  0.6584362E-01
    1      -16.988390   1.000000
    2       -5.646867   1.000000
    3       -5.341444   1.000000
    4       -4.909057   1.000000
    5        4.716922   0.000000
    6        5.420109   0.000000
    7        6.425941   0.000000
    8        7.751428   0.000000
 
 -0.2222222E+00  0.3333333E+00  0.1111111E+00  0.3292181E-01
    1      -17.010078   1.000000
    2       -5.626937   1.000000
    3       -5.257093   1.000000
    4       -4.823991   1.000035
    5        5.036362   0.000000
    6        5.388387   0.000000
    7        5.848693   0.000000
    8        7.841223   0.000000
 
 -0.4444444E+00  0.4444444E+00  0.1111111E+00  0.3292181E-01
    1      -16.979999   1.000000
    2       -5.755736   1.000000
    3       -5.131561   1.000000
    4       -5.035018   1.000000
    5        3.888757   0.000000
    6        4.814251   0.000000
    7        7.407794   0.000000
    8        8.974673   0.000000
 
 -0.3333333E+00  0.4444444E+00  0.1111111E+00  0.3292181E-01
    1      -16.974676   1.000000
    2       -5.654405   1.000000
    3       -5.334450   1.000000
    4       -5.013897   1.000000
    5        4.211446   0.000000
    6        5.257714   0.000000
    7        7.006599   0.000000
    8        8.044635   0.000000
 
 -0.3333333E+00  0.4444444E+00  0.2222222E+00  0.3292181E-01
    1      -16.977149   1.000000
    2       -5.570964   1.000000
    3       -5.389688   1.000000
    4       -5.042004   1.000000
    5        4.549696   0.000000
    6        5.758650   0.000000
    7        6.148994   0.000000
    8        7.620540   0.000000
