<?xml version="1.0" encoding="ISO-8859-1"?>
<modeling>
 <generator>
  <i name="program" type="string">vasp </i>
  <i name="version" type="string">5.4.4.18Apr17-6-g9f103f2a35  </i>
  <i name="subversion" type="string">(build Nov 03 2018 10:20:43) complex            parallel </i>
  <i name="platform" type="string">LinuxIFC </i>
  <i name="date" type="string">2018 12 03 </i>
  <i name="time" type="string">15:05:20 </i>
 </generator>
 <incar>
  <i type="string" name="SYSTEM">   Cn_FCC</i>
  <i type="string" name="PREC">accurate</i>
  <i type="string" name="ALGO">   Fast</i>
  <i type="logical" name="ADDGRID"> T  </i>
  <i type="logical" name="LSORBIT"> F  </i>
  <i type="int" name="ISPIN">     1</i>
  <i type="int" name="MAXMIX">    50</i>
  <i type="int" name="NELM">   100</i>
  <i type="int" name="NELMDL">    -5</i>
  <i type="int" name="NELMIN">     5</i>
  <i type="int" name="IBRION">     1</i>
  <i type="int" name="NFREE">     5</i>
  <i name="EDIFF">      0.00000010</i>
  <i name="EDIFFG">      0.00001000</i>
  <i type="int" name="NSW">   999</i>
  <i type="int" name="ISIF">     7</i>
  <i type="int" name="ISYM">     2</i>
  <i name="SYMPREC">      0.00000010</i>
  <i name="ENCUT">    600.00000000</i>
  <i name="POTIM">      0.10000000</i>
  <i type="logical" name="LREAL"> F  </i>
  <i type="int" name="ISMEAR">     1</i>
  <i name="SIGMA">      0.10000000</i>
  <i name="KSPACING">      0.20000000</i>
  <i type="int" name="NWRITE">     2</i>
  <i type="logical" name="LWAVE"> F  </i>
  <i type="logical" name="LCHARG"> F  </i>
  <i type="logical" name="LVTOT"> F  </i>
  <i type="logical" name="GGA_COMPAT"> F  </i>
  <v type="int" name="KPOINT_BSE">    -1     0     0     0</v>
  <i type="int" name="NELM">   100</i>
  <i type="string" name="METAGGA"> SCAN</i>
 </incar>
 <structure name="primitive_cell" >
  <crystal>
   <varray name="basis" >
    <v>       4.46017559       0.00000000       0.00000000 </v>
    <v>       2.23008780       3.86262537      -0.00000000 </v>
    <v>       2.23008780       1.28754179       3.64171812 </v>
   </varray>
   <i name="volume">     62.73947392 </i>
   <varray name="rec_basis" >
    <v>       0.22420642      -0.12944564      -0.09153189 </v>
    <v>       0.00000000       0.25889127      -0.09153189 </v>
    <v>      -0.00000000       0.00000000       0.27459566 </v>
   </varray>
  </crystal>
  <varray name="positions" >
   <v>       0.00000000       0.00000000       0.00000000 </v>
  </varray>
 </structure>
 <varray name="primitive_index" >
  <v type="int" >        1 </v>
 </varray>
 <kpoints>
  <generation param="Gamma">
   <v type="int" name="divisions">       9        9        9 </v>
   <v name="usershift">      0.00000000       0.00000000       0.00000000 </v>
   <v name="genvec1">      0.11111111       0.00000000       0.00000000 </v>
   <v name="genvec2">     -0.00000000       0.11111111       0.00000000 </v>
   <v name="genvec3">     -0.00000000       0.00000000       0.11111111 </v>
   <v name="shift">      0.00000000       0.00000000       0.00000000 </v>
  </generation>
  <varray name="kpointlist" >
   <v>       0.00000000       0.00000000       0.00000000 </v>
   <v>       0.11111111       0.00000000       0.00000000 </v>
   <v>       0.22222222      -0.00000000       0.00000000 </v>
   <v>       0.33333333       0.00000000       0.00000000 </v>
   <v>       0.44444444      -0.00000000       0.00000000 </v>
   <v>       0.11111111       0.11111111       0.00000000 </v>
   <v>       0.22222222       0.11111111       0.00000000 </v>
   <v>       0.33333333       0.11111111       0.00000000 </v>
   <v>       0.44444444       0.11111111       0.00000000 </v>
   <v>      -0.44444444       0.11111111      -0.00000000 </v>
   <v>      -0.33333333       0.11111111      -0.00000000 </v>
   <v>      -0.22222222       0.11111111      -0.00000000 </v>
   <v>      -0.11111111       0.11111111      -0.00000000 </v>
   <v>       0.22222222       0.22222222       0.00000000 </v>
   <v>       0.33333333       0.22222222       0.00000000 </v>
   <v>       0.44444444       0.22222222       0.00000000 </v>
   <v>      -0.44444444       0.22222222      -0.00000000 </v>
   <v>      -0.33333333       0.22222222      -0.00000000 </v>
   <v>      -0.22222222       0.22222222      -0.00000000 </v>
   <v>       0.33333333       0.33333333       0.00000000 </v>
   <v>       0.44444444       0.33333333       0.00000000 </v>
   <v>      -0.44444444       0.33333333      -0.00000000 </v>
   <v>      -0.33333333       0.33333333      -0.00000000 </v>
   <v>       0.44444444       0.44444444       0.00000000 </v>
   <v>      -0.44444444       0.44444444      -0.00000000 </v>
   <v>       0.33333333       0.22222222       0.11111111 </v>
   <v>       0.44444444       0.22222222       0.11111111 </v>
   <v>      -0.44444444       0.22222222       0.11111111 </v>
   <v>       0.44444444       0.33333333       0.11111111 </v>
   <v>      -0.44444444       0.33333333       0.11111111 </v>
   <v>      -0.33333333       0.33333333       0.11111111 </v>
   <v>      -0.22222222       0.33333333       0.11111111 </v>
   <v>      -0.44444444       0.44444444       0.11111111 </v>
   <v>      -0.33333333       0.44444444       0.11111111 </v>
   <v>      -0.33333333       0.44444444       0.22222222 </v>
  </varray>
  <varray name="weights" >
   <v>       0.00137174 </v>
   <v>       0.01097394 </v>
   <v>       0.01097394 </v>
   <v>       0.01097394 </v>
   <v>       0.01097394 </v>
   <v>       0.00823045 </v>
   <v>       0.03292181 </v>
   <v>       0.03292181 </v>
   <v>       0.03292181 </v>
   <v>       0.03292181 </v>
   <v>       0.03292181 </v>
   <v>       0.03292181 </v>
   <v>       0.01646091 </v>
   <v>       0.00823045 </v>
   <v>       0.03292181 </v>
   <v>       0.03292181 </v>
   <v>       0.03292181 </v>
   <v>       0.03292181 </v>
   <v>       0.01646091 </v>
   <v>       0.00823045 </v>
   <v>       0.03292181 </v>
   <v>       0.03292181 </v>
   <v>       0.01646091 </v>
   <v>       0.00823045 </v>
   <v>       0.01646091 </v>
   <v>       0.03292181 </v>
   <v>       0.06584362 </v>
   <v>       0.06584362 </v>
   <v>       0.03292181 </v>
   <v>       0.06584362 </v>
   <v>       0.06584362 </v>
   <v>       0.03292181 </v>
   <v>       0.03292181 </v>
   <v>       0.03292181 </v>
   <v>       0.03292181 </v>
  </varray>
 </kpoints>
 <parameters>
  <separator name="general" >
   <i type="string" name="SYSTEM">Cn_FCC</i>
   <i type="logical" name="LCOMPAT"> F  </i>
  </separator>
  <separator name="electronic" >
   <i type="string" name="PREC">accura</i>
   <i name="ENMAX">    600.00000000</i>
   <i name="ENAUG">    605.90000000</i>
   <i name="EDIFF">      0.00000010</i>
   <i type="int" name="IALGO">    68</i>
   <i type="int" name="IWAVPR">    11</i>
   <i type="int" name="NBANDS">     8</i>
   <i name="NELECT">      8.00000000</i>
   <i type="int" name="TURBO">     0</i>
   <i type="int" name="IRESTART">     0</i>
   <i type="int" name="NREBOOT">     0</i>
   <i type="int" name="NMIN">     0</i>
   <i name="EREF">      0.00000000</i>
   <separator name="electronic smearing" >
    <i type="int" name="ISMEAR">     1</i>
    <i name="SIGMA">      0.10000000</i>
    <i name="KSPACING">      0.20000000</i>
    <i type="logical" name="KGAMMA"> T  </i>
   </separator>
   <separator name="electronic projectors" >
    <i type="logical" name="LREAL"> F  </i>
    <v name="ROPT">      0.00000000</v>
    <i type="int" name="LMAXPAW">  -100</i>
    <i type="int" name="LMAXMIX">     2</i>
    <i type="logical" name="NLSPLINE"> F  </i>
   </separator>
   <separator name="electronic startup" >
    <i type="int" name="ISTART">     0</i>
    <i type="int" name="ICHARG">     2</i>
    <i type="int" name="INIWAV">     1</i>
   </separator>
   <separator name="electronic spin" >
    <i type="int" name="ISPIN">     1</i>
    <i type="logical" name="LNONCOLLINEAR"> F  </i>
    <v name="MAGMOM">      1.00000000</v>
    <i name="NUPDOWN">     -1.00000000</i>
    <i type="logical" name="LSORBIT"> F  </i>
    <v name="SAXIS">      0.00000000      0.00000000      1.00000000</v>
    <i type="logical" name="LSPIRAL"> F  </i>
    <v name="QSPIRAL">      0.00000000      0.00000000      0.00000000</v>
    <i type="logical" name="LZEROZ"> F  </i>
   </separator>
   <separator name="electronic exchange-correlation" >
    <i type="logical" name="LASPH"> F  </i>
    <i type="logical" name="LMETAGGA"> F  </i>
   </separator>
   <separator name="electronic convergence" >
    <i type="int" name="NELM">   100</i>
    <i type="int" name="NELMDL">    -5</i>
    <i type="int" name="NELMIN">     5</i>
    <i name="ENINI">    600.00000000</i>
    <separator name="electronic convergence detail" >
     <i type="logical" name="LDIAG"> T  </i>
     <i type="logical" name="LSUBROT"> F  </i>
     <i name="WEIMIN">      0.00100000</i>
     <i name="EBREAK">      0.00000000</i>
     <i name="DEPER">      0.30000000</i>
     <i type="int" name="NRMM">     4</i>
     <i name="TIME">      0.40000000</i>
    </separator>
   </separator>
   <separator name="electronic mixer" >
    <i name="AMIX">      0.40000000</i>
    <i name="BMIX">      1.00000000</i>
    <i name="AMIN">      0.10000000</i>
    <i name="AMIX_MAG">      1.60000000</i>
    <i name="BMIX_MAG">      1.00000000</i>
    <separator name="electronic mixer details" >
     <i type="int" name="IMIX">     4</i>
     <i type="logical" name="MIXFIRST"> F  </i>
     <i type="int" name="MAXMIX">    50</i>
     <i name="WC">    100.00000000</i>
     <i type="int" name="INIMIX">     1</i>
     <i type="int" name="MIXPRE">     1</i>
     <i type="int" name="MREMOVE">     5</i>
    </separator>
   </separator>
   <separator name="electronic dipolcorrection" >
    <i type="logical" name="LDIPOL"> F  </i>
    <i type="logical" name="LMONO"> F  </i>
    <i type="int" name="IDIPOL">     0</i>
    <i name="EPSILON">      1.00000000</i>
    <v name="DIPOL">   -100.00000000   -100.00000000   -100.00000000</v>
    <i name="EFIELD">      0.00000000</i>
   </separator>
  </separator>
  <separator name="grids" >
   <i type="int" name="NGX">    36</i>
   <i type="int" name="NGY">    36</i>
   <i type="int" name="NGZ">    36</i>
   <i type="int" name="NGXF">    72</i>
   <i type="int" name="NGYF">    72</i>
   <i type="int" name="NGZF">    72</i>
   <i type="logical" name="ADDGRID"> T  </i>
  </separator>
  <separator name="ionic" >
   <i type="int" name="NSW">   999</i>
   <i type="int" name="IBRION">     1</i>
   <i type="int" name="MDALGO">     0</i>
   <i type="int" name="ISIF">     7</i>
   <i name="PSTRESS">      0.00000000</i>
   <i name="EDIFFG">      0.00001000</i>
   <i type="int" name="NFREE">     5</i>
   <i name="POTIM">      0.10000000</i>
   <i name="SMASS">     -3.00000000</i>
   <i name="SCALEE">      1.00000000</i>
  </separator>
  <separator name="ionic md" >
   <i name="TEBEG">      0.00010000</i>
   <i name="TEEND">      0.00010000</i>
   <i type="int" name="NBLOCK">     1</i>
   <i type="int" name="KBLOCK">   999</i>
   <i type="int" name="NPACO">   256</i>
   <i name="APACO">     16.00000000</i>
  </separator>
  <separator name="symmetry" >
   <i type="int" name="ISYM">     2</i>
   <i name="SYMPREC">      0.00000010</i>
  </separator>
  <separator name="dos" >
   <i type="int" name="LORBIT">     0</i>
   <v name="RWIGS">     -1.00000000</v>
   <i type="int" name="NEDOS">   301</i>
   <i name="EMIN">     10.00000000</i>
   <i name="EMAX">    -10.00000000</i>
   <i name="EFERMI">      0.00000000</i>
  </separator>
  <separator name="writing" >
   <i type="int" name="NWRITE">     2</i>
   <i type="logical" name="LWAVE"> F  </i>
   <i type="logical" name="LDOWNSAMPLE"> F  </i>
   <i type="logical" name="LCHARG"> F  </i>
   <i type="logical" name="LPARD"> F  </i>
   <i type="logical" name="LVTOT"> F  </i>
   <i type="logical" name="LVHAR"> F  </i>
   <i type="logical" name="LELF"> F  </i>
   <i type="logical" name="LOPTICS"> F  </i>
   <v name="STM">      0.00000000      0.00000000      0.00000000      0.00000000      0.00000000      0.00000000      0.00000000</v>
  </separator>
  <separator name="performance" >
   <i type="int" name="NPAR">     4</i>
   <i type="int" name="NSIM">     4</i>
   <i type="int" name="NBLK">    -1</i>
   <i type="logical" name="LPLANE"> T  </i>
   <i type="logical" name="LSCALAPACK"> T  </i>
   <i type="logical" name="LSCAAWARE"> F  </i>
   <i type="logical" name="LSCALU"> F  </i>
   <i type="logical" name="LASYNC"> F  </i>
   <i type="logical" name="LORBITALREAL"> F  </i>
  </separator>
  <separator name="miscellaneous" >
   <i type="int" name="IDIOT">     3</i>
   <i type="int" name="ISPECIAL">     0</i>
   <i type="logical" name="LMUSIC"> F  </i>
   <v name="POMASS">    131.29400000</v>
   <v name="DARWINR">      0.00000000</v>
   <v name="DARWINV">      1.00000000</v>
   <i type="logical" name="LCORR"> T  </i>
  </separator>
  <i type="logical" name="GGA_COMPAT"> F  </i>
  <i type="logical" name="LBERRY"> F  </i>
  <i type="int" name="ICORELEVEL">     0</i>
  <i type="logical" name="LDAU"> F  </i>
  <i type="int" name="I_CONSTRAINED_M">     0</i>
  <separator name="electronic exchange-correlation" >
   <i type="string" name="GGA">--</i>
   <i type="int" name="VOSKOWN">     0</i>
   <i type="logical" name="LHFCALC"> F  </i>
   <i type="string" name="PRECFOCK"></i>
   <i type="logical" name="LSYMGRAD"> F  </i>
   <i type="logical" name="LHFONE"> F  </i>
   <i type="logical" name="LRHFCALC"> F  </i>
   <i type="logical" name="LTHOMAS"> F  </i>
   <i type="logical" name="LMODELHF"> F  </i>
   <i name="ENCUT4O">     -1.00000000</i>
   <i type="int" name="EXXOEP">     0</i>
   <i type="int" name="FOURORBIT">     0</i>
   <i name="AEXX">      0.00000000</i>
   <i name="HFALPHA">      0.00000000</i>
   <i name="MCALPHA">      0.00000000</i>
   <i name="ALDAX">      1.00000000</i>
   <i name="AGGAX">      1.00000000</i>
   <i name="ALDAC">      1.00000000</i>
   <i name="AGGAC">      1.00000000</i>
   <i type="int" name="NKREDX">     1</i>
   <i type="int" name="NKREDY">     1</i>
   <i type="int" name="NKREDZ">     1</i>
   <i type="logical" name="SHIFTRED"> F  </i>
   <i type="logical" name="ODDONLY"> F  </i>
   <i type="logical" name="EVENONLY"> F  </i>
   <i type="int" name="LMAXFOCK">     0</i>
   <i type="int" name="NMAXFOCKAE">     0</i>
   <i type="logical" name="LFOCKAEDFT"> F  </i>
   <i name="HFSCREEN">      0.00000000</i>
   <i name="HFSCREENC">      0.00000000</i>
   <i type="int" name="NBANDSGWLOW">     0</i>
  </separator>
  <separator name="vdW DFT" >
   <i type="logical" name="LUSE_VDW"> F  </i>
   <i name="Zab_VDW">     -0.84910000</i>
   <i name="PARAM1">      0.12340000</i>
   <i name="PARAM2">      1.00000000</i>
   <i name="PARAM3">      0.00000000</i>
  </separator>
  <separator name="model GW" >
   <i type="int" name="MODEL_GW">     0</i>
   <i name="MODEL_EPS0">     37.64368435</i>
   <i name="MODEL_ALPHA">      1.00000000</i>
  </separator>
  <separator name="linear response parameters" >
   <i type="logical" name="LEPSILON"> F  </i>
   <i type="logical" name="LRPA"> F  </i>
   <i type="logical" name="LNABLA"> F  </i>
   <i type="logical" name="LVEL"> F  </i>
   <i type="int" name="KINTER">     0</i>
   <i name="CSHIFT">      0.10000000</i>
   <i name="OMEGAMAX">     -1.00000000</i>
   <i name="DEG_THRESHOLD">      0.00200000</i>
   <i name="RTIME">     -0.10000000</i>
   <i name="WPLASMAI">      0.00000000</i>
   <v name="DFIELD">      0.00000000      0.00000000      0.00000000</v>
   <v name="WPLASMA">      0.00000000      0.00000000      0.00000000      0.00000000      0.00000000      0.00000000      0.00000000      0.00000000      0.00000000</v>
  </separator>
  <separator name="orbital magnetization" >
   <i type="logical" name="NUCIND"> F  </i>
   <v name="MAGPOS">      0.00000000      0.00000000      0.00000000</v>
   <i type="logical" name="LNICSALL"> T  </i>
   <i type="logical" name="ORBITALMAG"> F  </i>
   <i type="logical" name="LMAGBLOCH"> F  </i>
   <i type="logical" name="LCHIMAG"> F  </i>
   <i type="logical" name="LGAUGE"> T  </i>
   <i type="int" name="MAGATOM">     0</i>
   <v name="MAGDIPOL">      0.00000000      0.00000000      0.00000000</v>
   <v name="AVECCONST">      0.00000000      0.00000000      0.00000000</v>
  </separator>
  <separator name="response functions" >
   <i type="logical" name="LADDER"> F  </i>
   <i type="logical" name="LRPAFORCE"> F  </i>
   <i type="logical" name="LFXC"> F  </i>
   <i type="logical" name="LHARTREE"> T  </i>
   <i type="int" name="IBSE">     0</i>
   <v type="int" name="KPOINT">    -1     0     0     0</v>
   <i type="logical" name="LTCTE"> F  </i>
   <i type="logical" name="LTETE"> F  </i>
   <i type="logical" name="LTRIPLET"> F  </i>
   <i type="logical" name="LFXCEPS"> F  </i>
   <i type="logical" name="LFXHEG"> F  </i>
   <i type="int" name="NATURALO">     2</i>
   <i type="logical" name="L2ORDER"> F  </i>
   <i type="logical" name="LMP2LT"> F  </i>
   <i type="logical" name="LUSEW"> F  </i>
   <i name="ENCUTGW">     -2.00000000</i>
   <i name="ENCUTGWSOFT">     -2.00000000</i>
   <i name="ENCUTLF">     -1.00000000</i>
   <i type="int" name="LMAXMP2">    -1</i>
   <i name="SCISSOR">      0.00000000</i>
   <i type="int" name="NOMEGA">     0</i>
   <i type="int" name="NOMEGAR">     0</i>
   <i type="int" name="NBANDSGW">    -1</i>
   <i type="int" name="NBANDSO">    -1</i>
   <i type="int" name="NBANDSV">    -1</i>
   <i type="int" name="NELM">   100</i>
   <i type="int" name="NELMHF">     1</i>
   <i type="int" name="DIM">     3</i>
   <i type="int" name="ANTIRES">     0</i>
   <i name="OMEGAMAX">    -30.00000000</i>
   <i name="OMEGAMIN">    -30.00000000</i>
   <i name="OMEGATL">   -200.00000000</i>
   <i type="int" name="OMEGAGRID">   140</i>
   <i name="CSHIFT">     -0.10000000</i>
   <i type="logical" name="SELFENERGY"> F  </i>
   <i type="logical" name="LSPECTRAL"> F  </i>
   <i type="logical" name="LSPECTRALGW"> F  </i>
   <i type="logical" name="LSINGLES"> F  </i>
   <i type="logical" name="LFERMIGW"> F  </i>
   <i type="logical" name="ODDONLYGW"> F  </i>
   <i type="logical" name="EVENONLYGW"> F  </i>
   <i type="int" name="NKREDLFX">     1</i>
   <i type="int" name="NKREDLFY">     1</i>
   <i type="int" name="NKREDLFZ">     1</i>
   <i type="int" name="MAXMEM">  2800</i>
   <i type="int" name="TELESCOPE">     0</i>
   <i type="int" name="TAUPAR">     1</i>
   <i type="int" name="OMEGAPAR">    -1</i>
   <i name="LAMBDA">      1.00000000</i>
  </separator>
  <separator name="External order field" >
   <i name="OFIELD_KAPPA">      0.00000000</i>
   <v name="OFIELD_K">      0.00000000      0.00000000      0.00000000</v>
   <i name="OFIELD_Q6_NEAR">      0.00000000</i>
   <i name="OFIELD_Q6_FAR">      0.00000000</i>
   <i name="OFIELD_A">      0.00000000</i>
  </separator>
 </parameters>
 <atominfo>
  <atoms>       1 </atoms>
  <types>       1 </types>
  <array name="atoms" >
   <dimension dim="1">ion</dimension>
   <field type="string">element</field>
   <field type="int">atomtype</field>
   <set>
    <rc><c>Xe</c><c>   1</c></rc>
   </set>
  </array>
  <array name="atomtypes" >
   <dimension dim="1">type</dimension>
   <field type="int">atomspertype</field>
   <field type="string">element</field>
   <field>mass</field>
   <field>valence</field>
   <field type="string">pseudopotential</field>
   <set>
    <rc><c>   1</c><c>Xe</c><c>    131.29400000</c><c>      8.00000000</c><c>  PAW_PBE Xe_GW 08Jan2009               </c></rc>
   </set>
  </array>
 </atominfo>
 <structure name="initialpos" >
  <crystal>
   <varray name="basis" >
    <v>       4.46017559       0.00000000       0.00000000 </v>
    <v>       2.23008780       3.86262537      -0.00000000 </v>
    <v>       2.23008780       1.28754179       3.64171812 </v>
   </varray>
   <i name="volume">     62.73947392 </i>
   <varray name="rec_basis" >
    <v>       0.22420642      -0.12944564      -0.09153189 </v>
    <v>       0.00000000       0.25889127      -0.09153189 </v>
    <v>      -0.00000000       0.00000000       0.27459566 </v>
   </varray>
  </crystal>
  <varray name="positions" >
   <v>       0.00000000       0.00000000       0.00000000 </v>
  </varray>
 </structure>
 <calculation>
  <scstep>
   <time name="dav">    0.26    0.26</time>
   <time name="total">    0.47    0.47</time>
   <energy>
    <i name="alphaZ">     20.78062946 </i>
    <i name="ewald">   -334.93873217 </i>
    <i name="hartreedc">    -69.82544759 </i>
    <i name="XCdc">    -57.58697966 </i>
    <i name="pawpsdc">    413.10232264 </i>
    <i name="pawaedc">   -372.75623973 </i>
    <i name="eentropy">     -0.00002164 </i>
    <i name="bandstr">    -29.42052138 </i>
    <i name="atom">    429.51431920 </i>
    <i name="e_fr_energy">     -1.13067088 </i>
    <i name="e_wo_entrp">     -1.13064925 </i>
    <i name="e_0_energy">     -1.13066367 </i>
   </energy>
  </scstep>
  <scstep>
   <time name="dav">    0.32    0.33</time>
   <time name="total">    0.33    0.33</time>
   <energy>
    <i name="e_fr_energy">    -35.69208093 </i>
    <i name="e_wo_entrp">    -35.69313349 </i>
    <i name="e_0_energy">    -35.69243178 </i>
   </energy>
  </scstep>
  <scstep>
   <time name="dav">    0.33    0.33</time>
   <time name="total">    0.33    0.33</time>
   <energy>
    <i name="e_fr_energy">    -37.84744022 </i>
    <i name="e_wo_entrp">    -37.84958289 </i>
    <i name="e_0_energy">    -37.84815444 </i>
   </energy>
  </scstep>
  <scstep>
   <time name="dav">    0.35    0.35</time>
   <time name="total">    0.35    0.35</time>
   <energy>
    <i name="e_fr_energy">    -37.85735556 </i>
    <i name="e_wo_entrp">    -37.85945563 </i>
    <i name="e_0_energy">    -37.85805558 </i>
   </energy>
  </scstep>
  <scstep>
   <time name="dav">    0.32    0.33</time>
   <time name="total">    0.56    0.56</time>
   <energy>
    <i name="e_fr_energy">    -37.85737490 </i>
    <i name="e_wo_entrp">    -37.85947492 </i>
    <i name="e_0_energy">    -37.85807490 </i>
   </energy>
  </scstep>
  <scstep>
   <time name="diag">    0.07    0.07</time>
   <time name="diis">    0.36    0.36</time>
   <time name="orth">    0.00    0.00</time>
   <time name="total">    0.86    0.87</time>
   <energy>
    <i name="e_fr_energy">    -36.24612164 </i>
    <i name="e_wo_entrp">    -36.24850390 </i>
    <i name="e_0_energy">    -36.24691573 </i>
   </energy>
  </scstep>
  <scstep>
   <time name="diag">    0.07    0.07</time>
   <time name="diis">    0.37    0.37</time>
   <time name="orth">    0.00    0.00</time>
   <time name="total">    0.87    0.87</time>
   <energy>
    <i name="e_fr_energy">    -36.24591686 </i>
    <i name="e_wo_entrp">    -36.24829072 </i>
    <i name="e_0_energy">    -36.24670815 </i>
   </energy>
  </scstep>
  <scstep>
   <time name="diag">    0.07    0.07</time>
   <time name="diis">    0.38    0.38</time>
   <time name="orth">    0.00    0.00</time>
   <time name="total">    0.88    0.88</time>
   <energy>
    <i name="e_fr_energy">    -36.24587090 </i>
    <i name="e_wo_entrp">    -36.24823056 </i>
    <i name="e_0_energy">    -36.24665745 </i>
   </energy>
  </scstep>
  <scstep>
   <time name="diag">    0.07    0.07</time>
   <time name="diis">    0.38    0.38</time>
   <time name="orth">    0.00    0.00</time>
   <time name="total">    0.88    0.88</time>
   <energy>
    <i name="e_fr_energy">    -36.24588705 </i>
    <i name="e_wo_entrp">    -36.24824839 </i>
    <i name="e_0_energy">    -36.24667416 </i>
   </energy>
  </scstep>
  <scstep>
   <time name="diag">    0.07    0.07</time>
   <time name="diis">    0.38    0.38</time>
   <time name="orth">    0.00    0.00</time>
   <time name="total">    0.88    0.88</time>
   <energy>
    <i name="e_fr_energy">    -36.24589785 </i>
    <i name="e_wo_entrp">    -36.24825924 </i>
    <i name="e_0_energy">    -36.24668498 </i>
   </energy>
  </scstep>
  <scstep>
   <time name="diag">    0.07    0.07</time>
   <time name="diis">    0.37    0.38</time>
   <time name="orth">    0.00    0.00</time>
   <time name="total">    0.88    0.88</time>
   <energy>
    <i name="e_fr_energy">    -36.24590215 </i>
    <i name="e_wo_entrp">    -36.24826302 </i>
    <i name="e_0_energy">    -36.24668911 </i>
   </energy>
  </scstep>
  <scstep>
   <time name="diag">    0.07    0.07</time>
   <time name="diis">    0.33    0.33</time>
   <time name="orth">    0.00    0.00</time>
   <time name="total">    0.83    0.83</time>
   <energy>
    <i name="e_fr_energy">    -36.24590321 </i>
    <i name="e_wo_entrp">    -36.24826396 </i>
    <i name="e_0_energy">    -36.24669013 </i>
   </energy>
  </scstep>
  <scstep>
   <time name="diag">    0.07    0.07</time>
   <time name="diis">    0.31    0.31</time>
   <time name="orth">    0.00    0.00</time>
   <time name="total">    0.81    0.81</time>
   <energy>
    <i name="e_fr_energy">    -36.24590345 </i>
    <i name="e_wo_entrp">    -36.24826415 </i>
    <i name="e_0_energy">    -36.24669035 </i>
   </energy>
  </scstep>
  <scstep>
   <time name="diag">    0.07    0.07</time>
   <time name="diis">    0.24    0.24</time>
   <time name="orth">    0.00    0.00</time>
   <time name="total">    0.74    0.75</time>
   <energy>
    <i name="e_fr_energy">    -36.24590314 </i>
    <i name="e_wo_entrp">    -36.24826387 </i>
    <i name="e_0_energy">    -36.24669005 </i>
   </energy>
  </scstep>
  <scstep>
   <time name="diag">    0.07    0.07</time>
   <time name="diis">    0.27    0.28</time>
   <time name="orth">    0.00    0.00</time>
   <time name="total">    0.78    0.78</time>
   <energy>
    <i name="e_fr_energy">    -36.24590275 </i>
    <i name="e_wo_entrp">    -36.24826352 </i>
    <i name="e_0_energy">    -36.24668968 </i>
   </energy>
  </scstep>
  <scstep>
   <time name="diag">    0.07    0.07</time>
   <time name="diis">    0.22    0.22</time>
   <time name="orth">    0.00    0.00</time>
   <time name="total">    0.50    0.50</time>
   <energy>
    <i name="alphaZ">     20.78062946 </i>
    <i name="ewald">   -334.93873217 </i>
    <i name="hartreedc">    -69.78260357 </i>
    <i name="XCdc">    -57.20900957 </i>
    <i name="pawpsdc">    414.22743464 </i>
    <i name="pawaedc">   -373.88536168 </i>
    <i name="eentropy">      0.00236076 </i>
    <i name="bandstr">    -64.95493986 </i>
    <i name="atom">    429.51431920 </i>
    <i name="e_fr_energy">    -36.24590279 </i>
    <i name="e_wo_entrp">    -36.24826355 </i>
    <i name="e_0_energy">    -36.24668971 </i>
   </energy>
  </scstep>
  <structure>
   <crystal>
    <varray name="basis" >
     <v>       4.46017559       0.00000000       0.00000000 </v>
     <v>       2.23008780       3.86262537      -0.00000000 </v>
     <v>       2.23008780       1.28754179       3.64171812 </v>
    </varray>
    <i name="volume">     62.73947392 </i>
    <varray name="rec_basis" >
     <v>       0.22420642      -0.12944564      -0.09153189 </v>
     <v>       0.00000000       0.25889127      -0.09153189 </v>
     <v>      -0.00000000       0.00000000       0.27459566 </v>
    </varray>
   </crystal>
   <varray name="positions" >
    <v>       0.00000000       0.00000000       0.00000000 </v>
   </varray>
  </structure>
  <varray name="forces" >
   <v>       0.00000000       0.00000000       0.00000000 </v>
  </varray>
  <varray name="stress" >
   <v>       0.02696095       0.00000000       0.00000000 </v>
   <v>       0.00000000       0.02696095      -0.00000000 </v>
   <v>       0.00000000      -0.00000000       0.02696095 </v>
  </varray>
  <energy>
   <i name="e_fr_energy">    -36.24590279 </i>
   <i name="e_wo_entrp">    -36.24668971 </i>
   <i name="e_0_energy">      0.00236076 </i>
  </energy>
  <time name="totalsc">   15.21   15.30</time>
  <eigenvalues>
   <array>
    <dimension dim="1">band</dimension>
    <dimension dim="2">kpoint</dimension>
    <dimension dim="3">spin</dimension>
    <field>eigene</field>
    <field>occ</field>
    <set>
     <set comment="spin 1">
      <set comment="kpoint 1">
       <r>  -17.2235    1.0000 </r>
       <r>   -4.5300    0.6887 </r>
       <r>   -4.5300    0.6887 </r>
       <r>   -4.5300    0.6887 </r>
       <r>    2.3376    0.0000 </r>
       <r>    6.9517    0.0000 </r>
       <r>    6.9517    0.0000 </r>
       <r>    6.9517    0.0000 </r>
      </set>
      <set comment="kpoint 2">
       <r>  -17.2023    1.0000 </r>
       <r>   -4.7357    1.0028 </r>
       <r>   -4.5513    0.8370 </r>
       <r>   -4.5513    0.8370 </r>
       <r>    2.6568    0.0000 </r>
       <r>    6.5593    0.0000 </r>
       <r>    7.0744    0.0000 </r>
       <r>    7.0744    0.0000 </r>
      </set>
      <set comment="kpoint 3">
       <r>  -17.1476    1.0000 </r>
       <r>   -5.2018    1.0000 </r>
       <r>   -4.6042    1.0219 </r>
       <r>   -4.6042    1.0219 </r>
       <r>    3.3569    0.0000 </r>
       <r>    6.1207    0.0000 </r>
       <r>    7.1453    0.0000 </r>
       <r>    7.1453    0.0000 </r>
      </set>
      <set comment="kpoint 4">
       <r>  -17.0837    1.0000 </r>
       <r>   -5.6649    1.0000 </r>
       <r>   -4.6626    1.0251 </r>
       <r>   -4.6626    1.0251 </r>
       <r>    3.8277    0.0000 </r>
       <r>    6.3003    0.0000 </r>
       <r>    6.8663    0.0000 </r>
       <r>    6.8663    0.0000 </r>
      </set>
      <set comment="kpoint 5">
       <r>  -17.0409    1.0000 </r>
       <r>   -5.9400    1.0000 </r>
       <r>   -4.6997    1.0101 </r>
       <r>   -4.6997    1.0101 </r>
       <r>    3.8993    0.0000 </r>
       <r>    6.6417    0.0000 </r>
       <r>    6.6417    0.0000 </r>
       <r>    6.7870    0.0000 </r>
      </set>
      <set comment="kpoint 6">
       <r>  -17.1952    1.0000 </r>
       <r>   -4.7321    1.0033 </r>
       <r>   -4.5939    1.0055 </r>
       <r>   -4.5939    1.0055 </r>
       <r>    2.7637    0.0000 </r>
       <r>    6.3516    0.0000 </r>
       <r>    7.1947    0.0000 </r>
       <r>    7.1947    0.0000 </r>
      </set>
      <set comment="kpoint 7">
       <r>  -17.1517    1.0000 </r>
       <r>   -5.0792    1.0000 </r>
       <r>   -4.6621    1.0253 </r>
       <r>   -4.6386    1.0343 </r>
       <r>    3.3530    0.0000 </r>
       <r>    5.9217    0.0000 </r>
       <r>    7.0484    0.0000 </r>
       <r>    7.4051    0.0000 </r>
      </set>
      <set comment="kpoint 8">
       <r>  -17.0907    1.0000 </r>
       <r>   -5.5184    1.0000 </r>
       <r>   -4.7232    1.0046 </r>
       <r>   -4.7113    1.0069 </r>
       <r>    3.9643    0.0000 </r>
       <r>    5.8678    0.0000 </r>
       <r>    6.5159    0.0000 </r>
       <r>    7.2652    0.0000 </r>
      </set>
      <set comment="kpoint 9">
       <r>  -17.0406    1.0000 </r>
       <r>   -5.8356    1.0000 </r>
       <r>   -4.7931    1.0002 </r>
       <r>   -4.7498    1.0016 </r>
       <r>    4.1621    0.0000 </r>
       <r>    5.9129    0.0000 </r>
       <r>    6.7514    0.0000 </r>
       <r>    6.9744    0.0000 </r>
      </set>
      <set comment="kpoint 10">
       <r>  -17.0262    1.0000 </r>
       <r>   -5.9199    1.0000 </r>
       <r>   -4.8452    1.0000 </r>
       <r>   -4.7309    1.0034 </r>
       <r>    4.1920    0.0000 </r>
       <r>    5.8867    0.0000 </r>
       <r>    6.8328    0.0000 </r>
       <r>    7.0535    0.0000 </r>
      </set>
      <set comment="kpoint 11">
       <r>  -17.0548    1.0000 </r>
       <r>   -5.7466    1.0000 </r>
       <r>   -4.8422    1.0000 </r>
       <r>   -4.6746    1.0196 </r>
       <r>    4.1773    0.0000 </r>
       <r>    6.0679    0.0000 </r>
       <r>    6.5571    0.0000 </r>
       <r>    6.9324    0.0000 </r>
      </set>
      <set comment="kpoint 12">
       <r>  -17.1119    1.0000 </r>
       <r>   -5.3778    1.0000 </r>
       <r>   -4.7786    1.0004 </r>
       <r>   -4.6056    1.0235 </r>
       <r>    3.8278    0.0000 </r>
       <r>    5.9416    0.0000 </r>
       <r>    6.6908    0.0000 </r>
       <r>    7.2603    0.0000 </r>
      </set>
      <set comment="kpoint 13">
       <r>  -17.1699    1.0000 </r>
       <r>   -4.9715    1.0000 </r>
       <r>   -4.6644    1.0243 </r>
       <r>   -4.5561    0.8651 </r>
       <r>    3.1197    0.0000 </r>
       <r>    6.1736    0.0000 </r>
       <r>    7.0987    0.0000 </r>
       <r>    7.2781    0.0000 </r>
      </set>
      <set comment="kpoint 14">
       <r>  -17.1224    1.0000 </r>
       <r>   -5.1718    1.0000 </r>
       <r>   -4.7495    1.0016 </r>
       <r>   -4.7495    1.0016 </r>
       <r>    3.6673    0.0000 </r>
       <r>    5.4629    0.0000 </r>
       <r>    6.8219    0.0000 </r>
       <r>    7.8921    0.0000 </r>
      </set>
      <set comment="kpoint 15">
       <r>  -17.0727    1.0000 </r>
       <r>   -5.4566    1.0000 </r>
       <r>   -4.8483    1.0000 </r>
       <r>   -4.8245    1.0000 </r>
       <r>    4.0735    0.0000 </r>
       <r>    5.2294    0.0000 </r>
       <r>    6.4315    0.0000 </r>
       <r>    8.0717    0.0000 </r>
      </set>
      <set comment="kpoint 16">
       <r>  -17.0253    1.0000 </r>
       <r>   -5.6989    1.0000 </r>
       <r>   -4.9950    1.0000 </r>
       <r>   -4.8542    1.0000 </r>
       <r>    4.3479    0.0000 </r>
       <r>    5.3438    0.0000 </r>
       <r>    6.3470    0.0000 </r>
       <r>    7.7960    0.0000 </r>
      </set>
      <set comment="kpoint 17">
       <r>  -17.0031    1.0000 </r>
       <r>   -5.7837    1.0000 </r>
       <r>   -5.1355    1.0000 </r>
       <r>   -4.8264    1.0000 </r>
       <r>    4.5865    0.0000 </r>
       <r>    5.3457    0.0000 </r>
       <r>    6.7163    0.0000 </r>
       <r>    7.5112    0.0000 </r>
      </set>
      <set comment="kpoint 18">
       <r>  -17.0172    1.0000 </r>
       <r>   -5.7022    1.0000 </r>
       <r>   -5.1784    1.0000 </r>
       <r>   -4.7528    1.0014 </r>
       <r>    4.8908    0.0000 </r>
       <r>    5.3706    0.0000 </r>
       <r>    6.3741    0.0000 </r>
       <r>    7.3956    0.0000 </r>
      </set>
      <set comment="kpoint 19">
       <r>  -17.0606    1.0000 </r>
       <r>   -5.5441    1.0000 </r>
       <r>   -5.0409    1.0000 </r>
       <r>   -4.6654    1.0238 </r>
       <r>    4.6017    0.0000 </r>
       <r>    5.8541    0.0000 </r>
       <r>    5.8869    0.0000 </r>
       <r>    7.4341    0.0000 </r>
      </set>
      <set comment="kpoint 20">
       <r>  -17.0378    1.0000 </r>
       <r>   -5.5874    1.0000 </r>
       <r>   -4.9171    1.0000 </r>
       <r>   -4.9171    1.0000 </r>
       <r>    3.8896    0.0000 </r>
       <r>    4.8030    0.0000 </r>
       <r>    7.0037    0.0000 </r>
       <r>    8.9775    0.0000 </r>
      </set>
      <set comment="kpoint 21">
       <r>  -17.0019    1.0000 </r>
       <r>   -5.7216    1.0000 </r>
       <r>   -5.0459    1.0000 </r>
       <r>   -4.9605    1.0000 </r>
       <r>    3.8718    0.0000 </r>
       <r>    4.7639    0.0000 </r>
       <r>    7.2336    0.0000 </r>
       <r>    9.0172    0.0000 </r>
      </set>
      <set comment="kpoint 22">
       <r>  -16.9822    1.0000 </r>
       <r>   -5.7062    1.0000 </r>
       <r>   -5.2793    1.0000 </r>
       <r>   -4.9372    1.0000 </r>
       <r>    4.0958    0.0000 </r>
       <r>    5.1353    0.0000 </r>
       <r>    7.1080    0.0000 </r>
       <r>    8.5613    0.0000 </r>
      </set>
      <set comment="kpoint 23">
       <r>  -16.9884    1.0000 </r>
       <r>   -5.5335    1.0000 </r>
       <r>   -5.5045    1.0000 </r>
       <r>   -4.8566    1.0000 </r>
       <r>    4.5329    0.0000 </r>
       <r>    5.5246    0.0000 </r>
       <r>    6.6266    0.0000 </r>
       <r>    8.0169    0.0000 </r>
      </set>
      <set comment="kpoint 24">
       <r>  -16.9813    1.0000 </r>
       <r>   -5.8253    1.0000 </r>
       <r>   -5.0216    1.0000 </r>
       <r>   -5.0216    1.0000 </r>
       <r>    3.5467    0.0000 </r>
       <r>    4.4628    0.0000 </r>
       <r>    8.1570    0.0000 </r>
       <r>   10.3691    0.0000 </r>
      </set>
      <set comment="kpoint 25">
       <r>  -16.9735    1.0000 </r>
       <r>   -5.8139    1.0000 </r>
       <r>   -5.1254    1.0000 </r>
       <r>   -5.0126    1.0000 </r>
       <r>    3.6543    0.0000 </r>
       <r>    4.6050    0.0000 </r>
       <r>    8.0303    0.0000 </r>
       <r>    9.7418    0.0000 </r>
      </set>
      <set comment="kpoint 26">
       <r>  -17.1049    1.0000 </r>
       <r>   -5.3303    1.0000 </r>
       <r>   -4.8354    1.0000 </r>
       <r>   -4.6720    1.0208 </r>
       <r>    3.9449    0.0000 </r>
       <r>    5.6207    0.0000 </r>
       <r>    6.4545    0.0000 </r>
       <r>    7.8847    0.0000 </r>
      </set>
      <set comment="kpoint 27">
       <r>  -17.0506    1.0000 </r>
       <r>   -5.6150    1.0000 </r>
       <r>   -4.9774    1.0000 </r>
       <r>   -4.7390    1.0025 </r>
       <r>    4.4910    0.0000 </r>
       <r>    5.6232    0.0000 </r>
       <r>    6.0225    0.0000 </r>
       <r>    7.5677    0.0000 </r>
      </set>
      <set comment="kpoint 28">
       <r>  -17.0145    1.0000 </r>
       <r>   -5.8003    1.0000 </r>
       <r>   -5.0422    1.0000 </r>
       <r>   -4.7985    1.0001 </r>
       <r>    4.6618    0.0000 </r>
       <r>    5.3471    0.0000 </r>
       <r>    6.6240    0.0000 </r>
       <r>    7.3310    0.0000 </r>
      </set>
      <set comment="kpoint 29">
       <r>  -17.0298    1.0000 </r>
       <r>   -5.6143    1.0000 </r>
       <r>   -5.0181    1.0000 </r>
       <r>   -4.8784    1.0000 </r>
       <r>    4.2409    0.0000 </r>
       <r>    5.1008    0.0000 </r>
       <r>    6.3773    0.0000 </r>
       <r>    8.5468    0.0000 </r>
      </set>
      <set comment="kpoint 30">
       <r>  -16.9963    1.0000 </r>
       <r>   -5.6867    1.0000 </r>
       <r>   -5.1967    1.0000 </r>
       <r>   -4.9323    1.0000 </r>
       <r>    4.4376    0.0000 </r>
       <r>    5.3196    0.0000 </r>
       <r>    6.3422    0.0000 </r>
       <r>    8.1931    0.0000 </r>
      </set>
      <set comment="kpoint 31">
       <r>  -16.9884    1.0000 </r>
       <r>   -5.6469    1.0000 </r>
       <r>   -5.3414    1.0000 </r>
       <r>   -4.9091    1.0000 </r>
       <r>    4.7169    0.0000 </r>
       <r>    5.4201    0.0000 </r>
       <r>    6.4259    0.0000 </r>
       <r>    7.7514    0.0000 </r>
      </set>
      <set comment="kpoint 32">
       <r>  -17.0101    1.0000 </r>
       <r>   -5.6269    1.0000 </r>
       <r>   -5.2571    1.0000 </r>
       <r>   -4.8240    1.0000 </r>
       <r>    5.0364    0.0000 </r>
       <r>    5.3884    0.0000 </r>
       <r>    5.8487    0.0000 </r>
       <r>    7.8412    0.0000 </r>
      </set>
      <set comment="kpoint 33">
       <r>  -16.9800    1.0000 </r>
       <r>   -5.7557    1.0000 </r>
       <r>   -5.1316    1.0000 </r>
       <r>   -5.0350    1.0000 </r>
       <r>    3.8888    0.0000 </r>
       <r>    4.8143    0.0000 </r>
       <r>    7.4078    0.0000 </r>
       <r>    8.9747    0.0000 </r>
      </set>
      <set comment="kpoint 34">
       <r>  -16.9747    1.0000 </r>
       <r>   -5.6544    1.0000 </r>
       <r>   -5.3344    1.0000 </r>
       <r>   -5.0139    1.0000 </r>
       <r>    4.2114    0.0000 </r>
       <r>    5.2577    0.0000 </r>
       <r>    7.0066    0.0000 </r>
       <r>    8.0446    0.0000 </r>
      </set>
      <set comment="kpoint 35">
       <r>  -16.9771    1.0000 </r>
       <r>   -5.5710    1.0000 </r>
       <r>   -5.3897    1.0000 </r>
       <r>   -5.0420    1.0000 </r>
       <r>    4.5497    0.0000 </r>
       <r>    5.7586    0.0000 </r>
       <r>    6.1490    0.0000 </r>
       <r>    7.6205    0.0000 </r>
      </set>
     </set>
    </set>
   </array>
  </eigenvalues>
  <separator name="orbital magnetization" >
   <v name="MAGDIPOLOUT">      0.00000000      0.00000000      0.00000000</v>
  </separator>
 </calculation>
 <structure name="finalpos" >
  <crystal>
   <varray name="basis" >
    <v>       4.46017559       0.00000000       0.00000000 </v>
    <v>       2.23008780       3.86262537      -0.00000000 </v>
    <v>       2.23008780       1.28754179       3.64171812 </v>
   </varray>
   <i name="volume">     62.73947392 </i>
   <varray name="rec_basis" >
    <v>       0.22420642      -0.12944564      -0.09153189 </v>
    <v>       0.00000000       0.25889127      -0.09153189 </v>
    <v>      -0.00000000       0.00000000       0.27459566 </v>
   </varray>
  </crystal>
  <varray name="positions" >
   <v>       0.00000000       0.00000000       0.00000000 </v>
  </varray>
 </structure>
</modeling>
