Cn_FCC                                  
           1
     4.460176    0.000000    0.000000
     2.230088    3.862625   -0.000000
     2.230088    1.287542    3.641718
   Kr
   1
Direct configuration=     1
   0.00000000  0.00000000  0.00000000
