   1   1   0   0
  0.5830817E+02  0.4352594E-09  0.4352594E-09  0.4352594E-09  0.1000000E-15
  1.000000000000000E-004
  CAR 
 Og_FCC                                  
     57.76735861    -34.73318091  301      3.88272976      1.00000000
    -34.733  0.0000E+00  0.0000E+00
    -34.425  0.0000E+00  0.0000E+00
    -34.117  0.0000E+00  0.0000E+00
    -33.808  0.0000E+00  0.0000E+00
    -33.500  0.0000E+00  0.0000E+00
    -33.192  0.0000E+00  0.0000E+00
    -32.883  0.0000E+00  0.0000E+00
    -32.575  0.0000E+00  0.0000E+00
    -32.266  0.0000E+00  0.0000E+00
    -31.958  0.0000E+00  0.0000E+00
    -31.650  0.0000E+00  0.0000E+00
    -31.341  0.0000E+00  0.0000E+00
    -31.033  0.0000E+00  0.0000E+00
    -30.725  0.0000E+00  0.0000E+00
    -30.416  0.0000E+00  0.4000E+01
    -30.108  0.0000E+00  0.4000E+01
    -29.800  0.0000E+00  0.4000E+01
    -29.491  0.0000E+00  0.4000E+01
    -29.183  0.0000E+00  0.4000E+01
    -28.875  0.0000E+00  0.4000E+01
    -28.566  0.0000E+00  0.4000E+01
    -28.258  0.0000E+00  0.4000E+01
    -27.950  0.0000E+00  0.4000E+01
    -27.641  0.0000E+00  0.4000E+01
    -27.333  0.0000E+00  0.4000E+01
    -27.025  0.0000E+00  0.4000E+01
    -26.716  0.0000E+00  0.4000E+01
    -26.408  0.0000E+00  0.4000E+01
    -26.100  0.0000E+00  0.4000E+01
    -25.791  0.0000E+00  0.4000E+01
    -25.483  0.0000E+00  0.4000E+01
    -25.175  0.0000E+00  0.4000E+01
    -24.866  0.0000E+00  0.4000E+01
    -24.558  0.0000E+00  0.4000E+01
    -24.250  0.0000E+00  0.4000E+01
    -23.941  0.0000E+00  0.4000E+01
    -23.633  0.0000E+00  0.1000E+02
    -23.325  0.0000E+00  0.1000E+02
    -23.016  0.0000E+00  0.1000E+02
    -22.708  0.0000E+00  0.1000E+02
    -22.400  0.0000E+00  0.1000E+02
    -22.091  0.0000E+00  0.1000E+02
    -21.783  0.0000E+00  0.1000E+02
    -21.475  0.0000E+00  0.1000E+02
    -21.166  0.0000E+00  0.1000E+02
    -20.858  0.0000E+00  0.1000E+02
    -20.550  0.0000E+00  0.1000E+02
    -20.241  0.0000E+00  0.1001E+02
    -19.933  0.0000E+00  0.1200E+02
    -19.625  0.0000E+00  0.1200E+02
    -19.316  0.0000E+00  0.1200E+02
    -19.008  0.0000E+00  0.1200E+02
    -18.700  0.0000E+00  0.1200E+02
    -18.391  0.0000E+00  0.1200E+02
    -18.083  0.0000E+00  0.1200E+02
    -17.775  0.0000E+00  0.1200E+02
    -17.466  0.0000E+00  0.1200E+02
    -17.158  0.0000E+00  0.1200E+02
    -16.850  0.0000E+00  0.1200E+02
    -16.541  0.0000E+00  0.1200E+02
    -16.233  0.0000E+00  0.1200E+02
    -15.925  0.0000E+00  0.1200E+02
    -15.616  0.0000E+00  0.1200E+02
    -15.308  0.0000E+00  0.1200E+02
    -15.000  0.0000E+00  0.1200E+02
    -14.691  0.0000E+00  0.1200E+02
    -14.383  0.0000E+00  0.1200E+02
    -14.075  0.0000E+00  0.1200E+02
    -13.766  0.0000E+00  0.1200E+02
    -13.458  0.0000E+00  0.1200E+02
    -13.150  0.0000E+00  0.1200E+02
    -12.841  0.0000E+00  0.1200E+02
    -12.533  0.0000E+00  0.1200E+02
    -12.225  0.0000E+00  0.1200E+02
    -11.916  0.0000E+00  0.1200E+02
    -11.608  0.0000E+00  0.1200E+02
    -11.300  0.0000E+00  0.1200E+02
    -10.991  0.0000E+00  0.1200E+02
    -10.683  0.0000E+00  0.1200E+02
    -10.375  0.0000E+00  0.1200E+02
    -10.066  0.0000E+00  0.1200E+02
     -9.758  0.0000E+00  0.1200E+02
     -9.450  0.0000E+00  0.1200E+02
     -9.141  0.0000E+00  0.1200E+02
     -8.833  0.0000E+00  0.1200E+02
     -8.525  0.0000E+00  0.1200E+02
     -8.216  0.0000E+00  0.1200E+02
     -7.908  0.0000E+00  0.1200E+02
     -7.600  0.0000E+00  0.1200E+02
     -7.291  0.0000E+00  0.1345E+02
     -6.983  0.0000E+00  0.1399E+02
     -6.675  0.0000E+00  0.1400E+02
     -6.366  0.0000E+00  0.1400E+02
     -6.058  0.0000E+00  0.1400E+02
     -5.750  0.0000E+00  0.1400E+02
     -5.441  0.0000E+00  0.1400E+02
     -5.133  0.0000E+00  0.1400E+02
     -4.825  0.0000E+00  0.1400E+02
     -4.516  0.0000E+00  0.1400E+02
     -4.208  0.0000E+00  0.1400E+02
     -3.900  0.0000E+00  0.1400E+02
     -3.591  0.0000E+00  0.1400E+02
     -3.283  0.0000E+00  0.1400E+02
     -2.975  0.0000E+00  0.1400E+02
     -2.666  0.0000E+00  0.1400E+02
     -2.358  0.0000E+00  0.1400E+02
     -2.050  0.0000E+00  0.1400E+02
     -1.741  0.0000E+00  0.1400E+02
     -1.433  0.0000E+00  0.1400E+02
     -1.125  0.0000E+00  0.1400E+02
     -0.816  0.0000E+00  0.1400E+02
     -0.508  0.0000E+00  0.1400E+02
     -0.200  0.0000E+00  0.1400E+02
      0.109  0.0000E+00  0.1400E+02
      0.417  0.0000E+00  0.1400E+02
      0.725  0.0000E+00  0.1406E+02
      1.034  0.9009E-01  0.1545E+02
      1.342  0.0000E+00  0.1575E+02
      1.650  0.0000E+00  0.1586E+02
      1.959  0.0000E+00  0.1619E+02
      2.267  0.0000E+00  0.1669E+02
      2.575  0.1830E-11  0.1691E+02
      2.884  0.0000E+00  0.1741E+02
      3.192  0.0000E+00  0.1763E+02
      3.500  0.0000E+00  0.1791E+02
      3.809  0.0000E+00  0.1799E+02
      4.117  0.0000E+00  0.1801E+02
      4.425  0.0000E+00  0.1801E+02
      4.734  0.0000E+00  0.1801E+02
      5.042  0.0000E+00  0.1801E+02
      5.350  0.0000E+00  0.1801E+02
      5.659  0.0000E+00  0.1808E+02
      5.967  0.0000E+00  0.1808E+02
      6.275  0.1542E-08  0.1825E+02
      6.584  0.6030E-01  0.1830E+02
      6.892  0.0000E+00  0.1889E+02
      7.200  0.3502E+00  0.1944E+02
      7.509  0.0000E+00  0.1956E+02
      7.817  0.0000E+00  0.2003E+02
      8.125  0.0000E+00  0.2008E+02
      8.434  0.0000E+00  0.2031E+02
      8.742  0.0000E+00  0.2053E+02
      9.050  0.0000E+00  0.2142E+02
      9.359  0.0000E+00  0.2169E+02
      9.667  0.0000E+00  0.2225E+02
      9.975  0.0000E+00  0.2238E+02
     10.284  0.0000E+00  0.2286E+02
     10.592  0.0000E+00  0.2355E+02
     10.900  0.0000E+00  0.2385E+02
     11.209  0.0000E+00  0.2423E+02
     11.517  0.0000E+00  0.2500E+02
     11.825  0.0000E+00  0.2567E+02
     12.134  0.0000E+00  0.2606E+02
     12.442  0.1201E+00  0.2613E+02
     12.750  0.0000E+00  0.2659E+02
     13.059  0.0000E+00  0.2748E+02
     13.367  0.0000E+00  0.2812E+02
     13.675  0.0000E+00  0.2882E+02
     13.984  0.0000E+00  0.2940E+02
     14.292  0.0000E+00  0.3019E+02
     14.600  0.0000E+00  0.3047E+02
     14.909  0.0000E+00  0.3077E+02
     15.217  0.0000E+00  0.3121E+02
     15.525  0.0000E+00  0.3182E+02
     15.834  0.0000E+00  0.3229E+02
     16.142  0.3844E-03  0.3295E+02
     16.450  0.0000E+00  0.3341E+02
     16.759  0.0000E+00  0.3409E+02
     17.067  0.0000E+00  0.3457E+02
     17.375  0.0000E+00  0.3511E+02
     17.684  0.0000E+00  0.3610E+02
     17.992  0.0000E+00  0.3722E+02
     18.300  0.4958E-05  0.3869E+02
     18.609  0.1749E-05  0.3975E+02
     18.917  0.0000E+00  0.4144E+02
     19.225  0.0000E+00  0.4197E+02
     19.534  0.0000E+00  0.4319E+02
     19.842  0.0000E+00  0.4371E+02
     20.150  0.3604E+00  0.4451E+02
     20.459  0.0000E+00  0.4544E+02
     20.767  0.0000E+00  0.4600E+02
     21.075  0.0000E+00  0.4641E+02
     21.384  0.0000E+00  0.4646E+02
     21.692  0.1449E+00  0.4669E+02
     22.000  0.0000E+00  0.4718E+02
     22.309  0.1458E-04  0.4762E+02
     22.617  0.0000E+00  0.4795E+02
     22.925  0.0000E+00  0.4835E+02
     23.234  0.0000E+00  0.4908E+02
     23.542  0.0000E+00  0.4956E+02
     23.850  0.2402E+00  0.5050E+02
     24.159  0.1556E+00  0.5110E+02
     24.467  0.3541E-06  0.5203E+02
     24.775  0.0000E+00  0.5325E+02
     25.084  0.3486E-04  0.5388E+02
     25.392  0.7974E-01  0.5535E+02
     25.701  0.0000E+00  0.5621E+02
     26.009  0.0000E+00  0.5673E+02
     26.317  0.0000E+00  0.5749E+02
     26.626  0.0000E+00  0.5767E+02
     26.934  0.0000E+00  0.5804E+02
     27.242  0.0000E+00  0.5886E+02
     27.551  0.0000E+00  0.5977E+02
     27.859  0.0000E+00  0.6035E+02
     28.167  0.0000E+00  0.6080E+02
     28.476  0.0000E+00  0.6161E+02
     28.784  0.1386E+00  0.6195E+02
     29.092  0.0000E+00  0.6224E+02
     29.401  0.3631E+00  0.6277E+02
     29.709  0.3604E+00  0.6418E+02
     30.017  0.0000E+00  0.6460E+02
     30.326  0.0000E+00  0.6505E+02
     30.634  0.0000E+00  0.6556E+02
     30.942  0.0000E+00  0.6638E+02
     31.251  0.1501E+00  0.6699E+02
     31.559  0.1501E-01  0.6773E+02
     31.867  0.3604E+00  0.6928E+02
     32.176  0.0000E+00  0.6993E+02
     32.484  0.0000E+00  0.7052E+02
     32.792  0.0000E+00  0.7182E+02
     33.101  0.0000E+00  0.7275E+02
     33.409  0.0000E+00  0.7325E+02
     33.717  0.0000E+00  0.7398E+02
     34.026  0.0000E+00  0.7444E+02
     34.334  0.1802E+00  0.7511E+02
     34.642  0.0000E+00  0.7589E+02
     34.951  0.0000E+00  0.7652E+02
     35.259  0.0000E+00  0.7787E+02
     35.567  0.0000E+00  0.7869E+02
     35.876  0.0000E+00  0.7996E+02
     36.184  0.0000E+00  0.8035E+02
     36.492  0.3009E-15  0.8116E+02
     36.801  0.0000E+00  0.8230E+02
     37.109  0.0000E+00  0.8330E+02
     37.417  0.6822E-04  0.8352E+02
     37.726  0.0000E+00  0.8430E+02
     38.034  0.0000E+00  0.8527E+02
     38.342  0.0000E+00  0.8601E+02
     38.651  0.1982E+00  0.8614E+02
     38.959  0.1573E+00  0.8675E+02
     39.267  0.0000E+00  0.8787E+02
     39.576  0.1196E+00  0.8880E+02
     39.884  0.4504E-01  0.8957E+02
     40.192  0.0000E+00  0.8991E+02
     40.501  0.0000E+00  0.9111E+02
     40.809  0.0000E+00  0.9163E+02
     41.117  0.3003E-01  0.9271E+02
     41.426  0.0000E+00  0.9364E+02
     41.734  0.1199E+00  0.9495E+02
     42.042  0.0000E+00  0.9551E+02
     42.351  0.2781E-01  0.9627E+02
     42.659  0.3604E+00  0.9735E+02
     42.967  0.5974E-01  0.9808E+02
     43.276  0.0000E+00  0.9856E+02
     43.584  0.0000E+00  0.9951E+02
     43.892  0.3855E-02  0.1002E+03
     44.201  0.7207E+00  0.1010E+03
     44.509  0.0000E+00  0.1018E+03
     44.817  0.0000E+00  0.1026E+03
     45.126  0.0000E+00  0.1037E+03
     45.434  0.0000E+00  0.1046E+03
     45.742  0.0000E+00  0.1056E+03
     46.051  0.0000E+00  0.1063E+03
     46.359  0.0000E+00  0.1074E+03
     46.667  0.1003E+01  0.1082E+03
     46.976  0.0000E+00  0.1093E+03
     47.284  0.0000E+00  0.1101E+03
     47.592  0.0000E+00  0.1111E+03
     47.901  0.0000E+00  0.1116E+03
     48.209  0.2353E-02  0.1127E+03
     48.517  0.0000E+00  0.1133E+03
     48.826  0.0000E+00  0.1142E+03
     49.134  0.0000E+00  0.1149E+03
     49.442  0.7153E-01  0.1159E+03
     49.751  0.0000E+00  0.1171E+03
     50.059  0.0000E+00  0.1177E+03
     50.367  0.0000E+00  0.1189E+03
     50.676  0.0000E+00  0.1193E+03
     50.984  0.0000E+00  0.1206E+03
     51.292  0.0000E+00  0.1219E+03
     51.601  0.3601E+00  0.1229E+03
     51.909  0.0000E+00  0.1243E+03
     52.217  0.4192E-01  0.1250E+03
     52.526  0.0000E+00  0.1261E+03
     52.834  0.0000E+00  0.1262E+03
     53.142  0.0000E+00  0.1271E+03
     53.451  0.0000E+00  0.1273E+03
     53.759  0.0000E+00  0.1280E+03
     54.067  0.0000E+00  0.1280E+03
     54.376  0.0000E+00  0.1280E+03
     54.684  0.0000E+00  0.1280E+03
     54.992  0.0000E+00  0.1280E+03
     55.301  0.0000E+00  0.1280E+03
     55.609  0.0000E+00  0.1280E+03
     55.917  0.0000E+00  0.1280E+03
     56.226  0.0000E+00  0.1280E+03
     56.534  0.0000E+00  0.1280E+03
     56.842  0.0000E+00  0.1280E+03
     57.151  0.0000E+00  0.1280E+03
     57.459  0.0000E+00  0.1280E+03
     57.767  0.0000E+00  0.1280E+03
