   1   1   0   0
  0.5849685E+02  0.4357284E-09  0.4357284E-09  0.4357284E-09  0.1000000E-15
  1.000000000000000E-004
  CAR 
 Og_FCC                                  
     57.63573630    -34.75104803  301      3.84713927      1.00000000
    -34.751  0.0000E+00  0.0000E+00
    -34.443  0.0000E+00  0.0000E+00
    -34.135  0.0000E+00  0.0000E+00
    -33.827  0.0000E+00  0.0000E+00
    -33.519  0.0000E+00  0.0000E+00
    -33.211  0.0000E+00  0.0000E+00
    -32.903  0.0000E+00  0.0000E+00
    -32.595  0.0000E+00  0.0000E+00
    -32.287  0.0000E+00  0.0000E+00
    -31.979  0.0000E+00  0.0000E+00
    -31.671  0.0000E+00  0.0000E+00
    -31.364  0.0000E+00  0.0000E+00
    -31.056  0.0000E+00  0.0000E+00
    -30.748  0.0000E+00  0.0000E+00
    -30.440  0.0000E+00  0.4000E+01
    -30.132  0.0000E+00  0.4000E+01
    -29.824  0.0000E+00  0.4000E+01
    -29.516  0.0000E+00  0.4000E+01
    -29.208  0.0000E+00  0.4000E+01
    -28.900  0.0000E+00  0.4000E+01
    -28.592  0.0000E+00  0.4000E+01
    -28.284  0.0000E+00  0.4000E+01
    -27.976  0.0000E+00  0.4000E+01
    -27.668  0.0000E+00  0.4000E+01
    -27.360  0.0000E+00  0.4000E+01
    -27.052  0.0000E+00  0.4000E+01
    -26.744  0.0000E+00  0.4000E+01
    -26.436  0.0000E+00  0.4000E+01
    -26.128  0.0000E+00  0.4000E+01
    -25.820  0.0000E+00  0.4000E+01
    -25.512  0.0000E+00  0.4000E+01
    -25.204  0.0000E+00  0.4000E+01
    -24.896  0.0000E+00  0.4000E+01
    -24.589  0.0000E+00  0.4000E+01
    -24.281  0.0000E+00  0.4000E+01
    -23.973  0.0000E+00  0.4000E+01
    -23.665  0.0000E+00  0.1000E+02
    -23.357  0.0000E+00  0.1000E+02
    -23.049  0.0000E+00  0.1000E+02
    -22.741  0.0000E+00  0.1000E+02
    -22.433  0.0000E+00  0.1000E+02
    -22.125  0.0000E+00  0.1000E+02
    -21.817  0.0000E+00  0.1000E+02
    -21.509  0.0000E+00  0.1000E+02
    -21.201  0.0000E+00  0.1000E+02
    -20.893  0.0000E+00  0.1000E+02
    -20.585  0.0000E+00  0.1000E+02
    -20.277  0.3007E-01  0.1001E+02
    -19.969  0.0000E+00  0.1200E+02
    -19.661  0.0000E+00  0.1200E+02
    -19.353  0.0000E+00  0.1200E+02
    -19.045  0.0000E+00  0.1200E+02
    -18.737  0.0000E+00  0.1200E+02
    -18.429  0.0000E+00  0.1200E+02
    -18.121  0.0000E+00  0.1200E+02
    -17.813  0.0000E+00  0.1200E+02
    -17.506  0.0000E+00  0.1200E+02
    -17.198  0.0000E+00  0.1200E+02
    -16.890  0.0000E+00  0.1200E+02
    -16.582  0.0000E+00  0.1200E+02
    -16.274  0.0000E+00  0.1200E+02
    -15.966  0.0000E+00  0.1200E+02
    -15.658  0.0000E+00  0.1200E+02
    -15.350  0.0000E+00  0.1200E+02
    -15.042  0.0000E+00  0.1200E+02
    -14.734  0.0000E+00  0.1200E+02
    -14.426  0.0000E+00  0.1200E+02
    -14.118  0.0000E+00  0.1200E+02
    -13.810  0.0000E+00  0.1200E+02
    -13.502  0.0000E+00  0.1200E+02
    -13.194  0.0000E+00  0.1200E+02
    -12.886  0.0000E+00  0.1200E+02
    -12.578  0.0000E+00  0.1200E+02
    -12.270  0.0000E+00  0.1200E+02
    -11.962  0.0000E+00  0.1200E+02
    -11.654  0.0000E+00  0.1200E+02
    -11.346  0.0000E+00  0.1200E+02
    -11.038  0.0000E+00  0.1200E+02
    -10.730  0.0000E+00  0.1200E+02
    -10.423  0.0000E+00  0.1200E+02
    -10.115  0.0000E+00  0.1200E+02
     -9.807  0.0000E+00  0.1200E+02
     -9.499  0.0000E+00  0.1200E+02
     -9.191  0.0000E+00  0.1200E+02
     -8.883  0.0000E+00  0.1200E+02
     -8.575  0.0000E+00  0.1200E+02
     -8.267  0.0000E+00  0.1200E+02
     -7.959  0.0000E+00  0.1200E+02
     -7.651  0.0000E+00  0.1200E+02
     -7.343  0.7216E+00  0.1340E+02
     -7.035  0.0000E+00  0.1399E+02
     -6.727  0.0000E+00  0.1400E+02
     -6.419  0.0000E+00  0.1400E+02
     -6.111  0.0000E+00  0.1400E+02
     -5.803  0.0000E+00  0.1400E+02
     -5.495  0.0000E+00  0.1400E+02
     -5.187  0.0000E+00  0.1400E+02
     -4.879  0.0000E+00  0.1400E+02
     -4.571  0.0000E+00  0.1400E+02
     -4.263  0.0000E+00  0.1400E+02
     -3.955  0.0000E+00  0.1400E+02
     -3.647  0.0000E+00  0.1400E+02
     -3.340  0.0000E+00  0.1400E+02
     -3.032  0.0000E+00  0.1400E+02
     -2.724  0.0000E+00  0.1400E+02
     -2.416  0.0000E+00  0.1400E+02
     -2.108  0.0000E+00  0.1400E+02
     -1.800  0.0000E+00  0.1400E+02
     -1.492  0.0000E+00  0.1400E+02
     -1.184  0.0000E+00  0.1400E+02
     -0.876  0.0000E+00  0.1400E+02
     -0.568  0.0000E+00  0.1400E+02
     -0.260  0.0000E+00  0.1400E+02
      0.048  0.0000E+00  0.1400E+02
      0.356  0.0000E+00  0.1400E+02
      0.664  0.1203E+00  0.1404E+02
      0.972  0.0000E+00  0.1540E+02
      1.280  0.0000E+00  0.1575E+02
      1.588  0.0000E+00  0.1586E+02
      1.896  0.0000E+00  0.1597E+02
      2.204  0.0000E+00  0.1666E+02
      2.512  0.0000E+00  0.1691E+02
      2.820  0.0000E+00  0.1741E+02
      3.128  0.0000E+00  0.1763E+02
      3.435  0.0000E+00  0.1791E+02
      3.743  0.0000E+00  0.1799E+02
      4.051  0.0000E+00  0.1801E+02
      4.359  0.0000E+00  0.1801E+02
      4.667  0.0000E+00  0.1801E+02
      4.975  0.0000E+00  0.1801E+02
      5.283  0.0000E+00  0.1801E+02
      5.591  0.0000E+00  0.1808E+02
      5.899  0.0000E+00  0.1808E+02
      6.207  0.0000E+00  0.1825E+02
      6.515  0.0000E+00  0.1828E+02
      6.823  0.1335E-16  0.1844E+02
      7.131  0.0000E+00  0.1911E+02
      7.439  0.0000E+00  0.1956E+02
      7.747  0.0000E+00  0.2003E+02
      8.055  0.0000E+00  0.2008E+02
      8.363  0.0000E+00  0.2031E+02
      8.671  0.0000E+00  0.2031E+02
      8.979  0.4885E+00  0.2134E+02
      9.287  0.0000E+00  0.2169E+02
      9.595  0.0000E+00  0.2225E+02
      9.903  0.0000E+00  0.2238E+02
     10.211  0.0000E+00  0.2260E+02
     10.518  0.1804E+00  0.2355E+02
     10.826  0.0000E+00  0.2385E+02
     11.134  0.3510E+00  0.2412E+02
     11.442  0.0000E+00  0.2500E+02
     11.750  0.0000E+00  0.2567E+02
     12.058  0.0000E+00  0.2598E+02
     12.366  0.0000E+00  0.2606E+02
     12.674  0.0000E+00  0.2659E+02
     12.982  0.0000E+00  0.2748E+02
     13.290  0.0000E+00  0.2768E+02
     13.598  0.0000E+00  0.2882E+02
     13.906  0.0000E+00  0.2940E+02
     14.214  0.1308E-06  0.2995E+02
     14.522  0.0000E+00  0.3047E+02
     14.830  0.0000E+00  0.3077E+02
     15.138  0.2003E-16  0.3110E+02
     15.446  0.0000E+00  0.3182E+02
     15.754  0.9262E-06  0.3221E+02
     16.062  0.7216E+00  0.3295E+02
     16.370  0.3608E+00  0.3341E+02
     16.678  0.0000E+00  0.3387E+02
     16.986  0.0000E+00  0.3457E+02
     17.294  0.0000E+00  0.3489E+02
     17.601  0.0000E+00  0.3610E+02
     17.909  0.5192E+00  0.3709E+02
     18.217  0.0000E+00  0.3869E+02
     18.525  0.0000E+00  0.3975E+02
     18.833  0.0000E+00  0.4144E+02
     19.141  0.1004E+00  0.4189E+02
     19.449  0.0000E+00  0.4319E+02
     19.757  0.0000E+00  0.4342E+02
     20.065  0.9449E-05  0.4434E+02
     20.373  0.0000E+00  0.4544E+02
     20.681  0.0000E+00  0.4600E+02
     20.989  0.0000E+00  0.4633E+02
     21.297  0.0000E+00  0.4646E+02
     21.605  0.0000E+00  0.4665E+02
     21.913  0.0000E+00  0.4718E+02
     22.221  0.0000E+00  0.4762E+02
     22.529  0.0000E+00  0.4795E+02
     22.837  0.0000E+00  0.4835E+02
     23.145  0.0000E+00  0.4908E+02
     23.453  0.0000E+00  0.4956E+02
     23.761  0.0000E+00  0.5039E+02
     24.069  0.0000E+00  0.5106E+02
     24.376  0.6956E+00  0.5202E+02
     24.684  0.9020E-01  0.5314E+02
     24.992  0.2546E-01  0.5378E+02
     25.300  0.1804E+00  0.5532E+02
     25.608  0.2978E-10  0.5616E+02
     25.916  0.0000E+00  0.5673E+02
     26.224  0.0000E+00  0.5749E+02
     26.532  0.0000E+00  0.5767E+02
     26.840  0.0000E+00  0.5804E+02
     27.148  0.0000E+00  0.5886E+02
     27.456  0.0000E+00  0.5977E+02
     27.764  0.1513E-03  0.6030E+02
     28.072  0.0000E+00  0.6080E+02
     28.380  0.7214E+00  0.6161E+02
     28.688  0.0000E+00  0.6191E+02
     28.996  0.0000E+00  0.6224E+02
     29.304  0.0000E+00  0.6266E+02
     29.612  0.7216E+00  0.6384E+02
     29.920  0.0000E+00  0.6460E+02
     30.228  0.5287E-01  0.6484E+02
     30.536  0.3608E+00  0.6555E+02
     30.844  0.0000E+00  0.6638E+02
     31.152  0.0000E+00  0.6694E+02
     31.459  0.0000E+00  0.6769E+02
     31.767  0.0000E+00  0.6906E+02
     32.075  0.0000E+00  0.6993E+02
     32.383  0.0000E+00  0.7052E+02
     32.691  0.0000E+00  0.7182E+02
     32.999  0.7170E+00  0.7264E+02
     33.307  0.0000E+00  0.7325E+02
     33.615  0.0000E+00  0.7398E+02
     33.923  0.0000E+00  0.7444E+02
     34.231  0.1360E-08  0.7503E+02
     34.539  0.0000E+00  0.7589E+02
     34.847  0.0000E+00  0.7652E+02
     35.155  0.0000E+00  0.7787E+02
     35.463  0.0000E+00  0.7869E+02
     35.771  0.0000E+00  0.7996E+02
     36.079  0.0000E+00  0.8030E+02
     36.387  0.0000E+00  0.8116E+02
     36.695  0.0000E+00  0.8230E+02
     37.003  0.0000E+00  0.8330E+02
     37.311  0.0000E+00  0.8352E+02
     37.619  0.0000E+00  0.8430E+02
     37.927  0.0000E+00  0.8527E+02
     38.235  0.0000E+00  0.8601E+02
     38.542  0.0000E+00  0.8607E+02
     38.850  0.2674E-02  0.8663E+02
     39.158  0.3608E+00  0.8787E+02
     39.466  0.0000E+00  0.8876E+02
     39.774  0.0000E+00  0.8955E+02
     40.082  0.7216E+00  0.8991E+02
     40.390  0.0000E+00  0.9111E+02
     40.698  0.5307E-04  0.9141E+02
     41.006  0.0000E+00  0.9270E+02
     41.314  0.0000E+00  0.9364E+02
     41.622  0.8962E-02  0.9459E+02
     41.930  0.1451E-10  0.9540E+02
     42.238  0.0000E+00  0.9626E+02
     42.546  0.0000E+00  0.9724E+02
     42.854  0.8088E+00  0.9806E+02
     43.162  0.0000E+00  0.9856E+02
     43.470  0.7129E-01  0.9931E+02
     43.778  0.1937E-06  0.1002E+03
     44.086  0.0000E+00  0.1008E+03
     44.394  0.8532E-03  0.1017E+03
     44.702  0.0000E+00  0.1026E+03
     45.010  0.7216E+00  0.1037E+03
     45.317  0.3608E+00  0.1046E+03
     45.625  0.0000E+00  0.1056E+03
     45.933  0.1203E+00  0.1063E+03
     46.241  0.7216E+00  0.1074E+03
     46.549  0.0000E+00  0.1079E+03
     46.857  0.0000E+00  0.1093E+03
     47.165  0.0000E+00  0.1101E+03
     47.473  0.7216E+00  0.1111E+03
     47.781  0.0000E+00  0.1116E+03
     48.089  0.0000E+00  0.1127E+03
     48.397  0.0000E+00  0.1133E+03
     48.705  0.0000E+00  0.1142E+03
     49.013  0.2405E+00  0.1149E+03
     49.321  0.0000E+00  0.1158E+03
     49.629  0.2293E+00  0.1169E+03
     49.937  0.0000E+00  0.1177E+03
     50.245  0.0000E+00  0.1189E+03
     50.553  0.0000E+00  0.1193E+03
     50.861  0.0000E+00  0.1206E+03
     51.169  0.0000E+00  0.1219E+03
     51.477  0.9660E-04  0.1226E+03
     51.785  0.1015E+01  0.1243E+03
     52.093  0.1601E-03  0.1250E+03
     52.400  0.0000E+00  0.1261E+03
     52.708  0.0000E+00  0.1262E+03
     53.016  0.7886E-01  0.1271E+03
     53.324  0.0000E+00  0.1273E+03
     53.632  0.0000E+00  0.1280E+03
     53.940  0.0000E+00  0.1280E+03
     54.248  0.0000E+00  0.1280E+03
     54.556  0.0000E+00  0.1280E+03
     54.864  0.0000E+00  0.1280E+03
     55.172  0.0000E+00  0.1280E+03
     55.480  0.0000E+00  0.1280E+03
     55.788  0.0000E+00  0.1280E+03
     56.096  0.0000E+00  0.1280E+03
     56.404  0.0000E+00  0.1280E+03
     56.712  0.0000E+00  0.1280E+03
     57.020  0.0000E+00  0.1280E+03
     57.328  0.0000E+00  0.1280E+03
     57.636  0.0000E+00  0.1280E+03
