    1    1    1    1
  0.5830817E+02  0.4352594E-09  0.4352594E-09  0.4352594E-09  0.1000000E-15
  1.000000000000000E-004
  CAR 
 Og_FCC                                  
     18    216    128
 
  0.0000000E+00  0.0000000E+00  0.0000000E+00  0.4629630E-02
    1      -30.521977   1.000000
    2      -30.521915   1.000000
    3      -30.521765   1.000000
    4      -30.521703   1.000000
    5      -23.856923   1.000000
    6      -23.856478   1.000000
    7      -23.856233   1.000000
    8      -23.855785   1.000000
    9      -23.855280   1.000000
   10      -23.854485   1.000000
   11      -20.260384   1.000000
   12      -20.259616   1.000000
   13       -6.975692   1.000000
   14       -6.974660   1.000000
   15        3.660346   1.000000
   16        3.660748   1.000000
   17        3.880267   0.999752
   18        3.880330   0.999655
   19        3.885129   0.000346
   20        3.885192   0.000248
   21       10.807403   0.000000
   22       10.807623   0.000000
   23       10.808132   0.000000
   24       10.808353   0.000000
   25       11.063464   0.000000
   26       11.064002   0.000000
   27       11.228607   0.000000
   28       11.229981   0.000000
   29       13.150914   0.000000
   30       13.153948   0.000000
   31       13.454478   0.000000
   32       13.454624   0.000000
   33       13.455533   0.000000
   34       13.455679   0.000000
   35       14.259718   0.000000
   36       14.261162   0.000000
   37       14.262083   0.000000
   38       14.263527   0.000000
   39       16.176739   0.000000
   40       16.177019   0.000000
   41       20.307949   0.000000
   42       20.308239   0.000000
   43       20.308860   0.000000
   44       20.309257   0.000000
   45       20.309878   0.000000
   46       20.310169   0.000000
   47       22.800239   0.000000
   48       22.801006   0.000000
   49       26.113296   0.000000
   50       26.113418   0.000000
   51       26.115346   0.000000
   52       26.115470   0.000000
   53       26.324954   0.000000
   54       26.325639   0.000000
   55       27.622527   0.000000
   56       27.624272   0.000000
   57       29.264274   0.000000
   58       29.265198   0.000000
   59       29.265798   0.000000
   60       29.266724   0.000000
   61       29.985242   0.000000
   62       29.985843   0.000000
   63       30.175459   0.000000
   64       30.175802   0.000000
   65       30.176534   0.000000
   66       30.176881   0.000000
   67       30.617276   0.000000
   68       30.617383   0.000000
   69       31.426005   0.000000
   70       31.426144   0.000000
   71       31.427266   0.000000
   72       31.427405   0.000000
   73       37.605512   0.000000
   74       37.606141   0.000000
   75       37.606324   0.000000
   76       37.606663   0.000000
   77       37.606846   0.000000
   78       37.607475   0.000000
   79       38.372967   0.000000
   80       38.374436   0.000000
   81       38.445574   0.000000
   82       38.445777   0.000000
   83       38.446172   0.000000
   84       38.448725   0.000000
   85       38.449121   0.000000
   86       38.449324   0.000000
   87       40.921783   0.000000
   88       40.922082   0.000000
   89       40.922351   0.000000
   90       40.922653   0.000000
   91       41.110899   0.000000
   92       41.111341   0.000000
   93       42.349089   0.000000
   94       42.349810   0.000000
   95       42.613290   0.000000
   96       42.614393   0.000000
   97       42.614960   0.000000
   98       42.616061   0.000000
   99       42.964484   0.000000
  100       42.964926   0.000000
  101       42.965346   0.000000
  102       42.965788   0.000000
  103       43.804178   0.000000
  104       43.804224   0.000000
  105       43.806364   0.000000
  106       43.806410   0.000000
  107       43.892859   0.000000
  108       43.893458   0.000000
  109       43.894196   0.000000
  110       43.894797   0.000000
  111       44.089425   0.000000
  112       44.090287   0.000000
  113       45.031512   0.000000
  114       45.032300   0.000000
  115       45.465559   0.000000
  116       45.467026   0.000000
  117       45.904040   0.000000
  118       45.904134   0.000000
  119       45.905301   0.000000
  120       45.905396   0.000000
  121       46.440839   0.000000
  122       46.440982   0.000000
  123       46.796212   0.000000
  124       46.796384   0.000000
  125       46.796801   0.000000
  126       46.796974   0.000000
  127       46.922380   0.000000
  128       46.923569   0.000000
 
  0.1666667E+00  0.1566927E-17 -0.6938894E-17  0.4629630E-02
    1      -30.514614   1.000000
    2      -30.514346   1.000000
    3      -30.505397   1.000000
    4      -30.505244   1.000000
    5      -23.853047   1.000000
    6      -23.853015   1.000000
    7      -23.844744   1.000000
    8      -23.844601   1.000000
    9      -23.844225   1.000000
   10      -23.843471   1.000000
   11      -20.233630   1.000000
   12      -20.232862   1.000000
   13       -7.064753   1.000000
   14       -7.063746   1.000000
   15        2.138984   1.000000
   16        2.142081   1.000000
   17        3.725969   1.000000
   18        3.730511   1.000000
   19        5.456099   0.000000
   20        5.457541   0.000000
   21        9.751375   0.000000
   22        9.752605   0.000000
   23       10.979791   0.000000
   24       10.980412   0.000000
   25       11.302202   0.000000
   26       11.302375   0.000000
   27       12.098995   0.000000
   28       12.099626   0.000000
   29       12.432523   0.000000
   30       12.434212   0.000000
   31       12.602914   0.000000
   32       12.605081   0.000000
   33       13.701749   0.000000
   34       13.703486   0.000000
   35       15.797523   0.000000
   36       15.798872   0.000000
   37       15.949092   0.000000
   38       15.951824   0.000000
   39       17.946966   0.000000
   40       17.947109   0.000000
   41       19.816321   0.000000
   42       19.818113   0.000000
   43       19.951410   0.000000
   44       19.953542   0.000000
   45       20.379014   0.000000
   46       20.379424   0.000000
   47       21.652265   0.000000
   48       21.652646   0.000000
   49       24.893853   0.000000
   50       24.894963   0.000000
   51       25.527826   0.000000
   52       25.530051   0.000000
   53       25.841755   0.000000
   54       25.843407   0.000000
   55       27.028146   0.000000
   56       27.029581   0.000000
   57       27.685380   0.000000
   58       27.685654   0.000000
   59       28.550838   0.000000
   60       28.551581   0.000000
   61       30.033092   0.000000
   62       30.035458   0.000000
   63       30.121190   0.000000
   64       30.122274   0.000000
   65       30.727994   0.000000
   66       30.729086   0.000000
   67       30.815423   0.000000
   68       30.815753   0.000000
   69       32.740410   0.000000
   70       32.742274   0.000000
   71       35.134685   0.000000
   72       35.135310   0.000000
   73       35.299866   0.000000
   74       35.301118   0.000000
   75       36.352911   0.000000
   76       36.354193   0.000000
   77       36.356204   0.000000
   78       36.356431   0.000000
   79       36.733809   0.000000
   80       36.734604   0.000000
   81       38.137598   0.000000
   82       38.138238   0.000000
   83       38.942867   0.000000
   84       38.945758   0.000000
   85       39.154060   0.000000
   86       39.154810   0.000000
   87       39.331475   0.000000
   88       39.331772   0.000000
   89       39.339898   0.000000
   90       39.340535   0.000000
   91       40.224761   0.000000
   92       40.224967   0.000000
   93       40.361803   0.000000
   94       40.362779   0.000000
   95       41.184911   0.000000
   96       41.186100   0.000000
   97       41.381262   0.000000
   98       41.382209   0.000000
   99       42.488571   0.000000
  100       42.489164   0.000000
  101       42.992546   0.000000
  102       42.992806   0.000000
  103       43.086968   0.000000
  104       43.087259   0.000000
  105       43.911510   0.000000
  106       43.912110   0.000000
  107       44.435167   0.000000
  108       44.435385   0.000000
  109       44.554839   0.000000
  110       44.556348   0.000000
  111       44.687992   0.000000
  112       44.688978   0.000000
  113       46.303513   0.000000
  114       46.304855   0.000000
  115       46.906999   0.000000
  116       46.907493   0.000000
  117       47.304013   0.000000
  118       47.304899   0.000000
  119       48.210392   0.000000
  120       48.211050   0.000000
  121       49.116584   0.000000
  122       49.116959   0.000000
  123       49.147676   0.000000
  124       49.148818   0.000000
  125       50.119719   0.000000
  126       50.120915   0.000000
  127       51.262685   0.000000
  128       51.262885   0.000000
 
  0.3333333E+00 -0.2462172E-16 -0.4163336E-16  0.4629630E-02
    1      -30.511139   1.000000
    2      -30.510986   1.000000
    3      -30.505026   1.000000
    4      -30.504758   1.000000
    5      -23.846430   1.000000
    6      -23.845817   1.000000
    7      -23.844084   1.000000
    8      -23.844001   1.000000
    9      -23.843138   1.000000
   10      -23.842010   1.000000
   11      -20.179673   1.000000
   12      -20.178903   1.000000
   13       -7.243792   1.000000
   14       -7.242841   1.000000
   15        1.051889   1.000000
   16        1.055260   1.000000
   17        3.449690   1.000000
   18        3.453880   1.000000
   19        6.150062   0.000000
   20        6.150257   0.000000
   21       10.330427   0.000000
   22       10.331325   0.000000
   23       10.538200   0.000000
   24       10.538873   0.000000
   25       10.968114   0.000000
   26       10.968486   0.000000
   27       11.219386   0.000000
   28       11.219639   0.000000
   29       13.228505   0.000000
   30       13.228970   0.000000
   31       13.497467   0.000000
   32       13.498905   0.000000
   33       16.563794   0.000000
   34       16.565705   0.000000
   35       17.606973   0.000000
   36       17.608763   0.000000
   37       17.870741   0.000000
   38       17.873731   0.000000
   39       18.218424   0.000000
   40       18.220029   0.000000
   41       18.652298   0.000000
   42       18.654311   0.000000
   43       18.938787   0.000000
   44       18.940978   0.000000
   45       20.531008   0.000000
   46       20.531451   0.000000
   47       21.046526   0.000000
   48       21.046715   0.000000
   49       23.843387   0.000000
   50       23.843737   0.000000
   51       25.100973   0.000000
   52       25.102555   0.000000
   53       25.191725   0.000000
   54       25.193374   0.000000
   55       26.257124   0.000000
   56       26.258150   0.000000
   57       26.951441   0.000000
   58       26.951651   0.000000
   59       27.492309   0.000000
   60       27.493095   0.000000
   61       29.471315   0.000000
   62       29.471441   0.000000
   63       30.852580   0.000000
   64       30.855135   0.000000
   65       31.287334   0.000000
   66       31.287518   0.000000
   67       31.731385   0.000000
   68       31.732262   0.000000
   69       31.892106   0.000000
   70       31.893781   0.000000
   71       31.985416   0.000000
   72       31.985985   0.000000
   73       33.532779   0.000000
   74       33.534112   0.000000
   75       33.679466   0.000000
   76       33.680078   0.000000
   77       34.743739   0.000000
   78       34.745081   0.000000
   79       35.514023   0.000000
   80       35.516307   0.000000
   81       35.839652   0.000000
   82       35.840344   0.000000
   83       36.287537   0.000000
   84       36.289023   0.000000
   85       39.150039   0.000000
   86       39.151815   0.000000
   87       39.183503   0.000000
   88       39.184259   0.000000
   89       39.899434   0.000000
   90       39.899629   0.000000
   91       40.468779   0.000000
   92       40.469272   0.000000
   93       40.690939   0.000000
   94       40.691861   0.000000
   95       41.873785   0.000000
   96       41.874310   0.000000
   97       42.628083   0.000000
   98       42.628208   0.000000
   99       42.869160   0.000000
  100       42.870382   0.000000
  101       43.659388   0.000000
  102       43.660688   0.000000
  103       44.493287   0.000000
  104       44.493512   0.000000
  105       44.723974   0.000000
  106       44.724638   0.000000
  107       45.759429   0.000000
  108       45.759610   0.000000
  109       46.227965   0.000000
  110       46.229308   0.000000
  111       46.295471   0.000000
  112       46.296829   0.000000
  113       46.849100   0.000000
  114       46.849864   0.000000
  115       49.456740   0.000000
  116       49.457180   0.000000
  117       50.918046   0.000000
  118       50.918685   0.000000
  119       51.181091   0.000000
  120       51.182132   0.000000
  121       51.703971   0.000000
  122       51.704393   0.000000
  123       51.759777   0.000000
  124       51.760261   0.000000
  125       52.026929   0.000000
  126       52.027462   0.000000
  127       52.341566   0.000000
  128       52.342215   0.000000
 
  0.5000000E+00  0.4700780E-17  0.2775558E-16  0.4629630E-02
    1      -30.528609   1.000000
    2      -30.528456   1.000000
    3      -30.516194   1.000000
    4      -30.515926   1.000000
    5      -23.857081   1.000000
    6      -23.856408   1.000000
    7      -23.852813   1.000000
    8      -23.851683   1.000000
    9      -23.849887   1.000000
   10      -23.849741   1.000000
   11      -20.152321   1.000000
   12      -20.151552   1.000000
   13       -7.333784   1.000000
   14       -7.332863   1.000000
   15        0.674632   1.000000
   16        0.678055   1.000000
   17        3.324226   1.000000
   18        3.328276   1.000000
   19        6.155048   0.000000
   20        6.155355   0.000000
   21       10.249402   0.000000
   22       10.250312   0.000000
   23       10.465640   0.000000
   24       10.466253   0.000000
   25       10.649988   0.000000
   26       10.650387   0.000000
   27       12.016095   0.000000
   28       12.016618   0.000000
   29       14.606810   0.000000
   30       14.606836   0.000000
   31       14.700799   0.000000
   32       14.701968   0.000000
   33       15.995467   0.000000
   34       15.996756   0.000000
   35       16.987301   0.000000
   36       16.987353   0.000000
   37       17.157097   0.000000
   38       17.159472   0.000000
   39       18.439699   0.000000
   40       18.442011   0.000000
   41       18.948798   0.000000
   42       18.952040   0.000000
   43       19.000216   0.000000
   44       19.002076   0.000000
   45       20.599725   0.000000
   46       20.600186   0.000000
   47       23.150785   0.000000
   48       23.151998   0.000000
   49       23.835474   0.000000
   50       23.836784   0.000000
   51       25.183677   0.000000
   52       25.184129   0.000000
   53       25.340613   0.000000
   54       25.341416   0.000000
   55       25.391416   0.000000
   56       25.392279   0.000000
   57       26.880951   0.000000
   58       26.881249   0.000000
   59       27.144654   0.000000
   60       27.145803   0.000000
   61       28.231302   0.000000
   62       28.231855   0.000000
   63       29.334536   0.000000
   64       29.335519   0.000000
   65       30.688891   0.000000
   66       30.689112   0.000000
   67       30.699480   0.000000
   68       30.701502   0.000000
   69       31.548935   0.000000
   70       31.551339   0.000000
   71       32.276601   0.000000
   72       32.276951   0.000000
   73       32.649235   0.000000
   74       32.649679   0.000000
   75       32.903690   0.000000
   76       32.905059   0.000000
   77       33.780745   0.000000
   78       33.782553   0.000000
   79       33.871970   0.000000
   80       33.874392   0.000000
   81       35.688772   0.000000
   82       35.689285   0.000000
   83       36.497582   0.000000
   84       36.498975   0.000000
   85       39.350345   0.000000
   86       39.351283   0.000000
   87       39.478661   0.000000
   88       39.481115   0.000000
   89       39.573411   0.000000
   90       39.573937   0.000000
   91       40.038268   0.000000
   92       40.039063   0.000000
   93       40.351277   0.000000
   94       40.352222   0.000000
   95       41.731278   0.000000
   96       41.732148   0.000000
   97       41.960010   0.000000
   98       41.960376   0.000000
   99       44.649792   0.000000
  100       44.650239   0.000000
  101       45.873549   0.000000
  102       45.874210   0.000000
  103       46.026865   0.000000
  104       46.027887   0.000000
  105       46.220844   0.000000
  106       46.221487   0.000000
  107       46.342206   0.000000
  108       46.342558   0.000000
  109       47.492579   0.000000
  110       47.493316   0.000000
  111       49.191757   0.000000
  112       49.192709   0.000000
  113       49.789400   0.000000
  114       49.790118   0.000000
  115       49.971649   0.000000
  116       49.972670   0.000000
  117       50.697806   0.000000
  118       50.699393   0.000000
  119       51.044104   0.000000
  120       51.044744   0.000000
  121       51.236032   0.000000
  122       51.236095   0.000000
  123       52.367297   0.000000
  124       52.368931   0.000000
  125       52.460234   0.000000
  126       52.461175   0.000000
  127       52.599402   0.000000
  128       52.601060   0.000000
 
 -0.3333333E+00 -0.3133854E-17  0.1387779E-16  0.4629630E-02
    1      -30.511139   1.000000
    2      -30.510986   1.000000
    3      -30.505026   1.000000
    4      -30.504758   1.000000
    5      -23.846430   1.000000
    6      -23.845817   1.000000
    7      -23.844084   1.000000
    8      -23.844001   1.000000
    9      -23.843138   1.000000
   10      -23.842010   1.000000
   11      -20.179673   1.000000
   12      -20.178903   1.000000
   13       -7.243792   1.000000
   14       -7.242841   1.000000
   15        1.051889   1.000000
   16        1.055260   1.000000
   17        3.449689   1.000000
   18        3.453880   1.000000
   19        6.150062   0.000000
   20        6.150257   0.000000
   21       10.330429   0.000000
   22       10.331326   0.000000
   23       10.538200   0.000000
   24       10.538872   0.000000
   25       10.968114   0.000000
   26       10.968486   0.000000
   27       11.219385   0.000000
   28       11.219638   0.000000
   29       13.228503   0.000000
   30       13.228969   0.000000
   31       13.497467   0.000000
   32       13.498906   0.000000
   33       16.563794   0.000000
   34       16.565705   0.000000
   35       17.606973   0.000000
   36       17.608763   0.000000
   37       17.870741   0.000000
   38       17.873731   0.000000
   39       18.218423   0.000000
   40       18.220028   0.000000
   41       18.652298   0.000000
   42       18.654311   0.000000
   43       18.938788   0.000000
   44       18.940978   0.000000
   45       20.531008   0.000000
   46       20.531451   0.000000
   47       21.046526   0.000000
   48       21.046715   0.000000
   49       23.843387   0.000000
   50       23.843737   0.000000
   51       25.100973   0.000000
   52       25.102555   0.000000
   53       25.191724   0.000000
   54       25.193373   0.000000
   55       26.257124   0.000000
   56       26.258150   0.000000
   57       26.951442   0.000000
   58       26.951652   0.000000
   59       27.492309   0.000000
   60       27.493095   0.000000
   61       29.471314   0.000000
   62       29.471441   0.000000
   63       30.852580   0.000000
   64       30.855135   0.000000
   65       31.287335   0.000000
   66       31.287518   0.000000
   67       31.731386   0.000000
   68       31.732263   0.000000
   69       31.892106   0.000000
   70       31.893781   0.000000
   71       31.985417   0.000000
   72       31.985985   0.000000
   73       33.532779   0.000000
   74       33.534112   0.000000
   75       33.679465   0.000000
   76       33.680078   0.000000
   77       34.743738   0.000000
   78       34.745080   0.000000
   79       35.514022   0.000000
   80       35.516307   0.000000
   81       35.839652   0.000000
   82       35.840344   0.000000
   83       36.287537   0.000000
   84       36.289023   0.000000
   85       39.150039   0.000000
   86       39.151815   0.000000
   87       39.183503   0.000000
   88       39.184260   0.000000
   89       39.899437   0.000000
   90       39.899632   0.000000
   91       40.468779   0.000000
   92       40.469272   0.000000
   93       40.690937   0.000000
   94       40.691859   0.000000
   95       41.873786   0.000000
   96       41.874311   0.000000
   97       42.628081   0.000000
   98       42.628206   0.000000
   99       42.869162   0.000000
  100       42.870383   0.000000
  101       43.659387   0.000000
  102       43.660688   0.000000
  103       44.493286   0.000000
  104       44.493511   0.000000
  105       44.723974   0.000000
  106       44.724638   0.000000
  107       45.759428   0.000000
  108       45.759608   0.000000
  109       46.227965   0.000000
  110       46.229308   0.000000
  111       46.295471   0.000000
  112       46.296829   0.000000
  113       46.849101   0.000000
  114       46.849864   0.000000
  115       49.456740   0.000000
  116       49.457180   0.000000
  117       50.918045   0.000000
  118       50.918685   0.000000
  119       51.181091   0.000000
  120       51.182132   0.000000
  121       51.703971   0.000000
  122       51.704393   0.000000
  123       51.759777   0.000000
  124       51.760260   0.000000
  125       52.026929   0.000000
  126       52.027463   0.000000
  127       52.341566   0.000000
  128       52.342214   0.000000
 
 -0.1666667E+00 -0.1566927E-17  0.6938894E-17  0.4629630E-02
    1      -30.514614   1.000000
    2      -30.514346   1.000000
    3      -30.505397   1.000000
    4      -30.505244   1.000000
    5      -23.853047   1.000000
    6      -23.853015   1.000000
    7      -23.844744   1.000000
    8      -23.844601   1.000000
    9      -23.844225   1.000000
   10      -23.843471   1.000000
   11      -20.233630   1.000000
   12      -20.232862   1.000000
   13       -7.064753   1.000000
   14       -7.063746   1.000000
   15        2.138984   1.000000
   16        2.142081   1.000000
   17        3.725969   1.000000
   18        3.730511   1.000000
   19        5.456099   0.000000
   20        5.457541   0.000000
   21        9.751376   0.000000
   22        9.752606   0.000000
   23       10.979791   0.000000
   24       10.980411   0.000000
   25       11.302201   0.000000
   26       11.302374   0.000000
   27       12.098996   0.000000
   28       12.099627   0.000000
   29       12.432522   0.000000
   30       12.434210   0.000000
   31       12.602915   0.000000
   32       12.605082   0.000000
   33       13.701749   0.000000
   34       13.703487   0.000000
   35       15.797523   0.000000
   36       15.798873   0.000000
   37       15.949091   0.000000
   38       15.951823   0.000000
   39       17.946966   0.000000
   40       17.947109   0.000000
   41       19.816321   0.000000
   42       19.818113   0.000000
   43       19.951410   0.000000
   44       19.953542   0.000000
   45       20.379014   0.000000
   46       20.379424   0.000000
   47       21.652265   0.000000
   48       21.652646   0.000000
   49       24.893852   0.000000
   50       24.894963   0.000000
   51       25.527826   0.000000
   52       25.530050   0.000000
   53       25.841754   0.000000
   54       25.843407   0.000000
   55       27.028146   0.000000
   56       27.029581   0.000000
   57       27.685381   0.000000
   58       27.685655   0.000000
   59       28.550838   0.000000
   60       28.551581   0.000000
   61       30.033092   0.000000
   62       30.035458   0.000000
   63       30.121189   0.000000
   64       30.122273   0.000000
   65       30.727994   0.000000
   66       30.729087   0.000000
   67       30.815423   0.000000
   68       30.815752   0.000000
   69       32.740410   0.000000
   70       32.742274   0.000000
   71       35.134688   0.000000
   72       35.135314   0.000000
   73       35.299866   0.000000
   74       35.301118   0.000000
   75       36.352912   0.000000
   76       36.354193   0.000000
   77       36.356203   0.000000
   78       36.356431   0.000000
   79       36.733809   0.000000
   80       36.734604   0.000000
   81       38.137597   0.000000
   82       38.138237   0.000000
   83       38.942866   0.000000
   84       38.945757   0.000000
   85       39.154061   0.000000
   86       39.154811   0.000000
   87       39.331475   0.000000
   88       39.331772   0.000000
   89       39.339899   0.000000
   90       39.340536   0.000000
   91       40.224760   0.000000
   92       40.224965   0.000000
   93       40.361803   0.000000
   94       40.362780   0.000000
   95       41.184911   0.000000
   96       41.186100   0.000000
   97       41.381262   0.000000
   98       41.382209   0.000000
   99       42.488572   0.000000
  100       42.489165   0.000000
  101       42.992546   0.000000
  102       42.992806   0.000000
  103       43.086968   0.000000
  104       43.087259   0.000000
  105       43.911508   0.000000
  106       43.912108   0.000000
  107       44.435167   0.000000
  108       44.435385   0.000000
  109       44.554839   0.000000
  110       44.556349   0.000000
  111       44.687991   0.000000
  112       44.688977   0.000000
  113       46.303514   0.000000
  114       46.304856   0.000000
  115       46.907000   0.000000
  116       46.907494   0.000000
  117       47.304011   0.000000
  118       47.304898   0.000000
  119       48.210392   0.000000
  120       48.211051   0.000000
  121       49.116584   0.000000
  122       49.116960   0.000000
  123       49.147676   0.000000
  124       49.148818   0.000000
  125       50.119721   0.000000
  126       50.120917   0.000000
  127       51.262685   0.000000
  128       51.262885   0.000000
 
  0.0000000E+00  0.1666667E+00 -0.6938894E-17  0.4629630E-02
    1      -30.514506   1.000000
    2      -30.514456   1.000000
    3      -30.505392   1.000000
    4      -30.505247   1.000000
    5      -23.853128   1.000000
    6      -23.852966   1.000000
    7      -23.844627   1.000000
    8      -23.844447   1.000000
    9      -23.844098   1.000000
   10      -23.843836   1.000000
   11      -20.233630   1.000000
   12      -20.232862   1.000000
   13       -7.064761   1.000000
   14       -7.063738   1.000000
   15        2.140106   1.000000
   16        2.140955   1.000000
   17        3.727499   1.000000
   18        3.728983   1.000000
   19        5.456605   0.000000
   20        5.457036   0.000000
   21        9.751841   0.000000
   22        9.752138   0.000000
   23       10.980084   0.000000
   24       10.980115   0.000000
   25       11.302088   0.000000
   26       11.302490   0.000000
   27       12.098768   0.000000
   28       12.099856   0.000000
   29       12.432513   0.000000
   30       12.434214   0.000000
   31       12.603717   0.000000
   32       12.604287   0.000000
   33       13.702400   0.000000
   34       13.702836   0.000000
   35       15.796974   0.000000
   36       15.799417   0.000000
   37       15.950056   0.000000
   38       15.950863   0.000000
   39       17.946757   0.000000
   40       17.947317   0.000000
   41       19.816777   0.000000
   42       19.817656   0.000000
   43       19.952181   0.000000
   44       19.952772   0.000000
   45       20.378415   0.000000
   46       20.380025   0.000000
   47       21.652173   0.000000
   48       21.652738   0.000000
   49       24.894089   0.000000
   50       24.894728   0.000000
   51       25.528684   0.000000
   52       25.529191   0.000000
   53       25.842335   0.000000
   54       25.842829   0.000000
   55       27.028115   0.000000
   56       27.029614   0.000000
   57       27.685439   0.000000
   58       27.685590   0.000000
   59       28.550978   0.000000
   60       28.551442   0.000000
   61       30.033880   0.000000
   62       30.034666   0.000000
   63       30.121009   0.000000
   64       30.122458   0.000000
   65       30.728393   0.000000
   66       30.728690   0.000000
   67       30.815071   0.000000
   68       30.816102   0.000000
   69       32.741028   0.000000
   70       32.741656   0.000000
   71       35.134313   0.000000
   72       35.135681   0.000000
   73       35.300187   0.000000
   74       35.300796   0.000000
   75       36.353250   0.000000
   76       36.353712   0.000000
   77       36.356275   0.000000
   78       36.356499   0.000000
   79       36.734017   0.000000
   80       36.734396   0.000000
   81       38.137656   0.000000
   82       38.138177   0.000000
   83       38.943967   0.000000
   84       38.944660   0.000000
   85       39.153798   0.000000
   86       39.155070   0.000000
   87       39.331435   0.000000
   88       39.331773   0.000000
   89       39.340118   0.000000
   90       39.340364   0.000000
   91       40.224562   0.000000
   92       40.225161   0.000000
   93       40.362179   0.000000
   94       40.362401   0.000000
   95       41.185299   0.000000
   96       41.185711   0.000000
   97       41.381291   0.000000
   98       41.382179   0.000000
   99       42.488729   0.000000
  100       42.489010   0.000000
  101       42.992157   0.000000
  102       42.993192   0.000000
  103       43.086631   0.000000
  104       43.087594   0.000000
  105       43.911459   0.000000
  106       43.912163   0.000000
  107       44.434854   0.000000
  108       44.435701   0.000000
  109       44.555390   0.000000
  110       44.555803   0.000000
  111       44.687887   0.000000
  112       44.689080   0.000000
  113       46.304033   0.000000
  114       46.304336   0.000000
  115       46.907014   0.000000
  116       46.907481   0.000000
  117       47.304284   0.000000
  118       47.304628   0.000000
  119       48.210490   0.000000
  120       48.210952   0.000000
  121       49.116444   0.000000