       N       E                     dE             d eps       ncg     rms          rms(c)
DIA:   1    -0.131799938261E+02   -0.13180E+02    0.00000E+00     0   0.000E+00
DIA:   2    -0.131799938261E+02    0.13188E-10    0.00000E+00     0   0.000E+00
DIA:   3    -0.131799938261E+02   -0.68212E-11    0.00000E+00     0   0.000E+00
DIA:   4    -0.131799938261E+02    0.54570E-11    0.00000E+00     0   0.000E+00
DIA:   5    -0.131799938261E+02    0.68212E-11    0.00000E+00     0   0.000E+00    0.410E-05
DIA:   6    -0.131799938310E+02   -0.49122E-08    0.00000E+00     0   0.000E+00
   1 F= 0.62202775E+96 E0= 0.62202775E+96  d E =-.143326E-07  mag=     0.0017    -0.0007    -0.0005
 imaginary and real dielectric function
