<?xml version="1.0" encoding="ISO-8859-1"?>
<modeling>
 <generator>
  <i name="program" type="string">vasp </i>
  <i name="version" type="string">5.4.4.18Apr17-6-g9f103f2a35  </i>
  <i name="subversion" type="string">(build Jul 09 2018 16:43:14) complex            parallel </i>
  <i name="platform" type="string">LinuxIFC </i>
  <i name="date" type="string">2018 11 29 </i>
  <i name="time" type="string">02:40:56 </i>
 </generator>
 <incar>
  <i type="string" name="SYSTEM">   Og_FCC</i>
  <i type="string" name="PREC">accurate</i>
  <i type="string" name="ALGO">   EXACT</i>
  <i type="logical" name="ADDGRID"> T  </i>
  <i type="logical" name="LSORBIT"> T  </i>
  <i type="int" name="ISPIN">     1</i>
  <i type="int" name="MAXMIX">    50</i>
  <i type="int" name="NELM">    50</i>
  <i type="int" name="NELMDL">    -5</i>
  <i type="int" name="NELMIN">     2</i>
  <i type="int" name="IBRION">    -1</i>
  <i type="int" name="NFREE">     5</i>
  <i name="EDIFF">      0.00000001</i>
  <i name="EDIFFG">      0.00001000</i>
  <i type="int" name="NSW">     1</i>
  <i type="int" name="ISIF">     3</i>
  <i type="int" name="ISYM">     0</i>
  <i name="SYMPREC">      0.00000010</i>
  <i name="ENCUT">    300.00000000</i>
  <i type="int" name="NBANDS">   128</i>
  <i name="POTIM">      0.10000000</i>
  <i type="logical" name="LREAL"> F  </i>
  <i type="int" name="ISMEAR">     0</i>
  <i name="SIGMA">      0.00100000</i>
  <i type="int" name="NWRITE">     2</i>
  <i type="logical" name="LWAVE"> T  </i>
  <i type="logical" name="LCHARG"> F  </i>
  <i type="logical" name="LVTOT"> F  </i>
  <i type="logical" name="LOPTICS"> T  </i>
  <i type="logical" name="GGA_COMPAT"> F  </i>
  <v type="int" name="KPOINT_BSE">    -1     0     0     0</v>
  <i type="int" name="NELM">    50</i>
  <i type="string" name="GGA"> PE</i>
 </incar>
 <structure name="primitive_cell" >
  <crystal>
   <varray name="basis" >
    <v>       4.35259381       0.00000000       0.00000000 </v>
    <v>       2.17629691       3.76945681      -0.00000000 </v>
    <v>       2.17629691       1.25648560       3.55387797 </v>
   </varray>
   <i name="volume">     58.30817157 </i>
   <varray name="rec_basis" >
    <v>       0.22974806      -0.13264511      -0.09379425 </v>
    <v>       0.00000000       0.26529021      -0.09379425 </v>
    <v>      -0.00000000       0.00000000       0.28138276 </v>
   </varray>
  </crystal>
  <varray name="positions" >
   <v>       0.00000000       0.00000000       0.00000000 </v>
  </varray>
 </structure>
 <varray name="primitive_index" >
  <v type="int" >        1 </v>
 </varray>
 <kpoints>
  <generation param="Gamma">
   <v type="int" name="divisions">       6        6        6 </v>
   <v name="usershift">      0.00000000       0.00000000       0.00000000 </v>
   <v name="genvec1">      0.16666667      -0.00000000      -0.00000000 </v>
   <v name="genvec2">      0.00000000       0.16666667       0.00000000 </v>
   <v name="genvec3">      0.00000000      -0.00000000       0.16666667 </v>
   <v name="shift">      0.00000000       0.00000000       0.00000000 </v>
  </generation>
  <varray name="kpointlist" >
   <v>       0.00000000       0.00000000       0.00000000 </v>
   <v>       0.16666667       0.00000000      -0.00000000 </v>
   <v>       0.33333333      -0.00000000      -0.00000000 </v>
   <v>       0.50000000       0.00000000       0.00000000 </v>
   <v>      -0.33333333      -0.00000000       0.00000000 </v>
   <v>      -0.16666667      -0.00000000       0.00000000 </v>
   <v>       0.00000000       0.16666667      -0.00000000 </v>
   <v>       0.16666667       0.16666667      -0.00000000 </v>
   <v>       0.33333333       0.16666667      -0.00000000 </v>
   <v>       0.50000000       0.16666667       0.00000000 </v>
   <v>      -0.33333333       0.16666667       0.00000000 </v>
   <v>      -0.16666667       0.16666667       0.00000000 </v>
   <v>       0.00000000       0.33333333      -0.00000000 </v>
   <v>       0.16666667       0.33333333      -0.00000000 </v>
   <v>       0.33333333       0.33333333      -0.00000000 </v>
   <v>       0.50000000       0.33333333       0.00000000 </v>
   <v>      -0.33333333       0.33333333       0.00000000 </v>
   <v>      -0.16666667       0.33333333       0.00000000 </v>
   <v>      -0.00000000       0.50000000      -0.00000000 </v>
   <v>       0.16666667       0.50000000      -0.00000000 </v>
   <v>       0.33333333       0.50000000      -0.00000000 </v>
   <v>       0.50000000       0.50000000      -0.00000000 </v>
   <v>      -0.33333333       0.50000000       0.00000000 </v>
   <v>      -0.16666667       0.50000000       0.00000000 </v>
   <v>       0.00000000      -0.33333333       0.00000000 </v>
   <v>       0.16666667      -0.33333333       0.00000000 </v>
   <v>       0.33333333      -0.33333333      -0.00000000 </v>
   <v>       0.50000000      -0.33333333       0.00000000 </v>
   <v>      -0.33333333      -0.33333333       0.00000000 </v>
   <v>      -0.16666667      -0.33333333       0.00000000 </v>
   <v>       0.00000000      -0.16666667       0.00000000 </v>
   <v>       0.16666667      -0.16666667      -0.00000000 </v>
   <v>       0.33333333      -0.16666667      -0.00000000 </v>
   <v>       0.50000000      -0.16666667      -0.00000000 </v>
   <v>      -0.33333333      -0.16666667       0.00000000 </v>
   <v>      -0.16666667      -0.16666667       0.00000000 </v>
   <v>       0.00000000       0.00000000       0.16666667 </v>
   <v>       0.16666667       0.00000000       0.16666667 </v>
   <v>       0.33333333      -0.00000000       0.16666667 </v>
   <v>       0.50000000      -0.00000000       0.16666667 </v>
   <v>      -0.33333333      -0.00000000       0.16666667 </v>
   <v>      -0.16666667       0.00000000       0.16666667 </v>
   <v>       0.00000000       0.16666667       0.16666667 </v>
   <v>       0.16666667       0.16666667       0.16666667 </v>
   <v>       0.33333333       0.16666667       0.16666667 </v>
   <v>       0.50000000       0.16666667       0.16666667 </v>
   <v>      -0.33333333       0.16666667       0.16666667 </v>
   <v>      -0.16666667       0.16666667       0.16666667 </v>
   <v>       0.00000000       0.33333333       0.16666667 </v>
   <v>       0.16666667       0.33333333       0.16666667 </v>
   <v>       0.33333333       0.33333333       0.16666667 </v>
   <v>       0.50000000       0.33333333       0.16666667 </v>
   <v>      -0.33333333       0.33333333       0.16666667 </v>
   <v>      -0.16666667       0.33333333       0.16666667 </v>
   <v>       0.00000000       0.50000000       0.16666667 </v>
   <v>       0.16666667       0.50000000       0.16666667 </v>
   <v>       0.33333333       0.50000000       0.16666667 </v>
   <v>       0.50000000       0.50000000       0.16666667 </v>
   <v>      -0.33333333       0.50000000       0.16666667 </v>
   <v>      -0.16666667       0.50000000       0.16666667 </v>
   <v>       0.00000000      -0.33333333       0.16666667 </v>
   <v>       0.16666667      -0.33333333       0.16666667 </v>
   <v>       0.33333333      -0.33333333       0.16666667 </v>
   <v>       0.50000000      -0.33333333       0.16666667 </v>
   <v>      -0.33333333      -0.33333333       0.16666667 </v>
   <v>      -0.16666667      -0.33333333       0.16666667 </v>
   <v>       0.00000000      -0.16666667       0.16666667 </v>
   <v>       0.16666667      -0.16666667       0.16666667 </v>
   <v>       0.33333333      -0.16666667       0.16666667 </v>
   <v>       0.50000000      -0.16666667       0.16666667 </v>
   <v>      -0.33333333      -0.16666667       0.16666667 </v>
   <v>      -0.16666667      -0.16666667       0.16666667 </v>
   <v>       0.00000000       0.00000000       0.33333333 </v>
   <v>       0.16666667       0.00000000       0.33333333 </v>
   <v>       0.33333333       0.00000000       0.33333333 </v>
   <v>       0.50000000      -0.00000000       0.33333333 </v>
   <v>      -0.33333333       0.00000000       0.33333333 </v>
   <v>      -0.16666667       0.00000000       0.33333333 </v>
   <v>       0.00000000       0.16666667       0.33333333 </v>
   <v>       0.16666667       0.16666667       0.33333333 </v>
   <v>       0.33333333       0.16666667       0.33333333 </v>
   <v>       0.50000000       0.16666667       0.33333333 </v>
   <v>      -0.33333333       0.16666667       0.33333333 </v>
   <v>      -0.16666667       0.16666667       0.33333333 </v>
   <v>       0.00000000       0.33333333       0.33333333 </v>
   <v>       0.16666667       0.33333333       0.33333333 </v>
   <v>       0.33333333       0.33333333       0.33333333 </v>
   <v>       0.50000000       0.33333333       0.33333333 </v>
   <v>      -0.33333333       0.33333333       0.33333333 </v>
   <v>      -0.16666667       0.33333333       0.33333333 </v>
   <v>       0.00000000       0.50000000       0.33333333 </v>
   <v>       0.16666667       0.50000000       0.33333333 </v>
   <v>       0.33333333       0.50000000       0.33333333 </v>
   <v>       0.50000000       0.50000000       0.33333333 </v>
   <v>      -0.33333333       0.50000000       0.33333333 </v>
   <v>      -0.16666667       0.50000000       0.33333333 </v>
   <v>       0.00000000      -0.33333333       0.33333333 </v>
   <v>       0.16666667      -0.33333333       0.33333333 </v>
   <v>       0.33333333      -0.33333333       0.33333333 </v>
   <v>       0.50000000      -0.33333333       0.33333333 </v>
   <v>      -0.33333333      -0.33333333       0.33333333 </v>
   <v>      -0.16666667      -0.33333333       0.33333333 </v>
   <v>       0.00000000      -0.16666667       0.33333333 </v>
   <v>       0.16666667      -0.16666667       0.33333333 </v>
   <v>       0.33333333      -0.16666667       0.33333333 </v>
   <v>       0.50000000      -0.16666667       0.33333333 </v>
   <v>      -0.33333333      -0.16666667       0.33333333 </v>
   <v>      -0.16666667      -0.16666667       0.33333333 </v>
   <v>       0.00000000      -0.00000000       0.50000000 </v>
   <v>       0.16666667       0.00000000       0.50000000 </v>
   <v>       0.33333333       0.00000000       0.50000000 </v>
   <v>       0.50000000      -0.00000000       0.50000000 </v>
   <v>      -0.33333333       0.00000000       0.50000000 </v>
   <v>      -0.16666667       0.00000000       0.50000000 </v>
   <v>       0.00000000       0.16666667       0.50000000 </v>
   <v>       0.16666667       0.16666667       0.50000000 </v>
   <v>       0.33333333       0.16666667       0.50000000 </v>
   <v>       0.50000000       0.16666667       0.50000000 </v>
   <v>      -0.33333333       0.16666667       0.50000000 </v>
   <v>      -0.16666667       0.16666667       0.50000000 </v>
   <v>       0.00000000       0.33333333       0.50000000 </v>
   <v>       0.16666667       0.33333333       0.50000000 </v>
   <v>       0.33333333       0.33333333       0.50000000 </v>
   <v>       0.50000000       0.33333333       0.50000000 </v>
   <v>      -0.33333333       0.33333333       0.50000000 </v>
   <v>      -0.16666667       0.33333333       0.50000000 </v>
   <v>       0.00000000       0.50000000       0.50000000 </v>
   <v>       0.16666667       0.50000000       0.50000000 </v>
   <v>       0.33333333       0.50000000       0.50000000 </v>
   <v>       0.50000000       0.50000000       0.50000000 </v>
   <v>      -0.33333333       0.50000000       0.50000000 </v>
   <v>      -0.16666667       0.50000000       0.50000000 </v>
   <v>       0.00000000      -0.33333333       0.50000000 </v>
   <v>       0.16666667      -0.33333333       0.50000000 </v>
   <v>       0.33333333      -0.33333333       0.50000000 </v>
   <v>       0.50000000      -0.33333333       0.50000000 </v>
   <v>      -0.33333333      -0.33333333       0.50000000 </v>
   <v>      -0.16666667      -0.33333333       0.50000000 </v>
   <v>       0.00000000      -0.16666667       0.50000000 </v>
   <v>       0.16666667      -0.16666667       0.50000000 </v>
   <v>       0.33333333      -0.16666667       0.50000000 </v>
   <v>       0.50000000      -0.16666667       0.50000000 </v>
   <v>      -0.33333333      -0.16666667       0.50000000 </v>
   <v>      -0.16666667      -0.16666667       0.50000000 </v>
   <v>      -0.00000000      -0.00000000      -0.33333333 </v>
   <v>       0.16666667      -0.00000000      -0.33333333 </v>
   <v>       0.33333333      -0.00000000      -0.33333333 </v>
   <v>       0.50000000       0.00000000      -0.33333333 </v>
   <v>      -0.33333333      -0.00000000      -0.33333333 </v>
   <v>      -0.16666667      -0.00000000      -0.33333333 </v>
   <v>       0.00000000       0.16666667      -0.33333333 </v>
   <v>       0.16666667       0.16666667      -0.33333333 </v>
   <v>       0.33333333       0.16666667      -0.33333333 </v>
   <v>       0.50000000       0.16666667      -0.33333333 </v>
   <v>      -0.33333333       0.16666667      -0.33333333 </v>
   <v>      -0.16666667       0.16666667      -0.33333333 </v>
   <v>      -0.00000000       0.33333333      -0.33333333 </v>
   <v>       0.16666667       0.33333333      -0.33333333 </v>
   <v>       0.33333333       0.33333333      -0.33333333 </v>
   <v>       0.50000000       0.33333333      -0.33333333 </v>
   <v>      -0.33333333       0.33333333      -0.33333333 </v>
   <v>      -0.16666667       0.33333333      -0.33333333 </v>
   <v>       0.00000000       0.50000000      -0.33333333 </v>
   <v>       0.16666667       0.50000000      -0.33333333 </v>
   <v>       0.33333333       0.50000000      -0.33333333 </v>
   <v>       0.50000000       0.50000000      -0.33333333 </v>
   <v>      -0.33333333       0.50000000      -0.33333333 </v>
   <v>      -0.16666667       0.50000000      -0.33333333 </v>
   <v>      -0.00000000      -0.33333333      -0.33333333 </v>
   <v>       0.16666667      -0.33333333      -0.33333333 </v>
   <v>       0.33333333      -0.33333333      -0.33333333 </v>
   <v>       0.50000000      -0.33333333      -0.33333333 </v>
   <v>      -0.33333333      -0.33333333      -0.33333333 </v>
   <v>      -0.16666667      -0.33333333      -0.33333333 </v>
   <v>      -0.00000000      -0.16666667      -0.33333333 </v>
   <v>       0.16666667      -0.16666667      -0.33333333 </v>
   <v>       0.33333333      -0.16666667      -0.33333333 </v>
   <v>       0.50000000      -0.16666667      -0.33333333 </v>
   <v>      -0.33333333      -0.16666667      -0.33333333 </v>
   <v>      -0.16666667      -0.16666667      -0.33333333 </v>
   <v>      -0.00000000       0.00000000      -0.16666667 </v>
   <v>       0.16666667      -0.00000000      -0.16666667 </v>
   <v>       0.33333333      -0.00000000      -0.16666667 </v>
   <v>       0.50000000       0.00000000      -0.16666667 </v>
   <v>      -0.33333333       0.00000000      -0.16666667 </v>
   <v>      -0.16666667      -0.00000000      -0.16666667 </v>
   <v>      -0.00000000       0.16666667      -0.16666667 </v>
   <v>       0.16666667       0.16666667      -0.16666667 </v>
   <v>       0.33333333       0.16666667      -0.16666667 </v>
   <v>       0.50000000       0.16666667      -0.16666667 </v>
   <v>      -0.33333333       0.16666667      -0.16666667 </v>
   <v>      -0.16666667       0.16666667      -0.16666667 </v>
   <v>      -0.00000000       0.33333333      -0.16666667 </v>
   <v>       0.16666667       0.33333333      -0.16666667 </v>
   <v>       0.33333333       0.33333333      -0.16666667 </v>
   <v>       0.50000000       0.33333333      -0.16666667 </v>
   <v>      -0.33333333       0.33333333      -0.16666667 </v>
   <v>      -0.16666667       0.33333333      -0.16666667 </v>
   <v>      -0.00000000       0.50000000      -0.16666667 </v>
   <v>       0.16666667       0.50000000      -0.16666667 </v>
   <v>       0.33333333       0.50000000      -0.16666667 </v>
   <v>       0.50000000       0.50000000      -0.16666667 </v>
   <v>      -0.33333333       0.50000000      -0.16666667 </v>
   <v>      -0.16666667       0.50000000      -0.16666667 </v>
   <v>      -0.00000000      -0.33333333      -0.16666667 </v>
   <v>       0.16666667      -0.33333333      -0.16666667 </v>
   <v>       0.33333333      -0.33333333      -0.16666667 </v>
   <v>       0.50000000      -0.33333333      -0.16666667 </v>
   <v>      -0.33333333      -0.33333333      -0.16666667 </v>
   <v>      -0.16666667      -0.33333333      -0.16666667 </v>
   <v>      -0.00000000      -0.16666667      -0.16666667 </v>
   <v>       0.16666667      -0.16666667      -0.16666667 </v>
   <v>       0.33333333      -0.16666667      -0.16666667 </v>
   <v>       0.50000000      -0.16666667      -0.16666667 </v>
   <v>      -0.33333333      -0.16666667      -0.16666667 </v>
   <v>      -0.16666667      -0.16666667      -0.16666667 </v>
  </varray>
  <varray name="weights" >
   <v>       0.00462963 </v>
   <v>       0.00462963 </v>
   <v>       0.00462963 </v>
   <v>       0.00462963 </v>
   <v>       0.00462963 </v>
   <v>       0.00462963 </v>
   <v>       0.00462963 </v>
   <v>       0.00462963 </v>
   <v>       0.00462963 </v>
   <v>       0.00462963 </v>
   <v>       0.00462963 </v>
   <v>       0.00462963 </v>
   <v>       0.00462963 </v>
   <v>       0.00462963 </v>
   <v>       0.00462963 </v>
   <v>       0.00462963 </v>
   <v>       0.00462963 </v>
   <v>       0.00462963 </v>
   <v>       0.00462963 </v>
   <v>       0.00462963 </v>
   <v>       0.00462963 </v>
   <v>       0.00462963 </v>
   <v>       0.00462963 </v>
   <v>       0.00462963 </v>
   <v>       0.00462963 </v>
   <v>       0.00462963 </v>
   <v>       0.00462963 </v>
   <v>       0.00462963 </v>
   <v>       0.00462963 </v>
   <v>       0.00462963 </v>
   <v>       0.00462963 </v>
   <v>       0.00462963 </v>
   <v>       0.00462963 </v>
   <v>       0.00462963 </v>
   <v>       0.00462963 </v>
   <v>       0.00462963 </v>
   <v>       0.00462963 </v>
   <v>       0.00462963 </v>
   <v>       0.00462963 </v>
   <v>       0.00462963 </v>
   <v>       0.00462963 </v>
   <v>       0.00462963 </v>
   <v>       0.00462963 </v>
   <v>       0.00462963 </v>
   <v>       0.00462963 </v>
   <v>       0.00462963 </v>
   <v>       0.00462963 </v>
   <v>       0.00462963 </v>
   <v>       0.00462963 </v>
   <v>       0.00462963 </v>
   <v>       0.00462963 </v>
   <v>       0.00462963 </v>
   <v>       0.00462963 </v>
   <v>       0.00462963 </v>
   <v>       0.00462963 </v>
   <v>       0.00462963 </v>
   <v>       0.00462963 </v>
   <v>       0.00462963 </v>
   <v>       0.00462963 </v>
   <v>       0.00462963 </v>
   <v>       0.00462963 </v>
   <v>       0.00462963 </v>
   <v>       0.00462963 </v>
   <v>       0.00462963 </v>
   <v>       0.00462963 </v>
   <v>       0.00462963 </v>
   <v>       0.00462963 </v>
   <v>       0.00462963 </v>
   <v>       0.00462963 </v>
   <v>       0.00462963 </v>
   <v>       0.00462963 </v>
   <v>       0.00462963 </v>
   <v>       0.00462963 </v>
   <v>       0.00462963 </v>
   <v>       0.00462963 </v>
   <v>       0.00462963 </v>
   <v>       0.00462963 </v>
   <v>       0.00462963 </v>
   <v>       0.00462963 </v>
   <v>       0.00462963 </v>
   <v>       0.00462963 </v>
   <v>       0.00462963 </v>
   <v>       0.00462963 </v>
   <v>       0.00462963 </v>
   <v>       0.00462963 </v>
   <v>       0.00462963 </v>
   <v>       0.00462963 </v>
   <v>       0.00462963 </v>
   <v>       0.00462963 </v>
   <v>       0.00462963 </v>
   <v>       0.00462963 </v>
   <v>       0.00462963 </v>
   <v>       0.00462963 </v>
   <v>       0.00462963 </v>
   <v>       0.00462963 </v>
   <v>       0.00462963 </v>
   <v>       0.00462963 </v>
   <v>       0.00462963 </v>
   <v>       0.00462963 </v>
   <v>       0.00462963 </v>
   <v>       0.00462963 </v>
   <v>       0.00462963 </v>
   <v>       0.00462963 </v>
   <v>       0.00462963 </v>
   <v>       0.00462963 </v>
   <v>       0.00462963 </v>
   <v>       0.00462963 </v>
   <v>       0.00462963 </v>
   <v>       0.00462963 </v>
   <v>       0.00462963 </v>
   <v>       0.00462963 </v>
   <v>       0.00462963 </v>
   <v>       0.00462963 </v>
   <v>       0.00462963 </v>
   <v>       0.00462963 </v>
   <v>       0.00462963 </v>
   <v>       0.00462963 </v>
   <v>       0.00462963 </v>
   <v>       0.00462963 </v>
   <v>       0.00462963 </v>
   <v>       0.00462963 </v>
   <v>       0.00462963 </v>
   <v>       0.00462963 </v>
   <v>       0.00462963 </v>
   <v>       0.00462963 </v>
   <v>       0.00462963 </v>
   <v>       0.00462963 </v>
   <v>       0.00462963 </v>
   <v>       0.00462963 </v>
   <v>       0.00462963 </v>
   <v>       0.00462963 </v>
   <v>       0.00462963 </v>
   <v>       0.00462963 </v>
   <v>       0.00462963 </v>
   <v>       0.00462963 </v>
   <v>       0.00462963 </v>
   <v>       0.00462963 </v>
   <v>       0.00462963 </v>
   <v>       0.00462963 </v>
   <v>       0.00462963 </v>
   <v>       0.00462963 </v>
   <v>       0.00462963 </v>
   <v>       0.00462963 </v>
   <v>       0.00462963 </v>
   <v>       0.00462963 </v>
   <v>       0.00462963 </v>
   <v>       0.00462963 </v>
   <v>       0.00462963 </v>
   <v>       0.00462963 </v>
   <v>       0.00462963 </v>
   <v>       0.00462963 </v>
   <v>       0.00462963 </v>
   <v>       0.00462963 </v>
   <v>       0.00462963 </v>
   <v>       0.00462963 </v>
   <v>       0.00462963 </v>
   <v>       0.00462963 </v>
   <v>       0.00462963 </v>
   <v>       0.00462963 </v>
   <v>       0.00462963 </v>
   <v>       0.00462963 </v>
   <v>       0.00462963 </v>
   <v>       0.00462963 </v>
   <v>       0.00462963 </v>
   <v>       0.00462963 </v>
   <v>       0.00462963 </v>
   <v>       0.00462963 </v>
   <v>       0.00462963 </v>
   <v>       0.00462963 </v>
   <v>       0.00462963 </v>
   <v>       0.00462963 </v>
   <v>       0.00462963 </v>
   <v>       0.00462963 </v>
   <v>       0.00462963 </v>
   <v>       0.00462963 </v>
   <v>       0.00462963 </v>
   <v>       0.00462963 </v>
   <v>       0.00462963 </v>
   <v>       0.00462963 </v>
   <v>       0.00462963 </v>
   <v>       0.00462963 </v>
   <v>       0.00462963 </v>
   <v>       0.00462963 </v>
   <v>       0.00462963 </v>
   <v>       0.00462963 </v>
   <v>       0.00462963 </v>
   <v>       0.00462963 </v>
   <v>       0.00462963 </v>
   <v>       0.00462963 </v>
   <v>       0.00462963 </v>
   <v>       0.00462963 </v>
   <v>       0.00462963 </v>
   <v>       0.00462963 </v>
   <v>       0.00462963 </v>
   <v>       0.00462963 </v>
   <v>       0.00462963 </v>
   <v>       0.00462963 </v>
   <v>       0.00462963 </v>
   <v>       0.00462963 </v>
   <v>       0.00462963 </v>
   <v>       0.00462963 </v>
   <v>       0.00462963 </v>
   <v>       0.00462963 </v>
   <v>       0.00462963 </v>
   <v>       0.00462963 </v>
   <v>       0.00462963 </v>
   <v>       0.00462963 </v>
   <v>       0.00462963 </v>
   <v>       0.00462963 </v>
   <v>       0.00462963 </v>
   <v>       0.00462963 </v>
   <v>       0.00462963 </v>
   <v>       0.00462963 </v>
   <v>       0.00462963 </v>
   <v>       0.00462963 </v>
   <v>       0.00462963 </v>
  </varray>
 </kpoints>
 <parameters>
  <separator name="general" >
   <i type="string" name="SYSTEM">Og_FCC</i>
   <i type="logical" name="LCOMPAT"> F  </i>
  </separator>
  <separator name="electronic" >
   <i type="string" name="PREC">accura</i>
   <i name="ENMAX">    300.00000000</i>
   <i name="ENAUG">    361.02500000</i>
   <i name="EDIFF">      0.00000001</i>
   <i type="int" name="IALGO">    90</i>
   <i type="int" name="IWAVPR">    10</i>
   <i type="int" name="NBANDS">   128</i>
   <i name="NELECT">     18.00000000</i>
   <i type="int" name="TURBO">     0</i>
   <i type="int" name="IRESTART">     0</i>
   <i type="int" name="NREBOOT">     0</i>
   <i type="int" name="NMIN">     0</i>
   <i name="EREF">      0.00000000</i>
   <separator name="electronic smearing" >
    <i type="int" name="ISMEAR">     0</i>
    <i name="SIGMA">      0.00100000</i>
    <i name="KSPACING">      0.50000000</i>
    <i type="logical" name="KGAMMA"> T  </i>
   </separator>
   <separator name="electronic projectors" >
    <i type="logical" name="LREAL"> F  </i>
    <v name="ROPT">      0.00000000</v>
    <i type="int" name="LMAXPAW">  -100</i>
    <i type="int" name="LMAXMIX">     2</i>
    <i type="logical" name="NLSPLINE"> F  </i>
   </separator>
   <separator name="electronic startup" >
    <i type="int" name="ISTART">     1</i>
    <i type="int" name="ICHARG">     0</i>
    <i type="int" name="INIWAV">     1</i>
   </separator>
   <separator name="electronic spin" >
    <i type="int" name="ISPIN">     1</i>
    <i type="logical" name="LNONCOLLINEAR"> T  </i>
    <v name="MAGMOM">      1.00000000      1.00000000      1.00000000</v>
    <i name="NUPDOWN">     -1.00000000</i>
    <i type="logical" name="LSORBIT"> T  </i>
    <v name="SAXIS">      0.00000000      0.00000000      1.00000000</v>
    <i type="logical" name="LSPIRAL"> F  </i>
    <v name="QSPIRAL">      0.00000000      0.00000000      0.00000000</v>
    <i type="logical" name="LZEROZ"> F  </i>
   </separator>
   <separator name="electronic exchange-correlation" >
    <i type="logical" name="LASPH"> F  </i>
    <i type="logical" name="LMETAGGA"> F  </i>
   </separator>
   <separator name="electronic convergence" >
    <i type="int" name="NELM">    50</i>
    <i type="int" name="NELMDL">    -5</i>
    <i type="int" name="NELMIN">     2</i>
    <i name="ENINI">    300.00000000</i>
    <separator name="electronic convergence detail" >
     <i type="logical" name="LDIAG"> T  </i>
     <i type="logical" name="LSUBROT"> F  </i>
     <i name="WEIMIN">      0.00000000</i>
     <i name="EBREAK">      0.00000000</i>
     <i name="DEPER">      0.30000000</i>
     <i type="int" name="NRMM">     4</i>
     <i name="TIME">      0.40000000</i>
    </separator>
   </separator>
   <separator name="electronic mixer" >
    <i name="AMIX">      0.40000000</i>
    <i name="BMIX">      1.00000000</i>
    <i name="AMIN">      0.10000000</i>
    <i name="AMIX_MAG">      1.60000000</i>
    <i name="BMIX_MAG">      1.00000000</i>
    <separator name="electronic mixer details" >
     <i type="int" name="IMIX">     4</i>
     <i type="logical" name="MIXFIRST"> F  </i>
     <i type="int" name="MAXMIX">    50</i>
     <i name="WC">    100.00000000</i>
     <i type="int" name="INIMIX">     1</i>
     <i type="int" name="MIXPRE">     1</i>
     <i type="int" name="MREMOVE">     5</i>
    </separator>
   </separator>
   <separator name="electronic dipolcorrection" >
    <i type="logical" name="LDIPOL"> F  </i>
    <i type="logical" name="LMONO"> F  </i>
    <i type="int" name="IDIPOL">     0</i>
    <i name="EPSILON">      1.00000000</i>
    <v name="DIPOL">   -100.00000000   -100.00000000   -100.00000000</v>
    <i name="EFIELD">      0.00000000</i>
   </separator>
  </separator>
  <separator name="grids" >
   <i type="int" name="NGX">    28</i>
   <i type="int" name="NGY">    28</i>
   <i type="int" name="NGZ">    28</i>
   <i type="int" name="NGXF">    56</i>
   <i type="int" name="NGYF">    56</i>
   <i type="int" name="NGZF">    56</i>
   <i type="logical" name="ADDGRID"> T  </i>
  </separator>
  <separator name="ionic" >
   <i type="int" name="NSW">     1</i>
   <i type="int" name="IBRION">    -1</i>
   <i type="int" name="MDALGO">     0</i>
   <i type="int" name="ISIF">     3</i>
   <i name="PSTRESS">      0.00000000</i>
   <i name="EDIFFG">      0.00001000</i>
   <i type="int" name="NFREE">     5</i>
   <i name="POTIM">      0.10000000</i>
   <i name="SMASS">     -3.00000000</i>
   <i name="SCALEE">      1.00000000</i>
  </separator>
  <separator name="ionic md" >
   <i name="TEBEG">      0.00010000</i>
   <i name="TEEND">      0.00010000</i>
   <i type="int" name="NBLOCK">     1</i>
   <i type="int" name="KBLOCK">     1</i>
   <i type="int" name="NPACO">   256</i>
   <i name="APACO">     16.00000000</i>
  </separator>
  <separator name="symmetry" >
   <i type="int" name="ISYM">     0</i>
   <i name="SYMPREC">      0.00000010</i>
  </separator>
  <separator name="dos" >
   <i type="int" name="LORBIT">     0</i>
   <v name="RWIGS">     -1.00000000</v>
   <i type="int" name="NEDOS">   301</i>
   <i name="EMIN">     10.00000000</i>
   <i name="EMAX">    -10.00000000</i>
   <i name="EFERMI">      0.00000000</i>
  </separator>
  <separator name="writing" >
   <i type="int" name="NWRITE">     2</i>
   <i type="logical" name="LWAVE"> T  </i>
   <i type="logical" name="LDOWNSAMPLE"> F  </i>
   <i type="logical" name="LCHARG"> F  </i>
   <i type="logical" name="LPARD"> F  </i>
   <i type="logical" name="LVTOT"> F  </i>
   <i type="logical" name="LVHAR"> F  </i>
   <i type="logical" name="LELF"> F  </i>
   <i type="logical" name="LOPTICS"> T  </i>
   <v name="STM">      0.00000000      0.00000000      0.00000000      0.00000000      0.00000000      0.00000000      0.00000000</v>
  </separator>
  <separator name="performance" >
   <i type="int" name="NPAR">     2</i>
   <i type="int" name="NSIM">     4</i>
   <i type="int" name="NBLK">    -1</i>
   <i type="logical" name="LPLANE"> T  </i>
   <i type="logical" name="LSCALAPACK"> T  </i>
   <i type="logical" name="LSCAAWARE"> T  </i>
   <i type="logical" name="LSCALU"> F  </i>
   <i type="logical" name="LASYNC"> F  </i>
   <i type="logical" name="LORBITALREAL"> F  </i>
  </separator>
  <separator name="miscellaneous" >
   <i type="int" name="IDIOT">     3</i>
   <i type="int" name="ISPECIAL">     0</i>
   <i type="logical" name="LMUSIC"> F  </i>
   <v name="POMASS">      0.01000000</v>
   <v name="DARWINR">      0.00000000</v>
   <v name="DARWINV">      1.00000000</v>
   <i type="logical" name="LCORR"> T  </i>
  </separator>
  <i type="logical" name="GGA_COMPAT"> F  </i>
  <i type="logical" name="LBERRY"> F  </i>
  <i type="int" name="ICORELEVEL">     0</i>
  <i type="logical" name="LDAU"> F  </i>
  <i type="int" name="I_CONSTRAINED_M">     0</i>
  <separator name="electronic exchange-correlation" >
   <i type="string" name="GGA">PE</i>
   <i type="int" name="VOSKOWN">     0</i>
   <i type="logical" name="LHFCALC"> F  </i>
   <i type="string" name="PRECFOCK"></i>
   <i type="logical" name="LSYMGRAD"> F  </i>
   <i type="logical" name="LHFONE"> F  </i>
   <i type="logical" name="LRHFCALC"> F  </i>
   <i type="logical" name="LTHOMAS"> F  </i>
   <i type="logical" name="LMODELHF"> F  </i>
   <i name="ENCUT4O">     -1.00000000</i>
   <i type="int" name="EXXOEP">     0</i>
   <i type="int" name="FOURORBIT">     0</i>
   <i name="AEXX">      0.00000000</i>
   <i name="HFALPHA">      0.00000000</i>
   <i name="MCALPHA">      0.00000000</i>
   <i name="ALDAX">      1.00000000</i>
   <i name="AGGAX">      1.00000000</i>
   <i name="ALDAC">      1.00000000</i>
   <i name="AGGAC">      1.00000000</i>
   <i type="int" name="NKREDX">     1</i>
   <i type="int" name="NKREDY">     1</i>
   <i type="int" name="NKREDZ">     1</i>
   <i type="logical" name="SHIFTRED"> F  </i>
   <i type="logical" name="ODDONLY"> F  </i>
   <i type="logical" name="EVENONLY"> F  </i>
   <i type="int" name="LMAXFOCK">     0</i>
   <i type="int" name="NMAXFOCKAE">     0</i>
   <i type="logical" name="LFOCKAEDFT"> F  </i>
   <i name="HFSCREEN">      0.00000000</i>
   <i name="HFSCREENC">      0.00000000</i>
   <i type="int" name="NBANDSGWLOW">     0</i>
  </separator>
  <separator name="vdW DFT" >
   <i type="logical" name="LUSE_VDW"> F  </i>
   <i name="Zab_VDW">     -0.84910000</i>
   <i name="PARAM1">      0.12340000</i>
   <i name="PARAM2">      1.00000000</i>
   <i name="PARAM3">      0.00000000</i>
  </separator>
  <separator name="model GW" >
   <i type="int" name="MODEL_GW">     0</i>
   <i name="MODEL_EPS0">     34.98490294</i>
   <i name="MODEL_ALPHA">      1.00000000</i>
  </separator>
  <separator name="linear response parameters" >
   <i type="logical" name="LEPSILON"> F  </i>
   <i type="logical" name="LRPA"> F  </i>
   <i type="logical" name="LNABLA"> F  </i>
   <i type="logical" name="LVEL"> F  </i>
   <i type="int" name="KINTER">     0</i>
   <i name="CSHIFT">      0.10000000</i>
   <i name="OMEGAMAX">     -1.00000000</i>
   <i name="DEG_THRESHOLD">      0.00200000</i>
   <i name="RTIME">     -0.10000000</i>
   <i name="WPLASMAI">      0.00000000</i>
   <v name="DFIELD">      0.00000000      0.00000000      0.00000000</v>
   <v name="WPLASMA">      0.00000000      0.00000000      0.00000000      0.00000000      0.00000000      0.00000000      0.00000000      0.00000000      0.00000000</v>
  </separator>
  <separator name="orbital magnetization" >
   <i type="logical" name="NUCIND"> F  </i>
   <v name="MAGPOS">      0.00000000      0.00000000      0.00000000</v>
   <i type="logical" name="LNICSALL"> T  </i>
   <i type="logical" name="ORBITALMAG"> F  </i>
   <i type="logical" name="LMAGBLOCH"> F  </i>
   <i type="logical" name="LCHIMAG"> F  </i>
   <i type="logical" name="LGAUGE"> T  </i>
   <i type="int" name="MAGATOM">     0</i>
   <v name="MAGDIPOL">      0.00000000      0.00000000      0.00000000</v>
   <v name="AVECCONST">      0.00000000      0.00000000      0.00000000</v>
  </separator>
  <separator name="response functions" >
   <i type="logical" name="LADDER"> F  </i>
   <i type="logical" name="LRPAFORCE"> F  </i>
   <i type="logical" name="LFXC"> F  </i>
   <i type="logical" name="LHARTREE"> T  </i>
   <i type="int" name="IBSE">     0</i>
   <v type="int" name="KPOINT">    -1     0     0     0</v>
   <i type="logical" name="LTCTE"> F  </i>
   <i type="logical" name="LTETE"> F  </i>
   <i type="logical" name="LTRIPLET"> F  </i>
   <i type="logical" name="LFXCEPS"> F  </i>
   <i type="logical" name="LFXHEG"> F  </i>
   <i type="int" name="NATURALO">     2</i>
   <i type="logical" name="L2ORDER"> F  </i>
   <i type="logical" name="LMP2LT"> F  </i>
   <i type="logical" name="LUSEW"> F  </i>
   <i name="ENCUTGW">     -2.00000000</i>
   <i name="ENCUTGWSOFT">     -2.00000000</i>
   <i name="ENCUTLF">     -1.00000000</i>
   <i type="int" name="LMAXMP2">    -1</i>
   <i name="SCISSOR">      0.00000000</i>
   <i type="int" name="NOMEGA">     0</i>
   <i type="int" name="NOMEGAR">     0</i>
   <i type="int" name="NBANDSGW">    -1</i>
   <i type="int" name="NBANDSO">    -1</i>
   <i type="int" name="NBANDSV">    -1</i>
   <i type="int" name="NELM">    50</i>
   <i type="int" name="NELMHF">     1</i>
   <i type="int" name="DIM">     3</i>
   <i type="int" name="ANTIRES">     0</i>
   <i name="OMEGAMAX">    -30.00000000</i>
   <i name="OMEGAMIN">    -30.00000000</i>
   <i name="OMEGATL">   -200.00000000</i>
   <i type="int" name="OMEGAGRID">   140</i>
   <i name="CSHIFT">     -0.10000000</i>
   <i type="logical" name="SELFENERGY"> F  </i>
   <i type="logical" name="LSPECTRAL"> F  </i>
   <i type="logical" name="LSPECTRALGW"> F  </i>
   <i type="logical" name="LSINGLES"> F  </i>
   <i type="logical" name="LFERMIGW"> F  </i>
   <i type="logical" name="ODDONLYGW"> F  </i>
   <i type="logical" name="EVENONLYGW"> F  </i>
   <i type="int" name="NKREDLFX">     1</i>
   <i type="int" name="NKREDLFY">     1</i>
   <i type="int" name="NKREDLFZ">     1</i>
   <i type="int" name="MAXMEM">  2800</i>
   <i type="int" name="TELESCOPE">     0</i>
   <i type="int" name="TAUPAR">     1</i>
   <i type="int" name="OMEGAPAR">    -1</i>
   <i name="LAMBDA">      1.00000000</i>
  </separator>
  <separator name="External order field" >
   <i name="OFIELD_KAPPA">      0.00000000</i>
   <v name="OFIELD_K">      0.00000000      0.00000000      0.00000000</v>
   <i name="OFIELD_Q6_NEAR">      0.00000000</i>
   <i name="OFIELD_Q6_FAR">      0.00000000</i>
   <i name="OFIELD_A">      0.00000000</i>
  </separator>
 </parameters>
 <atominfo>
  <atoms>       1 </atoms>
  <types>       1 </types>
  <array name="atoms" >
   <dimension dim="1">ion</dimension>
   <field type="string">element</field>
   <field type="int">atomtype</field>
   <set>
    <rc><c>Og</c><c>   1</c></rc>
   </set>
  </array>
  <array name="atomtypes" >
   <dimension dim="1">type</dimension>
   <field type="int">atomspertype</field>
   <field type="string">element</field>
   <field>mass</field>
   <field>valence</field>
   <field type="string">pseudopotential</field>
   <set>
    <rc><c>   1</c><c>Og</c><c>      0.01000000</c><c>     18.00000000</c><c>  PAW Og, JanMewes Oct 18               </c></rc>
   </set>
  </array>
 </atominfo>
 <structure name="initialpos" >
  <crystal>
   <varray name="basis" >
    <v>       4.35259381       0.00000000       0.00000000 </v>
    <v>       2.17629691       3.76945681      -0.00000000 </v>
    <v>       2.17629691       1.25648560       3.55387797 </v>
   </varray>
   <i name="volume">     58.30817157 </i>
   <varray name="rec_basis" >
    <v>       0.22974806      -0.13264511      -0.09379425 </v>
    <v>       0.00000000       0.26529021      -0.09379425 </v>
    <v>      -0.00000000       0.00000000       0.28138276 </v>
   </varray>
  </crystal>
  <varray name="positions" >
   <v>       0.00000000       0.00000000       0.00000000 </v>
  </varray>
  <varray name="velocities" >
   <v>       0.00000000       0.00000000       0.00000000 </v>
  </varray>
 </structure>
 <calculation>
  <scstep>
   <time name="diag">  102.97  102.99</time>
   <time name="total">  103.35  103.37</time>
   <energy>
    <i name="alphaZ">     65.43262285 </i>
    <i name="ewald">  -1737.53765381 </i>
    <i name="hartreedc">   -674.70019796 </i>
    <i name="XCdc">    -68.74261848 </i>
    <i name="pawpsdc">   2336.03507583 </i>
    <i name="pawaedc">  -2260.63744052 </i>
    <i name="eentropy">     -0.00000001 </i>
    <i name="bandstr">   -312.93470580 </i>
    <i name="atom">   2639.90492407 </i>
    <i name="e_fr_energy">    -13.17999383 </i>
    <i name="e_wo_entrp">    -13.17999381 </i>
    <i name="e_0_energy">    -13.17999382 </i>
   </energy>
  </scstep>
  <scstep>
   <time name="diag">   99.73   99.75</time>
   <time name="total">   99.89   99.90</time>
   <energy>
    <i name="e_fr_energy">    -13.17999383 </i>
    <i name="e_wo_entrp">    -13.17999381 </i>
    <i name="e_0_energy">    -13.17999382 </i>
   </energy>
  </scstep>
  <scstep>
   <time name="diag">  100.90  100.92</time>
   <time name="total">  101.05  101.07</time>
   <energy>
    <i name="e_fr_energy">    -13.17999383 </i>
    <i name="e_wo_entrp">    -13.17999381 </i>
    <i name="e_0_energy">    -13.17999382 </i>
   </energy>
  </scstep>
  <scstep>
   <time name="diag">   95.47   95.49</time>
   <time name="total">   95.63   95.65</time>
   <energy>
    <i name="e_fr_energy">    -13.17999383 </i>
    <i name="e_wo_entrp">    -13.17999381 </i>
    <i name="e_0_energy">    -13.17999382 </i>
   </energy>
  </scstep>
  <scstep>
   <time name="diag">  103.81  103.82</time>
   <time name="total">  104.15  104.17</time>
   <energy>
    <i name="e_fr_energy">    -13.17999383 </i>
    <i name="e_wo_entrp">    -13.17999381 </i>
    <i name="e_0_energy">    -13.17999382 </i>
   </energy>
  </scstep>
  <scstep>
   <time name="diag">  103.72  103.74</time>
   <time name="total">  104.07  104.09</time>
   <energy>
    <i name="alphaZ">     65.43262285 </i>
    <i name="ewald">  -1737.53765381 </i>
    <i name="hartreedc">   -674.70019231 </i>
    <i name="XCdc">    -68.74261861 </i>
    <i name="pawpsdc">   2336.03504819 </i>
    <i name="pawaedc">  -2260.63741195 </i>
    <i name="eentropy">     -0.00000001 </i>
    <i name="bandstr">   -312.93471224 </i>
    <i name="atom">   2639.90492407 </i>
    <i name="e_fr_energy">    -13.17999383 </i>
    <i name="e_wo_entrp">    -13.17999382 </i>
    <i name="e_0_energy">    -13.17999382 </i>
   </energy>
  </scstep>
  <structure>
   <crystal>
    <varray name="basis" >
     <v>       4.35259381       0.00000000       0.00000000 </v>
     <v>       2.17629691       3.76945681      -0.00000000 </v>
     <v>       2.17629691       1.25648560       3.55387797 </v>
    </varray>
    <i name="volume">     58.30817157 </i>
    <varray name="rec_basis" >
     <v>       0.22974806      -0.13264511      -0.09379425 </v>
     <v>       0.00000000       0.26529021      -0.09379425 </v>
     <v>      -0.00000000       0.00000000       0.28138276 </v>
    </varray>
   </crystal>
   <varray name="positions" >
    <v>       0.00000000       0.00000000       0.00000000 </v>
   </varray>
  </structure>
  <varray name="forces" >
   <v>       0.00000001      -0.00000001      -0.00000002 </v>
  </varray>
  <varray name="stress" >
   <v> **************** **************** **************** </v>
   <v> **************** **************** **************** </v>
   <v> **************** **************** **************** </v>
  </varray>
  <energy>
   <i name="e_fr_energy">**************** </i>
   <i name="e_wo_entrp">**************** </i>
   <i name="e_0_energy">     -0.00000001 </i>
  </energy>
  <time name="totalsc">  613.68  613.88</time>
  <eigenvalues>
   <array>
    <dimension dim="1">band</dimension>
    <dimension dim="2">kpoint</dimension>
    <dimension dim="3">spin</dimension>
    <field>eigene</field>
    <field>occ</field>
    <set>
     <set comment="spin 1">
      <set comment="kpoint 1">
       <r>  -30.5220    1.0000 </r>
       <r>  -30.5219    1.0000 </r>
       <r>  -30.5218    1.0000 </r>
       <r>  -30.5217    1.0000 </r>
       <r>  -23.8569    1.0000 </r>
       <r>  -23.8565    1.0000 </r>
       <r>  -23.8562    1.0000 </r>
       <r>  -23.8558    1.0000 </r>
       <r>  -23.8553    1.0000 </r>
       <r>  -23.8545    1.0000 </r>
       <r>  -20.2604    1.0000 </r>
       <r>  -20.2596    1.0000 </r>
       <r>   -6.9757    1.0000 </r>
       <r>   -6.9747    1.0000 </r>
       <r>    3.6603    1.0000 </r>
       <r>    3.6607    1.0000 </r>
       <r>    3.8803    0.9998 </r>
       <r>    3.8803    0.9997 </r>
       <r>    3.8851    0.0003 </r>
       <r>    3.8852    0.0002 </r>
       <r>   10.8074    0.0000 </r>
       <r>   10.8076    0.0000 </r>
       <r>   10.8081    0.0000 </r>
       <r>   10.8084    0.0000 </r>
       <r>   11.0635    0.0000 </r>
       <r>   11.0640    0.0000 </r>
       <r>   11.2286    0.0000 </r>
       <r>   11.2300    0.0000 </r>
       <r>   13.1509    0.0000 </r>
       <r>   13.1539    0.0000 </r>
       <r>   13.4545    0.0000 </r>
       <r>   13.4546    0.0000 </r>
       <r>   13.4555    0.0000 </r>
       <r>   13.4557    0.0000 </r>
       <r>   14.2597    0.0000 </r>
       <r>   14.2612    0.0000 </r>
       <r>   14.2621    0.0000 </r>
       <r>   14.2635    0.0000 </r>
       <r>   16.1767    0.0000 </r>
       <r>   16.1770    0.0000 </r>
       <r>   20.3079    0.0000 </r>
       <r>   20.3082    0.0000 </r>
       <r>   20.3089    0.0000 </r>
       <r>   20.3093    0.0000 </r>
       <r>   20.3099    0.0000 </r>
       <r>   20.3102    0.0000 </r>
       <r>   22.8002    0.0000 </r>
       <r>   22.8010    0.0000 </r>
       <r>   26.1133    0.0000 </r>
       <r>   26.1134    0.0000 </r>
       <r>   26.1153    0.0000 </r>
       <r>   26.1155    0.0000 </r>
       <r>   26.3250    0.0000 </r>
       <r>   26.3256    0.0000 </r>
       <r>   27.6225    0.0000 </r>
       <r>   27.6243    0.0000 </r>
       <r>   29.2643    0.0000 </r>
       <r>   29.2652    0.0000 </r>
       <r>   29.2658    0.0000 </r>
       <r>   29.2667    0.0000 </r>
       <r>   29.9852    0.0000 </r>
       <r>   29.9858    0.0000 </r>
       <r>   30.1755    0.0000 </r>
       <r>   30.1758    0.0000 </r>
       <r>   30.1765    0.0000 </r>
       <r>   30.1769    0.0000 </r>
       <r>   30.6173    0.0000 </r>
       <r>   30.6174    0.0000 </r>
       <r>   31.4260    0.0000 </r>
       <r>   31.4261    0.0000 </r>
       <r>   31.4273    0.0000 </r>
       <r>   31.4274    0.0000 </r>
       <r>   37.6055    0.0000 </r>
       <r>   37.6061    0.0000 </r>
       <r>   37.6063    0.0000 </r>
       <r>   37.6067    0.0000 </r>
       <r>   37.6068    0.0000 </r>
       <r>   37.6075    0.0000 </r>
       <r>   38.3730    0.0000 </r>
       <r>   38.3744    0.0000 </r>
       <r>   38.4456    0.0000 </r>
       <r>   38.4458    0.0000 </r>
       <r>   38.4462    0.0000 </r>
       <r>   38.4487    0.0000 </r>
       <r>   38.4491    0.0000 </r>
       <r>   38.4493    0.0000 </r>
       <r>   40.9218    0.0000 </r>
       <r>   40.9221    0.0000 </r>
       <r>   40.9224    0.0000 </r>
       <r>   40.9227    0.0000 </r>
       <r>   41.1109    0.0000 </r>
       <r>   41.1113    0.0000 </r>
       <r>   42.3491    0.0000 </r>
       <r>   42.3498    0.0000 </r>
       <r>   42.6133    0.0000 </r>
       <r>   42.6144    0.0000 </r>
       <r>   42.6150    0.0000 </r>
       <r>   42.6161    0.0000 </r>
       <r>   42.9645    0.0000 </r>
       <r>   42.9649    0.0000 </r>
       <r>   42.9653    0.0000 </r>
       <r>   42.9658    0.0000 </r>
       <r>   43.8042    0.0000 </r>
       <r>   43.8042    0.0000 </r>
       <r>   43.8064    0.0000 </r>
       <r>   43.8064    0.0000 </r>
       <r>   43.8929    0.0000 </r>
       <r>   43.8935    0.0000 </r>
       <r>   43.8942    0.0000 </r>
       <r>   43.8948    0.0000 </r>
       <r>   44.0894    0.0000 </r>
       <r>   44.0903    0.0000 </r>
       <r>   45.0315    0.0000 </r>
       <r>   45.0323    0.0000 </r>
       <r>   45.4656    0.0000 </r>
       <r>   45.4670    0.0000 </r>
       <r>   45.9040    0.0000 </r>
       <r>   45.9041    0.0000 </r>
       <r>   45.9053    0.0000 </r>
       <r>   45.9054    0.0000 </r>
       <r>   46.4408    0.0000 </r>
       <r>   46.4410    0.0000 </r>
       <r>   46.7962    0.0000 </r>
       <r>   46.7964    0.0000 </r>
       <r>   46.7968    0.0000 </r>
       <r>   46.7970    0.0000 </r>
       <r>   46.9224    0.0000 </r>
       <r>   46.9236    0.0000 </r>
      </set>
      <set comment="kpoint 2">
       <r>  -30.5146    1.0000 </r>
       <r>  -30.5143    1.0000 </r>
       <r>  -30.5054    1.0000 </r>
       <r>  -30.5052    1.0000 </r>
       <r>  -23.8530    1.0000 </r>
       <r>  -23.8530    1.0000 </r>
       <r>  -23.8447    1.0000 </r>
       <r>  -23.8446    1.0000 </r>
       <r>  -23.8442    1.0000 </r>
       <r>  -23.8435    1.0000 </r>
       <r>  -20.2336    1.0000 </r>
       <r>  -20.2329    1.0000 </r>
       <r>   -7.0648    1.0000 </r>
       <r>   -7.0637    1.0000 </r>
       <r>    2.1390    1.0000 </r>
       <r>    2.1421    1.0000 </r>
       <r>    3.7260    1.0000 </r>
       <r>    3.7305    1.0000 </r>
       <r>    5.4561    0.0000 </r>
       <r>    5.4575    0.0000 </r>
       <r>    9.7514    0.0000 </r>
       <r>    9.7526    0.0000 </r>
       <r>   10.9798    0.0000 </r>
       <r>   10.9804    0.0000 </r>
       <r>   11.3022    0.0000 </r>
       <r>   11.3024    0.0000 </r>
       <r>   12.0990    0.0000 </r>
       <r>   12.0996    0.0000 </r>
       <r>   12.4325    0.0000 </r>
       <r>   12.4342    0.0000 </r>
       <r>   12.6029    0.0000 </r>
       <r>   12.6051    0.0000 </r>
       <r>   13.7017    0.0000 </r>
       <r>   13.7035    0.0000 </r>
       <r>   15.7975    0.0000 </r>
       <r>   15.7989    0.0000 </r>
       <r>   15.9491    0.0000 </r>
       <r>   15.9518    0.0000 </r>
       <r>   17.9470    0.0000 </r>
       <r>   17.9471    0.0000 </r>
       <r>   19.8163    0.0000 </r>
       <r>   19.8181    0.0000 </r>
       <r>   19.9514    0.0000 </r>
       <r>   19.9535    0.0000 </r>
       <r>   20.3790    0.0000 </r>
       <r>   20.3794    0.0000 </r>
       <r>   21.6523    0.0000 </r>
       <r>   21.6526    0.0000 </r>
       <r>   24.8939    0.0000 </r>
       <r>   24.8950    0.0000 </r>
       <r>   25.5278    0.0000 </r>
       <r>   25.5301    0.0000 </r>
       <r>   25.8418    0.0000 </r>
       <r>   25.8434    0.0000 </r>
       <r>   27.0281    0.0000 </r>
       <r>   27.0296    0.0000 </r>
       <r>   27.6854    0.0000 </r>
       <r>   27.6857    0.0000 </r>
       <r>   28.5508    0.0000 </r>
       <r>   28.5516    0.0000 </r>
       <r>   30.0331    0.0000 </r>
       <r>   30.0355    0.0000 </r>
       <r>   30.1212    0.0000 </r>
       <r>   30.1223    0.0000 </r>
       <r>   30.7280    0.0000 </r>
       <r>   30.7291    0.0000 </r>
       <r>   30.8154    0.0000 </r>
       <r>   30.8158    0.0000 </r>
       <r>   32.7404    0.0000 </r>
       <r>   32.7423    0.0000 </r>
       <r>   35.1347    0.0000 </r>
       <r>   35.1353    0.0000 </r>
       <r>   35.2999    0.0000 </r>
       <r>   35.3011    0.0000 </r>
       <r>   36.3529    0.0000 </r>
       <r>   36.3542    0.0000 </r>
       <r>   36.3562    0.0000 </r>
       <r>   36.3564    0.0000 </r>
       <r>   36.7338    0.0000 </r>
       <r>   36.7346    0.0000 </r>
       <r>   38.1376    0.0000 </r>
       <r>   38.1382    0.0000 </r>
       <r>   38.9429    0.0000 </r>
       <r>   38.9458    0.0000 </r>
       <r>   39.1541    0.0000 </r>
       <r>   39.1548    0.0000 </r>
       <r>   39.3315    0.0000 </r>
       <r>   39.3318    0.0000 </r>
       <r>   39.3399    0.0000 </r>
       <r>   39.3405    0.0000 </r>
       <r>   40.2248    0.0000 </r>
       <r>   40.2250    0.0000 </r>
       <r>   40.3618    0.0000 </r>
       <r>   40.3628    0.0000 </r>
       <r>   41.1849    0.0000 </r>
       <r>   41.1861    0.0000 </r>
       <r>   41.3813    0.0000 </r>
       <r>   41.3822    0.0000 </r>
       <r>   42.4886    0.0000 </r>
       <r>   42.4892    0.0000 </r>
       <r>   42.9925    0.0000 </r>
       <r>   42.9928    0.0000 </r>
       <r>   43.0870    0.0000 </r>
       <r>   43.0873    0.0000 </r>
       <r>   43.9115    0.0000 </r>
       <r>   43.9121    0.0000 </r>
       <r>   44.4352    0.0000 </r>
       <r>   44.4354    0.0000 </r>
       <r>   44.5548    0.0000 </r>
       <r>   44.5563    0.0000 </r>
       <r>   44.6880    0.0000 </r>
       <r>   44.6890    0.0000 </r>
       <r>   46.3035    0.0000 </r>
       <r>   46.3049    0.0000 </r>
       <r>   46.9070    0.0000 </r>
       <r>   46.9075    0.0000 </r>
       <r>   47.3040    0.0000 </r>
       <r>   47.3049    0.0000 </r>
       <r>   48.2104    0.0000 </r>
       <r>   48.2111    0.0000 </r>
       <r>   49.1166    0.0000 </r>
       <r>   49.1170    0.0000 </r>
       <r>   49.1477    0.0000 </r>
       <r>   49.1488    0.0000 </r>
       <r>   50.1197    0.0000 </r>
       <r>   50.1209    0.0000 </r>
       <r>   51.2627    0.0000 </r>
       <r>   51.2629    0.0000 </r>
      </set>
      <set comment="kpoint 3">
       <r>  -30.5111    1.0000 </r>
       <r>  -30.5110    1.0000 </r>
       <r>  -30.5050    1.0000 </r>
       <r>  -30.5048    1.0000 </r>
       <r>  -23.8464    1.0000 </r>
       <r>  -23.8458    1.0000 </r>
       <r>  -23.8441    1.0000 </r>
       <r>  -23.8440    1.0000 </r>
       <r>  -23.8431    1.0000 </r>
       <r>  -23.8420    1.0000 </r>
       <r>  -20.1797    1.0000 </r>
       <r>  -20.1789    1.0000 </r>
       <r>   -7.2438    1.0000 </r>
       <r>   -7.2428    1.0000 </r>
       <r>    1.0519    1.0000 </r>
       <r>    1.0553    1.0000 </r>
       <r>    3.4497    1.0000 </r>
       <r>    3.4539    1.0000 </r>
       <r>    6.1501    0.0000 </r>
       <r>    6.1503    0.0000 </r>
       <r>   10.3304    0.0000 </r>
       <r>   10.3313    0.0000 </r>
       <r>   10.5382    0.0000 </r>
       <r>   10.5389    0.0000 </r>
       <r>   10.9681    0.0000 </r>
       <r>   10.9685    0.0000 </r>
       <r>   11.2194    0.0000 </r>
       <r>   11.2196    0.0000 </r>
       <r>   13.2285    0.0000 </r>
       <r>   13.2290    0.0000 </r>
       <r>   13.4975    0.0000 </r>
       <r>   13.4989    0.0000 </r>
       <r>   16.5638    0.0000 </r>
       <r>   16.5657    0.0000 </r>
       <r>   17.6070    0.0000 </r>
       <r>   17.6088    0.0000 </r>
       <r>   17.8707    0.0000 </r>
       <r>   17.8737    0.0000 </r>
       <r>   18.2184    0.0000 </r>
       <r>   18.2200    0.0000 </r>
       <r>   18.6523    0.0000 </r>
       <r>   18.6543    0.0000 </r>
       <r>   18.9388    0.0000 </r>
       <r>   18.9410    0.0000 </r>
       <r>   20.5310    0.0000 </r>
       <r>   20.5315    0.0000 </r>
       <r>   21.0465    0.0000 </r>
       <r>   21.0467    0.0000 </r>
       <r>   23.8434    0.0000 </r>
       <r>   23.8437    0.0000 </r>
       <r>   25.1010    0.0000 </r>
       <r>   25.1026    0.0000 </r>
       <r>   25.1917    0.0000 </r>
       <r>   25.1934    0.0000 </r>
       <r>   26.2571    0.0000 </r>
       <r>   26.2582    0.0000 </r>
       <r>   26.9514    0.0000 </r>
       <r>   26.9517    0.0000 </r>
       <r>   27.4923    0.0000 </r>
       <r>   27.4931    0.0000 </r>
       <r>   29.4713    0.0000 </r>
       <r>   29.4714    0.0000 </r>
       <r>   30.8526    0.0000 </r>
       <r>   30.8551    0.0000 </r>
       <r>   31.2873    0.0000 </r>
       <r>   31.2875    0.0000 </r>
       <r>   31.7314    0.0000 </r>
       <r>   31.7323    0.0000 </r>
       <r>   31.8921    0.0000 </r>
       <r>   31.8938    0.0000 </r>
       <r>   31.9854    0.0000 </r>
       <r>   31.9860    0.0000 </r>
       <r>   33.5328    0.0000 </r>
       <r>   33.5341    0.0000 </r>
       <r>   33.6795    0.0000 </r>
       <r>   33.6801    0.0000 </r>
       <r>   34.7437    0.0000 </r>
       <r>   34.7451    0.0000 </r>
       <r>   35.5140    0.0000 </r>
       <r>   35.5163    0.0000 </r>
       <r>   35.8397    0.0000 </r>
       <r>   35.8403    0.0000 </r>
       <r>   36.2875    0.0000 </r>
       <r>   36.2890    0.0000 </r>
       <r>   39.1500    0.0000 </r>
       <r>   39.1518    0.0000 </r>
       <r>   39.1835    0.0000 </r>
       <r>   39.1843    0.0000 </r>
       <r>   39.8994    0.0000 </r>
       <r>   39.8996    0.0000 </r>
       <r>   40.4688    0.0000 </r>
       <r>   40.4693    0.0000 </r>
       <r>   40.6909    0.0000 </r>
       <r>   40.6919    0.0000 </r>
       <r>   41.8738    0.0000 </r>
       <r>   41.8743    0.0000 </r>
       <r>   42.6281    0.0000 </r>
       <r>   42.6282    0.0000 </r>
       <r>   42.8692    0.0000 </r>
       <r>   42.8704    0.0000 </r>
       <r>   43.6594    0.0000 </r>
       <r>   43.6607    0.0000 </r>
       <r>   44.4933    0.0000 </r>
       <r>   44.4935    0.0000 </r>
       <r>   44.7240    0.0000 </r>
       <r>   44.7246    0.0000 </r>
       <r>   45.7594    0.0000 </r>
       <r>   45.7596    0.0000 </r>
       <r>   46.2280    0.0000 </r>
       <r>   46.2293    0.0000 </r>
       <r>   46.2955    0.0000 </r>
       <r>   46.2968    0.0000 </r>
       <r>   46.8491    0.0000 </r>
       <r>   46.8499    0.0000 </r>
       <r>   49.4567    0.0000 </r>
       <r>   49.4572    0.0000 </r>
       <r>   50.9180    0.0000 </r>
       <r>   50.9187    0.0000 </r>
       <r>   51.1811    0.0000 </r>
       <r>   51.1821    0.0000 </r>
       <r>   51.7040    0.0000 </r>
       <r>   51.7044    0.0000 </r>
       <r>   51.7598    0.0000 </r>
       <r>   51.7603    0.0000 </r>
       <r>   52.0269    0.0000 </r>
       <r>   52.0275    0.0000 </r>
       <r>   52.3416    0.0000 </r>
       <r>   52.3422    0.0000 </r>
      </set>
      <set comment="kpoint 4">
       <r>  -30.5286    1.0000 </r>
       <r>  -30.5285    1.0000 </r>
       <r>  -30.5162    1.0000 </r>
       <r>  -30.5159    1.0000 </r>
       <r>  -23.8571    1.0000 </r>
       <r>  -23.8564    1.0000 </r>
       <r>  -23.8528    1.0000 </r>
       <r>  -23.8517    1.0000 </r>
       <r>  -23.8499    1.0000 </r>
       <r>  -23.8497    1.0000 </r>
       <r>  -20.1523    1.0000 </r>
       <r>  -20.1516    1.0000 </r>
       <r>   -7.3338    1.0000 </r>
       <r>   -7.3329    1.0000 </r>
       <r>    0.6746    1.0000 </r>
       <r>    0.6781    1.0000 </r>
       <r>    3.3242    1.0000 </r>
       <r>    3.3283    1.0000 </r>
       <r>    6.1550    0.0000 </r>
       <r>    6.1554    0.0000 </r>
       <r>   10.2494    0.0000 </r>
       <r>   10.2503    0.0000 </r>
       <r>   10.4656    0.0000 </r>
       <r>   10.4663    0.0000 </r>
       <r>   10.6500    0.0000 </r>
       <r>   10.6504    0.0000 </r>
       <r>   12.0161    0.0000 </r>
       <r>   12.0166    0.0000 </r>
       <r>   14.6068    0.0000 </r>
       <r>   14.6068    0.0000 </r>
       <r>   14.7008    0.0000 </r>
       <r>   14.7020    0.0000 </r>
       <r>   15.9955    0.0000 </r>
       <r>   15.9968    0.0000 </r>
       <r>   16.9873    0.0000 </r>
       <r>   16.9874    0.0000 </r>
       <r>   17.1571    0.0000 </r>
       <r>   17.1595    0.0000 </r>
       <r>   18.4397    0.0000 </r>
       <r>   18.4420    0.0000 </r>
       <r>   18.9488    0.0000 </r>
       <r>   18.9520    0.0000 </r>
       <r>   19.0002    0.0000 </r>
       <r>   19.0021    0.0000 </r>
       <r>   20.5997    0.0000 </r>
       <r>   20.6002    0.0000 </r>
       <r>   23.1508    0.0000 </r>
       <r>   23.1520    0.0000 </r>
       <r>   23.8355    0.0000 </r>
       <r>   23.8368    0.0000 </r>
       <r>   25.1837    0.0000 </r>
       <r>   25.1841    0.0000 </r>
       <r>   25.3406    0.0000 </r>
       <r>   25.3414    0.0000 </r>
       <r>   25.3914    0.0000 </r>
       <r>   25.3923    0.0000 </r>
       <r>   26.8810    0.0000 </r>
       <r>   26.8812    0.0000 </r>
       <r>   27.1447    0.0000 </r>
       <r>   27.1458    0.0000 </r>
       <r>   28.2313    0.0000 </r>
       <r>   28.2319    0.0000 </r>
       <r>   29.3345    0.0000 </r>
       <r>   29.3355    0.0000 </r>
       <r>   30.6889    0.0000 </r>
       <r>   30.6891    0.0000 </r>
       <r>   30.6995    0.0000 </r>
       <r>   30.7015    0.0000 </r>
       <r>   31.5489    0.0000 </r>
       <r>   31.5513    0.0000 </r>
       <r>   32.2766    0.0000 </r>
       <r>   32.2770    0.0000 </r>
       <r>   32.6492    0.0000 </r>
       <r>   32.6497    0.0000 </r>
       <r>   32.9037    0.0000 </r>
       <r>   32.9051    0.0000 </r>
       <r>   33.7807    0.0000 </r>
       <r>   33.7826    0.0000 </r>
       <r>   33.8720    0.0000 </r>
       <r>   33.8744    0.0000 </r>
       <r>   35.6888    0.0000 </r>
       <r>   35.6893    0.0000 </r>
       <r>   36.4976    0.0000 </r>
       <r>   36.4990    0.0000 </r>
       <r>   39.3503    0.0000 </r>
       <r>   39.3513    0.0000 </r>
       <r>   39.4787    0.0000 </r>
       <r>   39.4811    0.0000 </r>
       <r>   39.5734    0.0000 </r>
       <r>   39.5739    0.0000 </r>
       <r>   40.0383    0.0000 </r>
       <r>   40.0391    0.0000 </r>
       <r>   40.3513    0.0000 </r>
       <r>   40.3522    0.0000 </r>
       <r>   41.7313    0.0000 </r>
       <r>   41.7321    0.0000 </r>
       <r>   41.9600    0.0000 </r>
       <r>   41.9604    0.0000 </r>
       <r>   44.6498    0.0000 </r>
       <r>   44.6502    0.0000 </r>
       <r>   45.8735    0.0000 </r>
       <r>   45.8742    0.0000 </r>
       <r>   46.0269    0.0000 </r>
       <r>   46.0279    0.0000 </r>
       <r>   46.2208    0.0000 </r>
       <r>   46.2215    0.0000 </r>
       <r>   46.3422    0.0000 </r>
       <r>   46.3426    0.0000 </r>
       <r>   47.4926    0.0000 </r>
       <r>   47.4933    0.0000 </r>
       <r>   49.1918    0.0000 </r>
       <r>   49.1927    0.0000 </r>
       <r>   49.7894    0.0000 </r>
       <r>   49.7901    0.0000 </r>
       <r>   49.9716    0.0000 </r>
       <r>   49.9727    0.0000 </r>
       <r>   50.6978    0.0000 </r>
       <r>   50.6994    0.0000 </r>
       <r>   51.0441    0.0000 </r>
       <r>   51.0447    0.0000 </r>
       <r>   51.2360    0.0000 </r>
       <r>   51.2361    0.0000 </r>
       <r>   52.3673    0.0000 </r>
       <r>   52.3689    0.0000 </r>
       <r>   52.4602    0.0000 </r>
       <r>   52.4612    0.0000 </r>
       <r>   52.5994    0.0000 </r>
       <r>   52.6011    0.0000 </r>
      </set>
      <set comment="kpoint 5">
       <r>  -30.5111    1.0000 </r>
       <r>  -30.5110    1.0000 </r>
       <r>  -30.5050    1.0000 </r>
       <r>  -30.5048    1.0000 </r>
       <r>  -23.8464    1.0000 </r>
       <r>  -23.8458    1.0000 </r>
       <r>  -23.8441    1.0000 </r>
       <r>  -23.8440    1.0000 </r>
       <r>  -23.8431    1.0000 </r>
       <r>  -23.8420    1.0000 </r>
       <r>  -20.1797    1.0000 </r>
       <r>  -20.1789    1.0000 </r>
       <r>   -7.2438    1.0000 </r>
       <r>   -7.2428    1.0000 </r>
       <r>    1.0519    1.0000 </r>
       <r>    1.0553    1.0000 </r>
       <r>    3.4497    1.0000 </r>
       <r>    3.4539    1.0000 </r>
       <r>    6.1501    0.0000 </r>
       <r>    6.1503    0.0000 </r>
       <r>   10.3304    0.0000 </r>
       <r>   10.3313    0.0000 </r>
       <r>   10.5382    0.0000 </r>
       <r>   10.5389    0.0000 </r>
       <r>   10.9681    0.0000 </r>
       <r>   10.9685    0.0000 </r>
       <r>   11.2194    0.0000 </r>
       <r>   11.2196    0.0000 </r>
       <r>   13.2285    0.0000 </r>
       <r>   13.2290    0.0000 </r>
       <r>   13.4975    0.0000 </r>
       <r>   13.4989    0.0000 </r>
       <r>   16.5638    0.0000 </r>
       <r>   16.5657    0.0000 </r>
       <r>   17.6070    0.0000 </r>
       <r>   17.6088    0.0000 </r>
       <r>   17.8707    0.0000 </r>
       <r>   17.8737    0.0000 </r>
       <r>   18.2184    0.0000 </r>
       <r>   18.2200    0.0000 </r>
       <r>   18.6523    0.0000 </r>
       <r>   18.6543    0.0000 </r>
       <r>   18.9388    0.0000 </r>
       <r>   18.9410    0.0000 </r>
       <r>   20.5310    0.0000 </r>
       <r>   20.5315    0.0000 </r>
       <r>   21.0465    0.0000 </r>
       <r>   21.0467    0.0000 </r>
       <r>   23.8434    0.0000 </r>
       <r>   23.8437    0.0000 </r>
       <r>   25.1010    0.0000 </r>
       <r>   25.1026    0.0000 </r>
       <r>   25.1917    0.0000 </r>
       <r>   25.1934    0.0000 </r>
       <r>   26.2571    0.0000 </r>
       <r>   26.2582    0.0000 </r>
       <r>   26.9514    0.0000 </r>
       <r>   26.9517    0.0000 </r>
       <r>   27.4923    0.0000 </r>
       <r>   27.4931    0.0000 </r>
       <r>   29.4713    0.0000 </r>
       <r>   29.4714    0.0000 </r>
       <r>   30.8526    0.0000 </r>
       <r>   30.8551    0.0000 </r>
       <r>   31.2873    0.0000 </r>
       <r>   31.2875    0.0000 </r>
       <r>   31.7314    0.0000 </r>
       <r>   31.7323    0.0000 </r>
       <r>   31.8921    0.0000 </r>
       <r>   31.8938    0.0000 </r>
       <r>   31.9854    0.0000 </r>
       <r>   31.9860    0.0000 </r>
       <r>   33.5328    0.0000 </r>
       <r>   33.5341    0.0000 </r>
       <r>   33.6795    0.0000 </r>
       <r>   33.6801    0.0000 </r>
       <r>   34.7437    0.0000 </r>
       <r>   34.7451    0.0000 </r>
       <r>   35.5140    0.0000 </r>
       <r>   35.5163    0.0000 </r>
       <r>   35.8397    0.0000 </r>
       <r>   35.8403    0.0000 </r>
       <r>   36.2875    0.0000 </r>
       <r>   36.2890    0.0000 </r>
       <r>   39.1500    0.0000 </r>
       <r>   39.1518    0.0000 </r>
       <r>   39.1835    0.0000 </r>
       <r>   39.1843    0.0000 </r>
       <r>   39.8994    0.0000 </r>
       <r>   39.8996    0.0000 </r>
       <r>   40.4688    0.0000 </r>
       <r>   40.4693    0.0000 </r>
       <r>   40.6909    0.0000 </r>
       <r>   40.6919    0.0000 </r>
       <r>   41.8738    0.0000 </r>
       <r>   41.8743    0.0000 </r>
       <r>   42.6281    0.0000 </r>
       <r>   42.6282    0.0000 </r>
       <r>   42.8692    0.0000 </r>
       <r>   42.8704    0.0000 </r>
       <r>   43.6594    0.0000 </r>
       <r>   43.6607    0.0000 </r>
       <r>   44.4933    0.0000 </r>
       <r>   44.4935    0.0000 </r>
       <r>   44.7240    0.0000 </r>
       <r>   44.7246    0.0000 </r>
       <r>   45.7594    0.0000 </r>
       <r>   45.7596    0.0000 </r>
       <r>   46.2280    0.0000 </r>
       <r>   46.2293    0.0000 </r>
       <r>   46.2955    0.0000 </r>
       <r>   46.2968    0.0000 </r>
       <r>   46.8491    0.0000 </r>
       <r>   46.8499    0.0000 </r>
       <r>   49.4567    0.0000 </r>
       <r>   49.4572    0.0000 </r>
       <r>   50.9180    0.0000 </r>
       <r>   50.9187    0.0000 </r>
       <r>   51.1811    0.0000 </r>
       <r>   51.1821    0.0000 </r>
       <r>   51.7040    0.0000 </r>
       <r>   51.7044    0.0000 </r>
       <r>   51.7598    0.0000 </r>
       <r>   51.7603    0.0000 </r>
       <r>   52.0269    0.0000 </r>
       <r>   52.0275    0.0000 </r>
       <r>   52.3416    0.0000 </r>
       <r>   52.3422    0.0000 </r>
      </set>
      <set comment="kpoint 6">
       <r>  -30.5146    1.0000 </r>
       <r>  -30.5143    1.0000 </r>
       <r>  -30.5054    1.0000 </r>
       <r>  -30.5052    1.0000 </r>
       <r>  -23.8530    1.0000 </r>
       <r>  -23.8530    1.0000 </r>
       <r>  -23.8447    1.0000 </r>
       <r>  -23.8446    1.0000 </r>
       <r>  -23.8442    1.0000 </r>
       <r>  -23.8435    1.0000 </r>
       <r>  -20.2336    1.0000 </r>
       <r>  -20.2329    1.0000 </r>
       <r>   -7.0648    1.0000 </r>
       <r>   -7.0637    1.0000 </r>
       <r>    2.1390    1.0000 </r>
       <r>    2.1421    1.0000 </r>
       <r>    3.7260    1.0000 </r>
       <r>    3.7305    1.0000 </r>
       <r>    5.4561    0.0000 </r>
       <r>    5.4575    0.0000 </r>
       <r>    9.7514    0.0000 </r>
       <r>    9.7526    0.0000 </r>
       <r>   10.9798    0.0000 </r>
       <r>   10.9804    0.0000 </r>
       <r>   11.3022    0.0000 </r>
       <r>   11.3024    0.0000 </r>
       <r>   12.0990    0.0000 </r>
       <r>   12.0996    0.0000 </r>
       <r>   12.4325    0.0000 </r>
       <r>   12.4342    0.0000 </r>
       <r>   12.6029    0.0000 </r>
       <r>   12.6051    0.0000 </r>
       <r>   13.7017    0.0000 </r>
       <r>   13.7035    0.0000 </r>
       <r>   15.7975    0.0000 </r>
       <r>   15.7989    0.0000 </r>
       <r>   15.9491    0.0000 </r>
       <r>   15.9518    0.0000 </r>
       <r>   17.9470    0.0000 </r>
       <r>   17.9471    0.0000 </r>
       <r>   19.8163    0.0000 </r>
       <r>   19.8181    0.0000 </r>
       <r>   19.9514    0.0000 </r>
       <r>   19.9535    0.0000 </r>
       <r>   20.3790    0.0000 </r>
       <r>   20.3794    0.0000 </r>
       <r>   21.6523    0.0000 </r>
       <r>   21.6526    0.0000 </r>
       <r>   24.8939    0.0000 </r>
       <r>   24.8950    0.0000 </r>
       <r>   25.5278    0.0000 </r>
       <r>   25.5301    0.0000 </r>
       <r>   25.8418    0.0000 </r>
       <r>   25.8434    0.0000 </r>
       <r>   27.0281    0.0000 </r>
       <r>   27.0296    0.0000 </r>
       <r>   27.6854    0.0000 </r>
       <r>   27.6857    0.0000 </r>
       <r>   28.5508    0.0000 </r>
       <r>   28.5516    0.0000 </r>
       <r>   30.0331    0.0000 </r>
       <r>   30.0355    0.0000 </r>
       <r>   30.1212    0.0000 </r>
       <r>   30.1223    0.0000 </r>
       <r>   30.7280    0.0000 </r>
       <r>   30.7291    0.0000 </r>
       <r>   30.8154    0.0000 </r>
       <r>   30.8158    0.0000 </r>
       <r>   32.7404    0.0000 </r>
       <r>   32.7423    0.0000 </r>
       <r>   35.1347    0.0000 </r>
       <r>   35.1353    0.0000 </r>
       <r>   35.2999    0.0000 </r>
       <r>   35.3011    0.0000 </r>
       <r>   36.3529    0.0000 </r>
       <r>   36.3542    0.0000 </r>
       <r>   36.3562    0.0000 </r>
       <r>   36.3564    0.0000 </r>
       <r>   36.7338    0.0000 </r>
       <r>   36.7346    0.0000 </r>
       <r>   38.1376    0.0000 </r>
       <r>   38.1382    0.0000 </r>
       <r>   38.9429    0.0000 </r>
       <r>   38.9458    0.0000 </r>
       <r>   39.1541    0.0000 </r>
       <r>   39.1548    0.0000 </r>
       <r>   39.3315    0.0000 </r>
       <r>   39.3318    0.0000 </r>
       <r>   39.3399    0.0000 </r>
       <r>   39.3405    0.0000 </r>
       <r>   40.2248    0.0000 </r>
       <r>   40.2250    0.0000 </r>
       <r>   40.3618    0.0000 </r>
       <r>   40.3628    0.0000 </r>
       <r>   41.1849    0.0000 </r>
       <r>   41.1861    0.0000 </r>
       <r>   41.3813    0.0000 </r>
       <r>   41.3822    0.0000 </r>
       <r>   42.4886    0.0000 </r>
       <r>   42.4892    0.0000 </r>
       <r>   42.9925    0.0000 </r>
       <r>   42.9928    0.0000 </r>
       <r>   43.0870    0.0000 </r>
       <r>   43.0873    0.0000 </r>
       <r>   43.9115    0.0000 </r>
       <r>   43.9121    0.0000 </r>
       <r>   44.4352    0.0000 </r>
       <r>   44.4354    0.0000 </r>
       <r>   44.5548    0.0000 </r>
       <r>   44.5563    0.0000 </r>
       <r>   44.6880    0.0000 </r>
       <r>   44.6890    0.0000 </r>
       <r>   46.3035    0.0000 </r>
       <r>   46.3049    0.0000 </r>
       <r>   46.9070    0.0000 </r>
       <r>   46.9075    0.0000 </r>
       <r>   47.3040    0.0000 </r>
       <r>   47.3049    0.0000 </r>
       <r>   48.2104    0.0000 </r>
       <r>   48.2111    0.0000 </r>
       <r>   49.1166    0.0000 </r>
       <r>   49.1170    0.0000 </r>
       <r>   49.1477    0.0000 </r>
       <r>   49.1488    0.0000 </r>
       <r>   50.1197    0.0000 </r>
       <r>   50.1209    0.0000 </r>
       <r>   51.2627    0.0000 </r>
       <r>   51.2629    0.0000 </r>
      </set>
      <set comment="kpoint 7">
       <r>  -30.5145    1.0000 </r>
       <r>  -30.5145    1.0000 </r>
       <r>  -30.5054    1.0000 </r>
       <r>  -30.5052    1.0000 </r>
       <r>  -23.8531    1.0000 </r>
       <r>  -23.8530    1.0000 </r>
       <r>  -23.8446    1.0000 </r>
       <r>  -23.8444    1.0000 </r>
       <r>  -23.8441    1.0000 </r>
       <r>  -23.8438    1.0000 </r>
       <r>  -20.2336    1.0000 </r>
       <r>  -20.2329    1.0000 </r>
       <r>   -7.0648    1.0000 </r>
       <r>   -7.0637    1.0000 </r>
       <r>    2.1401    1.0000 </r>
       <r>    2.1410    1.0000 </r>
       <r>    3.7275    1.0000 </r>
       <r>    3.7290    1.0000 </r>
       <r>    5.4566    0.0000 </r>
       <r>    5.4570    0.0000 </r>
       <r>    9.7518    0.0000 </r>
       <r>    9.7521    0.0000 </r>
       <r>   10.9801    0.0000 </r>
       <r>   10.9801    0.0000 </r>
       <r>   11.3021    0.0000 </r>
       <r>   11.3025    0.0000 </r>
       <r>   12.0988    0.0000 </r>
       <r>   12.0999    0.0000 </r>
       <r>   12.4325    0.0000 </r>
       <r>   12.4342    0.0000 </r>
       <r>   12.6037    0.0000 </r>
       <r>   12.6043    0.0000 </r>
       <r>   13.7024    0.0000 </r>
       <r>   13.7028    0.0000 </r>
       <r>   15.7970    0.0000 </r>
       <r>   15.7994    0.0000 </r>
       <r>   15.9501    0.0000 </r>
       <r>   15.9509    0.0000 </r>
       <r>   17.9468    0.0000 </r>
       <r>   17.9473    0.0000 </r>
       <r>   19.8168    0.0000 </r>
       <r>   19.8177    0.0000 </r>
       <r>   19.9522    0.0000 </r>
       <r>   19.9528    0.0000 </r>
       <r>   20.3784    0.0000 </r>
       <r>   20.3800    0.0000 </r>
       <r>   21.6522    0.0000 </r>
       <r>   21.6527    0.0000 </r>
       <r>   24.8941    0.0000 </r>
       <r>   24.8947    0.0000 </r>
       <r>   25.5287    0.0000 </r>
       <r>   25.5292    0.0000 </r>
       <r>   25.8423    0.0000 </r>
       <r>   25.8428    0.0000 </r>
       <r>   27.0281    0.0000 </r>
       <r>   27.0296    0.0000 </r>
       <r>   27.6854    0.0000 </r>
       <r>   27.6856    0.0000 </r>
       <r>   28.5510    0.0000 </r>
       <r>   28.5514    0.0000 </r>
       <r>   30.0339    0.0000 </r>
       <r>   30.0347    0.0000 </r>
       <r>   30.1210    0.0000 </r>
       <r>   30.1225    0.0000 </r>
       <r>   30.7284    0.0000 </r>
       <r>   30.7287    0.0000 </r>
       <r>   30.8151    0.0000 </r>
       <r>   30.8161    0.0000 </r>
       <r>   32.7410    0.0000 </r>
       <r>   32.7417    0.0000 </r>
       <r>   35.1343    0.0000 </r>
       <r>   35.1357    0.0000 </r>
       <r>   35.3002    0.0000 </r>
       <r>   35.3008    0.0000 </r>
       <r>   36.3533    0.0000 </r>
       <r>   36.3537    0.0000 </r>
       <r>   36.3563    0.0000 </r>
       <r>   36.3565    0.0000 </r>
       <r>   36.7340    0.0000 </r>
       <r>   36.7344    0.0000 </r>
       <r>   38.1377    0.0000 </r>
       <r>   38.1382    0.0000 </r>
       <r>   38.9440    0.0000 </r>
       <r>   38.9447    0.0000 </r>
       <r>   39.1538    0.0000 </r>
       <r>   39.1551    0.0000 </r>
       <r>   39.3314    0.0000 </r>
       <r>   39.3318    0.0000 </r>
       <r>   39.3401    0.0000 </r>
       <r>   39.3404    0.0000 </r>
       <r>   40.2246    0.0000 </r>
       <r>   40.2252    0.0000 </r>
       <r>   40.3622    0.0000 </r>
       <r>   40.3624    0.0000 </r>
       <r>   41.1853    0.0000 </r>
       <r>   41.1857    0.0000 </r>
       <r>   41.3813    0.0000 </r>
       <r>   41.3822    0.0000 </r>
       <r>   42.4887    0.0000 </r>
       <r>   42.4890    0.0000 </r>
       <r>   42.9922    0.0000 </r>
       <r>   42.9932    0.0000 </r>
       <r>   43.0866    0.0000 </r>
       <r>   43.0876    0.0000 </r>
       <r>   43.9115    0.0000 </r>
       <r>   43.9122    0.0000 </r>
       <r>   44.4349    0.0000 </r>
       <r>   44.4357    0.0000 </r>
       <r>   44.5554    0.0000 </r>
       <r>   44.5558    0.0000 </r>
       <r>   44.6879    0.0000 </r>
       <r>   44.6891    0.0000 </r>
       <r>   46.3040    0.0000 </r>
       <r>   46.3043    0.0000 </r>
       <r>   46.9070    0.0000 </r>
       <r>   46.9075    0.0000 </r>
       <r>   47.3043    0.0000 </r>
       <r>   47.3046    0.0000 </r>
       <r>   48.2105    0.0000 </r>
       <r>   48.2110    0.0000 </r>
       <r>   49.1164    0.0000 </r>
       <r>   49.1171    0.0000 </r>
       <r>   49.1481    0.0000 </r>
       <r>   49.1484    0.0000 </r>
       <r>   50.1201    0.0000 </r>
       <r>   50.1205    0.0000 </r>
       <r>   51.2624    0.0000 </r>
       <r>   51.2632    0.0000 </r>
      </set>
      <set comment="kpoint 8">
       <r>  -30.5112    1.0000 </r>
       <r>  -30.5110    1.0000 </r>
       <r>  -30.5058    1.0000 </r>
       <r>  -30.5056    1.0000 </r>
       <r>  -23.8494    1.0000 </r>
       <r>  -23.8487    1.0000 </r>
       <r>  -23.8457    1.0000 </r>
       <r>  -23.8449    1.0000 </r>
       <r>  -23.8437    1.0000 </r>
       <r>  -23.8432    1.0000 </r>
       <r>  -20.2247    1.0000 </r>
       <r>  -20.2239    1.0000 </r>
       <r>   -7.0921    1.0000 </r>
       <r>   -7.0911    1.0000 </r>
       <r>    2.0271    1.0000 </r>
       <r>    2.0301    1.0000 </r>
       <r>    3.3734    1.0000 </r>
       <r>    3.3778    1.0000 </r>
       <r>    5.9825    0.0000 </r>
       <r>    5.9838    0.0000 </r>
       <r>    9.1591    0.0000 </r>
       <r>    9.1600    0.0000 </r>
       <r>   10.5413    0.0000 </r>
       <r>   10.5423    0.0000 </r>
       <r>   11.3143    0.0000 </r>
       <r>   11.3156    0.0000 </r>
       <r>   12.0069    0.0000 </r>
       <r>   12.0081    0.0000 </r>
       <r>   13.5162    0.0000 </r>
       <r>   13.5171    0.0000 </r>
       <r>   14.0771    0.0000 </r>
       <r>   14.0793    0.0000 </r>
       <r>   14.1578    0.0000 </r>
       <r>   14.1591    0.0000 </r>
       <r>   14.4702    0.0000 </r>
       <r>   14.4722    0.0000 </r>
       <r>   15.6327    0.0000 </r>
       <r>   15.6347    0.0000 </r>
       <r>   18.8271    0.0000 </r>
       <r>   18.8278    0.0000 </r>
       <r>   19.6675    0.0000 </r>
       <r>   19.6690    0.0000 </r>
       <r>   20.1121    0.0000 </r>
       <r>   20.1130    0.0000 </r>
       <r>   20.2453    0.0000 </r>
       <r>   20.2458    0.0000 </r>
       <r>   21.3451    0.0000 </r>
       <r>   21.3460    0.0000 </r>
       <r>   24.6651    0.0000 </r>
       <r>   24.6670    0.0000 </r>
       <r>   25.6361    0.0000 </r>
       <r>   25.6368    0.0000 </r>
       <r>   25.6740    0.0000 </r>
       <r>   25.6762    0.0000 </r>
       <r>   26.4339    0.0000 </r>
       <r>   26.4354    0.0000 </r>
       <r>   27.0025    0.0000 </r>
       <r>   27.0030    0.0000 </r>
       <r>   27.8373    0.0000 </r>
       <r>   27.8385    0.0000 </r>
       <r>   29.7412    0.0000 </r>
       <r>   29.7425    0.0000 </r>
       <r>   30.3699    0.0000 </r>
       <r>   30.3708    0.0000 </r>
       <r>   31.1790    0.0000 </r>
       <r>   31.1797    0.0000 </r>
       <r>   31.2426    0.0000 </r>
       <r>   31.2432    0.0000 </r>
       <r>   34.3271    0.0000 </r>
       <r>   34.3277    0.0000 </r>
       <r>   34.8527    0.0000 </r>
       <r>   34.8531    0.0000 </r>
       <r>   35.2704    0.0000 </r>
       <r>   35.2719    0.0000 </r>
       <r>   35.3125    0.0000 </r>
       <r>   35.3145    0.0000 </r>
       <r>   36.1639    0.0000 </r>
       <r>   36.1645    0.0000 </r>
       <r>   36.6866    0.0000 </r>
       <r>   36.6880    0.0000 </r>
       <r>   37.6606    0.0000 </r>
       <r>   37.6636    0.0000 </r>
       <r>   37.8215    0.0000 </r>
       <r>   37.8228    0.0000 </r>
       <r>   38.9350    0.0000 </r>
       <r>   38.9356    0.0000 </r>
       <r>   39.1496    0.0000 </r>
       <r>   39.1505    0.0000 </r>
       <r>   40.3392    0.0000 </r>
       <r>   40.3404    0.0000 </r>
       <r>   40.8448    0.0000 </r>
       <r>   40.8457    0.0000 </r>
       <r>   40.9040    0.0000 </r>
       <r>   40.9051    0.0000 </r>
       <r>   41.5739    0.0000 </r>
       <r>   41.5747    0.0000 </r>
       <r>   41.8131    0.0000 </r>
       <r>   41.8141    0.0000 </r>
       <r>   41.9078    0.0000 </r>
       <r>   41.9085    0.0000 </r>
       <r>   42.1769    0.0000 </r>
       <r>   42.1771    0.0000 </r>
       <r>   42.8457    0.0000 </r>
       <r>   42.8464    0.0000 </r>
       <r>   43.9588    0.0000 </r>
       <r>   43.9597    0.0000 </r>
       <r>   43.9683    0.0000 </r>
       <r>   43.9690    0.0000 </r>
       <r>   44.3998    0.0000 </r>
       <r>   44.4004    0.0000 </r>
       <r>   44.6108    0.0000 </r>
       <r>   44.6121    0.0000 </r>
       <r>   45.2085    0.0000 </r>
       <r>   45.2091    0.0000 </r>
       <r>   47.1510    0.0000 </r>
       <r>   47.1527    0.0000 </r>
       <r>   47.9444    0.0000 </r>
       <r>   47.9450    0.0000 </r>
       <r>   48.2909    0.0000 </r>
       <r>   48.2924    0.0000 </r>
       <r>   49.9137    0.0000 </r>
       <r>   49.9144    0.0000 </r>
       <r>   51.1355    0.0000 </r>
       <r>   51.1363    0.0000 </r>
       <r>   51.1509    0.0000 </r>
       <r>   51.1521    0.0000 </r>
       <r>   51.2167    0.0000 </r>
       <r>   51.2182    0.0000 </r>
      </set>
      <set comment="kpoint 9">
       <r>  -30.5065    1.0000 </r>
       <r>  -30.5063    1.0000 </r>
       <r>  -30.5044    1.0000 </r>
       <r>  -30.5042    1.0000 </r>
       <r>  -23.8463    1.0000 </r>
       <r>  -23.8459    1.0000 </r>
       <r>  -23.8427    1.0000 </r>
       <r>  -23.8421    1.0000 </r>
       <r>  -23.8394    1.0000 </r>
       <r>  -23.8387    1.0000 </r>
       <r>  -20.1799    1.0000 </r>
       <r>  -20.1792    1.0000 </r>
       <r>   -7.2357    1.0000 </r>
       <r>   -7.2347    1.0000 </r>
       <r>    1.2271    1.0000 </r>
       <r>    1.2302    1.0000 </r>
       <r>    2.9568    1.0000 </r>
       <r>    2.9606    1.0000 </r>
       <r>    6.8619    0.0000 </r>
       <r>    6.8625    0.0000 </r>
       <r>    9.0691    0.0000 </r>
       <r>    9.0706    0.0000 </r>
       <r>    9.5907    0.0000 </r>
       <r>    9.5919    0.0000 </r>
       <r>   11.5764    0.0000 </r>
       <r>   11.5771    0.0000 </r>
       <r>   12.8437    0.0000 </r>
       <r>   12.8449    0.0000 </r>
       <r>   13.5023    0.0000 </r>
       <r>   13.5026    0.0000 </r>
       <r>   14.2744    0.0000 </r>
       <r>   14.2758    0.0000 </r>
       <r>   15.9525    0.0000 </r>
       <r>   15.9544    0.0000 </r>
       <r>   16.3992    0.0000 </r>
       <r>   16.4009    0.0000 </r>
       <r>   17.5406    0.0000 </r>
       <r>   17.5421    0.0000 </r>
       <r>   18.1743    0.0000 </r>
       <r>   18.1755    0.0000 </r>
       <r>   18.6284    0.0000 </r>
       <r>   18.6292    0.0000 </r>
       <r>   20.2196    0.0000 </r>
       <r>   20.2199    0.0000 </r>
       <r>   20.6453    0.0000 </r>
       <r>   20.6463    0.0000 </r>
       <r>   20.9147    0.0000 </r>
[...]
       <r>    30.9422     0.0000     0.0000 </r>
       <r>    31.2505     0.0000     0.0000 </r>
       <r>    31.5589     0.0000     0.0000 </r>
       <r>    31.8672     0.0000     0.0000 </r>
       <r>    32.1755     0.0000     0.0000 </r>
       <r>    32.4839     0.0000     0.0000 </r>
       <r>    32.7922     0.0000     0.0000 </r>
       <r>    33.1005     0.0000     0.0000 </r>
       <r>    33.4089     0.0000     0.0000 </r>
       <r>    33.7172     0.0000     0.0000 </r>
       <r>    34.0256     0.0000     0.0000 </r>
       <r>    34.3339     0.0000     0.0000 </r>
       <r>    34.6422     0.0000     0.0000 </r>
       <r>    34.9506     0.0000     0.0000 </r>
       <r>    35.2589     0.0000     0.0000 </r>
       <r>    35.5672     0.0000     0.0000 </r>
       <r>    35.8756     0.0000     0.0000 </r>
       <r>    36.1839     0.0000     0.0000 </r>
       <r>    36.4922     0.0000     0.0000 </r>
       <r>    36.8006     0.0000     0.0000 </r>
       <r>    37.1089     0.0000     0.0000 </r>
       <r>    37.4172     0.0000     0.0000 </r>
       <r>    37.7256     0.0000     0.0000 </r>
       <r>    38.0339     0.0000     0.0000 </r>
       <r>    38.3422     0.0000     0.0000 </r>
       <r>    38.6506     0.0000     0.0000 </r>
       <r>    38.9589     0.0000     0.0000 </r>
       <r>    39.2673     0.0000     0.0000 </r>
       <r>    39.5756     0.0000     0.0000 </r>
       <r>    39.8839     0.0000     0.0000 </r>
       <r>    40.1923     0.0000     0.0000 </r>
       <r>    40.5006     0.0000     0.0000 </r>
       <r>    40.8089     0.0000     0.0000 </r>
       <r>    41.1173     0.0000     0.0000 </r>
       <r>    41.4256     0.0000     0.0000 </r>
       <r>    41.7339     0.0000     0.0000 </r>
       <r>    42.0423     0.0000     0.0000 </r>
       <r>    42.3506     0.0000     0.0000 </r>
       <r>    42.6589     0.0000     0.0000 </r>
       <r>    42.9673     0.0000     0.0000 </r>
       <r>    43.2756     0.0000     0.0000 </r>
       <r>    43.5839     0.0000     0.0000 </r>
       <r>    43.8923     0.0000     0.0000 </r>
       <r>    44.2006     0.0000     0.0000 </r>
       <r>    44.5089     0.0000     0.0000 </r>
       <r>    44.8173     0.0000     0.0000 </r>
       <r>    45.1256     0.0000     0.0000 </r>
       <r>    45.4340     0.0000     0.0000 </r>
       <r>    45.7423     0.0000     0.0000 </r>
       <r>    46.0506     0.0000     0.0000 </r>
       <r>    46.3590     0.0000     0.0000 </r>
       <r>    46.6673     0.0000     0.0000 </r>
       <r>    46.9756     0.0000     0.0000 </r>
       <r>    47.2840     0.0000     0.0000 </r>
       <r>    47.5923     0.0000     0.0000 </r>
       <r>    47.9006     0.0000     0.0000 </r>
       <r>    48.2090     0.0000     0.0000 </r>
       <r>    48.5173     0.0000     0.0000 </r>
       <r>    48.8256     0.0000     0.0000 </r>
       <r>    49.1340     0.0000     0.0000 </r>
       <r>    49.4423     0.0000     0.0000 </r>
       <r>    49.7506     0.0000     0.0000 </r>
       <r>    50.0590     0.0000     0.0000 </r>
       <r>    50.3673     0.0000     0.0000 </r>
       <r>    50.6757     0.0000     0.0000 </r>
       <r>    50.9840     0.0000     0.0000 </r>
       <r>    51.2923     0.0000     0.0000 </r>
       <r>    51.6007     0.0000     0.0000 </r>
       <r>    51.9090     0.0000     0.0000 </r>
       <r>    52.2173     0.0000     0.0000 </r>
       <r>    52.5257     0.0000     0.0000 </r>
       <r>    52.8340     0.0000     0.0000 </r>
       <r>    53.1423     0.0000     0.0000 </r>
       <r>    53.4507     0.0000     0.0000 </r>
       <r>    53.7590     0.0000     0.0000 </r>
       <r>    54.0673     0.0000     0.0000 </r>
       <r>    54.3757     0.0000     0.0000 </r>
       <r>    54.6840     0.0000     0.0000 </r>
       <r>    54.9923     0.0000     0.0000 </r>
       <r>    55.3007     0.0000     0.0000 </r>
       <r>    55.6090     0.0000     0.0000 </r>
       <r>    55.9173     0.0000     0.0000 </r>
       <r>    56.2257     0.0000     0.0000 </r>
       <r>    56.5340     0.0000     0.0000 </r>
       <r>    56.8424     0.0000     0.0000 </r>
       <r>    57.1507     0.0000     0.0000 </r>
       <r>    57.4590     0.0000     0.0000 </r>
       <r>    57.7674     0.0000     0.0000 </r>
      </set>
      <set comment="spin 4">
       <r>   -34.7332     0.0000     0.0000 </r>
       <r>   -34.4248     0.0000     0.0000 </r>
       <r>   -34.1165     0.0000     0.0000 </r>
       <r>   -33.8082     0.0000     0.0000 </r>
       <r>   -33.4998     0.0000     0.0000 </r>
       <r>   -33.1915     0.0000     0.0000 </r>
       <r>   -32.8832     0.0000     0.0000 </r>
       <r>   -32.5748     0.0000     0.0000 </r>
       <r>   -32.2665     0.0000     0.0000 </r>
       <r>   -31.9582     0.0000     0.0000 </r>
       <r>   -31.6498     0.0000     0.0000 </r>
       <r>   -31.3415     0.0000     0.0000 </r>
       <r>   -31.0332     0.0000     0.0000 </r>
       <r>   -30.7248     0.0000     0.0000 </r>
       <r>   -30.4165     0.0000     0.0000 </r>
       <r>   -30.1082     0.0000     0.0000 </r>
       <r>   -29.7998     0.0000     0.0000 </r>
       <r>   -29.4915     0.0000     0.0000 </r>
       <r>   -29.1831     0.0000     0.0000 </r>
       <r>   -28.8748     0.0000     0.0000 </r>
       <r>   -28.5665     0.0000     0.0000 </r>
       <r>   -28.2581     0.0000     0.0000 </r>
       <r>   -27.9498     0.0000     0.0000 </r>
       <r>   -27.6415     0.0000     0.0000 </r>
       <r>   -27.3331     0.0000     0.0000 </r>
       <r>   -27.0248     0.0000     0.0000 </r>
       <r>   -26.7165     0.0000     0.0000 </r>
       <r>   -26.4081     0.0000     0.0000 </r>
       <r>   -26.0998     0.0000     0.0000 </r>
       <r>   -25.7915     0.0000     0.0000 </r>
       <r>   -25.4831     0.0000     0.0000 </r>
       <r>   -25.1748     0.0000     0.0000 </r>
       <r>   -24.8665     0.0000     0.0000 </r>
       <r>   -24.5581     0.0000     0.0000 </r>
       <r>   -24.2498     0.0000     0.0000 </r>
       <r>   -23.9415     0.0000     0.0000 </r>
       <r>   -23.6331     0.0000     0.0000 </r>
       <r>   -23.3248     0.0000     0.0000 </r>
       <r>   -23.0164     0.0000     0.0000 </r>
       <r>   -22.7081     0.0000     0.0000 </r>
       <r>   -22.3998     0.0000     0.0000 </r>
       <r>   -22.0914     0.0000     0.0000 </r>
       <r>   -21.7831     0.0000     0.0000 </r>
       <r>   -21.4748     0.0000     0.0000 </r>
       <r>   -21.1664     0.0000     0.0000 </r>
       <r>   -20.8581     0.0000     0.0000 </r>
       <r>   -20.5498     0.0000     0.0000 </r>
       <r>   -20.2414     0.0000     0.0000 </r>
       <r>   -19.9331     0.0000     0.0000 </r>
       <r>   -19.6248     0.0000     0.0000 </r>
       <r>   -19.3164     0.0000     0.0000 </r>
       <r>   -19.0081     0.0000     0.0000 </r>
       <r>   -18.6998     0.0000     0.0000 </r>
       <r>   -18.3914     0.0000     0.0000 </r>
       <r>   -18.0831     0.0000     0.0000 </r>
       <r>   -17.7747     0.0000     0.0000 </r>
       <r>   -17.4664     0.0000     0.0000 </r>
       <r>   -17.1581     0.0000     0.0000 </r>
       <r>   -16.8497     0.0000     0.0000 </r>
       <r>   -16.5414     0.0000     0.0000 </r>
       <r>   -16.2331     0.0000     0.0000 </r>
       <r>   -15.9247     0.0000     0.0000 </r>
       <r>   -15.6164     0.0000     0.0000 </r>
       <r>   -15.3081     0.0000     0.0000 </r>
       <r>   -14.9997     0.0000     0.0000 </r>
       <r>   -14.6914     0.0000     0.0000 </r>
       <r>   -14.3831     0.0000     0.0000 </r>
       <r>   -14.0747     0.0000     0.0000 </r>
       <r>   -13.7664     0.0000     0.0000 </r>
       <r>   -13.4581     0.0000     0.0000 </r>
       <r>   -13.1497     0.0000     0.0000 </r>
       <r>   -12.8414     0.0000     0.0000 </r>
       <r>   -12.5331     0.0000     0.0000 </r>
       <r>   -12.2247     0.0000     0.0000 </r>
       <r>   -11.9164     0.0000     0.0000 </r>
       <r>   -11.6080     0.0000     0.0000 </r>
       <r>   -11.2997     0.0000     0.0000 </r>
       <r>   -10.9914     0.0000     0.0000 </r>
       <r>   -10.6830     0.0000     0.0000 </r>
       <r>   -10.3747     0.0000     0.0000 </r>
       <r>   -10.0664     0.0000     0.0000 </r>
       <r>    -9.7580     0.0000     0.0000 </r>
       <r>    -9.4497     0.0000     0.0000 </r>
       <r>    -9.1414     0.0000     0.0000 </r>
       <r>    -8.8330     0.0000     0.0000 </r>
       <r>    -8.5247     0.0000     0.0000 </r>
       <r>    -8.2164     0.0000     0.0000 </r>
       <r>    -7.9080     0.0000     0.0000 </r>
       <r>    -7.5997     0.0000     0.0000 </r>
       <r>    -7.2914     0.0000     0.0000 </r>
       <r>    -6.9830     0.0000     0.0000 </r>
       <r>    -6.6747     0.0000     0.0000 </r>
       <r>    -6.3663     0.0000     0.0000 </r>
       <r>    -6.0580     0.0000     0.0000 </r>
       <r>    -5.7497     0.0000     0.0000 </r>
       <r>    -5.4413     0.0000     0.0000 </r>
       <r>    -5.1330     0.0000     0.0000 </r>
       <r>    -4.8247     0.0000     0.0000 </r>
       <r>    -4.5163     0.0000     0.0000 </r>
       <r>    -4.2080     0.0000     0.0000 </r>
       <r>    -3.8997     0.0000     0.0000 </r>
       <r>    -3.5913     0.0000     0.0000 </r>
       <r>    -3.2830     0.0000     0.0000 </r>
       <r>    -2.9747     0.0000     0.0000 </r>
       <r>    -2.6663     0.0000     0.0000 </r>
       <r>    -2.3580     0.0000     0.0000 </r>
       <r>    -2.0497     0.0000     0.0000 </r>
       <r>    -1.7413     0.0000     0.0000 </r>
       <r>    -1.4330     0.0000     0.0000 </r>
       <r>    -1.1247     0.0000     0.0000 </r>
       <r>    -0.8163     0.0000     0.0000 </r>
       <r>    -0.5080     0.0000     0.0000 </r>
       <r>    -0.1996     0.0000     0.0000 </r>
       <r>     0.1087     0.0000     0.0000 </r>
       <r>     0.4170     0.0000     0.0000 </r>
       <r>     0.7254     0.0000     0.0000 </r>
       <r>     1.0337     0.0000     0.0000 </r>
       <r>     1.3420     0.0000     0.0000 </r>
       <r>     1.6504     0.0000     0.0000 </r>
       <r>     1.9587     0.0000     0.0000 </r>
       <r>     2.2670     0.0000     0.0000 </r>
       <r>     2.5754     0.0000     0.0000 </r>
       <r>     2.8837     0.0000     0.0000 </r>
       <r>     3.1920     0.0000     0.0000 </r>
       <r>     3.5004     0.0000     0.0000 </r>
       <r>     3.8087     0.0000     0.0000 </r>
       <r>     4.1170     0.0000     0.0000 </r>
       <r>     4.4254     0.0000     0.0000 </r>
       <r>     4.7337     0.0000     0.0000 </r>
       <r>     5.0421     0.0000     0.0000 </r>
       <r>     5.3504     0.0000     0.0000 </r>
       <r>     5.6587     0.0000     0.0000 </r>
       <r>     5.9671     0.0000     0.0000 </r>
       <r>     6.2754     0.0000     0.0000 </r>
       <r>     6.5837     0.0000     0.0000 </r>
       <r>     6.8921     0.0000     0.0000 </r>
       <r>     7.2004     0.0000     0.0000 </r>
       <r>     7.5087     0.0000     0.0000 </r>
       <r>     7.8171     0.0000     0.0000 </r>
       <r>     8.1254     0.0000     0.0000 </r>
       <r>     8.4337     0.0000     0.0000 </r>
       <r>     8.7421     0.0000     0.0000 </r>
       <r>     9.0504     0.0000     0.0000 </r>
       <r>     9.3587     0.0000     0.0000 </r>
       <r>     9.6671     0.0000     0.0000 </r>
       <r>     9.9754     0.0000     0.0000 </r>
       <r>    10.2837     0.0000     0.0000 </r>
       <r>    10.5921     0.0000     0.0000 </r>
       <r>    10.9004     0.0000     0.0000 </r>
       <r>    11.2088     0.0000     0.0000 </r>
       <r>    11.5171     0.0000     0.0000 </r>
       <r>    11.8254     0.0000     0.0000 </r>
       <r>    12.1338     0.0000     0.0000 </r>
       <r>    12.4421     0.0000     0.0000 </r>
       <r>    12.7504     0.0000     0.0000 </r>
       <r>    13.0588     0.0000     0.0000 </r>
       <r>    13.3671     0.0000     0.0000 </r>
       <r>    13.6754     0.0000     0.0000 </r>
       <r>    13.9838     0.0000     0.0000 </r>
       <r>    14.2921     0.0000     0.0000 </r>
       <r>    14.6004     0.0000     0.0000 </r>
       <r>    14.9088     0.0000     0.0000 </r>
       <r>    15.2171     0.0000     0.0000 </r>
       <r>    15.5254     0.0000     0.0000 </r>
       <r>    15.8338     0.0000     0.0000 </r>
       <r>    16.1421     0.0000     0.0000 </r>
       <r>    16.4505     0.0000     0.0000 </r>
       <r>    16.7588     0.0000     0.0000 </r>
       <r>    17.0671     0.0000     0.0000 </r>
       <r>    17.3755     0.0000     0.0000 </r>
       <r>    17.6838     0.0000     0.0000 </r>
       <r>    17.9921     0.0000     0.0000 </r>
       <r>    18.3005     0.0000     0.0000 </r>
       <r>    18.6088     0.0000     0.0000 </r>
       <r>    18.9171     0.0000     0.0000 </r>
       <r>    19.2255     0.0000     0.0000 </r>
       <r>    19.5338     0.0000     0.0000 </r>
       <r>    19.8421     0.0000     0.0000 </r>
       <r>    20.1505     0.0000     0.0000 </r>
       <r>    20.4588     0.0000     0.0000 </r>
       <r>    20.7671     0.0000     0.0000 </r>
       <r>    21.0755     0.0000     0.0000 </r>
       <r>    21.3838     0.0000     0.0000 </r>
       <r>    21.6921     0.0000     0.0000 </r>
       <r>    22.0005     0.0000     0.0000 </r>
       <r>    22.3088     0.0000     0.0000 </r>
       <r>    22.6172     0.0000     0.0000 </r>
       <r>    22.9255     0.0000     0.0000 </r>
       <r>    23.2338     0.0000     0.0000 </r>
       <r>    23.5422     0.0000     0.0000 </r>
       <r>    23.8505     0.0000     0.0000 </r>
       <r>    24.1588     0.0000     0.0000 </r>
       <r>    24.4672     0.0000     0.0000 </r>
       <r>    24.7755     0.0000     0.0000 </r>
       <r>    25.0838     0.0000     0.0000 </r>
       <r>    25.3922     0.0000     0.0000 </r>
       <r>    25.7005     0.0000     0.0000 </r>
       <r>    26.0088     0.0000     0.0000 </r>
       <r>    26.3172     0.0000     0.0000 </r>
       <r>    26.6255     0.0000     0.0000 </r>
       <r>    26.9338     0.0000     0.0000 </r>
       <r>    27.2422     0.0000     0.0000 </r>
       <r>    27.5505     0.0000     0.0000 </r>
       <r>    27.8589     0.0000     0.0000 </r>
       <r>    28.1672     0.0000     0.0000 </r>
       <r>    28.4755     0.0000     0.0000 </r>
       <r>    28.7839     0.0000     0.0000 </r>
       <r>    29.0922     0.0000     0.0000 </r>
       <r>    29.4005     0.0000     0.0000 </r>
       <r>    29.7089     0.0000     0.0000 </r>
       <r>    30.0172     0.0000     0.0000 </r>
       <r>    30.3255     0.0000     0.0000 </r>
       <r>    30.6339     0.0000     0.0000 </r>
       <r>    30.9422     0.0000     0.0000 </r>
       <r>    31.2505     0.0000     0.0000 </r>
       <r>    31.5589     0.0000     0.0000 </r>
       <r>    31.8672     0.0000     0.0000 </r>
       <r>    32.1755     0.0000     0.0000 </r>
       <r>    32.4839     0.0000     0.0000 </r>
       <r>    32.7922     0.0000     0.0000 </r>
       <r>    33.1005     0.0000     0.0000 </r>
       <r>    33.4089     0.0000     0.0000 </r>
       <r>    33.7172     0.0000     0.0000 </r>
       <r>    34.0256     0.0000     0.0000 </r>
       <r>    34.3339     0.0000     0.0000 </r>
       <r>    34.6422     0.0000     0.0000 </r>
       <r>    34.9506     0.0000     0.0000 </r>
       <r>    35.2589     0.0000     0.0000 </r>
       <r>    35.5672     0.0000     0.0000 </r>
       <r>    35.8756     0.0000     0.0000 </r>
       <r>    36.1839     0.0000     0.0000 </r>
       <r>    36.4922     0.0000     0.0000 </r>
       <r>    36.8006     0.0000     0.0000 </r>
       <r>    37.1089     0.0000     0.0000 </r>
       <r>    37.4172     0.0000     0.0000 </r>
       <r>    37.7256     0.0000     0.0000 </r>
       <r>    38.0339     0.0000     0.0000 </r>
       <r>    38.3422     0.0000     0.0000 </r>
       <r>    38.6506     0.0000     0.0000 </r>
       <r>    38.9589     0.0000     0.0000 </r>
       <r>    39.2673     0.0000     0.0000 </r>
       <r>    39.5756     0.0000     0.0000 </r>
       <r>    39.8839     0.0000     0.0000 </r>
       <r>    40.1923     0.0000     0.0000 </r>
       <r>    40.5006     0.0000     0.0000 </r>
       <r>    40.8089     0.0000     0.0000 </r>
       <r>    41.1173     0.0000     0.0000 </r>
       <r>    41.4256     0.0000     0.0000 </r>
       <r>    41.7339     0.0000     0.0000 </r>
       <r>    42.0423     0.0000     0.0000 </r>
       <r>    42.3506     0.0000     0.0000 </r>
       <r>    42.6589     0.0000     0.0000 </r>
       <r>    42.9673     0.0000     0.0000 </r>
       <r>    43.2756     0.0000     0.0000 </r>
       <r>    43.5839     0.0000     0.0000 </r>
       <r>    43.8923     0.0000     0.0000 </r>
       <r>    44.2006     0.0000     0.0000 </r>
       <r>    44.5089     0.0000     0.0000 </r>
       <r>    44.8173     0.0000     0.0000 </r>
       <r>    45.1256     0.0000     0.0000 </r>
       <r>    45.4340     0.0000     0.0000 </r>
       <r>    45.7423     0.0000     0.0000 </r>
       <r>    46.0506     0.0000     0.0000 </r>
       <r>    46.3590     0.0000     0.0000 </r>
       <r>    46.6673     0.0000     0.0000 </r>
       <r>    46.9756     0.0000     0.0000 </r>
       <r>    47.2840     0.0000     0.0000 </r>
       <r>    47.5923     0.0000     0.0000 </r>
       <r>    47.9006     0.0000     0.0000 </r>
       <r>    48.2090     0.0000     0.0000 </r>
       <r>    48.5173     0.0000     0.0000 </r>
       <r>    48.8256     0.0000     0.0000 </r>
       <r>    49.1340     0.0000     0.0000 </r>
       <r>    49.4423     0.0000     0.0000 </r>
       <r>    49.7506     0.0000     0.0000 </r>
       <r>    50.0590     0.0000     0.0000 </r>
       <r>    50.3673     0.0000     0.0000 </r>
       <r>    50.6757     0.0000     0.0000 </r>
       <r>    50.9840     0.0000     0.0000 </r>
       <r>    51.2923     0.0000     0.0000 </r>
       <r>    51.6007     0.0000     0.0000 </r>
       <r>    51.9090     0.0000     0.0000 </r>
       <r>    52.2173     0.0000     0.0000 </r>
       <r>    52.5257     0.0000     0.0000 </r>
       <r>    52.8340     0.0000     0.0000 </r>
       <r>    53.1423     0.0000     0.0000 </r>
       <r>    53.4507     0.0000     0.0000 </r>
       <r>    53.7590     0.0000     0.0000 </r>
       <r>    54.0673     0.0000     0.0000 </r>
       <r>    54.3757     0.0000     0.0000 </r>
       <r>    54.6840     0.0000     0.0000 </r>
       <r>    54.9923     0.0000     0.0000 </r>
       <r>    55.3007     0.0000     0.0000 </r>
       <r>    55.6090     0.0000     0.0000 </r>
       <r>    55.9173     0.0000     0.0000 </r>
       <r>    56.2257     0.0000     0.0000 </r>
       <r>    56.5340     0.0000     0.0000 </r>
       <r>    56.8424     0.0000     0.0000 </r>
       <r>    57.1507     0.0000     0.0000 </r>
       <r>    57.4590     0.0000     0.0000 </r>
       <r>    57.7674     0.0000     0.0000 </r>
      </set>
     </set>
    </array>
   </total>
  </dos>
 </calculation>
 <structure name="finalpos" >
  <crystal>
   <varray name="basis" >
    <v>       4.35259381       0.00000000       0.00000000 </v>
    <v>       2.17629691       3.76945681      -0.00000000 </v>
    <v>       2.17629691       1.25648560       3.55387797 </v>
   </varray>
   <i name="volume">     58.30817157 </i>
   <varray name="rec_basis" >
    <v>       0.22974806      -0.13264511      -0.09379425 </v>
    <v>       0.00000000       0.26529021      -0.09379425 </v>
    <v>      -0.00000000       0.00000000       0.28138276 </v>
   </varray>
  </crystal>
  <varray name="positions" >
   <v>       0.00000000       0.00000000       0.00000000 </v>
  </varray>
  <varray name="velocities" >
   <v>       0.00000000       0.00000000       0.00000000 </v>
  </varray>
 </structure>
</modeling>
