<?xml version="1.0" encoding="ISO-8859-1"?>
<modeling>
 <generator>
  <i name="program" type="string">vasp </i>
  <i name="version" type="string">5.4.4.18Apr17-6-g9f103f2a35  </i>
  <i name="subversion" type="string">(build Jul 09 2018 16:43:14) complex            parallel </i>
  <i name="platform" type="string">LinuxIFC </i>
  <i name="date" type="string">2018 11 27 </i>
  <i name="time" type="string">21:25:31 </i>
 </generator>
 <incar>
  <i type="string" name="SYSTEM">   Og_FCC</i>
  <i type="string" name="PREC">accurate</i>
  <i type="string" name="ALGO">   EXACT</i>
  <i type="logical" name="ADDGRID"> T  </i>
  <i type="logical" name="LSORBIT"> T  </i>
  <i type="int" name="ISPIN">     1</i>
  <i type="int" name="MAXMIX">    50</i>
  <i type="int" name="NELM">    50</i>
  <i type="int" name="NELMDL">    -5</i>
  <i type="int" name="NELMIN">     2</i>
  <i type="int" name="IBRION">    -1</i>
  <i type="int" name="NFREE">     5</i>
  <i name="EDIFF">      0.00000001</i>
  <i name="EDIFFG">      0.00001000</i>
  <i type="int" name="NSW">     1</i>
  <i type="int" name="ISIF">     3</i>
  <i type="int" name="ISYM">     0</i>
  <i name="SYMPREC">      0.00000010</i>
  <i name="ENCUT">    300.00000000</i>
  <i type="int" name="NBANDS">   128</i>
  <i name="POTIM">      0.10000000</i>
  <i type="logical" name="LREAL"> F  </i>
  <i type="int" name="ISMEAR">     0</i>
  <i name="SIGMA">      0.00100000</i>
  <i type="int" name="NWRITE">     2</i>
  <i type="logical" name="LWAVE"> T  </i>
  <i type="logical" name="LCHARG"> F  </i>
  <i type="logical" name="LVTOT"> F  </i>
  <i type="logical" name="LOPTICS"> T  </i>
  <i type="logical" name="GGA_COMPAT"> F  </i>
  <v type="int" name="KPOINT_BSE">    -1     0     0     0</v>
  <i type="int" name="NELM">    50</i>
  <i type="string" name="GGA"> PE</i>
 </incar>
 <structure name="primitive_cell" >
  <crystal>
   <varray name="basis" >
    <v>       4.35728355       0.00000000       0.00000000 </v>
    <v>       2.17864177       3.77351824      -0.00000000 </v>
    <v>       2.17864177       1.25783941       3.55770712 </v>
   </varray>
   <i name="volume">     58.49684840 </i>
   <varray name="rec_basis" >
    <v>       0.22950079      -0.13250234      -0.09369330 </v>
    <v>       0.00000000       0.26500468      -0.09369330 </v>
    <v>      -0.00000000       0.00000000       0.28107991 </v>
   </varray>
  </crystal>
  <varray name="positions" >
   <v>       0.00000000       0.00000000       0.00000000 </v>
  </varray>
 </structure>
 <varray name="primitive_index" >
  <v type="int" >        1 </v>
 </varray>
 <kpoints>
  <generation param="Gamma">
   <v type="int" name="divisions">       6        6        6 </v>
   <v name="usershift">      0.00000000       0.00000000       0.00000000 </v>
   <v name="genvec1">      0.16666667       0.00000000       0.00000000 </v>
   <v name="genvec2">      0.00000000       0.16666667       0.00000000 </v>
   <v name="genvec3">      0.00000000      -0.00000000       0.16666667 </v>
   <v name="shift">      0.00000000       0.00000000       0.00000000 </v>
  </generation>
  <varray name="kpointlist" >
   <v>       0.00000000       0.00000000       0.00000000 </v>
   <v>       0.16666667       0.00000000       0.00000000 </v>
   <v>       0.33333333       0.00000000       0.00000000 </v>
   <v>       0.50000000       0.00000000       0.00000000 </v>
   <v>      -0.33333333      -0.00000000      -0.00000000 </v>
   <v>      -0.16666667      -0.00000000      -0.00000000 </v>
   <v>       0.00000000       0.16666667       0.00000000 </v>
   <v>       0.16666667       0.16666667       0.00000000 </v>
   <v>       0.33333333       0.16666667       0.00000000 </v>
   <v>       0.50000000       0.16666667       0.00000000 </v>
   <v>      -0.33333333       0.16666667      -0.00000000 </v>
   <v>      -0.16666667       0.16666667      -0.00000000 </v>
   <v>       0.00000000       0.33333333      -0.00000000 </v>
   <v>       0.16666667       0.33333333       0.00000000 </v>
   <v>       0.33333333       0.33333333       0.00000000 </v>
   <v>       0.50000000       0.33333333       0.00000000 </v>
   <v>      -0.33333333       0.33333333      -0.00000000 </v>
   <v>      -0.16666667       0.33333333      -0.00000000 </v>
   <v>       0.00000000       0.50000000       0.00000000 </v>
   <v>       0.16666667       0.50000000       0.00000000 </v>
   <v>       0.33333333       0.50000000       0.00000000 </v>
   <v>       0.50000000       0.50000000       0.00000000 </v>
   <v>      -0.33333333       0.50000000      -0.00000000 </v>
   <v>      -0.16666667       0.50000000       0.00000000 </v>
   <v>      -0.00000000      -0.33333333       0.00000000 </v>
   <v>       0.16666667      -0.33333333       0.00000000 </v>
   <v>       0.33333333      -0.33333333       0.00000000 </v>
   <v>       0.50000000      -0.33333333       0.00000000 </v>
   <v>      -0.33333333      -0.33333333      -0.00000000 </v>
   <v>      -0.16666667      -0.33333333      -0.00000000 </v>
   <v>      -0.00000000      -0.16666667       0.00000000 </v>
   <v>       0.16666667      -0.16666667       0.00000000 </v>
   <v>       0.33333333      -0.16666667       0.00000000 </v>
   <v>       0.50000000      -0.16666667       0.00000000 </v>
   <v>      -0.33333333      -0.16666667       0.00000000 </v>
   <v>      -0.16666667      -0.16666667       0.00000000 </v>
   <v>      -0.00000000      -0.00000000       0.16666667 </v>
   <v>       0.16666667       0.00000000       0.16666667 </v>
   <v>       0.33333333      -0.00000000       0.16666667 </v>
   <v>       0.50000000       0.00000000       0.16666667 </v>
   <v>      -0.33333333      -0.00000000       0.16666667 </v>
   <v>      -0.16666667       0.00000000       0.16666667 </v>
   <v>       0.00000000       0.16666667       0.16666667 </v>
   <v>       0.16666667       0.16666667       0.16666667 </v>
   <v>       0.33333333       0.16666667       0.16666667 </v>
   <v>       0.50000000       0.16666667       0.16666667 </v>
   <v>      -0.33333333       0.16666667       0.16666667 </v>
   <v>      -0.16666667       0.16666667       0.16666667 </v>
   <v>       0.00000000       0.33333333       0.16666667 </v>
   <v>       0.16666667       0.33333333       0.16666667 </v>
   <v>       0.33333333       0.33333333       0.16666667 </v>
   <v>       0.50000000       0.33333333       0.16666667 </v>
   <v>      -0.33333333       0.33333333       0.16666667 </v>
   <v>      -0.16666667       0.33333333       0.16666667 </v>
   <v>       0.00000000       0.50000000       0.16666667 </v>
   <v>       0.16666667       0.50000000       0.16666667 </v>
   <v>       0.33333333       0.50000000       0.16666667 </v>
   <v>       0.50000000       0.50000000       0.16666667 </v>
   <v>      -0.33333333       0.50000000       0.16666667 </v>
   <v>      -0.16666667       0.50000000       0.16666667 </v>
   <v>      -0.00000000      -0.33333333       0.16666667 </v>
   <v>       0.16666667      -0.33333333       0.16666667 </v>
   <v>       0.33333333      -0.33333333       0.16666667 </v>
   <v>       0.50000000      -0.33333333       0.16666667 </v>
   <v>      -0.33333333      -0.33333333       0.16666667 </v>
   <v>      -0.16666667      -0.33333333       0.16666667 </v>
   <v>      -0.00000000      -0.16666667       0.16666667 </v>
   <v>       0.16666667      -0.16666667       0.16666667 </v>
   <v>       0.33333333      -0.16666667       0.16666667 </v>
   <v>       0.50000000      -0.16666667       0.16666667 </v>
   <v>      -0.33333333      -0.16666667       0.16666667 </v>
   <v>      -0.16666667      -0.16666667       0.16666667 </v>
   <v>       0.00000000      -0.00000000       0.33333333 </v>
   <v>       0.16666667       0.00000000       0.33333333 </v>
   <v>       0.33333333       0.00000000       0.33333333 </v>
   <v>       0.50000000       0.00000000       0.33333333 </v>
   <v>      -0.33333333       0.00000000       0.33333333 </v>
   <v>      -0.16666667      -0.00000000       0.33333333 </v>
   <v>       0.00000000       0.16666667       0.33333333 </v>
   <v>       0.16666667       0.16666667       0.33333333 </v>
   <v>       0.33333333       0.16666667       0.33333333 </v>
   <v>       0.50000000       0.16666667       0.33333333 </v>
   <v>      -0.33333333       0.16666667       0.33333333 </v>
   <v>      -0.16666667       0.16666667       0.33333333 </v>
   <v>       0.00000000       0.33333333       0.33333333 </v>
   <v>       0.16666667       0.33333333       0.33333333 </v>
   <v>       0.33333333       0.33333333       0.33333333 </v>
   <v>       0.50000000       0.33333333       0.33333333 </v>
   <v>      -0.33333333       0.33333333       0.33333333 </v>
   <v>      -0.16666667       0.33333333       0.33333333 </v>
   <v>       0.00000000       0.50000000       0.33333333 </v>
   <v>       0.16666667       0.50000000       0.33333333 </v>
   <v>       0.33333333       0.50000000       0.33333333 </v>
   <v>       0.50000000       0.50000000       0.33333333 </v>
   <v>      -0.33333333       0.50000000       0.33333333 </v>
   <v>      -0.16666667       0.50000000       0.33333333 </v>
   <v>       0.00000000      -0.33333333       0.33333333 </v>
   <v>       0.16666667      -0.33333333       0.33333333 </v>
   <v>       0.33333333      -0.33333333       0.33333333 </v>
   <v>       0.50000000      -0.33333333       0.33333333 </v>
   <v>      -0.33333333      -0.33333333       0.33333333 </v>
   <v>      -0.16666667      -0.33333333       0.33333333 </v>
   <v>       0.00000000      -0.16666667       0.33333333 </v>
   <v>       0.16666667      -0.16666667       0.33333333 </v>
   <v>       0.33333333      -0.16666667       0.33333333 </v>
   <v>       0.50000000      -0.16666667       0.33333333 </v>
   <v>      -0.33333333      -0.16666667       0.33333333 </v>
   <v>      -0.16666667      -0.16666667       0.33333333 </v>
   <v>       0.00000000      -0.00000000       0.50000000 </v>
   <v>       0.16666667       0.00000000       0.50000000 </v>
   <v>       0.33333333       0.00000000       0.50000000 </v>
   <v>       0.50000000       0.00000000       0.50000000 </v>
   <v>      -0.33333333       0.00000000       0.50000000 </v>
   <v>      -0.16666667       0.00000000       0.50000000 </v>
   <v>      -0.00000000       0.16666667       0.50000000 </v>
   <v>       0.16666667       0.16666667       0.50000000 </v>
   <v>       0.33333333       0.16666667       0.50000000 </v>
   <v>       0.50000000       0.16666667       0.50000000 </v>
   <v>      -0.33333333       0.16666667       0.50000000 </v>
   <v>      -0.16666667       0.16666667       0.50000000 </v>
   <v>       0.00000000       0.33333333       0.50000000 </v>
   <v>       0.16666667       0.33333333       0.50000000 </v>
   <v>       0.33333333       0.33333333       0.50000000 </v>
   <v>       0.50000000       0.33333333       0.50000000 </v>
   <v>      -0.33333333       0.33333333       0.50000000 </v>
   <v>      -0.16666667       0.33333333       0.50000000 </v>
   <v>      -0.00000000       0.50000000       0.50000000 </v>
   <v>       0.16666667       0.50000000       0.50000000 </v>
   <v>       0.33333333       0.50000000       0.50000000 </v>
   <v>       0.50000000       0.50000000       0.50000000 </v>
   <v>      -0.33333333       0.50000000       0.50000000 </v>
   <v>      -0.16666667       0.50000000       0.50000000 </v>
   <v>      -0.00000000      -0.33333333       0.50000000 </v>
   <v>       0.16666667      -0.33333333       0.50000000 </v>
   <v>       0.33333333      -0.33333333       0.50000000 </v>
   <v>       0.50000000      -0.33333333       0.50000000 </v>
   <v>      -0.33333333      -0.33333333       0.50000000 </v>
   <v>      -0.16666667      -0.33333333       0.50000000 </v>
   <v>      -0.00000000      -0.16666667       0.50000000 </v>
   <v>       0.16666667      -0.16666667       0.50000000 </v>
   <v>       0.33333333      -0.16666667       0.50000000 </v>
   <v>       0.50000000      -0.16666667       0.50000000 </v>
   <v>      -0.33333333      -0.16666667       0.50000000 </v>
   <v>      -0.16666667      -0.16666667       0.50000000 </v>
   <v>       0.00000000       0.00000000      -0.33333333 </v>
   <v>       0.16666667       0.00000000      -0.33333333 </v>
   <v>       0.33333333      -0.00000000      -0.33333333 </v>
   <v>       0.50000000       0.00000000      -0.33333333 </v>
   <v>      -0.33333333      -0.00000000      -0.33333333 </v>
   <v>      -0.16666667      -0.00000000      -0.33333333 </v>
   <v>      -0.00000000       0.16666667      -0.33333333 </v>
   <v>       0.16666667       0.16666667      -0.33333333 </v>
   <v>       0.33333333       0.16666667      -0.33333333 </v>
   <v>       0.50000000       0.16666667      -0.33333333 </v>
   <v>      -0.33333333       0.16666667      -0.33333333 </v>
   <v>      -0.16666667       0.16666667      -0.33333333 </v>
   <v>       0.00000000       0.33333333      -0.33333333 </v>
   <v>       0.16666667       0.33333333      -0.33333333 </v>
   <v>       0.33333333       0.33333333      -0.33333333 </v>
   <v>       0.50000000       0.33333333      -0.33333333 </v>
   <v>      -0.33333333       0.33333333      -0.33333333 </v>
   <v>      -0.16666667       0.33333333      -0.33333333 </v>
   <v>       0.00000000       0.50000000      -0.33333333 </v>
   <v>       0.16666667       0.50000000      -0.33333333 </v>
   <v>       0.33333333       0.50000000      -0.33333333 </v>
   <v>       0.50000000       0.50000000      -0.33333333 </v>
   <v>      -0.33333333       0.50000000      -0.33333333 </v>
   <v>      -0.16666667       0.50000000      -0.33333333 </v>
   <v>      -0.00000000      -0.33333333      -0.33333333 </v>
   <v>       0.16666667      -0.33333333      -0.33333333 </v>
   <v>       0.33333333      -0.33333333      -0.33333333 </v>
   <v>       0.50000000      -0.33333333      -0.33333333 </v>
   <v>      -0.33333333      -0.33333333      -0.33333333 </v>
   <v>      -0.16666667      -0.33333333      -0.33333333 </v>
   <v>       0.00000000      -0.16666667      -0.33333333 </v>
   <v>       0.16666667      -0.16666667      -0.33333333 </v>
   <v>       0.33333333      -0.16666667      -0.33333333 </v>
   <v>       0.50000000      -0.16666667      -0.33333333 </v>
   <v>      -0.33333333      -0.16666667      -0.33333333 </v>
   <v>      -0.16666667      -0.16666667      -0.33333333 </v>
   <v>       0.00000000       0.00000000      -0.16666667 </v>
   <v>       0.16666667      -0.00000000      -0.16666667 </v>
   <v>       0.33333333       0.00000000      -0.16666667 </v>
   <v>       0.50000000       0.00000000      -0.16666667 </v>
   <v>      -0.33333333       0.00000000      -0.16666667 </v>
   <v>      -0.16666667      -0.00000000      -0.16666667 </v>
   <v>       0.00000000       0.16666667      -0.16666667 </v>
   <v>       0.16666667       0.16666667      -0.16666667 </v>
   <v>       0.33333333       0.16666667      -0.16666667 </v>
   <v>       0.50000000       0.16666667      -0.16666667 </v>
   <v>      -0.33333333       0.16666667      -0.16666667 </v>
   <v>      -0.16666667       0.16666667      -0.16666667 </v>
   <v>       0.00000000       0.33333333      -0.16666667 </v>
   <v>       0.16666667       0.33333333      -0.16666667 </v>
   <v>       0.33333333       0.33333333      -0.16666667 </v>
   <v>       0.50000000       0.33333333      -0.16666667 </v>
   <v>      -0.33333333       0.33333333      -0.16666667 </v>
   <v>      -0.16666667       0.33333333      -0.16666667 </v>
   <v>       0.00000000       0.50000000      -0.16666667 </v>
   <v>       0.16666667       0.50000000      -0.16666667 </v>
   <v>       0.33333333       0.50000000      -0.16666667 </v>
   <v>       0.50000000       0.50000000      -0.16666667 </v>
   <v>      -0.33333333       0.50000000      -0.16666667 </v>
   <v>      -0.16666667       0.50000000      -0.16666667 </v>
   <v>      -0.00000000      -0.33333333      -0.16666667 </v>
   <v>       0.16666667      -0.33333333      -0.16666667 </v>
   <v>       0.33333333      -0.33333333      -0.16666667 </v>
   <v>       0.50000000      -0.33333333      -0.16666667 </v>
   <v>      -0.33333333      -0.33333333      -0.16666667 </v>
   <v>      -0.16666667      -0.33333333      -0.16666667 </v>
   <v>       0.00000000      -0.16666667      -0.16666667 </v>
   <v>       0.16666667      -0.16666667      -0.16666667 </v>
   <v>       0.33333333      -0.16666667      -0.16666667 </v>
   <v>       0.50000000      -0.16666667      -0.16666667 </v>
   <v>      -0.33333333      -0.16666667      -0.16666667 </v>
   <v>      -0.16666667      -0.16666667      -0.16666667 </v>
  </varray>
  <varray name="weights" >
   <v>       0.00462963 </v>
   <v>       0.00462963 </v>
   <v>       0.00462963 </v>
   <v>       0.00462963 </v>
   <v>       0.00462963 </v>
   <v>       0.00462963 </v>
   <v>       0.00462963 </v>
   <v>       0.00462963 </v>
   <v>       0.00462963 </v>
   <v>       0.00462963 </v>
   <v>       0.00462963 </v>
   <v>       0.00462963 </v>
   <v>       0.00462963 </v>
   <v>       0.00462963 </v>
   <v>       0.00462963 </v>
   <v>       0.00462963 </v>
   <v>       0.00462963 </v>
   <v>       0.00462963 </v>
   <v>       0.00462963 </v>
   <v>       0.00462963 </v>
   <v>       0.00462963 </v>
   <v>       0.00462963 </v>
   <v>       0.00462963 </v>
   <v>       0.00462963 </v>
   <v>       0.00462963 </v>
   <v>       0.00462963 </v>
   <v>       0.00462963 </v>
   <v>       0.00462963 </v>
   <v>       0.00462963 </v>
   <v>       0.00462963 </v>
   <v>       0.00462963 </v>
   <v>       0.00462963 </v>
   <v>       0.00462963 </v>
   <v>       0.00462963 </v>
   <v>       0.00462963 </v>
   <v>       0.00462963 </v>
   <v>       0.00462963 </v>
   <v>       0.00462963 </v>
   <v>       0.00462963 </v>
   <v>       0.00462963 </v>
   <v>       0.00462963 </v>
   <v>       0.00462963 </v>
   <v>       0.00462963 </v>
   <v>       0.00462963 </v>
   <v>       0.00462963 </v>
   <v>       0.00462963 </v>
   <v>       0.00462963 </v>
   <v>       0.00462963 </v>
   <v>       0.00462963 </v>
   <v>       0.00462963 </v>
   <v>       0.00462963 </v>
   <v>       0.00462963 </v>
   <v>       0.00462963 </v>
   <v>       0.00462963 </v>
   <v>       0.00462963 </v>
   <v>       0.00462963 </v>
   <v>       0.00462963 </v>
   <v>       0.00462963 </v>
   <v>       0.00462963 </v>
   <v>       0.00462963 </v>
   <v>       0.00462963 </v>
   <v>       0.00462963 </v>
   <v>       0.00462963 </v>
   <v>       0.00462963 </v>
   <v>       0.00462963 </v>
   <v>       0.00462963 </v>
   <v>       0.00462963 </v>
   <v>       0.00462963 </v>
   <v>       0.00462963 </v>
   <v>       0.00462963 </v>
   <v>       0.00462963 </v>
   <v>       0.00462963 </v>
   <v>       0.00462963 </v>
   <v>       0.00462963 </v>
   <v>       0.00462963 </v>
   <v>       0.00462963 </v>
   <v>       0.00462963 </v>
   <v>       0.00462963 </v>
   <v>       0.00462963 </v>
   <v>       0.00462963 </v>
   <v>       0.00462963 </v>
   <v>       0.00462963 </v>
   <v>       0.00462963 </v>
   <v>       0.00462963 </v>
   <v>       0.00462963 </v>
   <v>       0.00462963 </v>
   <v>       0.00462963 </v>
   <v>       0.00462963 </v>
   <v>       0.00462963 </v>
   <v>       0.00462963 </v>
   <v>       0.00462963 </v>
   <v>       0.00462963 </v>
   <v>       0.00462963 </v>
   <v>       0.00462963 </v>
   <v>       0.00462963 </v>
   <v>       0.00462963 </v>
   <v>       0.00462963 </v>
   <v>       0.00462963 </v>
   <v>       0.00462963 </v>
   <v>       0.00462963 </v>
   <v>       0.00462963 </v>
   <v>       0.00462963 </v>
   <v>       0.00462963 </v>
   <v>       0.00462963 </v>
   <v>       0.00462963 </v>
   <v>       0.00462963 </v>
   <v>       0.00462963 </v>
   <v>       0.00462963 </v>
   <v>       0.00462963 </v>
   <v>       0.00462963 </v>
   <v>       0.00462963 </v>
   <v>       0.00462963 </v>
   <v>       0.00462963 </v>
   <v>       0.00462963 </v>
   <v>       0.00462963 </v>
   <v>       0.00462963 </v>
   <v>       0.00462963 </v>
   <v>       0.00462963 </v>
   <v>       0.00462963 </v>
   <v>       0.00462963 </v>
   <v>       0.00462963 </v>
   <v>       0.00462963 </v>
   <v>       0.00462963 </v>
   <v>       0.00462963 </v>
   <v>       0.00462963 </v>
   <v>       0.00462963 </v>
   <v>       0.00462963 </v>
   <v>       0.00462963 </v>
   <v>       0.00462963 </v>
   <v>       0.00462963 </v>
   <v>       0.00462963 </v>
   <v>       0.00462963 </v>
   <v>       0.00462963 </v>
   <v>       0.00462963 </v>
   <v>       0.00462963 </v>
   <v>       0.00462963 </v>
   <v>       0.00462963 </v>
   <v>       0.00462963 </v>
   <v>       0.00462963 </v>
   <v>       0.00462963 </v>
   <v>       0.00462963 </v>
   <v>       0.00462963 </v>
   <v>       0.00462963 </v>
   <v>       0.00462963 </v>
   <v>       0.00462963 </v>
   <v>       0.00462963 </v>
   <v>       0.00462963 </v>
   <v>       0.00462963 </v>
   <v>       0.00462963 </v>
   <v>       0.00462963 </v>
   <v>       0.00462963 </v>
   <v>       0.00462963 </v>
   <v>       0.00462963 </v>
   <v>       0.00462963 </v>
   <v>       0.00462963 </v>
   <v>       0.00462963 </v>
   <v>       0.00462963 </v>
   <v>       0.00462963 </v>
   <v>       0.00462963 </v>
   <v>       0.00462963 </v>
   <v>       0.00462963 </v>
   <v>       0.00462963 </v>
   <v>       0.00462963 </v>
   <v>       0.00462963 </v>
   <v>       0.00462963 </v>
   <v>       0.00462963 </v>
   <v>       0.00462963 </v>
   <v>       0.00462963 </v>
   <v>       0.00462963 </v>
   <v>       0.00462963 </v>
   <v>       0.00462963 </v>
   <v>       0.00462963 </v>
   <v>       0.00462963 </v>
   <v>       0.00462963 </v>
   <v>       0.00462963 </v>
   <v>       0.00462963 </v>
   <v>       0.00462963 </v>
   <v>       0.00462963 </v>
   <v>       0.00462963 </v>
   <v>       0.00462963 </v>
   <v>       0.00462963 </v>
   <v>       0.00462963 </v>
   <v>       0.00462963 </v>
   <v>       0.00462963 </v>
   <v>       0.00462963 </v>
   <v>       0.00462963 </v>
   <v>       0.00462963 </v>
   <v>       0.00462963 </v>
   <v>       0.00462963 </v>
   <v>       0.00462963 </v>
   <v>       0.00462963 </v>
   <v>       0.00462963 </v>
   <v>       0.00462963 </v>
   <v>       0.00462963 </v>
   <v>       0.00462963 </v>
   <v>       0.00462963 </v>
   <v>       0.00462963 </v>
   <v>       0.00462963 </v>
   <v>       0.00462963 </v>
   <v>       0.00462963 </v>
   <v>       0.00462963 </v>
   <v>       0.00462963 </v>
   <v>       0.00462963 </v>
   <v>       0.00462963 </v>
   <v>       0.00462963 </v>
   <v>       0.00462963 </v>
   <v>       0.00462963 </v>
   <v>       0.00462963 </v>
   <v>       0.00462963 </v>
   <v>       0.00462963 </v>
   <v>       0.00462963 </v>
   <v>       0.00462963 </v>
   <v>       0.00462963 </v>
   <v>       0.00462963 </v>
   <v>       0.00462963 </v>
   <v>       0.00462963 </v>
  </varray>
 </kpoints>
 <parameters>
  <separator name="general" >
   <i type="string" name="SYSTEM">Og_FCC</i>
   <i type="logical" name="LCOMPAT"> F  </i>
  </separator>
  <separator name="electronic" >
   <i type="string" name="PREC">accura</i>
   <i name="ENMAX">    300.00000000</i>
   <i name="ENAUG">    361.02500000</i>
   <i name="EDIFF">      0.00000001</i>
   <i type="int" name="IALGO">    90</i>
   <i type="int" name="IWAVPR">    10</i>
   <i type="int" name="NBANDS">   128</i>
   <i name="NELECT">     18.00000000</i>
   <i type="int" name="TURBO">     0</i>
   <i type="int" name="IRESTART">     0</i>
   <i type="int" name="NREBOOT">     0</i>
   <i type="int" name="NMIN">     0</i>
   <i name="EREF">      0.00000000</i>
   <separator name="electronic smearing" >
    <i type="int" name="ISMEAR">     0</i>
    <i name="SIGMA">      0.00100000</i>
    <i name="KSPACING">      0.50000000</i>
    <i type="logical" name="KGAMMA"> T  </i>
   </separator>
   <separator name="electronic projectors" >
    <i type="logical" name="LREAL"> F  </i>
    <v name="ROPT">      0.00000000</v>
    <i type="int" name="LMAXPAW">  -100</i>
    <i type="int" name="LMAXMIX">     2</i>
    <i type="logical" name="NLSPLINE"> F  </i>
   </separator>
   <separator name="electronic startup" >
    <i type="int" name="ISTART">     1</i>
    <i type="int" name="ICHARG">     0</i>
    <i type="int" name="INIWAV">     1</i>
   </separator>
   <separator name="electronic spin" >
    <i type="int" name="ISPIN">     1</i>
    <i type="logical" name="LNONCOLLINEAR"> T  </i>
    <v name="MAGMOM">      1.00000000      1.00000000      1.00000000</v>
    <i name="NUPDOWN">     -1.00000000</i>
    <i type="logical" name="LSORBIT"> T  </i>
    <v name="SAXIS">      0.00000000      0.00000000      1.00000000</v>
    <i type="logical" name="LSPIRAL"> F  </i>
    <v name="QSPIRAL">      0.00000000      0.00000000      0.00000000</v>
    <i type="logical" name="LZEROZ"> F  </i>
   </separator>
   <separator name="electronic exchange-correlation" >
    <i type="logical" name="LASPH"> F  </i>
    <i type="logical" name="LMETAGGA"> F  </i>
   </separator>
   <separator name="electronic convergence" >
    <i type="int" name="NELM">    50</i>
    <i type="int" name="NELMDL">    -5</i>
    <i type="int" name="NELMIN">     2</i>
    <i name="ENINI">    300.00000000</i>
    <separator name="electronic convergence detail" >
     <i type="logical" name="LDIAG"> T  </i>
     <i type="logical" name="LSUBROT"> F  </i>
     <i name="WEIMIN">      0.00000000</i>
     <i name="EBREAK">      0.00000000</i>
     <i name="DEPER">      0.30000000</i>
     <i type="int" name="NRMM">     4</i>
     <i name="TIME">      0.40000000</i>
    </separator>
   </separator>
   <separator name="electronic mixer" >
    <i name="AMIX">      0.40000000</i>
    <i name="BMIX">      1.00000000</i>
    <i name="AMIN">      0.10000000</i>
    <i name="AMIX_MAG">      1.60000000</i>
    <i name="BMIX_MAG">      1.00000000</i>
    <separator name="electronic mixer details" >
     <i type="int" name="IMIX">     4</i>
     <i type="logical" name="MIXFIRST"> F  </i>
     <i type="int" name="MAXMIX">    50</i>
     <i name="WC">    100.00000000</i>
     <i type="int" name="INIMIX">     1</i>
     <i type="int" name="MIXPRE">     1</i>
     <i type="int" name="MREMOVE">     5</i>
    </separator>
   </separator>
   <separator name="electronic dipolcorrection" >
    <i type="logical" name="LDIPOL"> F  </i>
    <i type="logical" name="LMONO"> F  </i>
    <i type="int" name="IDIPOL">     0</i>
    <i name="EPSILON">      1.00000000</i>
    <v name="DIPOL">   -100.00000000   -100.00000000   -100.00000000</v>
    <i name="EFIELD">      0.00000000</i>
   </separator>
  </separator>
  <separator name="grids" >
   <i type="int" name="NGX">    28</i>
   <i type="int" name="NGY">    28</i>
   <i type="int" name="NGZ">    28</i>
   <i type="int" name="NGXF">    56</i>
   <i type="int" name="NGYF">    56</i>
   <i type="int" name="NGZF">    56</i>
   <i type="logical" name="ADDGRID"> T  </i>
  </separator>
  <separator name="ionic" >
   <i type="int" name="NSW">     1</i>
   <i type="int" name="IBRION">    -1</i>
   <i type="int" name="MDALGO">     0</i>
   <i type="int" name="ISIF">     3</i>
   <i name="PSTRESS">      0.00000000</i>
   <i name="EDIFFG">      0.00001000</i>
   <i type="int" name="NFREE">     5</i>
   <i name="POTIM">      0.10000000</i>
   <i name="SMASS">     -3.00000000</i>
   <i name="SCALEE">      1.00000000</i>
  </separator>
  <separator name="ionic md" >
   <i name="TEBEG">      0.00010000</i>
   <i name="TEEND">      0.00010000</i>
   <i type="int" name="NBLOCK">     1</i>
   <i type="int" name="KBLOCK">     1</i>
   <i type="int" name="NPACO">   256</i>
   <i name="APACO">     16.00000000</i>
  </separator>
  <separator name="symmetry" >
   <i type="int" name="ISYM">     0</i>
   <i name="SYMPREC">      0.00000010</i>
  </separator>
  <separator name="dos" >
   <i type="int" name="LORBIT">     0</i>
   <v name="RWIGS">     -1.00000000</v>
   <i type="int" name="NEDOS">   301</i>
   <i name="EMIN">     10.00000000</i>
   <i name="EMAX">    -10.00000000</i>
   <i name="EFERMI">      0.00000000</i>
  </separator>
  <separator name="writing" >
   <i type="int" name="NWRITE">     2</i>
   <i type="logical" name="LWAVE"> T  </i>
   <i type="logical" name="LDOWNSAMPLE"> F  </i>
   <i type="logical" name="LCHARG"> F  </i>
   <i type="logical" name="LPARD"> F  </i>
   <i type="logical" name="LVTOT"> F  </i>
   <i type="logical" name="LVHAR"> F  </i>
   <i type="logical" name="LELF"> F  </i>
   <i type="logical" name="LOPTICS"> T  </i>
   <v name="STM">      0.00000000      0.00000000      0.00000000      0.00000000      0.00000000      0.00000000      0.00000000</v>
  </separator>
  <separator name="performance" >
   <i type="int" name="NPAR">     4</i>
   <i type="int" name="NSIM">     4</i>
   <i type="int" name="NBLK">    -1</i>
   <i type="logical" name="LPLANE"> T  </i>
   <i type="logical" name="LSCALAPACK"> T  </i>
   <i type="logical" name="LSCAAWARE"> T  </i>
   <i type="logical" name="LSCALU"> F  </i>
   <i type="logical" name="LASYNC"> F  </i>
   <i type="logical" name="LORBITALREAL"> F  </i>
  </separator>
  <separator name="miscellaneous" >
   <i type="int" name="IDIOT">     3</i>
   <i type="int" name="ISPECIAL">     0</i>
   <i type="logical" name="LMUSIC"> F  </i>
   <v name="POMASS">      0.01000000</v>
   <v name="DARWINR">      0.00000000</v>
   <v name="DARWINV">      1.00000000</v>
   <i type="logical" name="LCORR"> T  </i>
  </separator>
  <i type="logical" name="GGA_COMPAT"> F  </i>
  <i type="logical" name="LBERRY"> F  </i>
  <i type="int" name="ICORELEVEL">     0</i>
  <i type="logical" name="LDAU"> F  </i>
  <i type="int" name="I_CONSTRAINED_M">     0</i>
  <separator name="electronic exchange-correlation" >
   <i type="string" name="GGA">PE</i>
   <i type="int" name="VOSKOWN">     0</i>
   <i type="logical" name="LHFCALC"> F  </i>
   <i type="string" name="PRECFOCK"></i>
   <i type="logical" name="LSYMGRAD"> F  </i>
   <i type="logical" name="LHFONE"> F  </i>
   <i type="logical" name="LRHFCALC"> F  </i>
   <i type="logical" name="LTHOMAS"> F  </i>
   <i type="logical" name="LMODELHF"> F  </i>
   <i name="ENCUT4O">     -1.00000000</i>
   <i type="int" name="EXXOEP">     0</i>
   <i type="int" name="FOURORBIT">     0</i>
   <i name="AEXX">      0.00000000</i>
   <i name="HFALPHA">      0.00000000</i>
   <i name="MCALPHA">      0.00000000</i>
   <i name="ALDAX">      1.00000000</i>
   <i name="AGGAX">      1.00000000</i>
   <i name="ALDAC">      1.00000000</i>
   <i name="AGGAC">      1.00000000</i>
   <i type="int" name="NKREDX">     1</i>
   <i type="int" name="NKREDY">     1</i>
   <i type="int" name="NKREDZ">     1</i>
   <i type="logical" name="SHIFTRED"> F  </i>
   <i type="logical" name="ODDONLY"> F  </i>
   <i type="logical" name="EVENONLY"> F  </i>
   <i type="int" name="LMAXFOCK">     0</i>
   <i type="int" name="NMAXFOCKAE">     0</i>
   <i type="logical" name="LFOCKAEDFT"> F  </i>
   <i name="HFSCREEN">      0.00000000</i>
   <i name="HFSCREENC">      0.00000000</i>
   <i type="int" name="NBANDSGWLOW">     0</i>
  </separator>
  <separator name="vdW DFT" >
   <i type="logical" name="LUSE_VDW"> F  </i>
   <i name="Zab_VDW">     -0.84910000</i>
   <i name="PARAM1">      0.12340000</i>
   <i name="PARAM2">      1.00000000</i>
   <i name="PARAM3">      0.00000000</i>
  </separator>
  <separator name="model GW" >
   <i type="int" name="MODEL_GW">     0</i>
   <i name="MODEL_EPS0">     35.09810904</i>
   <i name="MODEL_ALPHA">      1.00000000</i>
  </separator>
  <separator name="linear response parameters" >
   <i type="logical" name="LEPSILON"> F  </i>
   <i type="logical" name="LRPA"> F  </i>
   <i type="logical" name="LNABLA"> F  </i>
   <i type="logical" name="LVEL"> F  </i>
   <i type="int" name="KINTER">     0</i>
   <i name="CSHIFT">      0.10000000</i>
   <i name="OMEGAMAX">     -1.00000000</i>
   <i name="DEG_THRESHOLD">      0.00200000</i>
   <i name="RTIME">     -0.10000000</i>
   <i name="WPLASMAI">      0.00000000</i>
   <v name="DFIELD">      0.00000000      0.00000000      0.00000000</v>
   <v name="WPLASMA">      0.00000000      0.00000000      0.00000000      0.00000000      0.00000000      0.00000000      0.00000000      0.00000000      0.00000000</v>
  </separator>
  <separator name="orbital magnetization" >
   <i type="logical" name="NUCIND"> F  </i>
   <v name="MAGPOS">      0.00000000      0.00000000      0.00000000</v>
   <i type="logical" name="LNICSALL"> T  </i>
   <i type="logical" name="ORBITALMAG"> F  </i>
   <i type="logical" name="LMAGBLOCH"> F  </i>
   <i type="logical" name="LCHIMAG"> F  </i>
   <i type="logical" name="LGAUGE"> T  </i>
   <i type="int" name="MAGATOM">     0</i>
   <v name="MAGDIPOL">      0.00000000      0.00000000      0.00000000</v>
   <v name="AVECCONST">      0.00000000      0.00000000      0.00000000</v>
  </separator>
  <separator name="response functions" >
   <i type="logical" name="LADDER"> F  </i>
   <i type="logical" name="LRPAFORCE"> F  </i>
   <i type="logical" name="LFXC"> F  </i>
   <i type="logical" name="LHARTREE"> T  </i>
   <i type="int" name="IBSE">     0</i>
   <v type="int" name="KPOINT">    -1     0     0     0</v>
   <i type="logical" name="LTCTE"> F  </i>
   <i type="logical" name="LTETE"> F  </i>
   <i type="logical" name="LTRIPLET"> F  </i>
   <i type="logical" name="LFXCEPS"> F  </i>
   <i type="logical" name="LFXHEG"> F  </i>
   <i type="int" name="NATURALO">     2</i>
   <i type="logical" name="L2ORDER"> F  </i>
   <i type="logical" name="LMP2LT"> F  </i>
   <i type="logical" name="LUSEW"> F  </i>
   <i name="ENCUTGW">     -2.00000000</i>
   <i name="ENCUTGWSOFT">     -2.00000000</i>
   <i name="ENCUTLF">     -1.00000000</i>
   <i type="int" name="LMAXMP2">    -1</i>
   <i name="SCISSOR">      0.00000000</i>
   <i type="int" name="NOMEGA">     0</i>
   <i type="int" name="NOMEGAR">     0</i>
   <i type="int" name="NBANDSGW">    -1</i>
   <i type="int" name="NBANDSO">    -1</i>
   <i type="int" name="NBANDSV">    -1</i>
   <i type="int" name="NELM">    50</i>
   <i type="int" name="NELMHF">     1</i>
   <i type="int" name="DIM">     3</i>
   <i type="int" name="ANTIRES">     0</i>
   <i name="OMEGAMAX">    -30.00000000</i>
   <i name="OMEGAMIN">    -30.00000000</i>
   <i name="OMEGATL">   -200.00000000</i>
   <i type="int" name="OMEGAGRID">   140</i>
   <i name="CSHIFT">     -0.10000000</i>
   <i type="logical" name="SELFENERGY"> F  </i>
   <i type="logical" name="LSPECTRAL"> F  </i>
   <i type="logical" name="LSPECTRALGW"> F  </i>
   <i type="logical" name="LSINGLES"> F  </i>
   <i type="logical" name="LFERMIGW"> F  </i>
   <i type="logical" name="ODDONLYGW"> F  </i>
   <i type="logical" name="EVENONLYGW"> F  </i>
   <i type="int" name="NKREDLFX">     1</i>
   <i type="int" name="NKREDLFY">     1</i>
   <i type="int" name="NKREDLFZ">     1</i>
   <i type="int" name="MAXMEM">  2800</i>
   <i type="int" name="TELESCOPE">     0</i>
   <i type="int" name="TAUPAR">     1</i>
   <i type="int" name="OMEGAPAR">    -1</i>
   <i name="LAMBDA">      1.00000000</i>
  </separator>
  <separator name="External order field" >
   <i name="OFIELD_KAPPA">      0.00000000</i>
   <v name="OFIELD_K">      0.00000000      0.00000000      0.00000000</v>
   <i name="OFIELD_Q6_NEAR">      0.00000000</i>
   <i name="OFIELD_Q6_FAR">      0.00000000</i>
   <i name="OFIELD_A">      0.00000000</i>
  </separator>
 </parameters>
 <atominfo>
  <atoms>       1 </atoms>
  <types>       1 </types>
  <array name="atoms" >
   <dimension dim="1">ion</dimension>
   <field type="string">element</field>
   <field type="int">atomtype</field>
   <set>
    <rc><c>Og</c><c>   1</c></rc>
   </set>
  </array>
  <array name="atomtypes" >
   <dimension dim="1">type</dimension>
   <field type="int">atomspertype</field>
   <field type="string">element</field>
   <field>mass</field>
   <field>valence</field>
   <field type="string">pseudopotential</field>
   <set>
    <rc><c>   1</c><c>Og</c><c>      0.01000000</c><c>     18.00000000</c><c>  PAW Og, JanMewes Oct 18               </c></rc>
   </set>
  </array>
 </atominfo>
 <structure name="initialpos" >
  <crystal>
   <varray name="basis" >
    <v>       4.35728355       0.00000000       0.00000000 </v>
    <v>       2.17864177       3.77351824      -0.00000000 </v>
    <v>       2.17864177       1.25783941       3.55770712 </v>
   </varray>
   <i name="volume">     58.49684840 </i>
   <varray name="rec_basis" >
    <v>       0.22950079      -0.13250234      -0.09369330 </v>
    <v>       0.00000000       0.26500468      -0.09369330 </v>
    <v>      -0.00000000       0.00000000       0.28107991 </v>
   </varray>
  </crystal>
  <varray name="positions" >
   <v>       0.00000000       0.00000000       0.00000000 </v>
  </varray>
  <varray name="velocities" >
   <v>       0.00000000       0.00000000       0.00000000 </v>
  </varray>
 </structure>
 <calculation>
  <scstep>
   <time name="diag">  180.28  180.29</time>
   <time name="total">  180.39  180.40</time>
   <energy>
    <i name="alphaZ">     65.22157526 </i>
    <i name="ewald">  -1735.66754631 </i>
    <i name="hartreedc">   -675.91998564 </i>
    <i name="XCdc">    -68.74696004 </i>
    <i name="pawpsdc">   2336.00118001 </i>
    <i name="pawaedc">  -2260.60275788 </i>
    <i name="eentropy">     -0.00000001 </i>
    <i name="bandstr">   -313.37349090 </i>
    <i name="atom">   2639.90492407 </i>
    <i name="e_fr_energy">    -13.18306147 </i>
    <i name="e_wo_entrp">    -13.18306145 </i>
    <i name="e_0_energy">    -13.18306146 </i>
   </energy>
  </scstep>
  <scstep>
   <time name="diag">  180.01  180.02</time>
   <time name="total">  180.06  180.07</time>
   <energy>
    <i name="e_fr_energy">    -13.18306147 </i>
    <i name="e_wo_entrp">    -13.18306145 </i>
    <i name="e_0_energy">    -13.18306146 </i>
   </energy>
  </scstep>
  <scstep>
   <time name="diag">  182.99  183.01</time>
   <time name="total">  183.05  183.06</time>
   <energy>
    <i name="e_fr_energy">    -13.18306147 </i>
    <i name="e_wo_entrp">    -13.18306145 </i>
    <i name="e_0_energy">    -13.18306146 </i>
   </energy>
  </scstep>
  <scstep>
   <time name="diag">  177.54  177.55</time>
   <time name="total">  177.59  177.60</time>
   <energy>
    <i name="e_fr_energy">    -13.18306147 </i>
    <i name="e_wo_entrp">    -13.18306145 </i>
    <i name="e_0_energy">    -13.18306146 </i>
   </energy>
  </scstep>
  <scstep>
   <time name="diag">  175.99  176.00</time>
   <time name="total">  176.16  176.17</time>
   <energy>
    <i name="e_fr_energy">    -13.18306147 </i>
    <i name="e_wo_entrp">    -13.18306145 </i>
    <i name="e_0_energy">    -13.18306146 </i>
   </energy>
  </scstep>
  <scstep>
   <time name="diag">  175.81  175.82</time>
   <time name="total">  175.91  175.92</time>
   <energy>
    <i name="alphaZ">     65.22157526 </i>
    <i name="ewald">  -1735.66754631 </i>
    <i name="hartreedc">   -675.91998624 </i>
    <i name="XCdc">    -68.74696007 </i>
    <i name="pawpsdc">   2336.00116648 </i>
    <i name="pawaedc">  -2260.60274521 </i>
    <i name="eentropy">     -0.00000001 </i>
    <i name="bandstr">   -313.37348944 </i>
    <i name="atom">   2639.90492407 </i>
    <i name="e_fr_energy">    -13.18306147 </i>
    <i name="e_wo_entrp">    -13.18306146 </i>
    <i name="e_0_energy">    -13.18306146 </i>
   </energy>
  </scstep>
  <structure>
   <crystal>
    <varray name="basis" >
     <v>       4.35728355       0.00000000       0.00000000 </v>
     <v>       2.17864177       3.77351824      -0.00000000 </v>
     <v>       2.17864177       1.25783941       3.55770712 </v>
    </varray>
    <i name="volume">     58.49684840 </i>
    <varray name="rec_basis" >
     <v>       0.22950079      -0.13250234      -0.09369330 </v>
     <v>       0.00000000       0.26500468      -0.09369330 </v>
     <v>      -0.00000000       0.00000000       0.28107991 </v>
    </varray>
   </crystal>
   <varray name="positions" >
    <v>       0.00000000       0.00000000       0.00000000 </v>
   </varray>
  </structure>
  <varray name="forces" >
   <v>       0.00000000       0.00000000       0.00000000 </v>
  </varray>
  <varray name="stress" >
   <v> **************** **************** **************** </v>
   <v> **************** **************** **************** </v>
   <v> **************** **************** **************** </v>
  </varray>
  <energy>
   <i name="e_fr_energy">**************** </i>
   <i name="e_wo_entrp">**************** </i>
   <i name="e_0_energy">     -0.00000001 </i>
  </energy>
  <time name="totalsc"> 1077.45 1077.59</time>
  <eigenvalues>
   <array>
    <dimension dim="1">band</dimension>
    <dimension dim="2">kpoint</dimension>
    <dimension dim="3">spin</dimension>
    <field>eigene</field>
    <field>occ</field>
    <set>
     <set comment="spin 1">
      <set comment="kpoint 1">
       <r>  -30.5447    1.0000 </r>
       <r>  -30.5447    1.0000 </r>
       <r>  -30.5445    1.0000 </r>
       <r>  -30.5445    1.0000 </r>
       <r>  -23.8803    1.0000 </r>
       <r>  -23.8799    1.0000 </r>
       <r>  -23.8797    1.0000 </r>
       <r>  -23.8792    1.0000 </r>
       <r>  -23.8785    1.0000 </r>
       <r>  -23.8777    1.0000 </r>
       <r>  -20.2835    1.0000 </r>
       <r>  -20.2827    1.0000 </r>
       <r>   -7.0030    1.0000 </r>
       <r>   -7.0019    1.0000 </r>
       <r>    3.6368    1.0000 </r>
       <r>    3.6373    1.0000 </r>
       <r>    3.8447    0.9997 </r>
       <r>    3.8447    0.9996 </r>
       <r>    3.8495    0.0004 </r>
       <r>    3.8496    0.0003 </r>
       <r>   10.7752    0.0000 </r>
       <r>   10.7754    0.0000 </r>
       <r>   10.7760    0.0000 </r>
       <r>   10.7763    0.0000 </r>
       <r>   11.0397    0.0000 </r>
       <r>   11.0403    0.0000 </r>
       <r>   11.1950    0.0000 </r>
       <r>   11.1965    0.0000 </r>
       <r>   13.1218    0.0000 </r>
       <r>   13.1248    0.0000 </r>
       <r>   13.4248    0.0000 </r>
       <r>   13.4250    0.0000 </r>
       <r>   13.4259    0.0000 </r>
       <r>   13.4261    0.0000 </r>
       <r>   14.2170    0.0000 </r>
       <r>   14.2184    0.0000 </r>
       <r>   14.2193    0.0000 </r>
       <r>   14.2207    0.0000 </r>
       <r>   16.1387    0.0000 </r>
       <r>   16.1390    0.0000 </r>
       <r>   20.2678    0.0000 </r>
       <r>   20.2681    0.0000 </r>
       <r>   20.2687    0.0000 </r>
       <r>   20.2691    0.0000 </r>
       <r>   20.2698    0.0000 </r>
       <r>   20.2700    0.0000 </r>
       <r>   22.7290    0.0000 </r>
       <r>   22.7298    0.0000 </r>
       <r>   26.0536    0.0000 </r>
       <r>   26.0537    0.0000 </r>
       <r>   26.0556    0.0000 </r>
       <r>   26.0558    0.0000 </r>
       <r>   26.2683    0.0000 </r>
       <r>   26.2690    0.0000 </r>
       <r>   27.5562    0.0000 </r>
       <r>   27.5579    0.0000 </r>
       <r>   29.1952    0.0000 </r>
       <r>   29.1961    0.0000 </r>
       <r>   29.1967    0.0000 </r>
       <r>   29.1976    0.0000 </r>
       <r>   29.8975    0.0000 </r>
       <r>   29.8981    0.0000 </r>
       <r>   30.0992    0.0000 </r>
       <r>   30.0995    0.0000 </r>
       <r>   30.1002    0.0000 </r>
       <r>   30.1006    0.0000 </r>
       <r>   30.5397    0.0000 </r>
       <r>   30.5398    0.0000 </r>
       <r>   31.3419    0.0000 </r>
       <r>   31.3420    0.0000 </r>
       <r>   31.3431    0.0000 </r>
       <r>   31.3433    0.0000 </r>
       <r>   37.5212    0.0000 </r>
       <r>   37.5217    0.0000 </r>
       <r>   37.5220    0.0000 </r>
       <r>   37.5223    0.0000 </r>
       <r>   37.5226    0.0000 </r>
       <r>   37.5231    0.0000 </r>
       <r>   38.2763    0.0000 </r>
       <r>   38.2778    0.0000 </r>
       <r>   38.3668    0.0000 </r>
       <r>   38.3670    0.0000 </r>
       <r>   38.3674    0.0000 </r>
       <r>   38.3699    0.0000 </r>
       <r>   38.3703    0.0000 </r>
       <r>   38.3706    0.0000 </r>
       <r>   40.8313    0.0000 </r>
       <r>   40.8316    0.0000 </r>
       <r>   40.8319    0.0000 </r>
       <r>   40.8322    0.0000 </r>
       <r>   41.0222    0.0000 </r>
       <r>   41.0227    0.0000 </r>
       <r>   42.2449    0.0000 </r>
       <r>   42.2456    0.0000 </r>
       <r>   42.5025    0.0000 </r>
       <r>   42.5037    0.0000 </r>
       <r>   42.5043    0.0000 </r>
       <r>   42.5054    0.0000 </r>
       <r>   42.8714    0.0000 </r>
       <r>   42.8718    0.0000 </r>
       <r>   42.8722    0.0000 </r>
       <r>   42.8726    0.0000 </r>
       <r>   43.6871    0.0000 </r>
       <r>   43.6872    0.0000 </r>
       <r>   43.6893    0.0000 </r>
       <r>   43.6894    0.0000 </r>
       <r>   43.7807    0.0000 </r>
       <r>   43.7813    0.0000 </r>
       <r>   43.7821    0.0000 </r>
       <r>   43.7827    0.0000 </r>
       <r>   43.9791    0.0000 </r>
       <r>   43.9801    0.0000 </r>
       <r>   44.9204    0.0000 </r>
       <r>   44.9213    0.0000 </r>
       <r>   45.3660    0.0000 </r>
       <r>   45.3675    0.0000 </r>
       <r>   45.7970    0.0000 </r>
       <r>   45.7971    0.0000 </r>
       <r>   45.7983    0.0000 </r>
       <r>   45.7984    0.0000 </r>
       <r>   46.3386    0.0000 </r>
       <r>   46.3388    0.0000 </r>
       <r>   46.6915    0.0000 </r>
       <r>   46.6917    0.0000 </r>
       <r>   46.6921    0.0000 </r>
       <r>   46.6923    0.0000 </r>
       <r>   46.8163    0.0000 </r>
       <r>   46.8175    0.0000 </r>
      </set>
      <set comment="kpoint 2">
       <r>  -30.5372    1.0000 </r>
       <r>  -30.5369    1.0000 </r>
       <r>  -30.5277    1.0000 </r>
       <r>  -30.5276    1.0000 </r>
       <r>  -23.8763    1.0000 </r>
       <r>  -23.8763    1.0000 </r>
       <r>  -23.8678    1.0000 </r>
       <r>  -23.8678    1.0000 </r>
       <r>  -23.8673    1.0000 </r>
       <r>  -23.8666    1.0000 </r>
       <r>  -20.2571    1.0000 </r>
       <r>  -20.2563    1.0000 </r>
       <r>   -7.0912    1.0000 </r>
       <r>   -7.0901    1.0000 </r>
       <r>    2.1152    1.0000 </r>
       <r>    2.1183    1.0000 </r>
       <r>    3.6914    1.0000 </r>
       <r>    3.6959    1.0000 </r>
       <r>    5.4233    0.0000 </r>
       <r>    5.4248    0.0000 </r>
       <r>    9.7225    0.0000 </r>
       <r>    9.7237    0.0000 </r>
       <r>   10.9471    0.0000 </r>
       <r>   10.9478    0.0000 </r>
       <r>   11.2692    0.0000 </r>
       <r>   11.2694    0.0000 </r>
       <r>   12.0706    0.0000 </r>
       <r>   12.0712    0.0000 </r>
       <r>   12.4003    0.0000 </r>
       <r>   12.4020    0.0000 </r>
       <r>   12.5703    0.0000 </r>
       <r>   12.5724    0.0000 </r>
       <r>   13.6688    0.0000 </r>
       <r>   13.6705    0.0000 </r>
       <r>   15.7572    0.0000 </r>
       <r>   15.7586    0.0000 </r>
       <r>   15.9091    0.0000 </r>
       <r>   15.9117    0.0000 </r>
       <r>   17.9058    0.0000 </r>
       <r>   17.9059    0.0000 </r>
       <r>   19.7727    0.0000 </r>
       <r>   19.7745    0.0000 </r>
       <r>   19.9086    0.0000 </r>
       <r>   19.9107    0.0000 </r>
       <r>   20.3388    0.0000 </r>
       <r>   20.3392    0.0000 </r>
       <r>   21.5852    0.0000 </r>
       <r>   21.5856    0.0000 </r>
       <r>   24.8309    0.0000 </r>
       <r>   24.8320    0.0000 </r>
       <r>   25.4689    0.0000 </r>
       <r>   25.4711    0.0000 </r>
       <r>   25.7855    0.0000 </r>
       <r>   25.7872    0.0000 </r>
       <r>   26.9666    0.0000 </r>
       <r>   26.9680    0.0000 </r>
       <r>   27.6162    0.0000 </r>
       <r>   27.6165    0.0000 </r>
       <r>   28.4802    0.0000 </r>
       <r>   28.4810    0.0000 </r>
       <r>   29.9595    0.0000 </r>
       <r>   29.9618    0.0000 </r>
       <r>   30.0488    0.0000 </r>
       <r>   30.0499    0.0000 </r>
       <r>   30.6471    0.0000 </r>
       <r>   30.6482    0.0000 </r>
       <r>   30.7324    0.0000 </r>
       <r>   30.7327    0.0000 </r>
       <r>   32.6568    0.0000 </r>
       <r>   32.6586    0.0000 </r>
       <r>   35.0473    0.0000 </r>
       <r>   35.0479    0.0000 </r>
       <r>   35.2243    0.0000 </r>
       <r>   35.2255    0.0000 </r>
       <r>   36.2714    0.0000 </r>
       <r>   36.2716    0.0000 </r>
       <r>   36.2728    0.0000 </r>
       <r>   36.2741    0.0000 </r>
       <r>   36.6387    0.0000 </r>
       <r>   36.6395    0.0000 </r>
       <r>   38.0424    0.0000 </r>
       <r>   38.0431    0.0000 </r>
       <r>   38.8514    0.0000 </r>
       <r>   38.8543    0.0000 </r>
       <r>   39.0703    0.0000 </r>
       <r>   39.0710    0.0000 </r>
       <r>   39.2412    0.0000 </r>
       <r>   39.2415    0.0000 </r>
       <r>   39.2481    0.0000 </r>
       <r>   39.2488    0.0000 </r>
       <r>   40.1329    0.0000 </r>
       <r>   40.1331    0.0000 </r>
       <r>   40.2662    0.0000 </r>
       <r>   40.2672    0.0000 </r>
       <r>   41.0927    0.0000 </r>
       <r>   41.0940    0.0000 </r>
       <r>   41.2913    0.0000 </r>
       <r>   41.2922    0.0000 </r>
       <r>   42.3825    0.0000 </r>
       <r>   42.3831    0.0000 </r>
       <r>   42.8917    0.0000 </r>
       <r>   42.8920    0.0000 </r>
       <r>   42.9798    0.0000 </r>
       <r>   42.9800    0.0000 </r>
       <r>   43.8030    0.0000 </r>
       <r>   43.8036    0.0000 </r>
       <r>   44.3271    0.0000 </r>
       <r>   44.3273    0.0000 </r>
       <r>   44.4569    0.0000 </r>
       <r>   44.4585    0.0000 </r>
       <r>   44.5879    0.0000 </r>
       <r>   44.5889    0.0000 </r>
       <r>   46.1901    0.0000 </r>
       <r>   46.1914    0.0000 </r>
       <r>   46.8043    0.0000 </r>
       <r>   46.8047    0.0000 </r>
       <r>   47.1921    0.0000 </r>
       <r>   47.1930    0.0000 </r>
       <r>   48.1037    0.0000 </r>
       <r>   48.1044    0.0000 </r>
       <r>   49.0091    0.0000 </r>
       <r>   49.0095    0.0000 </r>
       <r>   49.0399    0.0000 </r>
       <r>   49.0411    0.0000 </r>
       <r>   49.9883    0.0000 </r>
       <r>   49.9895    0.0000 </r>
       <r>   51.1408    0.0000 </r>
       <r>   51.1410    0.0000 </r>
      </set>
      <set comment="kpoint 3">
       <r>  -30.5337    1.0000 </r>
       <r>  -30.5335    1.0000 </r>
       <r>  -30.5274    1.0000 </r>
       <r>  -30.5271    1.0000 </r>
       <r>  -23.8697    1.0000 </r>
       <r>  -23.8691    1.0000 </r>
       <r>  -23.8671    1.0000 </r>
       <r>  -23.8670    1.0000 </r>
       <r>  -23.8664    1.0000 </r>
       <r>  -23.8653    1.0000 </r>
       <r>  -20.2038    1.0000 </r>
       <r>  -20.2031    1.0000 </r>
       <r>   -7.2684    1.0000 </r>
       <r>   -7.2675    1.0000 </r>
       <r>    1.0320    1.0000 </r>
       <r>    1.0354    1.0000 </r>
       <r>    3.4169    1.0000 </r>
       <r>    3.4210    1.0000 </r>
       <r>    6.1222    0.0000 </r>
       <r>    6.1225    0.0000 </r>
       <r>   10.2934    0.0000 </r>
       <r>   10.2942    0.0000 </r>
       <r>   10.5073    0.0000 </r>
       <r>   10.5080    0.0000 </r>
       <r>   10.9357    0.0000 </r>
       <r>   10.9362    0.0000 </r>
       <r>   11.1930    0.0000 </r>
       <r>   11.1933    0.0000 </r>
       <r>   13.1936    0.0000 </r>
       <r>   13.1940    0.0000 </r>
       <r>   13.4626    0.0000 </r>
       <r>   13.4639    0.0000 </r>
       <r>   16.5236    0.0000 </r>
       <r>   16.5254    0.0000 </r>
       <r>   17.5622    0.0000 </r>
       <r>   17.5640    0.0000 </r>
       <r>   17.8317    0.0000 </r>
       <r>   17.8347    0.0000 </r>
       <r>   18.1714    0.0000 </r>
       <r>   18.1730    0.0000 </r>
       <r>   18.6042    0.0000 </r>
       <r>   18.6062    0.0000 </r>
       <r>   18.8845    0.0000 </r>
       <r>   18.8867    0.0000 </r>
       <r>   20.4907    0.0000 </r>
       <r>   20.4911    0.0000 </r>
       <r>   20.9989    0.0000 </r>
       <r>   20.9990    0.0000 </r>
       <r>   23.7794    0.0000 </r>
       <r>   23.7797    0.0000 </r>
       <r>   25.0421    0.0000 </r>
       <r>   25.0436    0.0000 </r>
       <r>   25.1316    0.0000 </r>
       <r>   25.1333    0.0000 </r>
       <r>   26.1929    0.0000 </r>
       <r>   26.1939    0.0000 </r>
       <r>   26.8916    0.0000 </r>
       <r>   26.8918    0.0000 </r>
       <r>   27.4253    0.0000 </r>
       <r>   27.4261    0.0000 </r>
       <r>   29.4004    0.0000 </r>
       <r>   29.4006    0.0000 </r>
       <r>   30.7742    0.0000 </r>
       <r>   30.7767    0.0000 </r>
       <r>   31.2077    0.0000 </r>
       <r>   31.2079    0.0000 </r>
       <r>   31.6528    0.0000 </r>
       <r>   31.6536    0.0000 </r>
       <r>   31.8143    0.0000 </r>
       <r>   31.8160    0.0000 </r>
       <r>   31.8943    0.0000 </r>
       <r>   31.8949    0.0000 </r>
       <r>   33.4615    0.0000 </r>
       <r>   33.4628    0.0000 </r>
       <r>   33.6028    0.0000 </r>
       <r>   33.6035    0.0000 </r>
       <r>   34.6620    0.0000 </r>
       <r>   34.6633    0.0000 </r>
       <r>   35.4268    0.0000 </r>
       <r>   35.4290    0.0000 </r>
       <r>   35.7542    0.0000 </r>
       <r>   35.7549    0.0000 </r>
       <r>   36.2030    0.0000 </r>
       <r>   36.2044    0.0000 </r>
       <r>   39.0646    0.0000 </r>
       <r>   39.0664    0.0000 </r>
       <r>   39.0979    0.0000 </r>
       <r>   39.0987    0.0000 </r>
       <r>   39.8032    0.0000 </r>
       <r>   39.8035    0.0000 </r>
       <r>   40.3696    0.0000 </r>
       <r>   40.3700    0.0000 </r>
       <r>   40.5955    0.0000 </r>
       <r>   40.5964    0.0000 </r>
       <r>   41.7720    0.0000 </r>
       <r>   41.7725    0.0000 </r>
       <r>   42.5255    0.0000 </r>
       <r>   42.5257    0.0000 </r>
       <r>   42.7704    0.0000 </r>
       <r>   42.7717    0.0000 </r>
       <r>   43.5561    0.0000 </r>
       <r>   43.5574    0.0000 </r>
       <r>   44.3956    0.0000 </r>
       <r>   44.3958    0.0000 </r>
       <r>   44.6218    0.0000 </r>
       <r>   44.6224    0.0000 </r>
       <r>   45.6491    0.0000 </r>
       <r>   45.6493    0.0000 </r>
       <r>   46.1233    0.0000 </r>
       <r>   46.1247    0.0000 </r>
       <r>   46.1933    0.0000 </r>
       <r>   46.1947    0.0000 </r>
       <r>   46.7369    0.0000 </r>
       <r>   46.7377    0.0000 </r>
       <r>   49.3436    0.0000 </r>
       <r>   49.3441    0.0000 </r>
       <r>   50.8020    0.0000 </r>
       <r>   50.8027    0.0000 </r>
       <r>   51.0658    0.0000 </r>
       <r>   51.0668    0.0000 </r>
       <r>   51.5880    0.0000 </r>
       <r>   51.5885    0.0000 </r>
       <r>   51.6449    0.0000 </r>
       <r>   51.6453    0.0000 </r>
       <r>   51.9127    0.0000 </r>
       <r>   51.9132    0.0000 </r>
       <r>   52.2250    0.0000 </r>
       <r>   52.2256    0.0000 </r>
      </set>
      <set comment="kpoint 4">
       <r>  -30.5516    1.0000 </r>
       <r>  -30.5515    1.0000 </r>
       <r>  -30.5388    1.0000 </r>
       <r>  -30.5386    1.0000 </r>
       <r>  -23.8807    1.0000 </r>
       <r>  -23.8800    1.0000 </r>
       <r>  -23.8764    1.0000 </r>
       <r>  -23.8753    1.0000 </r>
       <r>  -23.8730    1.0000 </r>
       <r>  -23.8729    1.0000 </r>
       <r>  -20.1768    1.0000 </r>
       <r>  -20.1761    1.0000 </r>
       <r>   -7.3575    1.0000 </r>
       <r>   -7.3566    1.0000 </r>
       <r>    0.6561    1.0000 </r>
       <r>    0.6596    1.0000 </r>
       <r>    3.2921    1.0000 </r>
       <r>    3.2961    1.0000 </r>
       <r>    6.1295    0.0000 </r>
       <r>    6.1298    0.0000 </r>
       <r>   10.2192    0.0000 </r>
       <r>   10.2202    0.0000 </r>
       <r>   10.4368    0.0000 </r>
       <r>   10.4374    0.0000 </r>
       <r>   10.6185    0.0000 </r>
       <r>   10.6190    0.0000 </r>
       <r>   11.9772    0.0000 </r>
       <r>   11.9776    0.0000 </r>
       <r>   14.5700    0.0000 </r>
       <r>   14.5701    0.0000 </r>
       <r>   14.6674    0.0000 </r>
       <r>   14.6684    0.0000 </r>
       <r>   15.9440    0.0000 </r>
       <r>   15.9453    0.0000 </r>
       <r>   16.9365    0.0000 </r>
       <r>   16.9365    0.0000 </r>
       <r>   17.1061    0.0000 </r>
       <r>   17.1085    0.0000 </r>
       <r>   18.3994    0.0000 </r>
       <r>   18.4016    0.0000 </r>
       <r>   18.9106    0.0000 </r>
       <r>   18.9138    0.0000 </r>
       <r>   18.9606    0.0000 </r>
       <r>   18.9624    0.0000 </r>
       <r>   20.5592    0.0000 </r>
       <r>   20.5597    0.0000 </r>
       <r>   23.0946    0.0000 </r>
       <r>   23.0958    0.0000 </r>
       <r>   23.7705    0.0000 </r>
       <r>   23.7718    0.0000 </r>
       <r>   25.1166    0.0000 </r>
       <r>   25.1171    0.0000 </r>
       <r>   25.2775    0.0000 </r>
       <r>   25.2783    0.0000 </r>
       <r>   25.3279    0.0000 </r>
       <r>   25.3288    0.0000 </r>
       <r>   26.8212    0.0000 </r>
       <r>   26.8216    0.0000 </r>
       <r>   27.0774    0.0000 </r>
       <r>   27.0786    0.0000 </r>
       <r>   28.1667    0.0000 </r>
       <r>   28.1672    0.0000 </r>
       <r>   29.2647    0.0000 </r>
       <r>   29.2656    0.0000 </r>
       <r>   30.6181    0.0000 </r>
       <r>   30.6185    0.0000 </r>
       <r>   30.6205    0.0000 </r>
       <r>   30.6224    0.0000 </r>
       <r>   31.4693    0.0000 </r>
       <r>   31.4717    0.0000 </r>
       <r>   32.1966    0.0000 </r>
       <r>   32.1968    0.0000 </r>
       <r>   32.5533    0.0000 </r>
       <r>   32.5538    0.0000 </r>
       <r>   32.8338    0.0000 </r>
       <r>   32.8352    0.0000 </r>
       <r>   33.7031    0.0000 </r>
       <r>   33.7049    0.0000 </r>
       <r>   33.7950    0.0000 </r>
       <r>   33.7974    0.0000 </r>
       <r>   35.6041    0.0000 </r>
       <r>   35.6046    0.0000 </r>
       <r>   36.4115    0.0000 </r>
       <r>   36.4128    0.0000 </r>
       <r>   39.2605    0.0000 </r>
       <r>   39.2614    0.0000 </r>
       <r>   39.3882    0.0000 </r>
       <r>   39.3906    0.0000 </r>
       <r>   39.4824    0.0000 </r>
       <r>   39.4829    0.0000 </r>
       <r>   39.9459    0.0000 </r>
       <r>   39.9467    0.0000 </r>
       <r>   40.2564    0.0000 </r>
       <r>   40.2573    0.0000 </r>
       <r>   41.6367    0.0000 </r>
       <r>   41.6377    0.0000 </r>
       <r>   41.8560    0.0000 </r>
       <r>   41.8563    0.0000 </r>
       <r>   44.5372    0.0000 </r>
       <r>   44.5377    0.0000 </r>
       <r>   45.7733    0.0000 </r>
       <r>   45.7740    0.0000 </r>
       <r>   45.9261    0.0000 </r>
       <r>   45.9271    0.0000 </r>
       <r>   46.1221    0.0000 </r>
       <r>   46.1228    0.0000 </r>
       <r>   46.2303    0.0000 </r>
       <r>   46.2307    0.0000 </r>
       <r>   47.3854    0.0000 </r>
       <r>   47.3861    0.0000 </r>
       <r>   49.0726    0.0000 </r>
       <r>   49.0735    0.0000 </r>
       <r>   49.6756    0.0000 </r>
       <r>   49.6763    0.0000 </r>
       <r>   49.8583    0.0000 </r>
       <r>   49.8593    0.0000 </r>
       <r>   50.5840    0.0000 </r>
       <r>   50.5856    0.0000 </r>
       <r>   50.9263    0.0000 </r>
       <r>   50.9270    0.0000 </r>
       <r>   51.1146    0.0000 </r>
       <r>   51.1147    0.0000 </r>
       <r>   52.2414    0.0000 </r>
       <r>   52.2431    0.0000 </r>
       <r>   52.3530    0.0000 </r>
       <r>   52.3540    0.0000 </r>
       <r>   52.4873    0.0000 </r>
       <r>   52.4890    0.0000 </r>
      </set>
      <set comment="kpoint 5">
       <r>  -30.5337    1.0000 </r>
       <r>  -30.5335    1.0000 </r>
       <r>  -30.5274    1.0000 </r>
       <r>  -30.5271    1.0000 </r>
       <r>  -23.8697    1.0000 </r>
       <r>  -23.8691    1.0000 </r>
       <r>  -23.8671    1.0000 </r>
       <r>  -23.8670    1.0000 </r>
       <r>  -23.8664    1.0000 </r>
       <r>  -23.8653    1.0000 </r>
       <r>  -20.2038    1.0000 </r>
       <r>  -20.2031    1.0000 </r>
       <r>   -7.2684    1.0000 </r>
       <r>   -7.2675    1.0000 </r>
       <r>    1.0320    1.0000 </r>
       <r>    1.0354    1.0000 </r>
       <r>    3.4169    1.0000 </r>
       <r>    3.4210    1.0000 </r>
       <r>    6.1222    0.0000 </r>
       <r>    6.1225    0.0000 </r>
       <r>   10.2934    0.0000 </r>
       <r>   10.2942    0.0000 </r>
       <r>   10.5073    0.0000 </r>
       <r>   10.5080    0.0000 </r>
       <r>   10.9357    0.0000 </r>
       <r>   10.9362    0.0000 </r>
       <r>   11.1930    0.0000 </r>
       <r>   11.1933    0.0000 </r>
       <r>   13.1936    0.0000 </r>
       <r>   13.1940    0.0000 </r>
       <r>   13.4626    0.0000 </r>
       <r>   13.4639    0.0000 </r>
       <r>   16.5236    0.0000 </r>
       <r>   16.5254    0.0000 </r>
       <r>   17.5622    0.0000 </r>
       <r>   17.5640    0.0000 </r>
       <r>   17.8317    0.0000 </r>
       <r>   17.8347    0.0000 </r>
       <r>   18.1714    0.0000 </r>
       <r>   18.1730    0.0000 </r>
       <r>   18.6042    0.0000 </r>
       <r>   18.6062    0.0000 </r>
       <r>   18.8845    0.0000 </r>
       <r>   18.8867    0.0000 </r>
       <r>   20.4907    0.0000 </r>
       <r>   20.4911    0.0000 </r>
       <r>   20.9989    0.0000 </r>
       <r>   20.9990    0.0000 </r>
       <r>   23.7794    0.0000 </r>
       <r>   23.7797    0.0000 </r>
       <r>   25.0421    0.0000 </r>
       <r>   25.0436    0.0000 </r>
       <r>   25.1316    0.0000 </r>
       <r>   25.1333    0.0000 </r>
       <r>   26.1929    0.0000 </r>
       <r>   26.1939    0.0000 </r>
       <r>   26.8916    0.0000 </r>
       <r>   26.8918    0.0000 </r>
       <r>   27.4253    0.0000 </r>
       <r>   27.4261    0.0000 </r>
       <r>   29.4004    0.0000 </r>
       <r>   29.4006    0.0000 </r>
       <r>   30.7742    0.0000 </r>
       <r>   30.7767    0.0000 </r>
       <r>   31.2077    0.0000 </r>
       <r>   31.2079    0.0000 </r>
       <r>   31.6528    0.0000 </r>
       <r>   31.6536    0.0000 </r>
       <r>   31.8143    0.0000 </r>
       <r>   31.8160    0.0000 </r>
       <r>   31.8943    0.0000 </r>
       <r>   31.8949    0.0000 </r>
       <r>   33.4615    0.0000 </r>
       <r>   33.4628    0.0000 </r>
       <r>   33.6028    0.0000 </r>
       <r>   33.6035    0.0000 </r>
       <r>   34.6620    0.0000 </r>
       <r>   34.6633    0.0000 </r>
       <r>   35.4268    0.0000 </r>
       <r>   35.4290    0.0000 </r>
       <r>   35.7542    0.0000 </r>
       <r>   35.7549    0.0000 </r>
       <r>   36.2030    0.0000 </r>
       <r>   36.2044    0.0000 </r>
       <r>   39.0646    0.0000 </r>
       <r>   39.0664    0.0000 </r>
       <r>   39.0979    0.0000 </r>
       <r>   39.0987    0.0000 </r>
       <r>   39.8032    0.0000 </r>
       <r>   39.8035    0.0000 </r>
       <r>   40.3696    0.0000 </r>
       <r>   40.3700    0.0000 </r>
       <r>   40.5955    0.0000 </r>
       <r>   40.5964    0.0000 </r>
       <r>   41.7720    0.0000 </r>
       <r>   41.7725    0.0000 </r>
       <r>   42.5255    0.0000 </r>
       <r>   42.5257    0.0000 </r>
       <r>   42.7704    0.0000 </r>
       <r>   42.7717    0.0000 </r>
       <r>   43.5561    0.0000 </r>
       <r>   43.5574    0.0000 </r>
       <r>   44.3956    0.0000 </r>
       <r>   44.3958    0.0000 </r>
       <r>   44.6218    0.0000 </r>
       <r>   44.6224    0.0000 </r>
       <r>   45.6491    0.0000 </r>
       <r>   45.6493    0.0000 </r>
       <r>   46.1233    0.0000 </r>
       <r>   46.1247    0.0000 </r>
       <r>   46.1933    0.0000 </r>
       <r>   46.1947    0.0000 </r>
       <r>   46.7369    0.0000 </r>
       <r>   46.7377    0.0000 </r>
       <r>   49.3436    0.0000 </r>
       <r>   49.3441    0.0000 </r>
       <r>   50.8020    0.0000 </r>
       <r>   50.8027    0.0000 </r>
       <r>   51.0658    0.0000 </r>
       <r>   51.0668    0.0000 </r>
       <r>   51.5880    0.0000 </r>
       <r>   51.5885    0.0000 </r>
       <r>   51.6449    0.0000 </r>
       <r>   51.6453    0.0000 </r>
       <r>   51.9127    0.0000 </r>
       <r>   51.9132    0.0000 </r>
       <r>   52.2250    0.0000 </r>
       <r>   52.2256    0.0000 </r>
      </set>
      <set comment="kpoint 6">
       <r>  -30.5372    1.0000 </r>
       <r>  -30.5369    1.0000 </r>
       <r>  -30.5277    1.0000 </r>
       <r>  -30.5276    1.0000 </r>
       <r>  -23.8763    1.0000 </r>
       <r>  -23.8763    1.0000 </r>
       <r>  -23.8678    1.0000 </r>
       <r>  -23.8678    1.0000 </r>
       <r>  -23.8673    1.0000 </r>
       <r>  -23.8666    1.0000 </r>
       <r>  -20.2571    1.0000 </r>
       <r>  -20.2563    1.0000 </r>
       <r>   -7.0912    1.0000 </r>
       <r>   -7.0901    1.0000 </r>
       <r>    2.1152    1.0000 </r>
       <r>    2.1183    1.0000 </r>
       <r>    3.6914    1.0000 </r>
       <r>    3.6959    1.0000 </r>
       <r>    5.4233    0.0000 </r>
       <r>    5.4248    0.0000 </r>
       <r>    9.7225    0.0000 </r>
       <r>    9.7237    0.0000 </r>
       <r>   10.9471    0.0000 </r>
       <r>   10.9478    0.0000 </r>
       <r>   11.2692    0.0000 </r>
       <r>   11.2694    0.0000 </r>
       <r>   12.0706    0.0000 </r>
       <r>   12.0712    0.0000 </r>
       <r>   12.4003    0.0000 </r>
       <r>   12.4020    0.0000 </r>
       <r>   12.5703    0.0000 </r>
       <r>   12.5724    0.0000 </r>
       <r>   13.6688    0.0000 </r>
       <r>   13.6705    0.0000 </r>
       <r>   15.7572    0.0000 </r>
       <r>   15.7586    0.0000 </r>
       <r>   15.9091    0.0000 </r>
       <r>   15.9117    0.0000 </r>
       <r>   17.9058    0.0000 </r>
       <r>   17.9059    0.0000 </r>
       <r>   19.7727    0.0000 </r>
       <r>   19.7745    0.0000 </r>
       <r>   19.9086    0.0000 </r>
       <r>   19.9107    0.0000 </r>
       <r>   20.3388    0.0000 </r>
       <r>   20.3392    0.0000 </r>
       <r>   21.5852    0.0000 </r>
       <r>   21.5856    0.0000 </r>
       <r>   24.8309    0.0000 </r>
       <r>   24.8320    0.0000 </r>
       <r>   25.4689    0.0000 </r>
       <r>   25.4711    0.0000 </r>
       <r>   25.7855    0.0000 </r>
       <r>   25.7872    0.0000 </r>
       <r>   26.9666    0.0000 </r>
       <r>   26.9680    0.0000 </r>
       <r>   27.6162    0.0000 </r>
       <r>   27.6165    0.0000 </r>
       <r>   28.4802    0.0000 </r>
       <r>   28.4810    0.0000 </r>
       <r>   29.9595    0.0000 </r>
       <r>   29.9618    0.0000 </r>
       <r>   30.0488    0.0000 </r>
       <r>   30.0499    0.0000 </r>
       <r>   30.6471    0.0000 </r>
       <r>   30.6482    0.0000 </r>
       <r>   30.7324    0.0000 </r>
       <r>   30.7327    0.0000 </r>
       <r>   32.6568    0.0000 </r>
       <r>   32.6586    0.0000 </r>
       <r>   35.0473    0.0000 </r>
       <r>   35.0479    0.0000 </r>
       <r>   35.2243    0.0000 </r>
       <r>   35.2255    0.0000 </r>
       <r>   36.2714    0.0000 </r>
       <r>   36.2716    0.0000 </r>
       <r>   36.2728    0.0000 </r>
       <r>   36.2741    0.0000 </r>
       <r>   36.6387    0.0000 </r>
       <r>   36.6395    0.0000 </r>
       <r>   38.0424    0.0000 </r>
       <r>   38.0431    0.0000 </r>
       <r>   38.8514    0.0000 </r>
       <r>   38.8543    0.0000 </r>
       <r>   39.0703    0.0000 </r>
       <r>   39.0710    0.0000 </r>
       <r>   39.2412    0.0000 </r>
       <r>   39.2415    0.0000 </r>
       <r>   39.2481    0.0000 </r>
       <r>   39.2488    0.0000 </r>
       <r>   40.1329    0.0000 </r>
       <r>   40.1331    0.0000 </r>
       <r>   40.2662    0.0000 </r>
       <r>   40.2672    0.0000 </r>
       <r>   41.0927    0.0000 </r>
       <r>   41.0940    0.0000 </r>
       <r>   41.2913    0.0000 </r>
       <r>   41.2922    0.0000 </r>
       <r>   42.3825    0.0000 </r>
       <r>   42.3831    0.0000 </r>
       <r>   42.8917    0.0000 </r>
       <r>   42.8920    0.0000 </r>
       <r>   42.9798    0.0000 </r>
       <r>   42.9800    0.0000 </r>
       <r>   43.8030    0.0000 </r>
       <r>   43.8036    0.0000 </r>
       <r>   44.3271    0.0000 </r>
       <r>   44.3273    0.0000 </r>
       <r>   44.4569    0.0000 </r>
       <r>   44.4585    0.0000 </r>
       <r>   44.5879    0.0000 </r>
       <r>   44.5889    0.0000 </r>
       <r>   46.1901    0.0000 </r>
       <r>   46.1914    0.0000 </r>
       <r>   46.8043    0.0000 </r>
       <r>   46.8047    0.0000 </r>
       <r>   47.1921    0.0000 </r>
       <r>   47.1930    0.0000 </r>
       <r>   48.1037    0.0000 </r>
       <r>   48.1044    0.0000 </r>
       <r>   49.0091    0.0000 </r>
       <r>   49.0095    0.0000 </r>
       <r>   49.0399    0.0000 </r>
       <r>   49.0411    0.0000 </r>
       <r>   49.9883    0.0000 </r>
       <r>   49.9895    0.0000 </r>
       <r>   51.1408    0.0000 </r>
       <r>   51.1410    0.0000 </r>
      </set>
      <set comment="kpoint 7">
       <r>  -30.5371    1.0000 </r>
       <r>  -30.5370    1.0000 </r>
       <r>  -30.5277    1.0000 </r>
       <r>  -30.5276    1.0000 </r>
       <r>  -23.8764    1.0000 </r>
       <r>  -23.8762    1.0000 </r>
       <r>  -23.8677    1.0000 </r>
       <r>  -23.8675    1.0000 </r>
       <r>  -23.8672    1.0000 </r>
       <r>  -23.8670    1.0000 </r>
       <r>  -20.2571    1.0000 </r>
       <r>  -20.2563    1.0000 </r>
       <r>   -7.0912    1.0000 </r>
       <r>   -7.0901    1.0000 </r>
       <r>    2.1164    1.0000 </r>
       <r>    2.1172    1.0000 </r>
       <r>    3.6929    1.0000 </r>
       <r>    3.6944    1.0000 </r>
       <r>    5.4239    0.0000 </r>
       <r>    5.4243    0.0000 </r>
       <r>    9.7229    0.0000 </r>
       <r>    9.7232    0.0000 </r>
       <r>   10.9474    0.0000 </r>
       <r>   10.9475    0.0000 </r>
       <r>   11.2690    0.0000 </r>
       <r>   11.2695    0.0000 </r>
       <r>   12.0704    0.0000 </r>
       <r>   12.0715    0.0000 </r>
       <r>   12.4003    0.0000 </r>
       <r>   12.4020    0.0000 </r>
       <r>   12.5711    0.0000 </r>
       <r>   12.5717    0.0000 </r>
       <r>   13.6694    0.0000 </r>
       <r>   13.6699    0.0000 </r>
       <r>   15.7567    0.0000 </r>
       <r>   15.7591    0.0000 </r>
       <r>   15.9100    0.0000 </r>
       <r>   15.9108    0.0000 </r>
       <r>   17.9056    0.0000 </r>
       <r>   17.9061    0.0000 </r>
       <r>   19.7731    0.0000 </r>
       <r>   19.7740    0.0000 </r>
       <r>   19.9094    0.0000 </r>
       <r>   19.9100    0.0000 </r>
       <r>   20.3382    0.0000 </r>
       <r>   20.3398    0.0000 </r>
       <r>   21.5852    0.0000 </r>
       <r>   21.5857    0.0000 </r>
       <r>   24.8311    0.0000 </r>
       <r>   24.8318    0.0000 </r>
       <r>   25.4698    0.0000 </r>
       <r>   25.4703    0.0000 </r>
       <r>   25.7861    0.0000 </r>
       <r>   25.7866    0.0000 </r>
       <r>   26.9666    0.0000 </r>
       <r>   26.9681    0.0000 </r>
       <r>   27.6163    0.0000 </r>
       <r>   27.6165    0.0000 </r>
       <r>   28.4804    0.0000 </r>
       <r>   28.4808    0.0000 </r>
       <r>   29.9603    0.0000 </r>
       <r>   29.9610    0.0000 </r>
       <r>   30.0487    0.0000 </r>
       <r>   30.0500    0.0000 </r>
       <r>   30.6475    0.0000 </r>
       <r>   30.6478    0.0000 </r>
       <r>   30.7320    0.0000 </r>
       <r>   30.7330    0.0000 </r>
       <r>   32.6574    0.0000 </r>
       <r>   32.6580    0.0000 </r>
       <r>   35.0470    0.0000 </r>
       <r>   35.0483    0.0000 </r>
       <r>   35.2246    0.0000 </r>
       <r>   35.2253    0.0000 </r>
       <r>   36.2713    0.0000 </r>
       <r>   36.2715    0.0000 </r>
       <r>   36.2733    0.0000 </r>
       <r>   36.2738    0.0000 </r>
       <r>   36.6389    0.0000 </r>
       <r>   36.6393    0.0000 </r>
       <r>   38.0425    0.0000 </r>
       <r>   38.0430    0.0000 </r>
       <r>   38.8525    0.0000 </r>
       <r>   38.8532    0.0000 </r>
       <r>   39.0700    0.0000 </r>
       <r>   39.0712    0.0000 </r>
       <r>   39.2411    0.0000 </r>
       <r>   39.2415    0.0000 </r>
       <r>   39.2484    0.0000 </r>
       <r>   39.2486    0.0000 </r>
       <r>   40.1327    0.0000 </r>
       <r>   40.1333    0.0000 </r>
       <r>   40.2666    0.0000 </r>
       <r>   40.2668    0.0000 </r>
       <r>   41.0931    0.0000 </r>
       <r>   41.0936    0.0000 </r>
       <r>   41.2913    0.0000 </r>
       <r>   41.2922    0.0000 </r>
       <r>   42.3827    0.0000 </r>
       <r>   42.3829    0.0000 </r>
       <r>   42.8913    0.0000 </r>
       <r>   42.8924    0.0000 </r>
       <r>   42.9795    0.0000 </r>
       <r>   42.9803    0.0000 </r>
       <r>   43.8029    0.0000 </r>
       <r>   43.8036    0.0000 </r>
       <r>   44.3267    0.0000 </r>
       <r>   44.3276    0.0000 </r>
       <r>   44.4575    0.0000 </r>
       <r>   44.4579    0.0000 </r>
       <r>   44.5879    0.0000 </r>
       <r>   44.5890    0.0000 </r>
       <r>   46.1906    0.0000 </r>
       <r>   46.1909    0.0000 </r>
       <r>   46.8043    0.0000 </r>
       <r>   46.8047    0.0000 </r>
       <r>   47.1924    0.0000 </r>
       <r>   47.1927    0.0000 </r>
       <r>   48.1038    0.0000 </r>
       <r>   48.1043    0.0000 </r>
       <r>   49.0090    0.0000 </r>
       <r>   49.0096    0.0000 </r>
       <r>   49.0403    0.0000 </r>
       <r>   49.0407    0.0000 </r>
       <r>   49.9887    0.0000 </r>
       <r>   49.9891    0.0000 </r>
       <r>   51.1405    0.0000 </r>
       <r>   51.1414    0.0000 </r>
      </set>
      <set comment="kpoint 8">
       <r>  -30.5337    1.0000 </r>
       <r>  -30.5334    1.0000 </r>
       <r>  -30.5281    1.0000 </r>
       <r>  -30.5279    1.0000 </r>
       <r>  -23.8726    1.0000 </r>
       <r>  -23.8720    1.0000 </r>
       <r>  -23.8688    1.0000 </r>
       <r>  -23.8680    1.0000 </r>
       <r>  -23.8668    1.0000 </r>
       <r>  -23.8663    1.0000 </r>
       <r>  -20.2483    1.0000 </r>
       <r>  -20.2475    1.0000 </r>
       <r>   -7.1183    1.0000 </r>
       <r>   -7.1173    1.0000 </r>
       <r>    2.0038    1.0000 </r>
       <r>    2.0068    1.0000 </r>
       <r>    3.3413    1.0000 </r>
       <r>    3.3458    1.0000 </r>
       <r>    5.9468    0.0000 </r>
       <r>    5.9481    0.0000 </r>
       <r>    9.1334    0.0000 </r>
       <r>    9.1344    0.0000 </r>
       <r>   10.5128    0.0000 </r>
       <r>   10.5139    0.0000 </r>
       <r>   11.2803    0.0000 </r>
       <r>   11.2816    0.0000 </r>
       <r>   11.9695    0.0000 </r>
       <r>   11.9708    0.0000 </r>
       <r>   13.4841    0.0000 </r>
       <r>   13.4851    0.0000 </r>
       <r>   14.0462    0.0000 </r>
       <r>   14.0485    0.0000 </r>
       <r>   14.1270    0.0000 </r>
       <r>   14.1283    0.0000 </r>
       <r>   14.4290    0.0000 </r>
       <r>   14.4310    0.0000 </r>
       <r>   15.5918    0.0000 </r>
       <r>   15.5938    0.0000 </r>
       <r>   18.7842    0.0000 </r>
       <r>   18.7849    0.0000 </r>
       <r>   19.6250    0.0000 </r>
       <r>   19.6264    0.0000 </r>
       <r>   20.0677    0.0000 </r>
       <r>   20.0686    0.0000 </r>
       <r>   20.2027    0.0000 </r>
       <r>   20.2032    0.0000 </r>
       <r>   21.2797    0.0000 </r>
       <r>   21.2807    0.0000 </r>
       <r>   24.6000    0.0000 </r>
       <r>   24.6019    0.0000 </r>
       <r>   25.5815    0.0000 </r>
       <r>   25.5821    0.0000 </r>
       <r>   25.6127    0.0000 </r>
       <r>   25.6149    0.0000 </r>
       <r>   26.3753    0.0000 </r>
       <r>   26.3767    0.0000 </r>
       <r>   26.9361    0.0000 </r>
       <r>   26.9366    0.0000 </r>
       <r>   27.7661    0.0000 </r>
       <r>   27.7673    0.0000 </r>
       <r>   29.6739    0.0000 </r>
       <r>   29.6752    0.0000 </r>
       <r>   30.2938    0.0000 </r>
       <r>   30.2948    0.0000 </r>
       <r>   31.0956    0.0000 </r>
       <r>   31.0963    0.0000 </r>
       <r>   31.1606    0.0000 </r>
       <r>   31.1612    0.0000 </r>
       <r>   34.2449    0.0000 </r>
       <r>   34.2455    0.0000 </r>
       <r>   34.7740    0.0000 </r>
       <r>   34.7744    0.0000 </r>
       <r>   35.1802    0.0000 </r>
       <r>   35.1817    0.0000 </r>
       <r>   35.2284    0.0000 </r>
       <r>   35.2304    0.0000 </r>
       <r>   36.0854    0.0000 </r>
       <r>   36.0860    0.0000 </r>
       <r>   36.5904    0.0000 </r>
       <r>   36.5918    0.0000 </r>
       <r>   37.5827    0.0000 </r>
       <r>   37.5858    0.0000 </r>
       <r>   37.7240    0.0000 </r>
       <r>   37.7253    0.0000 </r>
       <r>   38.8369    0.0000 </r>
       <r>   38.8376    0.0000 </r>
       <r>   39.0579    0.0000 </r>
       <r>   39.0590    0.0000 </r>
       <r>   40.2487    0.0000 </r>
       <r>   40.2499    0.0000 </r>
       <r>   40.7565    0.0000 </r>
       <r>   40.7575    0.0000 </r>
       <r>   40.8144    0.0000 </r>
       <r>   40.8154    0.0000 </r>
       <r>   41.4715    0.0000 </r>
       <r>   41.4723    0.0000 </r>
       <r>   41.7213    0.0000 </r>
       <r>   41.7222    0.0000 </r>
       <r>   41.8135    0.0000 </r>
       <r>   41.8141    0.0000 </r>
       <r>   42.0824    0.0000 </r>
       <r>   42.0828    0.0000 </r>
       <r>   42.7372    0.0000 </r>
       <r>   42.7379    0.0000 </r>
       <r>   43.8547    0.0000 </r>
       <r>   43.8555    0.0000 </r>
       <r>   43.8581    0.0000 </r>
       <r>   43.8588    0.0000 </r>
       <r>   44.2999    0.0000 </r>
       <r>   44.3004    0.0000 </r>
       <r>   44.5150    0.0000 </r>
       <r>   44.5162    0.0000 </r>
       <r>   45.0997    0.0000 </r>
       <r>   45.1003    0.0000 </r>
       <r>   47.0291    0.0000 </r>
       <r>   47.0308    0.0000 </r>
       <r>   47.8408    0.0000 </r>
       <r>   47.8414    0.0000 </r>
       <r>   48.1759    0.0000 </r>
       <r>   48.1773    0.0000 </r>
       <r>   49.8068    0.0000 </r>
       <r>   49.8075    0.0000 </r>
       <r>   51.0149    0.0000 </r>
       <r>   51.0157    0.0000 </r>
       <r>   51.0362    0.0000 </r>
       <r>   51.0374    0.0000 </r>
       <r>   51.1023    0.0000 </r>
       <r>   51.1038    0.0000 </r>
      </set>
      <set comment="kpoint 9">
       <r>  -30.5404    1.0000 </r>
       <r>  -30.5402    1.0000 </r>
       <r>  -30.5348    1.0000 </r>
       <r>  -30.5346    1.0000 </r>
       <r>  -23.8755    1.0000 </r>
       <r>  -23.8752    1.0000 </r>
       <r>  -23.8721    1.0000 </r>
       <r>  -23.8715    1.0000 </r>
       <r>  -23.8696    1.0000 </r>
       <r>  -23.8690    1.0000 </r>
       <r>  -20.2042    1.0000 </r>
       <r>  -20.2034    1.0000 </r>
       <r>   -7.2605    1.0000 </r>
       <r>   -7.2595    1.0000 </r>
       <r>    1.2066    1.0000 </r>
       <r>    1.2098    1.0000 </r>
       <r>    2.9274    1.0000 </r>
       <r>    2.9313    1.0000 </r>
       <r>    6.8290    0.0000 </r>
       <r>    6.8296    0.0000 </r>
       <r>    9.0404    0.0000 </r>
       <r>    9.0418    0.0000 </r>
       <r>    9.5620    0.0000 </r>
       <r>    9.5632    0.0000 </r>
       <r>   11.5413    0.0000 </r>
       <r>   11.5420    0.0000 </r>
       <r>   12.8050    0.0000 </r>
       <r>   12.8062    0.0000 </r>
       <r>   13.4700    0.0000 </r>
       <r>   13.4704    0.0000 </r>
       <r>   14.2372    0.0000 </r>
       <r>   14.2384    0.0000 </r>
       <r>   15.9136    0.0000 </r>
       <r>   15.9155    0.0000 </r>
       <r>   16.3608    0.0000 </r>
       <r>   16.3624    0.0000 </r>
       <r>   17.4997    0.0000 </r>
       <r>   17.5012    0.0000 </r>
       <r>   18.1208    0.0000 </r>
       <r>   18.1219    0.0000 </r>
       <r>   18.5769    0.0000 </r>
       <r>   18.5777    0.0000 </r>
       <r>   20.1720    0.0000 </r>
       <r>   20.1723    0.0000 </r>
       <r>   20.5938    0.0000 </r>
       <r>   20.5948    0.0000 </r>
       <r>   20.8607    0.0000 </r>
[...]
       <r>    30.8436     0.0000     0.0000 </r>
       <r>    31.1515     0.0000     0.0000 </r>
       <r>    31.4595     0.0000     0.0000 </r>
       <r>    31.7674     0.0000     0.0000 </r>
       <r>    32.0754     0.0000     0.0000 </r>
       <r>    32.3833     0.0000     0.0000 </r>
       <r>    32.6913     0.0000     0.0000 </r>
       <r>    32.9993     0.0000     0.0000 </r>
       <r>    33.3072     0.0000     0.0000 </r>
       <r>    33.6152     0.0000     0.0000 </r>
       <r>    33.9231     0.0000     0.0000 </r>
       <r>    34.2311     0.0000     0.0000 </r>
       <r>    34.5390     0.0000     0.0000 </r>
       <r>    34.8470     0.0000     0.0000 </r>
       <r>    35.1550     0.0000     0.0000 </r>
       <r>    35.4629     0.0000     0.0000 </r>
       <r>    35.7709     0.0000     0.0000 </r>
       <r>    36.0788     0.0000     0.0000 </r>
       <r>    36.3868     0.0000     0.0000 </r>
       <r>    36.6947     0.0000     0.0000 </r>
       <r>    37.0027     0.0000     0.0000 </r>
       <r>    37.3106     0.0000     0.0000 </r>
       <r>    37.6186     0.0000     0.0000 </r>
       <r>    37.9266     0.0000     0.0000 </r>
       <r>    38.2345     0.0000     0.0000 </r>
       <r>    38.5425     0.0000     0.0000 </r>
       <r>    38.8504     0.0000     0.0000 </r>
       <r>    39.1584     0.0000     0.0000 </r>
       <r>    39.4663     0.0000     0.0000 </r>
       <r>    39.7743     0.0000     0.0000 </r>
       <r>    40.0822     0.0000     0.0000 </r>
       <r>    40.3902     0.0000     0.0000 </r>
       <r>    40.6982     0.0000     0.0000 </r>
       <r>    41.0061     0.0000     0.0000 </r>
       <r>    41.3141     0.0000     0.0000 </r>
       <r>    41.6220     0.0000     0.0000 </r>
       <r>    41.9300     0.0000     0.0000 </r>
       <r>    42.2379     0.0000     0.0000 </r>
       <r>    42.5459     0.0000     0.0000 </r>
       <r>    42.8539     0.0000     0.0000 </r>
       <r>    43.1618     0.0000     0.0000 </r>
       <r>    43.4698     0.0000     0.0000 </r>
       <r>    43.7777     0.0000     0.0000 </r>
       <r>    44.0857     0.0000     0.0000 </r>
       <r>    44.3936     0.0000     0.0000 </r>
       <r>    44.7016     0.0000     0.0000 </r>
       <r>    45.0095     0.0000     0.0000 </r>
       <r>    45.3175     0.0000     0.0000 </r>
       <r>    45.6255     0.0000     0.0000 </r>
       <r>    45.9334     0.0000     0.0000 </r>
       <r>    46.2414     0.0000     0.0000 </r>
       <r>    46.5493     0.0000     0.0000 </r>
       <r>    46.8573     0.0000     0.0000 </r>
       <r>    47.1652     0.0000     0.0000 </r>
       <r>    47.4732     0.0000     0.0000 </r>
       <r>    47.7811     0.0000     0.0000 </r>
       <r>    48.0891     0.0000     0.0000 </r>
       <r>    48.3971     0.0000     0.0000 </r>
       <r>    48.7050     0.0000     0.0000 </r>
       <r>    49.0130     0.0000     0.0000 </r>
       <r>    49.3209     0.0000     0.0000 </r>
       <r>    49.6289     0.0000     0.0000 </r>
       <r>    49.9368     0.0000     0.0000 </r>
       <r>    50.2448     0.0000     0.0000 </r>
       <r>    50.5527     0.0000     0.0000 </r>
       <r>    50.8607     0.0000     0.0000 </r>
       <r>    51.1687     0.0000     0.0000 </r>
       <r>    51.4766     0.0000     0.0000 </r>
       <r>    51.7846     0.0000     0.0000 </r>
       <r>    52.0925     0.0000     0.0000 </r>
       <r>    52.4005     0.0000     0.0000 </r>
       <r>    52.7084     0.0000     0.0000 </r>
       <r>    53.0164     0.0000     0.0000 </r>
       <r>    53.3244     0.0000     0.0000 </r>
       <r>    53.6323     0.0000     0.0000 </r>
       <r>    53.9403     0.0000     0.0000 </r>
       <r>    54.2482     0.0000     0.0000 </r>
       <r>    54.5562     0.0000     0.0000 </r>
       <r>    54.8641     0.0000     0.0000 </r>
       <r>    55.1721     0.0000     0.0000 </r>
       <r>    55.4800     0.0000     0.0000 </r>
       <r>    55.7880     0.0000     0.0000 </r>
       <r>    56.0960     0.0000     0.0000 </r>
       <r>    56.4039     0.0000     0.0000 </r>
       <r>    56.7119     0.0000     0.0000 </r>
       <r>    57.0198     0.0000     0.0000 </r>
       <r>    57.3278     0.0000     0.0000 </r>
       <r>    57.6357     0.0000     0.0000 </r>
      </set>
      <set comment="spin 4">
       <r>   -34.7510     0.0000     0.0000 </r>
       <r>   -34.4431     0.0000     0.0000 </r>
       <r>   -34.1351     0.0000     0.0000 </r>
       <r>   -33.8272     0.0000     0.0000 </r>
       <r>   -33.5192     0.0000     0.0000 </r>
       <r>   -33.2113     0.0000     0.0000 </r>
       <r>   -32.9033     0.0000     0.0000 </r>
       <r>   -32.5954     0.0000     0.0000 </r>
       <r>   -32.2874     0.0000     0.0000 </r>
       <r>   -31.9794     0.0000     0.0000 </r>
       <r>   -31.6715     0.0000     0.0000 </r>
       <r>   -31.3635     0.0000     0.0000 </r>
       <r>   -31.0556     0.0000     0.0000 </r>
       <r>   -30.7476     0.0000     0.0000 </r>
       <r>   -30.4397     0.0000     0.0000 </r>
       <r>   -30.1317     0.0000     0.0000 </r>
       <r>   -29.8238     0.0000     0.0000 </r>
       <r>   -29.5158     0.0000     0.0000 </r>
       <r>   -29.2078     0.0000     0.0000 </r>
       <r>   -28.8999     0.0000     0.0000 </r>
       <r>   -28.5919     0.0000     0.0000 </r>
       <r>   -28.2840     0.0000     0.0000 </r>
       <r>   -27.9760     0.0000     0.0000 </r>
       <r>   -27.6681     0.0000     0.0000 </r>
       <r>   -27.3601     0.0000     0.0000 </r>
       <r>   -27.0521     0.0000     0.0000 </r>
       <r>   -26.7442     0.0000     0.0000 </r>
       <r>   -26.4362     0.0000     0.0000 </r>
       <r>   -26.1283     0.0000     0.0000 </r>
       <r>   -25.8203     0.0000     0.0000 </r>
       <r>   -25.5124     0.0000     0.0000 </r>
       <r>   -25.2044     0.0000     0.0000 </r>
       <r>   -24.8965     0.0000     0.0000 </r>
       <r>   -24.5885     0.0000     0.0000 </r>
       <r>   -24.2805     0.0000     0.0000 </r>
       <r>   -23.9726     0.0000     0.0000 </r>
       <r>   -23.6646     0.0000     0.0000 </r>
       <r>   -23.3567     0.0000     0.0000 </r>
       <r>   -23.0487     0.0000     0.0000 </r>
       <r>   -22.7408     0.0000     0.0000 </r>
       <r>   -22.4328     0.0000     0.0000 </r>
       <r>   -22.1249     0.0000     0.0000 </r>
       <r>   -21.8169     0.0000     0.0000 </r>
       <r>   -21.5089     0.0000     0.0000 </r>
       <r>   -21.2010     0.0000     0.0000 </r>
       <r>   -20.8930     0.0000     0.0000 </r>
       <r>   -20.5851     0.0000     0.0000 </r>
       <r>   -20.2771     0.0000     0.0000 </r>
       <r>   -19.9692     0.0000     0.0000 </r>
       <r>   -19.6612     0.0000     0.0000 </r>
       <r>   -19.3533     0.0000     0.0000 </r>
       <r>   -19.0453     0.0000     0.0000 </r>
       <r>   -18.7373     0.0000     0.0000 </r>
       <r>   -18.4294     0.0000     0.0000 </r>
       <r>   -18.1214     0.0000     0.0000 </r>
       <r>   -17.8135     0.0000     0.0000 </r>
       <r>   -17.5055     0.0000     0.0000 </r>
       <r>   -17.1976     0.0000     0.0000 </r>
       <r>   -16.8896     0.0000     0.0000 </r>
       <r>   -16.5816     0.0000     0.0000 </r>
       <r>   -16.2737     0.0000     0.0000 </r>
       <r>   -15.9657     0.0000     0.0000 </r>
       <r>   -15.6578     0.0000     0.0000 </r>
       <r>   -15.3498     0.0000     0.0000 </r>
       <r>   -15.0419     0.0000     0.0000 </r>
       <r>   -14.7339     0.0000     0.0000 </r>
       <r>   -14.4260     0.0000     0.0000 </r>
       <r>   -14.1180     0.0000     0.0000 </r>
       <r>   -13.8100     0.0000     0.0000 </r>
       <r>   -13.5021     0.0000     0.0000 </r>
       <r>   -13.1941     0.0000     0.0000 </r>
       <r>   -12.8862     0.0000     0.0000 </r>
       <r>   -12.5782     0.0000     0.0000 </r>
       <r>   -12.2703     0.0000     0.0000 </r>
       <r>   -11.9623     0.0000     0.0000 </r>
       <r>   -11.6544     0.0000     0.0000 </r>
       <r>   -11.3464     0.0000     0.0000 </r>
       <r>   -11.0384     0.0000     0.0000 </r>
       <r>   -10.7305     0.0000     0.0000 </r>
       <r>   -10.4225     0.0000     0.0000 </r>
       <r>   -10.1146     0.0000     0.0000 </r>
       <r>    -9.8066     0.0000     0.0000 </r>
       <r>    -9.4987     0.0000     0.0000 </r>
       <r>    -9.1907     0.0000     0.0000 </r>
       <r>    -8.8827     0.0000     0.0000 </r>
       <r>    -8.5748     0.0000     0.0000 </r>
       <r>    -8.2668     0.0000     0.0000 </r>
       <r>    -7.9589     0.0000     0.0000 </r>
       <r>    -7.6509     0.0000     0.0000 </r>
       <r>    -7.3430     0.0000     0.0000 </r>
       <r>    -7.0350     0.0000     0.0000 </r>
       <r>    -6.7271     0.0000     0.0000 </r>
       <r>    -6.4191     0.0000     0.0000 </r>
       <r>    -6.1111     0.0000     0.0000 </r>
       <r>    -5.8032     0.0000     0.0000 </r>
       <r>    -5.4952     0.0000     0.0000 </r>
       <r>    -5.1873     0.0000     0.0000 </r>
       <r>    -4.8793     0.0000     0.0000 </r>
       <r>    -4.5714     0.0000     0.0000 </r>
       <r>    -4.2634     0.0000     0.0000 </r>
       <r>    -3.9555     0.0000     0.0000 </r>
       <r>    -3.6475     0.0000     0.0000 </r>
       <r>    -3.3395     0.0000     0.0000 </r>
       <r>    -3.0316     0.0000     0.0000 </r>
       <r>    -2.7236     0.0000     0.0000 </r>
       <r>    -2.4157     0.0000     0.0000 </r>
       <r>    -2.1077     0.0000     0.0000 </r>
       <r>    -1.7998     0.0000     0.0000 </r>
       <r>    -1.4918     0.0000     0.0000 </r>
       <r>    -1.1838     0.0000     0.0000 </r>
       <r>    -0.8759     0.0000     0.0000 </r>
       <r>    -0.5679     0.0000     0.0000 </r>
       <r>    -0.2600     0.0000     0.0000 </r>
       <r>     0.0480     0.0000     0.0000 </r>
       <r>     0.3559     0.0000     0.0000 </r>
       <r>     0.6639     0.0000     0.0000 </r>
       <r>     0.9718     0.0000     0.0000 </r>
       <r>     1.2798     0.0000     0.0000 </r>
       <r>     1.5878     0.0000     0.0000 </r>
       <r>     1.8957     0.0000     0.0000 </r>
       <r>     2.2037     0.0000     0.0000 </r>
       <r>     2.5116     0.0000     0.0000 </r>
       <r>     2.8196     0.0000     0.0000 </r>
       <r>     3.1275     0.0000     0.0000 </r>
       <r>     3.4355     0.0000     0.0000 </r>
       <r>     3.7434     0.0000     0.0000 </r>
       <r>     4.0514     0.0000     0.0000 </r>
       <r>     4.3594     0.0000     0.0000 </r>
       <r>     4.6673     0.0000     0.0000 </r>
       <r>     4.9753     0.0000     0.0000 </r>
       <r>     5.2832     0.0000     0.0000 </r>
       <r>     5.5912     0.0000     0.0000 </r>
       <r>     5.8991     0.0000     0.0000 </r>
       <r>     6.2071     0.0000     0.0000 </r>
       <r>     6.5150     0.0000     0.0000 </r>
       <r>     6.8230     0.0000     0.0000 </r>
       <r>     7.1310     0.0000     0.0000 </r>
       <r>     7.4389     0.0000     0.0000 </r>
       <r>     7.7469     0.0000     0.0000 </r>
       <r>     8.0548     0.0000     0.0000 </r>
       <r>     8.3628     0.0000     0.0000 </r>
       <r>     8.6707     0.0000     0.0000 </r>
       <r>     8.9787     0.0000     0.0000 </r>
       <r>     9.2867     0.0000     0.0000 </r>
       <r>     9.5946     0.0000     0.0000 </r>
       <r>     9.9026     0.0000     0.0000 </r>
       <r>    10.2105     0.0000     0.0000 </r>
       <r>    10.5185     0.0000     0.0000 </r>
       <r>    10.8264     0.0000     0.0000 </r>
       <r>    11.1344     0.0000     0.0000 </r>
       <r>    11.4423     0.0000     0.0000 </r>
       <r>    11.7503     0.0000     0.0000 </r>
       <r>    12.0583     0.0000     0.0000 </r>
       <r>    12.3662     0.0000     0.0000 </r>
       <r>    12.6742     0.0000     0.0000 </r>
       <r>    12.9821     0.0000     0.0000 </r>
       <r>    13.2901     0.0000     0.0000 </r>
       <r>    13.5980     0.0000     0.0000 </r>
       <r>    13.9060     0.0000     0.0000 </r>
       <r>    14.2139     0.0000     0.0000 </r>
       <r>    14.5219     0.0000     0.0000 </r>
       <r>    14.8299     0.0000     0.0000 </r>
       <r>    15.1378     0.0000     0.0000 </r>
       <r>    15.4458     0.0000     0.0000 </r>
       <r>    15.7537     0.0000     0.0000 </r>
       <r>    16.0617     0.0000     0.0000 </r>
       <r>    16.3696     0.0000     0.0000 </r>
       <r>    16.6776     0.0000     0.0000 </r>
       <r>    16.9856     0.0000     0.0000 </r>
       <r>    17.2935     0.0000     0.0000 </r>
       <r>    17.6015     0.0000     0.0000 </r>
       <r>    17.9094     0.0000     0.0000 </r>
       <r>    18.2174     0.0000     0.0000 </r>
       <r>    18.5253     0.0000     0.0000 </r>
       <r>    18.8333     0.0000     0.0000 </r>
       <r>    19.1412     0.0000     0.0000 </r>
       <r>    19.4492     0.0000     0.0000 </r>
       <r>    19.7572     0.0000     0.0000 </r>
       <r>    20.0651     0.0000     0.0000 </r>
       <r>    20.3731     0.0000     0.0000 </r>
       <r>    20.6810     0.0000     0.0000 </r>
       <r>    20.9890     0.0000     0.0000 </r>
       <r>    21.2969     0.0000     0.0000 </r>
       <r>    21.6049     0.0000     0.0000 </r>
       <r>    21.9128     0.0000     0.0000 </r>
       <r>    22.2208     0.0000     0.0000 </r>
       <r>    22.5288     0.0000     0.0000 </r>
       <r>    22.8367     0.0000     0.0000 </r>
       <r>    23.1447     0.0000     0.0000 </r>
       <r>    23.4526     0.0000     0.0000 </r>
       <r>    23.7606     0.0000     0.0000 </r>
       <r>    24.0685     0.0000     0.0000 </r>
       <r>    24.3765     0.0000     0.0000 </r>
       <r>    24.6844     0.0000     0.0000 </r>
       <r>    24.9924     0.0000     0.0000 </r>
       <r>    25.3004     0.0000     0.0000 </r>
       <r>    25.6083     0.0000     0.0000 </r>
       <r>    25.9163     0.0000     0.0000 </r>
       <r>    26.2242     0.0000     0.0000 </r>
       <r>    26.5322     0.0000     0.0000 </r>
       <r>    26.8401     0.0000     0.0000 </r>
       <r>    27.1481     0.0000     0.0000 </r>
       <r>    27.4561     0.0000     0.0000 </r>
       <r>    27.7640     0.0000     0.0000 </r>
       <r>    28.0720     0.0000     0.0000 </r>
       <r>    28.3799     0.0000     0.0000 </r>
       <r>    28.6879     0.0000     0.0000 </r>
       <r>    28.9958     0.0000     0.0000 </r>
       <r>    29.3038     0.0000     0.0000 </r>
       <r>    29.6117     0.0000     0.0000 </r>
       <r>    29.9197     0.0000     0.0000 </r>
       <r>    30.2277     0.0000     0.0000 </r>
       <r>    30.5356     0.0000     0.0000 </r>
       <r>    30.8436     0.0000     0.0000 </r>
       <r>    31.1515     0.0000     0.0000 </r>
       <r>    31.4595     0.0000     0.0000 </r>
       <r>    31.7674     0.0000     0.0000 </r>
       <r>    32.0754     0.0000     0.0000 </r>
       <r>    32.3833     0.0000     0.0000 </r>
       <r>    32.6913     0.0000     0.0000 </r>
       <r>    32.9993     0.0000     0.0000 </r>
       <r>    33.3072     0.0000     0.0000 </r>
       <r>    33.6152     0.0000     0.0000 </r>
       <r>    33.9231     0.0000     0.0000 </r>
       <r>    34.2311     0.0000     0.0000 </r>
       <r>    34.5390     0.0000     0.0000 </r>
       <r>    34.8470     0.0000     0.0000 </r>
       <r>    35.1550     0.0000     0.0000 </r>
       <r>    35.4629     0.0000     0.0000 </r>
       <r>    35.7709     0.0000     0.0000 </r>
       <r>    36.0788     0.0000     0.0000 </r>
       <r>    36.3868     0.0000     0.0000 </r>
       <r>    36.6947     0.0000     0.0000 </r>
       <r>    37.0027     0.0000     0.0000 </r>
       <r>    37.3106     0.0000     0.0000 </r>
       <r>    37.6186     0.0000     0.0000 </r>
       <r>    37.9266     0.0000     0.0000 </r>
       <r>    38.2345     0.0000     0.0000 </r>
       <r>    38.5425     0.0000     0.0000 </r>
       <r>    38.8504     0.0000     0.0000 </r>
       <r>    39.1584     0.0000     0.0000 </r>
       <r>    39.4663     0.0000     0.0000 </r>
       <r>    39.7743     0.0000     0.0000 </r>
       <r>    40.0822     0.0000     0.0000 </r>
       <r>    40.3902     0.0000     0.0000 </r>
       <r>    40.6982     0.0000     0.0000 </r>
       <r>    41.0061     0.0000     0.0000 </r>
       <r>    41.3141     0.0000     0.0000 </r>
       <r>    41.6220     0.0000     0.0000 </r>
       <r>    41.9300     0.0000     0.0000 </r>
       <r>    42.2379     0.0000     0.0000 </r>
       <r>    42.5459     0.0000     0.0000 </r>
       <r>    42.8539     0.0000     0.0000 </r>
       <r>    43.1618     0.0000     0.0000 </r>
       <r>    43.4698     0.0000     0.0000 </r>
       <r>    43.7777     0.0000     0.0000 </r>
       <r>    44.0857     0.0000     0.0000 </r>
       <r>    44.3936     0.0000     0.0000 </r>
       <r>    44.7016     0.0000     0.0000 </r>
       <r>    45.0095     0.0000     0.0000 </r>
       <r>    45.3175     0.0000     0.0000 </r>
       <r>    45.6255     0.0000     0.0000 </r>
       <r>    45.9334     0.0000     0.0000 </r>
       <r>    46.2414     0.0000     0.0000 </r>
       <r>    46.5493     0.0000     0.0000 </r>
       <r>    46.8573     0.0000     0.0000 </r>
       <r>    47.1652     0.0000     0.0000 </r>
       <r>    47.4732     0.0000     0.0000 </r>
       <r>    47.7811     0.0000     0.0000 </r>
       <r>    48.0891     0.0000     0.0000 </r>
       <r>    48.3971     0.0000     0.0000 </r>
       <r>    48.7050     0.0000     0.0000 </r>
       <r>    49.0130     0.0000     0.0000 </r>
       <r>    49.3209     0.0000     0.0000 </r>
       <r>    49.6289     0.0000     0.0000 </r>
       <r>    49.9368     0.0000     0.0000 </r>
       <r>    50.2448     0.0000     0.0000 </r>
       <r>    50.5527     0.0000     0.0000 </r>
       <r>    50.8607     0.0000     0.0000 </r>
       <r>    51.1687     0.0000     0.0000 </r>
       <r>    51.4766     0.0000     0.0000 </r>
       <r>    51.7846     0.0000     0.0000 </r>
       <r>    52.0925     0.0000     0.0000 </r>
       <r>    52.4005     0.0000     0.0000 </r>
       <r>    52.7084     0.0000     0.0000 </r>
       <r>    53.0164     0.0000     0.0000 </r>
       <r>    53.3244     0.0000     0.0000 </r>
       <r>    53.6323     0.0000     0.0000 </r>
       <r>    53.9403     0.0000     0.0000 </r>
       <r>    54.2482     0.0000     0.0000 </r>
       <r>    54.5562     0.0000     0.0000 </r>
       <r>    54.8641     0.0000     0.0000 </r>
       <r>    55.1721     0.0000     0.0000 </r>
       <r>    55.4800     0.0000     0.0000 </r>
       <r>    55.7880     0.0000     0.0000 </r>
       <r>    56.0960     0.0000     0.0000 </r>
       <r>    56.4039     0.0000     0.0000 </r>
       <r>    56.7119     0.0000     0.0000 </r>
       <r>    57.0198     0.0000     0.0000 </r>
       <r>    57.3278     0.0000     0.0000 </r>
       <r>    57.6357     0.0000     0.0000 </r>
      </set>
     </set>
    </array>
   </total>
  </dos>
 </calculation>
 <structure name="finalpos" >
  <crystal>
   <varray name="basis" >
    <v>       4.35728355       0.00000000       0.00000000 </v>
    <v>       2.17864177       3.77351824      -0.00000000 </v>
    <v>       2.17864177       1.25783941       3.55770712 </v>
   </varray>
   <i name="volume">     58.49684840 </i>
   <varray name="rec_basis" >
    <v>       0.22950079      -0.13250234      -0.09369330 </v>
    <v>       0.00000000       0.26500468      -0.09369330 </v>
    <v>      -0.00000000       0.00000000       0.28107991 </v>
   </varray>
  </crystal>
  <varray name="positions" >
   <v>       0.00000000       0.00000000       0.00000000 </v>
  </varray>
  <varray name="velocities" >
   <v>       0.00000000       0.00000000       0.00000000 </v>
  </varray>
 </structure>
</modeling>
