Og_FCC                                  
           1
     4.357284    0.000000    0.000000
     2.178642    3.773518   -0.000000
     2.178642    1.257839    3.557707
   Og
   1
Direct configuration=     1
   0.00000000  0.00000000  0.00000000
