   1   1   0   0
  0.6083477E+02  0.4414576E-09  0.4414576E-09  0.4414576E-09  0.1000000E-15
  1.000000000000000E-004
  CAR 
 Og_FCC                                  
     23.21135489   -206.59884774  301     -0.15268238      1.00000000
   -206.599  0.0000E+00  0.0000E+00
   -205.833  0.0000E+00  0.0000E+00
   -205.067  0.0000E+00  0.0000E+00
   -204.301  0.0000E+00  0.0000E+00
   -203.535  0.0000E+00  0.0000E+00
   -202.769  0.0000E+00  0.0000E+00
   -202.003  0.0000E+00  0.0000E+00
   -201.237  0.0000E+00  0.0000E+00
   -200.471  0.0000E+00  0.0000E+00
   -199.705  0.0000E+00  0.0000E+00
   -198.939  0.0000E+00  0.0000E+00
   -198.172  0.0000E+00  0.0000E+00
   -197.406  0.0000E+00  0.0000E+00
   -196.640  0.0000E+00  0.0000E+00
   -195.874  0.0000E+00  0.2000E+01
   -195.108  0.0000E+00  0.2000E+01
   -194.342  0.0000E+00  0.2000E+01
   -193.576  0.0000E+00  0.2000E+01
   -192.810  0.0000E+00  0.2000E+01
   -192.044  0.0000E+00  0.2000E+01
   -191.278  0.0000E+00  0.2000E+01
   -190.512  0.0000E+00  0.2000E+01
   -189.746  0.0000E+00  0.2000E+01
   -188.980  0.0000E+00  0.2000E+01
   -188.214  0.0000E+00  0.2000E+01
   -187.448  0.0000E+00  0.2000E+01
   -186.682  0.0000E+00  0.2000E+01
   -185.916  0.0000E+00  0.2000E+01
   -185.150  0.0000E+00  0.2000E+01
   -184.384  0.0000E+00  0.2000E+01
   -183.618  0.0000E+00  0.2000E+01
   -182.852  0.0000E+00  0.2000E+01
   -182.086  0.0000E+00  0.2000E+01
   -181.320  0.0000E+00  0.2000E+01
   -180.554  0.0000E+00  0.2000E+01
   -179.788  0.0000E+00  0.2000E+01
   -179.022  0.0000E+00  0.2000E+01
   -178.256  0.0000E+00  0.2000E+01
   -177.490  0.0000E+00  0.2000E+01
   -176.724  0.0000E+00  0.2000E+01
   -175.957  0.0000E+00  0.2000E+01
   -175.191  0.0000E+00  0.2000E+01
   -174.425  0.0000E+00  0.2000E+01
   -173.659  0.0000E+00  0.2000E+01
   -172.893  0.0000E+00  0.2000E+01
   -172.127  0.0000E+00  0.2000E+01
   -171.361  0.0000E+00  0.2000E+01
   -170.595  0.0000E+00  0.2000E+01
   -169.829  0.0000E+00  0.2000E+01
   -169.063  0.0000E+00  0.2000E+01
   -168.297  0.0000E+00  0.2000E+01
   -167.531  0.0000E+00  0.2000E+01
   -166.765  0.0000E+00  0.2000E+01
   -165.999  0.0000E+00  0.2000E+01
   -165.233  0.0000E+00  0.2000E+01
   -164.467  0.0000E+00  0.2000E+01
   -163.701  0.0000E+00  0.2000E+01
   -162.935  0.0000E+00  0.2000E+01
   -162.169  0.0000E+00  0.2000E+01
   -161.403  0.0000E+00  0.2000E+01
   -160.637  0.0000E+00  0.2000E+01
   -159.871  0.0000E+00  0.2000E+01
   -159.105  0.0000E+00  0.2000E+01
   -158.339  0.0000E+00  0.2000E+01
   -157.573  0.0000E+00  0.2000E+01
   -156.807  0.0000E+00  0.2000E+01
   -156.041  0.0000E+00  0.2000E+01
   -155.275  0.0000E+00  0.2000E+01
   -154.509  0.0000E+00  0.2000E+01
   -153.743  0.0000E+00  0.2000E+01
   -152.976  0.0000E+00  0.2000E+01
   -152.210  0.0000E+00  0.2000E+01
   -151.444  0.0000E+00  0.2000E+01
   -150.678  0.0000E+00  0.2000E+01
   -149.912  0.0000E+00  0.2000E+01
   -149.146  0.0000E+00  0.2000E+01
   -148.380  0.0000E+00  0.2000E+01
   -147.614  0.0000E+00  0.2000E+01
   -146.848  0.0000E+00  0.2000E+01
   -146.082  0.0000E+00  0.2000E+01
   -145.316  0.0000E+00  0.2000E+01
   -144.550  0.0000E+00  0.2000E+01
   -143.784  0.0000E+00  0.2000E+01
   -143.018  0.0000E+00  0.2000E+01
   -142.252  0.0000E+00  0.2000E+01
   -141.486  0.0000E+00  0.4000E+01
   -140.720  0.0000E+00  0.4000E+01
   -139.954  0.0000E+00  0.4000E+01
   -139.188  0.0000E+00  0.4000E+01
   -138.422  0.0000E+00  0.4000E+01
   -137.656  0.0000E+00  0.4000E+01
   -136.890  0.0000E+00  0.4000E+01
   -136.124  0.0000E+00  0.4000E+01
   -135.358  0.0000E+00  0.4000E+01
   -134.592  0.0000E+00  0.4000E+01
   -133.826  0.0000E+00  0.4000E+01
   -133.060  0.0000E+00  0.4000E+01
   -132.294  0.0000E+00  0.4000E+01
   -131.528  0.0000E+00  0.4000E+01
   -130.761  0.0000E+00  0.4000E+01
   -129.995  0.0000E+00  0.4000E+01
   -129.229  0.0000E+00  0.4000E+01
   -128.463  0.0000E+00  0.4000E+01
   -127.697  0.0000E+00  0.4000E+01
   -126.931  0.0000E+00  0.4000E+01
   -126.165  0.0000E+00  0.4000E+01
   -125.399  0.0000E+00  0.4000E+01
   -124.633  0.0000E+00  0.4000E+01
   -123.867  0.0000E+00  0.4000E+01
   -123.101  0.0000E+00  0.4000E+01
   -122.335  0.0000E+00  0.4000E+01
   -121.569  0.0000E+00  0.4000E+01
   -120.803  0.0000E+00  0.4000E+01
   -120.037  0.0000E+00  0.4000E+01
   -119.271  0.0000E+00  0.4000E+01
   -118.505  0.0000E+00  0.4000E+01
   -117.739  0.0000E+00  0.4000E+01
   -116.973  0.0000E+00  0.4000E+01
   -116.207  0.0000E+00  0.4000E+01
   -115.441  0.0000E+00  0.4000E+01
   -114.675  0.0000E+00  0.4000E+01
   -113.909  0.0000E+00  0.4000E+01
   -113.143  0.0000E+00  0.8000E+01
   -112.377  0.0000E+00  0.8000E+01
   -111.611  0.0000E+00  0.8000E+01
   -110.845  0.0000E+00  0.8000E+01
   -110.079  0.0000E+00  0.8000E+01
   -109.313  0.0000E+00  0.8000E+01
   -108.546  0.0000E+00  0.8000E+01
   -107.780  0.0000E+00  0.8000E+01
   -107.014  0.0000E+00  0.8000E+01
   -106.248  0.0000E+00  0.8000E+01
   -105.482  0.0000E+00  0.8000E+01
   -104.716  0.0000E+00  0.8000E+01
   -103.950  0.0000E+00  0.8000E+01
   -103.184  0.0000E+00  0.8000E+01
   -102.418  0.0000E+00  0.8000E+01
   -101.652  0.0000E+00  0.8000E+01
   -100.886  0.0000E+00  0.8000E+01
   -100.120  0.0000E+00  0.8000E+01
    -99.354  0.0000E+00  0.8000E+01
    -98.588  0.0000E+00  0.8000E+01
    -97.822  0.0000E+00  0.8000E+01
    -97.056  0.0000E+00  0.8000E+01
    -96.290  0.0000E+00  0.8000E+01
    -95.524  0.0000E+00  0.8000E+01
    -94.758  0.0000E+00  0.8000E+01
    -93.992  0.0000E+00  0.8000E+01
    -93.226  0.0000E+00  0.8000E+01
    -92.460  0.0000E+00  0.8000E+01
    -91.694  0.0000E+00  0.8000E+01
    -90.928  0.0000E+00  0.8000E+01
    -90.162  0.0000E+00  0.8000E+01
    -89.396  0.0000E+00  0.8000E+01
    -88.630  0.0000E+00  0.8000E+01
    -87.864  0.0000E+00  0.8000E+01
    -87.098  0.0000E+00  0.8000E+01
    -86.332  0.0000E+00  0.8000E+01
    -85.565  0.0000E+00  0.8000E+01
    -84.799  0.0000E+00  0.8000E+01
    -84.033  0.0000E+00  0.8000E+01
    -83.267  0.0000E+00  0.8000E+01
    -82.501  0.0000E+00  0.8000E+01
    -81.735  0.0000E+00  0.8000E+01
    -80.969  0.0000E+00  0.8000E+01
    -80.203  0.0000E+00  0.8000E+01
    -79.437  0.0000E+00  0.8000E+01
    -78.671  0.0000E+00  0.8000E+01
    -77.905  0.0000E+00  0.8000E+01
    -77.139  0.0000E+00  0.8000E+01
    -76.373  0.0000E+00  0.8000E+01
    -75.607  0.0000E+00  0.8000E+01
    -74.841  0.0000E+00  0.8000E+01
    -74.075  0.0000E+00  0.8000E+01
    -73.309  0.0000E+00  0.8000E+01
    -72.543  0.0000E+00  0.8000E+01
    -71.777  0.0000E+00  0.8000E+01
    -71.011  0.0000E+00  0.8000E+01
    -70.245  0.0000E+00  0.8000E+01
    -69.479  0.0000E+00  0.8000E+01
    -68.713  0.0000E+00  0.8000E+01
    -67.947  0.0000E+00  0.8000E+01
    -67.181  0.0000E+00  0.8000E+01
    -66.415  0.0000E+00  0.8000E+01
    -65.649  0.0000E+00  0.8000E+01
    -64.883  0.0000E+00  0.8000E+01
    -64.117  0.0000E+00  0.8000E+01
    -63.350  0.0000E+00  0.8000E+01
    -62.584  0.0000E+00  0.8000E+01
    -61.818  0.0000E+00  0.8000E+01
    -61.052  0.0000E+00  0.8000E+01
    -60.286  0.0000E+00  0.8000E+01
    -59.520  0.0000E+00  0.8000E+01
    -58.754  0.0000E+00  0.8000E+01
    -57.988  0.0000E+00  0.8000E+01
    -57.222  0.0000E+00  0.8000E+01
    -56.456  0.0000E+00  0.8000E+01
    -55.690  0.0000E+00  0.8000E+01
    -54.924  0.0000E+00  0.8000E+01
    -54.158  0.0000E+00  0.8000E+01
    -53.392  0.0000E+00  0.8000E+01
    -52.626  0.0000E+00  0.8000E+01
    -51.860  0.0000E+00  0.8000E+01
    -51.094  0.0000E+00  0.8000E+01
    -50.328  0.0000E+00  0.8000E+01
    -49.562  0.0000E+00  0.8000E+01
    -48.796  0.0000E+00  0.8000E+01
    -48.030  0.0000E+00  0.8000E+01
    -47.264  0.0000E+00  0.8000E+01
    -46.498  0.0000E+00  0.8000E+01
    -45.732  0.0000E+00  0.8000E+01
    -44.966  0.0000E+00  0.8000E+01
    -44.200  0.0000E+00  0.8000E+01
    -43.434  0.5222E+01  0.1200E+02
    -42.668  0.0000E+00  0.1200E+02
    -41.902  0.0000E+00  0.1200E+02
    -41.136  0.0000E+00  0.1200E+02
    -40.369  0.0000E+00  0.1200E+02
    -39.603  0.0000E+00  0.1200E+02
    -38.837  0.0000E+00  0.1800E+02
    -38.071  0.0000E+00  0.1800E+02
    -37.305  0.0000E+00  0.1800E+02
    -36.539  0.0000E+00  0.1800E+02
    -35.773  0.0000E+00  0.1800E+02
    -35.007  0.0000E+00  0.1800E+02
    -34.241  0.0000E+00  0.1800E+02
    -33.475  0.0000E+00  0.1800E+02
    -32.709  0.0000E+00  0.1800E+02
    -31.943  0.0000E+00  0.1800E+02
    -31.177  0.0000E+00  0.1800E+02
    -30.411  0.0000E+00  0.1800E+02
    -29.645  0.0000E+00  0.1800E+02
    -28.879  0.0000E+00  0.1800E+02
    -28.113  0.0000E+00  0.1800E+02
    -27.347  0.0000E+00  0.1800E+02
    -26.581  0.0000E+00  0.1800E+02
    -25.815  0.0000E+00  0.1800E+02
    -25.049  0.0000E+00  0.1800E+02
    -24.283  0.0000E+00  0.1800E+02
    -23.517  0.0000E+00  0.1800E+02
    -22.751  0.0000E+00  0.1800E+02
    -21.985  0.0000E+00  0.1800E+02
    -21.219  0.0000E+00  0.1800E+02
    -20.453  0.0000E+00  0.1800E+02
    -19.687  0.0000E+00  0.1800E+02
    -18.921  0.0000E+00  0.1800E+02
    -18.154  0.0000E+00  0.1800E+02
    -17.388  0.0000E+00  0.1800E+02
    -16.622  0.2211E-03  0.1800E+02
    -15.856  0.0000E+00  0.2000E+02
    -15.090  0.0000E+00  0.2000E+02
    -14.324  0.0000E+00  0.2000E+02
    -13.558  0.0000E+00  0.2000E+02
    -12.792  0.0000E+00  0.2000E+02
    -12.026  0.0000E+00  0.2000E+02
    -11.260  0.0000E+00  0.2000E+02
    -10.494  0.0000E+00  0.2000E+02
     -9.728  0.0000E+00  0.2000E+02
     -8.962  0.0000E+00  0.2000E+02
     -8.196  0.0000E+00  0.2000E+02
     -7.430  0.0000E+00  0.2000E+02
     -6.664  0.0000E+00  0.2000E+02
     -5.898  0.0000E+00  0.2000E+02
     -5.132  0.0000E+00  0.2000E+02
     -4.366  0.1672E+01  0.2142E+02
     -3.600  0.1209E-01  0.2200E+02
     -2.834  0.0000E+00  0.2200E+02
     -2.068  0.2418E-11  0.2200E+02
     -1.302  0.2893E+00  0.2397E+02
     -0.536  0.1987E+00  0.2578E+02
      0.230  0.0000E+00  0.2600E+02
      0.996  0.0000E+00  0.2600E+02
      1.762  0.0000E+00  0.2600E+02
      2.528  0.0000E+00  0.2600E+02
      3.294  0.6039E-17  0.2600E+02
      4.061  0.0000E+00  0.2601E+02
      4.827  0.0000E+00  0.2614E+02
      5.593  0.3767E+00  0.2668E+02
      6.359  0.2187E+00  0.2775E+02
      7.125  0.2901E+00  0.2864E+02
      7.891  0.2664E-10  0.3003E+02
      8.657  0.3886E+00  0.3110E+02
      9.423  0.2176E+00  0.3278E+02
     10.189  0.2901E+00  0.3383E+02
     10.955  0.1105E+00  0.3471E+02
     11.721  0.3185E-07  0.3561E+02
     12.487  0.3626E-01  0.3586E+02
     13.253  0.0000E+00  0.3600E+02
     14.019  0.0000E+00  0.3600E+02
     14.785  0.0000E+00  0.3600E+02
     15.551  0.0000E+00  0.3600E+02
     16.317  0.0000E+00  0.3600E+02
     17.083  0.0000E+00  0.3600E+02
     17.849  0.0000E+00  0.3600E+02
     18.615  0.0000E+00  0.3600E+02
     19.381  0.0000E+00  0.3600E+02
     20.147  0.0000E+00  0.3600E+02
     20.913  0.0000E+00  0.3600E+02
     21.679  0.0000E+00  0.3600E+02
     22.445  0.0000E+00  0.3600E+02
     23.211  0.0000E+00  0.3600E+02
