   1   1   0   0
  0.5789729E+02  0.4342346E-09  0.4342346E-09  0.4342346E-09  0.1000000E-15
  1.000000000000000E-004
  CAR 
 Og_FCC                                  
     48.66872267    -34.23683643  301      3.96017272      1.00000000
    -34.237  0.0000E+00  0.0000E+00
    -33.960  0.0000E+00  0.0000E+00
    -33.684  0.0000E+00  0.0000E+00
    -33.408  0.0000E+00  0.0000E+00
    -33.131  0.0000E+00  0.0000E+00
    -32.855  0.0000E+00  0.0000E+00
    -32.579  0.0000E+00  0.0000E+00
    -32.302  0.0000E+00  0.0000E+00
    -32.026  0.0000E+00  0.0000E+00
    -31.750  0.0000E+00  0.0000E+00
    -31.473  0.0000E+00  0.0000E+00
    -31.197  0.0000E+00  0.0000E+00
    -30.921  0.0000E+00  0.0000E+00
    -30.644  0.0000E+00  0.0000E+00
    -30.368  0.0000E+00  0.4000E+01
    -30.092  0.0000E+00  0.4000E+01
    -29.815  0.0000E+00  0.4000E+01
    -29.539  0.0000E+00  0.4000E+01
    -29.263  0.0000E+00  0.4000E+01
    -28.986  0.0000E+00  0.4000E+01
    -28.710  0.0000E+00  0.4000E+01
    -28.433  0.0000E+00  0.4000E+01
    -28.157  0.0000E+00  0.4000E+01
    -27.881  0.0000E+00  0.4000E+01
    -27.604  0.0000E+00  0.4000E+01
    -27.328  0.0000E+00  0.4000E+01
    -27.052  0.0000E+00  0.4000E+01
    -26.775  0.0000E+00  0.4000E+01
    -26.499  0.0000E+00  0.4000E+01
    -26.223  0.0000E+00  0.4000E+01
    -25.946  0.0000E+00  0.4000E+01
    -25.670  0.0000E+00  0.4000E+01
    -25.394  0.0000E+00  0.4000E+01
    -25.117  0.0000E+00  0.4000E+01
    -24.841  0.0000E+00  0.4000E+01
    -24.565  0.0000E+00  0.4000E+01
    -24.288  0.0000E+00  0.4000E+01
    -24.012  0.0000E+00  0.4000E+01
    -23.735  0.0000E+00  0.1000E+02
    -23.459  0.0000E+00  0.1000E+02
    -23.183  0.0000E+00  0.1000E+02
    -22.906  0.0000E+00  0.1000E+02
    -22.630  0.0000E+00  0.1000E+02
    -22.354  0.0000E+00  0.1000E+02
    -22.077  0.0000E+00  0.1000E+02
    -21.801  0.0000E+00  0.1000E+02
    -21.525  0.0000E+00  0.1000E+02
    -21.248  0.0000E+00  0.1000E+02
    -20.972  0.0000E+00  0.1000E+02
    -20.696  0.0000E+00  0.1000E+02
    -20.419  0.0000E+00  0.1000E+02
    -20.143  0.9046E+00  0.1028E+02
    -19.867  0.0000E+00  0.1200E+02
    -19.590  0.0000E+00  0.1200E+02
    -19.314  0.0000E+00  0.1200E+02
    -19.037  0.0000E+00  0.1200E+02
    -18.761  0.0000E+00  0.1200E+02
    -18.485  0.0000E+00  0.1200E+02
    -18.208  0.0000E+00  0.1200E+02
    -17.932  0.0000E+00  0.1200E+02
    -17.656  0.0000E+00  0.1200E+02
    -17.379  0.0000E+00  0.1200E+02
    -17.103  0.0000E+00  0.1200E+02
    -16.827  0.0000E+00  0.1200E+02
    -16.550  0.0000E+00  0.1200E+02
    -16.274  0.0000E+00  0.1200E+02
    -15.998  0.0000E+00  0.1200E+02
    -15.721  0.0000E+00  0.1200E+02
    -15.445  0.0000E+00  0.1200E+02
    -15.169  0.0000E+00  0.1200E+02
    -14.892  0.0000E+00  0.1200E+02
    -14.616  0.0000E+00  0.1200E+02
    -14.340  0.0000E+00  0.1200E+02
    -14.063  0.0000E+00  0.1200E+02
    -13.787  0.0000E+00  0.1200E+02
    -13.510  0.0000E+00  0.1200E+02
    -13.234  0.0000E+00  0.1200E+02
    -12.958  0.0000E+00  0.1200E+02
    -12.681  0.0000E+00  0.1200E+02
    -12.405  0.0000E+00  0.1200E+02
    -12.129  0.0000E+00  0.1200E+02
    -11.852  0.0000E+00  0.1200E+02
    -11.576  0.0000E+00  0.1200E+02
    -11.300  0.0000E+00  0.1200E+02
    -11.023  0.0000E+00  0.1200E+02
    -10.747  0.0000E+00  0.1200E+02
    -10.471  0.0000E+00  0.1200E+02
    -10.194  0.0000E+00  0.1200E+02
     -9.918  0.0000E+00  0.1200E+02
     -9.642  0.0000E+00  0.1200E+02
     -9.365  0.0000E+00  0.1200E+02
     -9.089  0.0000E+00  0.1200E+02
     -8.812  0.0000E+00  0.1200E+02
     -8.536  0.0000E+00  0.1200E+02
     -8.260  0.0000E+00  0.1200E+02
     -7.983  0.0000E+00  0.1200E+02
     -7.707  0.0000E+00  0.1200E+02
     -7.431  0.0000E+00  0.1200E+02
     -7.154  0.0000E+00  0.1353E+02
     -6.878  0.0000E+00  0.1400E+02
     -6.602  0.0000E+00  0.1400E+02
     -6.325  0.0000E+00  0.1400E+02
     -6.049  0.0000E+00  0.1400E+02
     -5.773  0.0000E+00  0.1400E+02
     -5.496  0.0000E+00  0.1400E+02
     -5.220  0.0000E+00  0.1400E+02
     -4.944  0.0000E+00  0.1400E+02
     -4.667  0.0000E+00  0.1400E+02
     -4.391  0.0000E+00  0.1400E+02
     -4.114  0.0000E+00  0.1400E+02
     -3.838  0.0000E+00  0.1400E+02
     -3.562  0.0000E+00  0.1400E+02
     -3.285  0.0000E+00  0.1400E+02
     -3.009  0.0000E+00  0.1400E+02
     -2.733  0.0000E+00  0.1400E+02
     -2.456  0.0000E+00  0.1400E+02
     -2.180  0.0000E+00  0.1400E+02
     -1.904  0.0000E+00  0.1400E+02
     -1.627  0.0000E+00  0.1400E+02
     -1.351  0.0000E+00  0.1400E+02
     -1.075  0.0000E+00  0.1400E+02
     -0.798  0.0000E+00  0.1400E+02
     -0.522  0.0000E+00  0.1400E+02
     -0.246  0.0000E+00  0.1400E+02
      0.031  0.0000E+00  0.1400E+02
      0.307  0.0000E+00  0.1400E+02
      0.583  0.0000E+00  0.1400E+02
      0.860  0.0000E+00  0.1497E+02
      1.136  0.0000E+00  0.1553E+02
      1.413  0.0000E+00  0.1553E+02
      1.689  0.0000E+00  0.1616E+02
      1.965  0.0000E+00  0.1616E+02
      2.242  0.0000E+00  0.1616E+02
      2.518  0.0000E+00  0.1700E+02
      2.794  0.0000E+00  0.1738E+02
      3.071  0.0000E+00  0.1756E+02
      3.347  0.0000E+00  0.1756E+02
      3.623  0.0000E+00  0.1769E+02
      3.900  0.0000E+00  0.1797E+02
      4.176  0.0000E+00  0.1803E+02
      4.452  0.0000E+00  0.1803E+02
      4.729  0.0000E+00  0.1803E+02
      5.005  0.0000E+00  0.1803E+02
      5.281  0.0000E+00  0.1803E+02
      5.558  0.0000E+00  0.1803E+02
      5.834  0.0000E+00  0.1803E+02
      6.111  0.0000E+00  0.1828E+02
      6.387  0.0000E+00  0.1850E+02
      6.663  0.0000E+00  0.1850E+02
      6.940  0.0000E+00  0.1869E+02
      7.216  0.0000E+00  0.1869E+02
      7.492  0.0000E+00  0.1944E+02
      7.769  0.0000E+00  0.2009E+02
      8.045  0.0000E+00  0.2009E+02
      8.321  0.0000E+00  0.2009E+02
      8.598  0.0000E+00  0.2028E+02
      8.874  0.0000E+00  0.2141E+02
      9.150  0.0000E+00  0.2141E+02
      9.427  0.0000E+00  0.2141E+02
      9.703  0.3392E+00  0.2159E+02
      9.979  0.3392E+00  0.2222E+02
     10.256  0.1131E+01  0.2334E+02
     10.532  0.4523E+00  0.2359E+02
     10.809  0.0000E+00  0.2391E+02
     11.085  0.0000E+00  0.2431E+02
     11.361  0.0000E+00  0.2462E+02
     11.638  0.0000E+00  0.2525E+02
     11.914  0.1218E+01  0.2559E+02
     12.190  0.0000E+00  0.2631E+02
     12.467  0.1220E+01  0.2665E+02
     12.743  0.0000E+00  0.2694E+02
     13.019  0.0000E+00  0.2738E+02
     13.296  0.0000E+00  0.2741E+02
     13.572  0.0000E+00  0.2822E+02
     13.848  0.0000E+00  0.2878E+02
     14.125  0.0000E+00  0.2878E+02
     14.401  0.0000E+00  0.2884E+02
     14.677  0.0000E+00  0.2884E+02
     14.954  0.0000E+00  0.3003E+02
     15.230  0.0000E+00  0.3216E+02
     15.506  0.7460E+00  0.3283E+02
     15.783  0.0000E+00  0.3291E+02
     16.059  0.0000E+00  0.3291E+02
     16.336  0.0000E+00  0.3306E+02
     16.612  0.0000E+00  0.3325E+02
     16.888  0.0000E+00  0.3344E+02
     17.165  0.0000E+00  0.3481E+02
     17.441  0.0000E+00  0.3494E+02
     17.717  0.7754E-07  0.3616E+02
     17.994  0.0000E+00  0.3691E+02
     18.270  0.0000E+00  0.3831E+02
     18.546  0.0000E+00  0.3928E+02
     18.823  0.0000E+00  0.4041E+02
     19.099  0.2262E+00  0.4103E+02
     19.375  0.0000E+00  0.4184E+02
     19.652  0.0000E+00  0.4253E+02
     19.928  0.0000E+00  0.4253E+02
     20.204  0.0000E+00  0.4422E+02
     20.481  0.0000E+00  0.4544E+02
     20.757  0.0000E+00  0.4625E+02
     21.034  0.0000E+00  0.4644E+02
     21.310  0.0000E+00  0.4644E+02
     21.586  0.0000E+00  0.4644E+02
     21.863  0.0000E+00  0.4644E+02
     22.139  0.0000E+00  0.4766E+02
     22.415  0.0000E+00  0.4784E+02
     22.692  0.0000E+00  0.4784E+02
     22.968  0.5654E-01  0.4806E+02
     23.244  0.0000E+00  0.4966E+02
     23.521  0.0000E+00  0.4988E+02
     23.797  0.0000E+00  0.4988E+02
     24.073  0.0000E+00  0.5019E+02
     24.350  0.0000E+00  0.5138E+02
     24.626  0.0000E+00  0.5222E+02
     24.902  0.0000E+00  0.5259E+02
     25.179  0.0000E+00  0.5372E+02
     25.455  0.0000E+00  0.5559E+02
     25.732  0.0000E+00  0.5647E+02
     26.008  0.0000E+00  0.5647E+02
     26.284  0.0000E+00  0.5691E+02
     26.561  0.0000E+00  0.5694E+02
     26.837  0.0000E+00  0.5694E+02
     27.113  0.0000E+00  0.5769E+02
     27.390  0.0000E+00  0.5891E+02
     27.666  0.0000E+00  0.5966E+02
     27.942  0.0000E+00  0.6006E+02
     28.219  0.0000E+00  0.6125E+02
     28.495  0.0000E+00  0.6212E+02
     28.771  0.0000E+00  0.6212E+02
     29.048  0.0000E+00  0.6212E+02
     29.324  0.0000E+00  0.6288E+02
     29.600  0.0000E+00  0.6316E+02
     29.877  0.0000E+00  0.6353E+02
     30.153  0.0000E+00  0.6362E+02
     30.429  0.0000E+00  0.6491E+02
     30.706  0.1820E-15  0.6516E+02
     30.982  0.3392E+00  0.6572E+02
     31.259  0.1306E-07  0.6666E+02
     31.535  0.0000E+00  0.6709E+02
     31.811  0.0000E+00  0.6856E+02
     32.088  0.2812E-01  0.6876E+02
     32.364  0.0000E+00  0.7006E+02
     32.640  0.0000E+00  0.7094E+02
     32.917  0.1314E-07  0.7150E+02
     33.193  0.0000E+00  0.7191E+02
     33.469  0.0000E+00  0.7284E+02
     33.746  0.0000E+00  0.7328E+02
     34.022  0.0000E+00  0.7416E+02
     34.298  0.0000E+00  0.7512E+02
     34.575  0.0000E+00  0.7556E+02
     34.851  0.0000E+00  0.7669E+02
     35.127  0.3392E+00  0.7725E+02
     35.404  0.0000E+00  0.7838E+02
     35.680  0.0000E+00  0.7900E+02
     35.957  0.0000E+00  0.7912E+02
     36.233  0.0000E+00  0.8044E+02
     36.509  0.0000E+00  0.8103E+02
     36.786  0.0000E+00  0.8153E+02
     37.062  0.0000E+00  0.8262E+02
     37.338  0.1357E+01  0.8319E+02
     37.615  0.0000E+00  0.8344E+02
     37.891  0.0000E+00  0.8419E+02
     38.167  0.0000E+00  0.8503E+02
     38.444  0.0000E+00  0.8541E+02
     38.720  0.0000E+00  0.8600E+02
     38.996  0.0000E+00  0.8675E+02
     39.273  0.0000E+00  0.8719E+02
     39.549  0.2208E+00  0.8775E+02
     39.825  0.3392E+00  0.8834E+02
     40.102  0.0000E+00  0.8919E+02
     40.378  0.0000E+00  0.8969E+02
     40.655  0.0000E+00  0.9075E+02
     40.931  0.0000E+00  0.9125E+02
     41.207  0.0000E+00  0.9244E+02
     41.484  0.0000E+00  0.9328E+02
     41.760  0.0000E+00  0.9366E+02
     42.036  0.0000E+00  0.9453E+02
     42.313  0.0000E+00  0.9597E+02
     42.589  0.0000E+00  0.9647E+02
     42.865  0.1692E+00  0.9725E+02
     43.142  0.0000E+00  0.9750E+02
     43.418  0.0000E+00  0.9838E+02
     43.694  0.0000E+00  0.9912E+02
     43.971  0.0000E+00  0.9950E+02
     44.247  0.5023E-02  0.9950E+02
     44.523  0.0000E+00  0.9988E+02
     44.800  0.0000E+00  0.9988E+02
     45.076  0.0000E+00  0.1000E+03
     45.353  0.0000E+00  0.1000E+03
     45.629  0.0000E+00  0.1000E+03
     45.905  0.0000E+00  0.1000E+03
     46.182  0.0000E+00  0.1000E+03
     46.458  0.0000E+00  0.1000E+03
     46.734  0.0000E+00  0.1000E+03
     47.011  0.0000E+00  0.1000E+03
     47.287  0.0000E+00  0.1000E+03
     47.563  0.0000E+00  0.1000E+03
     47.840  0.0000E+00  0.1000E+03
     48.116  0.0000E+00  0.1000E+03
     48.392  0.0000E+00  0.1000E+03
     48.669  0.0000E+00  0.1000E+03
