   1   1   0   0
  0.6866016E+02  0.4596281E-09  0.4596281E-09  0.4596281E-09  0.5000000E-15
  1.000000000000000E-004
  CAR 
 Og_FCC                                  
     14.66543630    -31.74895596  301     -0.03252999      1.00000000
    -31.749  0.0000E+00  0.0000E+00
    -31.594  0.0000E+00  0.0000E+00
    -31.440  0.0000E+00  0.0000E+00
    -31.285  0.0000E+00  0.0000E+00
    -31.130  0.0000E+00  0.0000E+00
    -30.975  0.0000E+00  0.0000E+00
    -30.821  0.0000E+00  0.0000E+00
    -30.666  0.0000E+00  0.0000E+00
    -30.511  0.0000E+00  0.0000E+00
    -30.357  0.0000E+00  0.0000E+00
    -30.202  0.0000E+00  0.0000E+00
    -30.047 -0.7654E-27 -0.1184E-27
    -29.892 -0.3668E-09 -0.5675E-10
    -29.738 -0.4683E+00 -0.7246E-01
    -29.583  0.6706E+02  0.1030E+02
    -29.428 -0.1954E+01  0.1000E+02
    -29.274 -0.2300E-05  0.1000E+02
    -29.119  0.0000E+00  0.1000E+02
    -28.964  0.0000E+00  0.1000E+02
    -28.809  0.0000E+00  0.1000E+02
    -28.655  0.0000E+00  0.1000E+02
    -28.500  0.0000E+00  0.1000E+02
    -28.345  0.0000E+00  0.1000E+02
    -28.191  0.0000E+00  0.1000E+02
    -28.036  0.0000E+00  0.1000E+02
    -27.881  0.0000E+00  0.1000E+02
    -27.726  0.0000E+00  0.1000E+02
    -27.572  0.0000E+00  0.1000E+02
    -27.417  0.0000E+00  0.1000E+02
    -27.262  0.0000E+00  0.1000E+02
    -27.108  0.0000E+00  0.1000E+02
    -26.953  0.0000E+00  0.1000E+02
    -26.798  0.0000E+00  0.1000E+02
    -26.643  0.0000E+00  0.1000E+02
    -26.489  0.0000E+00  0.1000E+02
    -26.334  0.0000E+00  0.1000E+02
    -26.179  0.0000E+00  0.1000E+02
    -26.025  0.0000E+00  0.1000E+02
    -25.870  0.0000E+00  0.1000E+02
    -25.715  0.0000E+00  0.1000E+02
    -25.560  0.0000E+00  0.1000E+02
    -25.406  0.0000E+00  0.1000E+02
    -25.251  0.0000E+00  0.1000E+02
    -25.096  0.0000E+00  0.1000E+02
    -24.942  0.0000E+00  0.1000E+02
    -24.787  0.0000E+00  0.1000E+02
    -24.632  0.0000E+00  0.1000E+02
    -24.477  0.0000E+00  0.1000E+02
    -24.323  0.0000E+00  0.1000E+02
    -24.168  0.0000E+00  0.1000E+02
    -24.013  0.0000E+00  0.1000E+02
    -23.859  0.0000E+00  0.1000E+02
    -23.704  0.0000E+00  0.1000E+02
    -23.549  0.0000E+00  0.1000E+02
    -23.394  0.0000E+00  0.1000E+02
    -23.240  0.0000E+00  0.1000E+02
    -23.085  0.0000E+00  0.1000E+02
    -22.930 -0.2974E-33  0.1000E+02
    -22.776 -0.4514E-14  0.1000E+02
    -22.621 -0.4168E-03  0.1000E+02
    -22.466  0.2261E+01  0.1035E+02
    -22.311  0.1068E+02  0.1200E+02
    -22.157 -0.1677E-01  0.1200E+02
    -22.002  0.0000E+00  0.1200E+02
    -21.847  0.0000E+00  0.1200E+02
    -21.693  0.0000E+00  0.1200E+02
    -21.538  0.0000E+00  0.1200E+02
    -21.383  0.0000E+00  0.1200E+02
    -21.228  0.0000E+00  0.1200E+02
    -21.074  0.0000E+00  0.1200E+02
    -20.919  0.0000E+00  0.1200E+02
    -20.764  0.0000E+00  0.1200E+02
    -20.610  0.0000E+00  0.1200E+02
    -20.455  0.0000E+00  0.1200E+02
    -20.300  0.0000E+00  0.1200E+02
    -20.145  0.0000E+00  0.1200E+02
    -19.991  0.0000E+00  0.1200E+02
    -19.836  0.0000E+00  0.1200E+02
    -19.681  0.0000E+00  0.1200E+02
    -19.526  0.0000E+00  0.1200E+02
    -19.372  0.0000E+00  0.1200E+02
    -19.217  0.0000E+00  0.1200E+02
    -19.062  0.0000E+00  0.1200E+02
    -18.908  0.0000E+00  0.1200E+02
    -18.753  0.0000E+00  0.1200E+02
    -18.598  0.0000E+00  0.1200E+02
    -18.443  0.0000E+00  0.1200E+02
    -18.289  0.0000E+00  0.1200E+02
    -18.134  0.0000E+00  0.1200E+02
    -17.979  0.0000E+00  0.1200E+02
    -17.825  0.0000E+00  0.1200E+02
    -17.670  0.0000E+00  0.1200E+02
    -17.515  0.0000E+00  0.1200E+02
    -17.360  0.0000E+00  0.1200E+02
    -17.206  0.0000E+00  0.1200E+02
    -17.051  0.0000E+00  0.1200E+02
    -16.896  0.0000E+00  0.1200E+02
    -16.742  0.0000E+00  0.1200E+02
    -16.587  0.0000E+00  0.1200E+02
    -16.432  0.0000E+00  0.1200E+02
    -16.277  0.0000E+00  0.1200E+02
    -16.123  0.0000E+00  0.1200E+02
    -15.968  0.0000E+00  0.1200E+02
    -15.813  0.0000E+00  0.1200E+02
    -15.659  0.0000E+00  0.1200E+02
    -15.504  0.0000E+00  0.1200E+02
    -15.349  0.0000E+00  0.1200E+02
    -15.194  0.0000E+00  0.1200E+02
    -15.040  0.0000E+00  0.1200E+02
    -14.885  0.0000E+00  0.1200E+02
    -14.730  0.0000E+00  0.1200E+02
    -14.576  0.0000E+00  0.1200E+02
    -14.421  0.0000E+00  0.1200E+02
    -14.266  0.0000E+00  0.1200E+02
    -14.111  0.0000E+00  0.1200E+02
    -13.957  0.0000E+00  0.1200E+02
    -13.802  0.0000E+00  0.1200E+02
    -13.647  0.0000E+00  0.1200E+02
    -13.493  0.0000E+00  0.1200E+02
    -13.338  0.0000E+00  0.1200E+02
    -13.183  0.0000E+00  0.1200E+02
    -13.028  0.0000E+00  0.1200E+02
    -12.874  0.0000E+00  0.1200E+02
    -12.719  0.0000E+00  0.1200E+02
    -12.564  0.0000E+00  0.1200E+02
    -12.410  0.0000E+00  0.1200E+02
    -12.255  0.0000E+00  0.1200E+02
    -12.100  0.0000E+00  0.1200E+02
    -11.945  0.0000E+00  0.1200E+02
    -11.791  0.0000E+00  0.1200E+02
    -11.636  0.0000E+00  0.1200E+02
    -11.481  0.0000E+00  0.1200E+02
    -11.327  0.0000E+00  0.1200E+02
    -11.172  0.0000E+00  0.1200E+02
    -11.017  0.0000E+00  0.1200E+02
    -10.862  0.0000E+00  0.1200E+02
    -10.708  0.0000E+00  0.1200E+02
    -10.553  0.0000E+00  0.1200E+02
    -10.398  0.0000E+00  0.1200E+02
    -10.244  0.0000E+00  0.1200E+02
    -10.089  0.0000E+00  0.1200E+02
     -9.934  0.0000E+00  0.1200E+02
     -9.779  0.0000E+00  0.1200E+02
     -9.625  0.0000E+00  0.1200E+02
     -9.470  0.0000E+00  0.1200E+02
     -9.315  0.0000E+00  0.1200E+02
     -9.161  0.0000E+00  0.1200E+02
     -9.006  0.0000E+00  0.1200E+02
     -8.851  0.0000E+00  0.1200E+02
     -8.696  0.0000E+00  0.1200E+02
     -8.542  0.0000E+00  0.1200E+02
     -8.387  0.0000E+00  0.1200E+02
     -8.232  0.0000E+00  0.1200E+02
     -8.078  0.0000E+00  0.1200E+02
     -7.923  0.0000E+00  0.1200E+02
     -7.768  0.0000E+00  0.1200E+02
     -7.613  0.0000E+00  0.1200E+02
     -7.459  0.0000E+00  0.1200E+02
     -7.304  0.0000E+00  0.1200E+02
     -7.149  0.0000E+00  0.1200E+02
     -6.995  0.0000E+00  0.1200E+02
     -6.840  0.0000E+00  0.1200E+02
     -6.685  0.0000E+00  0.1200E+02
     -6.530  0.0000E+00  0.1200E+02
     -6.376  0.0000E+00  0.1200E+02
     -6.221  0.0000E+00  0.1200E+02
     -6.066  0.0000E+00  0.1200E+02
     -5.912  0.0000E+00  0.1200E+02
     -5.757  0.0000E+00  0.1200E+02
     -5.602  0.0000E+00  0.1200E+02
     -5.447  0.0000E+00  0.1200E+02
     -5.293  0.0000E+00  0.1200E+02
     -5.138  0.0000E+00  0.1200E+02
     -4.983  0.0000E+00  0.1200E+02
     -4.829  0.0000E+00  0.1200E+02
     -4.674  0.0000E+00  0.1200E+02
     -4.519  0.0000E+00  0.1200E+02
     -4.364  0.0000E+00  0.1200E+02
     -4.210  0.0000E+00  0.1200E+02
     -4.055  0.0000E+00  0.1200E+02
     -3.900  0.0000E+00  0.1200E+02
     -3.746  0.0000E+00  0.1200E+02
     -3.591  0.0000E+00  0.1200E+02
     -3.436  0.0000E+00  0.1200E+02
     -3.281  0.0000E+00  0.1200E+02
     -3.127  0.0000E+00  0.1200E+02
     -2.972  0.0000E+00  0.1200E+02
     -2.817 -0.2545E-50  0.1200E+02
     -2.663 -0.1009E-25  0.1200E+02
     -2.508 -0.1546E-09  0.1200E+02
     -2.353 -0.5938E-02  0.1200E+02
     -2.198  0.5656E+00  0.1209E+02
     -2.044  0.1948E+01  0.1239E+02
     -1.889  0.3758E+01  0.1297E+02
     -1.734  0.3674E+01  0.1354E+02
     -1.580  0.1283E+01  0.1374E+02
     -1.425  0.1224E+01  0.1393E+02
     -1.270  0.1924E+01  0.1422E+02
     -1.115  0.1972E+01  0.1453E+02
     -0.961  0.1320E+01  0.1473E+02
     -0.806  0.4709E+01  0.1546E+02
     -0.651  0.3101E+01  0.1594E+02
     -0.497  0.5079E+01  0.1673E+02
     -0.342  0.4037E+01  0.1735E+02
     -0.187  0.2930E+01  0.1780E+02
     -0.032  0.1262E+01  0.1800E+02
      0.122 -0.1179E-03  0.1800E+02
      0.277 -0.5289E-06  0.1800E+02
      0.432  0.0000E+00  0.1800E+02
      0.586  0.0000E+00  0.1800E+02
      0.741  0.0000E+00  0.1800E+02
      0.896  0.0000E+00  0.1800E+02
      1.051  0.0000E+00  0.1800E+02
      1.205  0.0000E+00  0.1800E+02
      1.360  0.0000E+00  0.1800E+02
      1.515  0.0000E+00  0.1800E+02
      1.669  0.0000E+00  0.1800E+02
      1.824  0.0000E+00  0.1800E+02
      1.979  0.0000E+00  0.1800E+02
      2.134  0.0000E+00  0.1800E+02
      2.288 -0.1659E-33  0.1800E+02
      2.443 -0.1188E-14  0.1800E+02
      2.598 -0.2550E-04  0.1800E+02
      2.752  0.1667E-01  0.1800E+02
      2.907  0.1090E-02  0.1800E+02
      3.062 -0.1493E-07  0.1800E+02
      3.217 -0.2788E-02  0.1800E+02
      3.371  0.1490E+00  0.1803E+02
      3.526  0.8997E-01  0.1804E+02
      3.681  0.1211E-01  0.1804E+02
      3.835 -0.1256E-05  0.1804E+02
      3.990  0.4233E-01  0.1805E+02
      4.145  0.1705E+00  0.1807E+02
      4.300  0.6073E-01  0.1808E+02
      4.454  0.5153E+00  0.1816E+02
      4.609 -0.8630E-02  0.1816E+02
      4.764 -0.4699E-05  0.1816E+02
      4.918  0.1388E+00  0.1818E+02
      5.073  0.5413E+00  0.1827E+02
      5.228  0.9545E+00  0.1841E+02
      5.383  0.1343E-01  0.1842E+02
      5.537  0.1078E+01  0.1858E+02
      5.692  0.1063E+01  0.1875E+02
      5.847  0.4120E+00  0.1881E+02
      6.001  0.1543E+01  0.1905E+02
      6.156  0.1218E+01  0.1924E+02
      6.311  0.1292E+01  0.1944E+02
      6.466  0.1623E+01  0.1969E+02
      6.620  0.3012E+00  0.1974E+02
      6.775  0.6377E-01  0.1975E+02
      6.930  0.1331E+01  0.1995E+02
      7.084  0.6169E+00  0.2005E+02
      7.239  0.5825E+00  0.2014E+02
      7.394  0.3854E+00  0.2020E+02
      7.549  0.5797E+00  0.2029E+02
      7.703  0.1006E+01  0.2044E+02
      7.858  0.2451E+01  0.2082E+02
      8.013  0.2215E+01  0.2116E+02
      8.167  0.1500E+01  0.2140E+02
      8.322  0.1497E+01  0.2163E+02
      8.477  0.3403E+01  0.2215E+02
      8.632  0.2513E+01  0.2254E+02
      8.786  0.9507E+00  0.2269E+02
      8.941  0.1852E+00  0.2272E+02
      9.096  0.5959E+00  0.2281E+02
      9.250  0.3874E+00  0.2287E+02
      9.405  0.2847E+01  0.2331E+02
      9.560  0.3263E+01  0.2382E+02
      9.715  0.1443E+01  0.2404E+02
      9.869  0.1937E+01  0.2434E+02
     10.024  0.2880E+01  0.2479E+02
     10.179  0.2116E+01  0.2511E+02
     10.333  0.6398E+00  0.2521E+02
     10.488  0.4419E+00  0.2528E+02
     10.643  0.9420E+00  0.2543E+02
     10.798  0.4237E+00  0.2549E+02
     10.952  0.2539E+00  0.2553E+02
     11.107  0.6942E+00  0.2564E+02
     11.262  0.6616E+00  0.2574E+02
     11.416  0.6082E+00  0.2583E+02
     11.571  0.4325E+00  0.2590E+02
     11.726  0.5361E+00  0.2598E+02
     11.881 -0.3634E-02  0.2598E+02
     12.035 -0.2808E-47  0.2598E+02
     12.190 -0.1290E-23  0.2598E+02
     12.345 -0.2218E-08  0.2598E+02
     12.499 -0.3587E-02  0.2598E+02
     12.654  0.1109E+00  0.2600E+02
     12.809 -0.9387E-03  0.2600E+02
     12.964  0.0000E+00  0.2600E+02
     13.118  0.0000E+00  0.2600E+02
     13.273  0.0000E+00  0.2600E+02
     13.428  0.0000E+00  0.2600E+02
     13.582  0.0000E+00  0.2600E+02
     13.737  0.0000E+00  0.2600E+02
     13.892  0.0000E+00  0.2600E+02
     14.047  0.0000E+00  0.2600E+02
     14.201  0.0000E+00  0.2600E+02
     14.356  0.0000E+00  0.2600E+02
     14.511  0.0000E+00  0.2600E+02
     14.665  0.0000E+00  0.2600E+02
