    1    1    1    1
  0.6866016E+02  0.4596281E-09  0.4596281E-09  0.4596281E-09  0.5000000E-15
  1.000000000000000E-004
  CAR 
 Og_FCC                                  
     18     35     13
 
  0.0000000E+00  0.0000000E+00  0.0000000E+00  0.1371742E-02
    1      -29.637740   1.000000
    2      -29.637740   1.000000
    3      -29.637740   1.000000
    4      -29.636928   1.000000
    5      -29.636928   1.000000
    6      -22.497664   1.000000
    7       -0.046756   0.730314
    8       -0.046756   0.730310
    9       -0.046756   0.730310
   10        2.720238   0.000000
   11        9.587005   0.000000
   12        9.587005   0.000000
   13        9.587005   0.000000
 
  0.1111111E+00  0.1006643E-17 -0.6938894E-17  0.1097394E-01
    1      -29.637612   1.000000
    2      -29.637513   1.000000
    3      -29.637513   1.000000
    4      -29.636891   1.000000
    5      -29.636891   1.000000
    6      -22.491165   1.000000
    7       -0.514415   1.000000
    8       -0.082533   1.025135
    9       -0.082533   1.025134
   10        3.300302   0.000000
   11        8.930757   0.000000
   12        9.706162   0.000000
   13        9.706163   0.000000
 
  0.2222222E+00  0.2013286E-17 -0.1387779E-16  0.1097394E-01
    1      -29.637552   1.000000
    2      -29.637552   1.000000
    3      -29.637193   1.000000
    4      -29.635953   1.000000
    5      -29.635953   1.000000
    6      -22.474619   1.000000
    7       -1.304776   1.000000
    8       -0.170489   1.000337
    9       -0.170488   1.000337
   10        4.298363   0.000000
   11        8.620769   0.000000
   12        9.731026   0.000000
   13        9.731026   0.000000
 
  0.3333333E+00  0.3019929E-17  0.2775558E-16  0.1097394E-01
    1      -29.637851   1.000000
    2      -29.637851   1.000000
    3      -29.636871   1.000000
    4      -29.634850   1.000000
    5      -29.634849   1.000000
    6      -22.455686   1.000000
    7       -1.939540   1.000000
    8       -0.266377   1.000000
    9       -0.266377   1.000000
   10        4.926983   0.000000
   11        9.133565   0.000000
   12        9.408863   0.000000
   13        9.408863   0.000000
 
  0.4444444E+00  0.4026572E-17 -0.2775558E-16  0.1097394E-01
    1      -29.637950   1.000000
    2      -29.637950   1.000000
    3      -29.636522   1.000000
    4      -29.634129   1.000000
    5      -29.634129   1.000000
    6      -22.443250   1.000000
    7       -2.279604   1.000000
    8       -0.326755   1.000000
    9       -0.326755   1.000000
   10        5.103620   0.000000
   11        9.178612   0.000000
   12        9.178613   0.000000
   13        9.509364   0.000000
 
  0.1111111E+00  0.1111111E+00 -0.1387779E-16  0.8230453E-02
    1      -29.637835   1.000000
    2      -29.637226   1.000000
    3      -29.637226   1.000000
    4      -29.637070   1.000000
    5      -29.636705   1.000000
    6      -22.489001   1.000000
    7       -0.535592   1.000000
    8       -0.158622   1.001050
    9       -0.158622   1.001050
   10        3.499478   0.000000
   11        8.656335   0.000000
   12        9.862969   0.000000
   13        9.862988   0.000000
 
  0.2222222E+00  0.1111111E+00  0.0000000E+00  0.3292181E-01
    1      -29.637820   1.000000
    2      -29.637297   1.000000
    3      -29.637005   1.000000
    4      -29.636341   1.000000
    5      -29.635867   1.000000
    6      -22.475813   1.000000
    7       -1.129090   1.000000
    8       -0.274334   1.000000
    9       -0.240362   1.000000
   10        4.371204   0.000000
   11        8.264258   0.000000
   12        9.350358   0.000000
   13       10.074533   0.000000
 
  0.3333333E+00  0.1111111E+00  0.2775558E-16  0.3292181E-01
    1      -29.637795   1.000000
    2      -29.637234   1.000000
    3      -29.637032   1.000000
    4      -29.635422   1.000000
    5      -29.634702   1.000000
    6      -22.457674   1.000000
    7       -1.747119   1.000000
    8       -0.373812   1.000000
    9       -0.366999   1.000000
   10        5.169018   0.000000
   11        8.485552   0.000000
   12        8.724968   0.000000
   13        9.882488   0.000000
 
  0.4444444E+00  0.1111111E+00 -0.2775558E-16  0.3292181E-01
    1      -29.638078   1.000000
    2      -29.637508   1.000000
    3      -29.636549   1.000000
    4      -29.634651   1.000000
    5      -29.634071   1.000000
    6      -22.443060   1.000000
    7       -2.144188   1.000000
    8       -0.507350   1.000000
    9       -0.414353   1.000000
   10        5.493701   0.000000
   11        8.321457   0.000000
   12        9.553632   0.000000
   13        9.581488   0.000000
 
 -0.4444444E+00  0.1111111E+00 -0.2775558E-16  0.3292181E-01
    1      -29.638037   1.000000
    2      -29.637612   1.000000
    3      -29.636327   1.000000
    4      -29.634216   1.000000
    5      -29.634069   1.000000
    6      -22.438904   1.000000
    7       -2.244284   1.000000
    8       -0.595551   1.000000
    9       -0.379923   1.000000
   10        5.551278   0.000000
   11        8.264539   0.000000
   12        9.382701   0.000000
   13       10.263480   0.000000
 
 -0.3333333E+00  0.1111111E+00 -0.2775558E-16  0.3292181E-01
    1      -29.637864   1.000000
    2      -29.637555   1.000000
    3      -29.636579   1.000000
    4      -29.634869   1.000000
    5      -29.634381   1.000000
    6      -22.447198   1.000000
    7       -2.035442   1.000000
    8       -0.590176   1.000000
    9       -0.284354   1.000000
   10        5.447015   0.000000
   11        8.507635   0.000000
   12        9.318992   0.000000
   13        9.449954   0.000000
 
 -0.2222222E+00  0.1111111E+00  0.0000000E+00  0.3292181E-01
    1      -29.637575   1.000000
    2      -29.637301   1.000000
    3      -29.637089   1.000000
    4      -29.636049   1.000000
    5      -29.635101   1.000000
    6      -22.463975   1.000000
    7       -1.560266   1.000000
    8       -0.481001   1.000000
    9       -0.168190   1.000424
   10        4.941411   0.000000
   11        8.496508   0.000000
   12        9.032857   0.000000
   13        9.762464   0.000000
 
 -0.1111111E+00  0.1111111E+00  0.3034689E-17  0.1646091E-01
    1      -29.637516   1.000000
    2      -29.637365   1.000000
    3      -29.637181   1.000000
    4      -29.637007   1.000000
    5      -29.636064   1.000000
    6      -22.481311   1.000000
    7       -0.953660   1.000000
    8       -0.282657   1.000000
    9       -0.086532   1.031563
   10        4.009414   0.000000
   11        8.534289   0.000000
   12        9.637413   0.000000
   13        9.870674   0.000000
 
  0.2222222E+00  0.2222222E+00  0.2775558E-16  0.8230453E-02
    1      -29.638329   1.000000
    2      -29.637538   1.000000
    3      -29.636082   1.000000
    4      -29.635725   1.000000
    5      -29.635725   1.000000
    6      -22.466994   1.000000
    7       -1.284411   1.000000
    8       -0.422997   1.000000
    9       -0.422997   1.000000
   10        4.936313   0.000000
   11        7.737215   0.000000
   12        8.873690   0.000000
   13       10.598375   0.000000
 
  0.3333333E+00  0.2222222E+00  0.2775558E-16  0.3292181E-01
    1      -29.638334   1.000000
    2      -29.637727   1.000000
    3      -29.636181   1.000000
    4      -29.635003   1.000000
    5      -29.634625   1.000000
    6      -22.452228   1.000000
    7       -1.667764   1.000000
    8       -0.594377   1.000000
    9       -0.545342   1.000000
   10        5.596783   0.000000
   11        7.598805   0.000000
   12        8.472709   0.000000
   13       10.749205   0.000000
 
  0.4444444E+00  0.2222222E+00 -0.2775558E-16  0.3292181E-01
    1      -29.638258   1.000000
    2      -29.637116   1.000000
    3      -29.636429   1.000000
    4      -29.634549   1.000000
    5      -29.633895   1.000000
    6      -22.438398   1.000000
    7       -1.959817   1.000000
    8       -0.847570   1.000000
    9       -0.590691   1.000000
   10        6.041127   0.000000
   11        7.941227   0.000000
   12        8.419119   0.000000
   13       10.433362   0.000000
 
 -0.4444444E+00  0.2222222E+00  0.0000000E+00  0.3292181E-01
    1      -29.638198   1.000000
    2      -29.636637   1.000000
    3      -29.636086   1.000000
    4      -29.634596   1.000000
    5      -29.633902   1.000000
    6      -22.432030   1.000000
    7       -2.048428   1.000000
    8       -1.080867   1.000000
    9       -0.541798   1.000000
   10        6.277068   0.000000
   11        7.841354   0.000000
   12        9.553028   0.000000
   13       10.114309   0.000000
 
 -0.3333333E+00  0.2222222E+00 -0.4163336E-16  0.3292181E-01
    1      -29.637972   1.000000
    2      -29.636712   1.000000
    3      -29.635815   1.000000
    4      -29.634669   1.000000
    5      -29.634638   1.000000
    6      -22.436148   1.000000
    7       -1.952744   1.000000
    8       -1.143003   1.000000
    9       -0.417188   1.000000
   10        6.378047   0.000000
   11        7.853203   0.000000
   12        9.306752   0.000000
   13        9.954396   0.000000
 
 -0.2222222E+00  0.2222222E+00 -0.2501759E-16  0.1646091E-01
    1      -29.637689   1.000000
    2      -29.636835   1.000000
    3      -29.636534   1.000000
    4      -29.635695   1.000000
    5      -29.634593   1.000000
    6      -22.448786   1.000000
    7       -1.776159   1.000000
    8       -0.914419   1.000000
    9       -0.268799   1.000000
   10        5.904478   0.000000
   11        8.236681   0.000000
   12        8.524899   0.000000
   13        9.929505   0.000000
 
  0.3333333E+00  0.3333333E+00  0.0000000E+00  0.8230453E-02
    1      -29.638834   1.000000
    2      -29.638041   1.000000
    3      -29.635318   1.000000
    4      -29.634191   1.000000
    5      -29.634191   1.000000
    6      -22.441869   1.000000
    7       -1.831252   1.000000
    8       -0.696524   1.000000
    9       -0.696524   1.000000
   10        5.637318   0.000000
   11        7.114447   0.000000
   12        9.047768   0.000000
   13       11.600846   0.000000
 
  0.4444444E+00  0.3333333E+00  0.5551115E-16  0.3292181E-01
    1      -29.638709   1.000000
    2      -29.638009   1.000000
    3      -29.635331   1.000000
    4      -29.633722   1.000000
    5      -29.633540   1.000000
    6      -22.431428   1.000000
    7       -1.981708   1.000000
    8       -0.911887   1.000000
    9       -0.764808   1.000000
   10        5.753663   0.000000
   11        7.165825   0.000000
   12        9.428491   0.000000
   13       11.626348   0.000000
 
 -0.4444444E+00  0.3333333E+00  0.1387779E-16  0.3292181E-01
    1      -29.638490   1.000000
    2      -29.637158   1.000000
    3      -29.635638   1.000000
    4      -29.633936   1.000000
    5      -29.633534   1.000000
    6      -22.425824   1.000000
    7       -1.931983   1.000000
    8       -1.293770   1.000000
    9       -0.725021   1.000000
   10        6.052190   0.000000
   11        7.816981   0.000000
   12        9.467627   0.000000
   13       11.226202   0.000000
 
 -0.3333333E+00  0.3333333E+00 -0.1028232E-16  0.1646091E-01
    1      -29.638283   1.000000
    2      -29.636038   1.000000
    3      -29.635801   1.000000
    4      -29.634756   1.000000
    5      -29.634156   1.000000
    6      -22.427695   1.000000
    7       -1.693344   1.000000
    8       -1.630624   1.000000
    9       -0.591418   1.000000
   10        6.424569   0.000000
   11        8.251835   0.000000
   12        9.684932   0.000000
   13       10.100055   0.000000
 
  0.4444444E+00  0.4444444E+00  0.5551115E-16  0.8230453E-02
    1      -29.639211   1.000000
    2      -29.638267   1.000000
    3      -29.634908   1.000000
    4      -29.633160   1.000000
    5      -29.633160   1.000000
    6      -22.425410   1.000000
    7       -2.104569   1.000000
    8       -0.862344   1.000000
    9       -0.862344   1.000000
   10        5.431446   0.000000
   11        6.801666   0.000000
   12       10.920796   0.000000
   13       12.555691   0.000000
 
 -0.4444444E+00  0.4444444E+00 -0.5003519E-16  0.1646091E-01
    1      -29.638857   1.000000
    2      -29.638000   1.000000
    3      -29.635013   1.000000
    4      -29.633174   1.000000
    5      -29.633091   1.000000
    6      -22.423196   1.000000
    7       -2.078484   1.000000
    8       -1.038043   1.000000
    9       -0.847331   1.000000
   10        5.595539   0.000000
   11        7.018830   0.000000
   12       11.326535   0.000000
   13       11.334289   0.000000
 
  0.3333333E+00  0.2222222E+00  0.1111111E+00  0.3292181E-01
    1      -29.637741   1.000000
    2      -29.637505   1.000000
    3      -29.636784   1.000000
    4      -29.635802   1.000000
    5      -29.635032   1.000000
    6      -22.461832   1.000000
    7       -1.499810   1.000000
    8       -0.572562   1.000000
    9       -0.290112   1.000000
   10        5.201089   0.000000
   11        8.027690   0.000000
   12        8.651605   0.000000
   13       10.521139   0.000000
 
  0.4444444E+00  0.2222222E+00  0.1111111E+00  0.6584362E-01
    1      -29.637822   1.000000
    2      -29.637133   1.000000
    3      -29.636740   1.000000
    4      -29.635041   1.000000
    5      -29.634363   1.000000
    6      -22.445846   1.000000
    7       -1.863419   1.000000
    8       -0.814424   1.000000
    9       -0.400958   1.000000
   10        5.944899   0.000000
   11        8.057769   0.000000
   12        8.401570   0.000000
   13       10.164351   0.000000
 
 -0.4444444E+00  0.2222222E+00  0.1111111E+00  0.6584362E-01
    1      -29.637928   1.000000
    2      -29.637063   1.000000
    3      -29.636076   1.000000
    4      -29.634692   1.000000
    5      -29.633976   1.000000
    6      -22.435367   1.000000
    7       -2.079934   1.000000
    8       -0.929351   1.000000
    9       -0.498478   1.000000
   10        6.223682   0.000000
   11        7.731799   0.000000
   12        9.527148   0.000000
   13        9.972362   0.000000
 
  0.4444444E+00  0.3333333E+00  0.1111111E+00  0.3292181E-01
    1      -29.638129   1.000000
    2      -29.637811   1.000000
    3      -29.635969   1.000000
    4      -29.634178   1.000000
    5      -29.634143   1.000000
    6      -22.439624   1.000000
    7       -1.857467   1.000000
    8       -0.868633   1.000000
    9       -0.637781   1.000000
   10        6.039657   0.000000
   11        7.538050   0.000000
   12        8.393490   0.000000
   13       11.254408   0.000000
 
 -0.4444444E+00  0.3333333E+00  0.1111111E+00  0.6584362E-01
    1      -29.637956   1.000000
    2      -29.637109   1.000000
    3      -29.636044   1.000000
    4      -29.634379   1.000000
    5      -29.633595   1.000000
    6      -22.429920   1.000000
    7       -1.920117   1.000000
    8       -1.162562   1.000000
    9       -0.726461   1.000000
   10        6.457268   0.000000
   11        7.909361   0.000000
   12        8.407447   0.000000
   13       10.972084   0.000000
 
 -0.3333333E+00  0.3333333E+00  0.1111111E+00  0.6584362E-01
    1      -29.637868   1.000000
    2      -29.636361   1.000000
    3      -29.635654   1.000000
    4      -29.635246   1.000000
    5      -29.633626   1.000000
    6      -22.427693   1.000000
    7       -1.848271   1.000000
    8       -1.394533   1.000000
    9       -0.687021   1.000000
   10        6.806221   0.000000
   11        7.718017   0.000000
   12        9.380631   0.000000
   13        9.976464   0.000000
 
 -0.2222222E+00  0.3333333E+00  0.1111111E+00  0.3292181E-01
    1      -29.637788   1.000000
    2      -29.636474   1.000000
    3      -29.636454   1.000000
    4      -29.634674   1.000000
    5      -29.634269   1.000000
    6      -22.433999   1.000000
    7       -1.851716   1.000000
    8       -1.254559   1.000000
    9       -0.544673   1.000000
   10        6.862274   0.000000
   11        7.535355   0.000000
   12        8.599798   0.000000
   13       10.566903   0.000000
 
 -0.4444444E+00  0.4444444E+00  0.1111111E+00  0.3292181E-01
    1      -29.638372   1.000000
    2      -29.637963   1.000000
    3      -29.635279   1.000000
    4      -29.633725   1.000000
    5      -29.633112   1.000000
    6      -22.425105   1.000000
    7       -2.004576   1.000000
    8       -1.046505   1.000000
    9       -0.894462   1.000000
   10        5.894624   0.000000
   11        7.270763   0.000000
   12        9.771683   0.000000
   13       11.476196   0.000000
 
 -0.3333333E+00  0.4444444E+00  0.1111111E+00  0.3292181E-01
    1      -29.638056   1.000000
    2      -29.637106   1.000000
    3      -29.635528   1.000000
    4      -29.634540   1.000000
    5      -29.633102   1.000000
    6      -22.423633   1.000000
    7       -1.849893   1.000000
    8       -1.375674   1.000000
    9       -0.861073   1.000000
   10        6.347255   0.000000
   11        7.926084   0.000000
   12        9.398231   0.000000
   13       10.096953   0.000000
 
 -0.3333333E+00  0.4444444E+00  0.2222222E+00  0.3292181E-01
    1      -29.637536   1.000000
    2      -29.636567   1.000000
    3      -29.635900   1.000000
    4      -29.635242   1.000000
    5      -29.633138   1.000000
    6      -22.424375   1.000000
    7       -1.734349   1.000000
    8       -1.455440   1.000000
    9       -0.916232   1.000000
   10        7.049239   0.000000
   11        8.036489   0.000000
   12        8.500908   0.000000
   13        9.746492   0.000000
