 vasp.5.4.4.18Apr17-6-g9f103f2a35 (build Nov 03 2018 10:20:43) complex          
  
 executed on             LinuxIFC date 2018.11.29  15:01:48
 running on    8 total cores
 distrk:  each k-point on    4 cores,    2 groups
 distr:  one band on NCORES_PER_BAND=   4 cores,    1 groups


--------------------------------------------------------------------------------------------------------


 INCAR:
 POTCAR:    PAW Og, JanMewes Oct 18               

 ----------------------------------------------------------------------------- 
|                                                                             |
|           W    W    AA    RRRRR   N    N  II  N    N   GGGG   !!!           |
|           W    W   A  A   R    R  NN   N  II  NN   N  G    G  !!!           |
|           W    W  A    A  R    R  N N  N  II  N N  N  G       !!!           |
|           W WW W  AAAAAA  RRRRR   N  N N  II  N  N N  G  GGG   !            |
|           WW  WW  A    A  R   R   N   NN  II  N   NN  G    G                |
|           W    W  A    A  R    R  N    N  II  N    N   GGGG   !!!           |
|                                                                             |
|      You have enabled k-point parallelism (KPAR>1).                         |
|      This developmental code was originally  written by Paul Kent at ORNL,  |
|      and carefully double checked in Vienna.                                |
|      GW as well as linear response parallelism added by Martijn Marsman     |
|      and Georg Kresse.                                                      |
|      Carefully verify results versus KPAR=1.                                |
|      Report problems to Paul Kent and Vienna.                               |
|                                                                             |
 ----------------------------------------------------------------------------- 

 POTCAR:    PAW Og, JanMewes Oct 18               
   VRHFIN =Og : 10d 2s 6p, PE                                                   
   LEXCH  = PE                                                                  
   EATOM  =  2640.5573 eV,  194.0755 Ry                                         
                                                                                
   TITEL  = PAW Og, JanMewes Oct 18                                             
   LULTRA =        F    use ultrasoft PP ?                                      
   IUNSCR =        1    unscreen: 0-lin 1-nonlin 2-no                           
   RPACOR =    1.700    partial core radius                                     
   POMASS =    0.010; ZVAL   =   18.000    mass and valenz                      
   RCORE  =    2.600    outmost cutoff radius                                   
   RWIGS  =    3.500; RWIGS  =    1.852    wigner-seitz radius (au A)           
   ENMAX  =  339.336; ENMIN  =  254.502 eV                                      
   ICORE  =        3    local potential                                         
   LCOR   =        T    correct aug charges                                     
   LPAW   =        T    paw PP                                                  
   EAUG   =  361.025                                                            
   DEXC   =   -0.000                                                            
   RAUG   =    1.300    factor for augmentation sphere                          
   RDEP   =    2.775    radius for radial grids                                 
   RDEPT  =    2.135    core radius for aug-charge                              
   QCUT   =   -4.994; QGAM   =    9.988    optimization parameters              
                                                                                
   Atomic configuration                                                         
   22 entries                                                                   
     n  l   j            E        occ.                                          
     1  0  0.50   -225781.4217   2.0000                                         
     2  0  0.50    -47342.3774   2.0000                                         
     2  1  1.50    -33463.4058   6.0000                                         
     3  0  0.50    -12845.8060   2.0000                                         
     3  1  1.50     -9184.5562   6.0000                                         
     3  2  2.50     -7322.6146  10.0000                                         
     4  0  0.50     -3781.9433   2.0000                                         
     4  1  1.50     -2605.9204   6.0000                                         
     4  2  2.50     -1899.4626  10.0000                                         
     4  3  3.50     -1273.6890  14.0000                                         
     5  0  0.50     -1046.0643   2.0000                                         
     5  1  1.50      -650.9265   6.0000                                         
     5  2  2.50      -388.1490  10.0000                                         
     5  3  3.50      -152.1121  14.0000                                         
     6  0  0.50      -224.6639   2.0000                                         
     6  1  0.50      -184.3267   2.0000                                         
     6  1  1.50       -97.8537   4.0000                                         
     6  2  2.50       -35.6667  10.0000                                         
     7  0  0.50       -28.5889   2.0000                                         
     8  0  0.50        -1.3606   0.0000                                         
     7  1  1.50        -7.0827   6.0000                                         
     6  3  3.50        -0.0136   0.0000                                         
   Description                                                                  
     l       E           TYP  RCUT    TYP  RCUT                                 
     2    -35.6666962     23  2.100                                             
     2     34.0145650     23  2.300                                             
     0    -28.5889381     23  1.600                                             
     0     40.8174780     23  2.200                                             
     1     -7.0826811     23  2.200                                             
     1    148.3035034     23  1.900                                             
     3      6.8029130      7  2.600                                             
  local pseudopotential read in
  partial core-charges read in
  partial kinetic energy density read in
  kinetic energy density of atom read in
  atomic valenz-charges read in
  non local Contribution for L=           2  read in
    real space projection operators read in
  non local Contribution for L=           2  read in
    real space projection operators read in
  non local Contribution for L=           0  read in
    real space projection operators read in
  non local Contribution for L=           0  read in
    real space projection operators read in
  non local Contribution for L=           1  read in
    real space projection operators read in
  non local Contribution for L=           1  read in
    real space projection operators read in
    PAW grid and wavefunctions read in
 
   number of l-projection  operators is LMAX  =           6
   number of lm-projection operators is LMMAX =          18
 
  PAW Og, JanMewes Oct 18               :
 energy of atom  1       EATOM=-2640.5573
 kinetic energy error for atom=    0.0286 (will be added to EATOM!!)
 
 
 POSCAR: Og_FCC                                  
  positions in direct lattice
  velocities in cartesian coordinates

 METAGGA = SCAN     LMAXTAU =  0    LMIXTAU =  F

 exchange correlation table for  LEXCH =        8
   RHO(1)=    0.500       N(1)  =     2000
   RHO(2)=  100.500       N(2)  =     4000
 


--------------------------------------------------------------------------------------------------------


 ion  position               nearest neighbor table
   1  0.000  0.000  0.000-
 
  LATTYP: Found a face centered cubic cell.
 ALAT       =     6.5001233504
  
  Lattice vectors:
  
 A1 = (   4.5962812995,   0.0000000000,   0.0000000000)
 A2 = (   2.2981406498,   3.9804963683,  -0.0000000000)
 A3 = (   2.2981406498,   1.3268321228,   3.7528479662)


Analysis of symmetry for initial positions (statically):
=====================================================================
 Subroutine PRICEL returns:
 Original cell was already a primitive cell.
 

 Routine SETGRP: Setting up the symmetry group for a 
 face centered cubic supercell.


 Subroutine GETGRP returns: Found 48 space group operations
 (whereof 48 operations were pure point group operations)
 out of a pool of 48 trial point group operations.


The static configuration has the point symmetry O_h .


Analysis of symmetry for dynamics (positions and initial velocities):
=====================================================================
 Subroutine PRICEL returns:
 Original cell was already a primitive cell.
 

 Routine SETGRP: Setting up the symmetry group for a 
 face centered cubic supercell.


 Subroutine GETGRP returns: Found 48 space group operations
 (whereof 48 operations were pure point group operations)
 out of a pool of 48 trial point group operations.


The dynamic configuration has the point symmetry O_h .


 Subroutine INISYM returns: Found 48 space group operations
 (whereof 48 operations are pure point group operations),
 and found     1 'primitive' translations

 
 

Automatic generation of k-mesh.
 generate k-points for:    9    9    9
Space group operators:
 irot       det(A)        alpha          n_x          n_y          n_z        tau_x        tau_y        tau_z
    1     1.000000     0.000000     1.000000     0.000000     0.000000     0.000000     0.000000     0.000000
    2    -1.000000     0.000000     1.000000     0.000000     0.000000     0.000000     0.000000     0.000000
    3     1.000000   120.000000    -0.816497    -0.471405    -0.333333     0.000000     0.000000     0.000000
    4    -1.000000   120.000000    -0.816497    -0.471405    -0.333333     0.000000     0.000000     0.000000
    5     1.000000   120.000000     0.816497     0.471405     0.333333     0.000000     0.000000     0.000000
    6    -1.000000   120.000000     0.816497     0.471405     0.333333     0.000000     0.000000     0.000000
    7     1.000000    90.000000    -0.707107    -0.408248     0.577350     0.000000     0.000000     0.000000
    8    -1.000000    90.000000    -0.707107    -0.408248     0.577350     0.000000     0.000000     0.000000
    9     1.000000   179.999999     1.000000     0.000000     0.000000     0.000000     0.000000     0.000000
   10    -1.000000   179.999999     1.000000     0.000000     0.000000     0.000000     0.000000     0.000000
   11     1.000000    90.000000     0.707107    -0.408248     0.577350     0.000000     0.000000     0.000000
   12    -1.000000    90.000000     0.707107    -0.408248     0.577350     0.000000     0.000000     0.000000
   13     1.000000   179.999999     0.707107     0.408248    -0.577350     0.000000     0.000000     0.000000
   14    -1.000000   179.999999     0.707107     0.408248    -0.577350     0.000000     0.000000     0.000000
   15     1.000000   120.000000     0.816497    -0.471405    -0.333333     0.000000     0.000000     0.000000
   16    -1.000000   120.000000     0.816497    -0.471405    -0.333333     0.000000     0.000000     0.000000
   17     1.000000   120.000000     0.000000    -0.942809     0.333333     0.000000     0.000000     0.000000
   18    -1.000000   120.000000     0.000000    -0.942809     0.333333     0.000000     0.000000     0.000000
   19     1.000000    90.000000     0.707107     0.408248    -0.577350     0.000000     0.000000     0.000000
   20    -1.000000    90.000000     0.707107     0.408248    -0.577350     0.000000     0.000000     0.000000
   21     1.000000    90.000000    -0.000000    -0.816497    -0.577350     0.000000     0.000000     0.000000
   22    -1.000000    90.000000    -0.000000    -0.816497    -0.577350     0.000000     0.000000     0.000000
   23     1.000000   180.000000     0.500000     0.866025     0.000000     0.000000     0.000000     0.000000
   24    -1.000000   180.000000     0.500000     0.866025     0.000000     0.000000     0.000000     0.000000
   25     1.000000   120.000000     0.000000     0.942809    -0.333333     0.000000     0.000000     0.000000
   26    -1.000000   120.000000     0.000000     0.942809    -0.333333     0.000000     0.000000     0.000000
   27     1.000000   120.000000    -0.000000     0.000000    -1.000000     0.000000     0.000000     0.000000
   28    -1.000000   120.000000    -0.000000     0.000000    -1.000000     0.000000     0.000000     0.000000
   29     1.000000   180.000000    -0.000000     0.816497     0.577350     0.000000     0.000000     0.000000
   30    -1.000000   180.000000    -0.000000     0.816497     0.577350     0.000000     0.000000     0.000000
   31     1.000000    90.000000    -0.707107     0.408248    -0.577350     0.000000     0.000000     0.000000
   32    -1.000000    90.000000    -0.707107     0.408248    -0.577350     0.000000     0.000000     0.000000
   33     1.000000   180.000000     0.500000     0.288675     0.816497     0.000000     0.000000     0.000000
   34    -1.000000   180.000000     0.500000     0.288675     0.816497     0.000000     0.000000     0.000000
   35     1.000000    90.000000    -0.000000     0.816497     0.577350     0.000000     0.000000     0.000000
   36    -1.000000    90.000000    -0.000000     0.816497     0.577350     0.000000     0.000000     0.000000
   37     1.000000   120.000000    -0.816497     0.471405     0.333333     0.000000     0.000000     0.000000
   38    -1.000000   120.000000    -0.816497     0.471405     0.333333     0.000000     0.000000     0.000000
   39     1.000000   180.000000    -0.707107     0.408248    -0.577350     0.000000     0.000000     0.000000
   40    -1.000000   180.000000    -0.707107     0.408248    -0.577350     0.000000     0.000000     0.000000
   41     1.000000   120.000000    -0.000000     0.000000     1.000000     0.000000     0.000000     0.000000
   42    -1.000000   120.000000    -0.000000     0.000000     1.000000     0.000000     0.000000     0.000000
   43     1.000000   180.000000     0.000000     0.577350    -0.816497     0.000000     0.000000     0.000000
   44    -1.000000   180.000000     0.000000     0.577350    -0.816497     0.000000     0.000000     0.000000
   45     1.000000   180.000000    -0.500000     0.866025    -0.000000     0.000000     0.000000     0.000000
   46    -1.000000   180.000000    -0.500000     0.866025    -0.000000     0.000000     0.000000     0.000000
   47     1.000000   180.000000    -0.500000     0.288675     0.816497     0.000000     0.000000     0.000000
   48    -1.000000   180.000000    -0.500000     0.288675     0.816497     0.000000     0.000000     0.000000
 
 Subroutine IBZKPT returns following result:
 ===========================================
 
 Found     35 irreducible k-points:
 
 Following reciprocal coordinates:
            Coordinates               Weight
  0.000000  0.000000  0.000000      1.000000
  0.111111  0.000000 -0.000000      8.000000
  0.222222  0.000000 -0.000000      8.000000
  0.333333  0.000000  0.000000      8.000000
  0.444444  0.000000 -0.000000      8.000000
  0.111111  0.111111 -0.000000      6.000000
  0.222222  0.111111  0.000000     24.000000
  0.333333  0.111111  0.000000     24.000000
  0.444444  0.111111 -0.000000     24.000000
 -0.444444  0.111111 -0.000000     24.000000
 -0.333333  0.111111 -0.000000     24.000000
 -0.222222  0.111111  0.000000     24.000000
 -0.111111  0.111111  0.000000     12.000000
  0.222222  0.222222  0.000000      6.000000
  0.333333  0.222222  0.000000     24.000000
  0.444444  0.222222 -0.000000     24.000000
 -0.444444  0.222222  0.000000     24.000000
 -0.333333  0.222222 -0.000000     24.000000
 -0.222222  0.222222 -0.000000     12.000000
  0.333333  0.333333  0.000000      6.000000
  0.444444  0.333333  0.000000     24.000000
 -0.444444  0.333333  0.000000     24.000000
 -0.333333  0.333333 -0.000000     12.000000
  0.444444  0.444444  0.000000      6.000000
 -0.444444  0.444444 -0.000000     12.000000
  0.333333  0.222222  0.111111     24.000000
  0.444444  0.222222  0.111111     48.000000
 -0.444444  0.222222  0.111111     48.000000
  0.444444  0.333333  0.111111     24.000000
 -0.444444  0.333333  0.111111     48.000000
 -0.333333  0.333333  0.111111     48.000000
 -0.222222  0.333333  0.111111     24.000000
 -0.444444  0.444444  0.111111     24.000000
 -0.333333  0.444444  0.111111     24.000000
 -0.333333  0.444444  0.222222     24.000000
 
 Following cartesian coordinates:
            Coordinates               Weight
  0.000000  0.000000  0.000000      1.000000
  0.024658 -0.014236 -0.010066      8.000000
  0.049315 -0.028472 -0.020133      8.000000
  0.073973 -0.042708 -0.030199      8.000000
  0.098630 -0.056944 -0.040266      8.000000
  0.024658  0.014236 -0.020133      6.000000
  0.049315 -0.000000 -0.030199     24.000000
  0.073973 -0.014236 -0.040266     24.000000
  0.098630 -0.028472 -0.050332     24.000000
 -0.098630  0.085416  0.030199     24.000000
 -0.073973  0.071180  0.020133     24.000000
 -0.049315  0.056944  0.010066     24.000000
 -0.024658  0.042708 -0.000000     12.000000
  0.049315  0.028472 -0.040266      6.000000
  0.073973  0.014236 -0.050332     24.000000
  0.098630 -0.000000 -0.060399     24.000000
 -0.098630  0.113889  0.020133     24.000000
 -0.073973  0.099653  0.010066     24.000000
 -0.049315  0.085416 -0.000000     12.000000
  0.073973  0.042708 -0.060399      6.000000
  0.098630  0.028472 -0.070465     24.000000
 -0.098630  0.142361  0.010066     24.000000
 -0.073973  0.128125  0.000000     12.000000
  0.098630  0.056944 -0.080531      6.000000
 -0.098630  0.170833 -0.000000     12.000000
  0.073973  0.014236 -0.020133     24.000000
  0.098630  0.000000 -0.030199     48.000000
 -0.098630  0.113889  0.050332     48.000000
  0.098630  0.028472 -0.040266     24.000000
 -0.098630  0.142361  0.040266     48.000000
 -0.073973  0.128125  0.030199     48.000000
 -0.049315  0.113889  0.020133     24.000000
 -0.098630  0.170833  0.030199     24.000000
 -0.073973  0.156597  0.020133     24.000000
 -0.073973  0.156597  0.050332     24.000000
 


--------------------------------------------------------------------------------------------------------




 Dimension of arrays:
   k-points           NKPTS =     35   k-points in BZ     NKDIM =     35   number of bands    NBANDS=     13
   number of dos      NEDOS =    301   number of ions     NIONS =      1
   non local maximal  LDIM  =      6   non local SUM 2l+1 LMDIM =     18
   total plane-waves  NPLWV =  64000
   max r-space proj   IRMAX =      1   max aug-charges    IRDMAX= 447941
   dimension x,y,z NGX =    40 NGY =   40 NGZ =   40
   dimension x,y,z NGXF=    80 NGYF=   80 NGZF=   80
   support grid    NGXF=   160 NGYF=  160 NGZF=  160
   ions per type =               1
   NGX,Y,Z   is equivalent  to a cutoff of  14.47, 14.47, 14.47 a.u.
   NGXF,Y,Z  is equivalent  to a cutoff of  28.94, 28.94, 28.94 a.u.

 SYSTEM =  Og_FCC                                  
 POSCAR =  Og_FCC                                  

 Startparameter for this run:
   NWRITE =      2    write-flag & timer
   PREC   = accura    normal or accurate (medium, high low for compatibility)
   ISTART =      0    job   : 0-new  1-cont  2-samecut
   ICHARG =      2    charge: 1-file 2-atom 10-const
   ISPIN  =      1    spin polarized calculation?
   LNONCOLLINEAR =      F non collinear calculations
   LSORBIT =      F    spin-orbit coupling
   INIWAV =      1    electr: 0-lowe 1-rand  2-diag
   LASPH  =      F    aspherical Exc in radial PAW
   METAGGA=      F    non-selfconsistent MetaGGA calc.

 Electronic Relaxation 1
   ENCUT  =  600.0 eV  44.10 Ry    6.64 a.u.   9.18  9.18  9.18*2*pi/ulx,y,z
   ENINI  =  600.0     initial cutoff
   ENAUG  =  361.0 eV  augmentation charge cutoff
   NELM   =    100;   NELMIN=  5; NELMDL= -5     # of ELM steps 
   EDIFF  = 0.1E-07   stopping-criterion for ELM
   LREAL  =      F    real-space projection
   NLSPLINE    = F    spline interpolate recip. space projectors
   LCOMPAT=      F    compatible to vasp.4.4
   GGA_COMPAT  = F    GGA compatible to vasp.4.4-vasp.4.6
   LMAXPAW     = -100 max onsite density
   LMAXMIX     =    2 max onsite mixed and CHGCAR
   VOSKOWN=      0    Vosko Wilk Nusair interpolation
   ROPT   =    0.00000
 Ionic relaxation
   EDIFFG = 0.1E-05   stopping-criterion for IOM
   NSW    =      1    number of steps for IOM
   NBLOCK =      1;   KBLOCK =      1    inner block; outer block 
   IBRION =     -1    ionic relax: 0-MD 1-quasi-New 2-CG
   NFREE  =      5    steps in history (QN), initial steepest desc. (CG)
   ISIF   =      7    stress and relaxation
   IWAVPR =     10    prediction:  0-non 1-charg 2-wave 3-comb
   ISYM   =      2    0-nonsym 1-usesym 2-fastsym
   LCORR  =      T    Harris-Foulkes like correction to forces

   POTIM  = 0.5000    time-step for ionic-motion
   TEIN   =    0.0    initial temperature
   TEBEG  =    0.0;   TEEND  =   0.0 temperature during run
   SMASS  =  -3.00    Nose mass-parameter (am)
   estimated Nose-frequenzy (Omega)   =  0.10E-29 period in steps =****** mass=  -0.483E-27a.u.
   SCALEE = 1.0000    scale energy and forces
   NPACO  =    256;   APACO  = 16.0  distance and # of slots for P.C.
   PSTRESS=    0.0 pullay stress

  Mass of Ions in am
   POMASS =   0.01
  Ionic Valenz
   ZVAL   =  18.00
  Atomic Wigner-Seitz radii
   RWIGS  =  -1.00
  virtual crystal weights 
   VCA    =   1.00
   NELECT =      18.0000    total number of electrons
   NUPDOWN=      -1.0000    fix difference up-down

 DOS related values:
   EMIN   =  10.00;   EMAX   =-10.00  energy-range for DOS
   EFERMI =   0.00
   ISMEAR =     1;   SIGMA  =   0.05  broadening in eV -4-tet -1-fermi 0-gaus

 Electronic relaxation 2 (details)
   IALGO  =     68    algorithm
   LDIAG  =      T    sub-space diagonalisation (order eigenvalues)
   LSUBROT=      F    optimize rotation matrix (better conditioning)
   TURBO    =      0    0=normal 1=particle mesh
   IRESTART =      0    0=no restart 2=restart with 2 vectors
   NREBOOT  =      0    no. of reboots
   NMIN     =      0    reboot dimension
   EREF     =   0.00    reference energy to select bands
   IMIX   =      4    mixing-type and parameters
     AMIX     =   0.40;   BMIX     =  1.00
     AMIX_MAG =   1.60;   BMIX_MAG =  1.00
     AMIN     =   0.10
     WC   =   100.;   INIMIX=   1;  MIXPRE=   1;  MAXMIX=  50

 Intra band minimization:
   WEIMIN = 0.0000     energy-eigenvalue tresh-hold
   EBREAK =  0.19E-09  absolut break condition
   DEPER  =   0.30     relativ break condition  

   TIME   =   0.40     timestep for ELM

  volume/ion in A,a.u.               =      68.66       463.34
  Fermi-wavevector in a.u.,A,eV,Ry     =   1.047765  1.979990 14.936644  1.097812
  Thomas-Fermi vector in A             =   2.182659
 
 Write flags
   LWAVE        =      F    write WAVECAR
   LDOWNSAMPLE  =      F    k-point downsampling of WAVECAR
   LCHARG       =      F    write CHGCAR
   LVTOT        =      F    write LOCPOT, total local potential
   LVHAR        =      F    write LOCPOT, Hartree potential only
   LELF         =      F    write electronic localiz. function (ELF)
   LORBIT       =      0    0 simple, 1 ext, 2 COOP (PROOUT), +10 PAW based schemes


 Dipole corrections
   LMONO  =      F    monopole corrections only (constant potential shift)
   LDIPOL =      F    correct potential (dipole corrections)
   IDIPOL =      0    1-x, 2-y, 3-z, 4-all directions 
   EPSILON=  1.0000000 bulk dielectric constant

 Exchange correlation treatment:
   GGA     =    --    GGA type
   LEXCH   =     8    internal setting for exchange type
   VOSKOWN=      0    Vosko Wilk Nusair interpolation
   LHFCALC =     F    Hartree Fock is set to
   LHFONE  =     F    Hartree Fock one center treatment
   AEXX    =    0.0000 exact exchange contribution

 Linear response parameters
   LEPSILON=     F    determine dielectric tensor
   LRPA    =     F    only Hartree local field effects (RPA)
   LNABLA  =     F    use nabla operator in PAW spheres
   LVEL    =     F    velocity operator in full k-point grid
   LINTERFAST=   F  fast interpolation
   KINTER  =     0    interpolate to denser k-point grid
   CSHIFT  =0.1000    complex shift for real part using Kramers Kronig
   OMEGAMAX=  -1.0    maximum frequency
   DEG_THRESHOLD= 0.2000000E-02 threshold for treating states as degnerate
   RTIME   =   -0.100 relaxation time in fs
  (WPLASMAI=    0.000 imaginary part of plasma frequency in eV, 0.658/RTIME)
   DFIELD  = 0.0000000 0.0000000 0.0000000 field for delta impulse in time
 
 Orbital magnetization related:
   ORBITALMAG=     F  switch on orbital magnetization
   LCHIMAG   =     F  perturbation theory with respect to B field
   DQ        =  0.001000  dq finite difference perturbation B field
   LLRAUG    =     F  two centre corrections for induced B field



--------------------------------------------------------------------------------------------------------


 Static calculation
 charge density and potential will be updated during run
 non-spin polarized calculation
 RMM-DIIS sequential band-by-band and
  variant of blocked Davidson during initial phase
 perform sub-space diagonalisation
    before iterative eigenvector-optimisation
 modified Broyden-mixing scheme, WC =      100.0
 initial mixing is a Kerker type mixing with AMIX =  0.4000 and BMIX =      1.0000
 Hartree-type preconditioning will be used
 using additional bands            4
 reciprocal scheme for non local part
 use partial core corrections
 calculate Harris-corrections to forces 
   (improved forces if not selfconsistent)
 use gradient corrections 
 use of overlap-Matrix (Vanderbilt PP)
 Methfessel and Paxton  Order N= 1 SIGMA  =   0.05


--------------------------------------------------------------------------------------------------------


  energy-cutoff  :      600.00
  volume of cell :       68.66
      direct lattice vectors                 reciprocal lattice vectors
     4.596281300  0.000000000  0.000000000     0.217567189 -0.125612475 -0.088821433
     2.298140650  3.980496368 -0.000000000     0.000000000  0.251224950 -0.088821433
     2.298140650  1.326832123  3.752847966    -0.000000000  0.000000000  0.266464298

  length of vectors
     4.596281300  4.596281299  4.596281300     0.266464298  0.266464298  0.266464298


 
 k-points in units of 2pi/SCALE and weight: read from INCAR                         
   0.00000000  0.00000000  0.00000000       0.001
   0.02465761 -0.01423608 -0.01006643       0.011
   0.04931523 -0.02847216 -0.02013286       0.011
   0.07397284 -0.04270824 -0.03019929       0.011
   0.09863046 -0.05694432 -0.04026572       0.011
   0.02465761  0.01423608 -0.02013286       0.008
   0.04931523 -0.00000000 -0.03019929       0.033
   0.07397284 -0.01423608 -0.04026572       0.033
   0.09863046 -0.02847216 -0.05033215       0.033
  -0.09863046  0.08541648  0.03019929       0.033
  -0.07397284  0.07118040  0.02013286       0.033
  -0.04931523  0.05694432  0.01006643       0.033
  -0.02465761  0.04270824 -0.00000000       0.016
   0.04931523  0.02847216 -0.04026572       0.008
   0.07397284  0.01423608 -0.05033215       0.033
   0.09863046 -0.00000000 -0.06039857       0.033
  -0.09863046  0.11388864  0.02013286       0.033
  -0.07397284  0.09965256  0.01006643       0.033
  -0.04931523  0.08541648 -0.00000000       0.016
   0.07397284  0.04270824 -0.06039857       0.008
   0.09863046  0.02847216 -0.07046500       0.033
  -0.09863046  0.14236080  0.01006643       0.033
  -0.07397284  0.12812472  0.00000000       0.016
   0.09863046  0.05694432 -0.08053143       0.008
  -0.09863046  0.17083297 -0.00000000       0.016
   0.07397284  0.01423608 -0.02013286       0.033
   0.09863046  0.00000000 -0.03019929       0.066
  -0.09863046  0.11388864  0.05033215       0.066
   0.09863046  0.02847216 -0.04026572       0.033
  -0.09863046  0.14236080  0.04026572       0.066
  -0.07397284  0.12812472  0.03019929       0.066
  -0.04931523  0.11388864  0.02013286       0.033
  -0.09863046  0.17083297  0.03019929       0.033
  -0.07397284  0.15659689  0.02013286       0.033
  -0.07397284  0.15659689  0.05033215       0.033
 
 k-points in reciprocal lattice and weights: read from INCAR                         
   0.00000000  0.00000000  0.00000000       0.001
   0.11111111  0.00000000 -0.00000000       0.011
   0.22222222  0.00000000 -0.00000000       0.011
   0.33333333  0.00000000  0.00000000       0.011
   0.44444444  0.00000000 -0.00000000       0.011
   0.11111111  0.11111111 -0.00000000       0.008
   0.22222222  0.11111111  0.00000000       0.033
   0.33333333  0.11111111  0.00000000       0.033
   0.44444444  0.11111111 -0.00000000       0.033
  -0.44444444  0.11111111 -0.00000000       0.033
  -0.33333333  0.11111111 -0.00000000       0.033
  -0.22222222  0.11111111  0.00000000       0.033
  -0.11111111  0.11111111  0.00000000       0.016
   0.22222222  0.22222222  0.00000000       0.008
   0.33333333  0.22222222  0.00000000       0.033
   0.44444444  0.22222222 -0.00000000       0.033
  -0.44444444  0.22222222  0.00000000       0.033
  -0.33333333  0.22222222 -0.00000000       0.033
  -0.22222222  0.22222222 -0.00000000       0.016
   0.33333333  0.33333333  0.00000000       0.008
   0.44444444  0.33333333  0.00000000       0.033
  -0.44444444  0.33333333  0.00000000       0.033
  -0.33333333  0.33333333 -0.00000000       0.016
   0.44444444  0.44444444  0.00000000       0.008
  -0.44444444  0.44444444 -0.00000000       0.016
   0.33333333  0.22222222  0.11111111       0.033
   0.44444444  0.22222222  0.11111111       0.066
  -0.44444444  0.22222222  0.11111111       0.066
   0.44444444  0.33333333  0.11111111       0.033
  -0.44444444  0.33333333  0.11111111       0.066
  -0.33333333  0.33333333  0.11111111       0.066
  -0.22222222  0.33333333  0.11111111       0.033
  -0.44444444  0.44444444  0.11111111       0.033
  -0.33333333  0.44444444  0.11111111       0.033
  -0.33333333  0.44444444  0.22222222       0.033
 
 position of ions in fractional coordinates (direct lattice) 
   0.00000000  0.00000000  0.00000000
 
 position of ions in cartesian coordinates  (Angst):
   0.00000000  0.00000000  0.00000000
 


--------------------------------------------------------------------------------------------------------


 k-point  1 :   0.0000 0.0000 0.0000  plane waves:    2277
 k-point  2 :   0.1111 0.0000-0.0000  plane waves:    2289
 k-point  3 :   0.2222 0.0000-0.0000  plane waves:    2274
 k-point  4 :   0.3333 0.0000 0.0000  plane waves:    2301
 k-point  5 :   0.4444 0.0000-0.0000  plane waves:    2292
 k-point  6 :   0.1111 0.1111-0.0000  plane waves:    2281
 k-point  7 :   0.2222 0.1111 0.0000  plane waves:    2272
 k-point  8 :   0.3333 0.1111 0.0000  plane waves:    2277
 k-point  9 :   0.4444 0.1111-0.0000  plane waves:    2306
 k-point 10 :  -0.4444 0.1111-0.0000  plane waves:    2298
 k-point 11 :  -0.3333 0.1111-0.0000  plane waves:    2299
 k-point 12 :  -0.2222 0.1111 0.0000  plane waves:    2288
 k-point 13 :  -0.1111 0.1111 0.0000  plane waves:    2281
 k-point 14 :   0.2222 0.2222 0.0000  plane waves:    2281
 k-point 15 :   0.3333 0.2222 0.0000  plane waves:    2300
 k-point 16 :   0.4444 0.2222-0.0000  plane waves:    2301
 k-point 17 :  -0.4444 0.2222 0.0000  plane waves:    2295
 k-point 18 :  -0.3333 0.2222-0.0000  plane waves:    2288
 k-point 19 :  -0.2222 0.2222-0.0000  plane waves:    2291
 k-point 20 :   0.3333 0.3333 0.0000  plane waves:    2297
 k-point 21 :   0.4444 0.3333 0.0000  plane waves:    2295
 k-point 22 :  -0.4444 0.3333 0.0000  plane waves:    2300
 k-point 23 :  -0.3333 0.3333-0.0000  plane waves:    2301
 k-point 24 :   0.4444 0.4444 0.0000  plane waves:    2301
 k-point 25 :  -0.4444 0.4444-0.0000  plane waves:    2280
 k-point 26 :   0.3333 0.2222 0.1111  plane waves:    2288
 k-point 27 :   0.4444 0.2222 0.1111  plane waves:    2299
 k-point 28 :  -0.4444 0.2222 0.1111  plane waves:    2290
 k-point 29 :   0.4444 0.3333 0.1111  plane waves:    2291
 k-point 30 :  -0.4444 0.3333 0.1111  plane waves:    2290
 k-point 31 :  -0.3333 0.3333 0.1111  plane waves:    2284
 k-point 32 :  -0.2222 0.3333 0.1111  plane waves:    2295
 k-point 33 :  -0.4444 0.4444 0.1111  plane waves:    2287
 k-point 34 :  -0.3333 0.4444 0.1111  plane waves:    2289
 k-point 35 :  -0.3333 0.4444 0.2222  plane waves:    2285

 maximum and minimum number of plane-waves per node :       582      562

 maximum number of plane-waves:      2306
 maximum index in each direction: 
   IXMAX=    9   IYMAX=    9   IZMAX=    9
   IXMIN=   -9   IYMIN=   -9   IZMIN=   -9


 parallel 3D FFT for wavefunctions:
    minimum data exchange during FFTs selected (reduces bandwidth)
 parallel 3D FFT for charge:
    minimum data exchange during FFTs selected (reduces bandwidth)


 total amount of memory used by VASP MPI-rank0    65133. kBytes
=======================================================================

   base      :      30000. kBytes
   nonl-proj :       2942. kBytes
   fftplans  :      19355. kBytes
   grid      :       8453. kBytes
   one-center:         15. kBytes
   wavefun   :       4368. kBytes
 
     INWAV:  cpu time    0.0000: real time    0.0002
 Broyden mixing: mesh for mixing (old mesh)
   NGX = 19   NGY = 19   NGZ = 19
  (NGX  = 80   NGY  = 80   NGZ  = 80)
  gives a total of   6859 points

 initial charge density was supplied:
 charge density of overlapping atoms calculated
 number of electron      18.0000000 magnetization 
 keeping initial charge density in first step


--------------------------------------------------------------------------------------------------------


 Maximum index for augmentation-charges       108465 (set IRDMAX)


--------------------------------------------------------------------------------------------------------


 First call to EWALD:  gamma=   0.433
 Maximum number of real-space cells 3x 3x 3
 Maximum number of reciprocal cells 3x 3x 3

    FEWALD:  cpu time    0.0018: real time    0.0017


--------------------------------------- Iteration      1(   1)  ---------------------------------------


    POTLOK:  cpu time    0.3073: real time    0.3082
    SETDIJ:  cpu time    0.0756: real time    0.0755
     EDDAV:  cpu time    1.4679: real time    1.4673
       DOS:  cpu time    0.0007: real time    0.0007
    --------------------------------------------
      LOOP:  cpu time    1.8515: real time    1.8518

 eigenvalue-minimisations  :   910
 total energy-change (2. order) : 0.1412866E+03  (-0.9476468E+03)
 number of electron      18.0000000 magnetization 
 augmentation part       18.0000000 magnetization 

 Free energy of the ion-electron system (eV)
  ---------------------------------------------------
  alpha Z        PSCENC =        55.56725574
  Ewald energy   TEWEN  =     -1645.41618477
  -Hartree energ DENC   =      -724.55211973
  -exchange      EXHF   =         0.00000000
  -V(xc)+E(xc)   XCENC  =       -42.53782347
  PAW double counting   =      2249.78787100    -2317.67826404
  entropy T*S    EENTRO =        -0.00026136
  eigenvalues    EBANDS =       -74.41262401
  atomic energy  EATOM  =      2640.52872706
  Solvation  Ediel_sol  =         0.00000000
  ---------------------------------------------------
  free energy    TOTEN  =       141.28657642 eV

  energy without entropy =      141.28683777  energy(sigma->0) =      141.28666354


--------------------------------------------------------------------------------------------------------




--------------------------------------- Iteration      1(   2)  ---------------------------------------


     EDDAV:  cpu time    1.6702: real time    1.6701
       DOS:  cpu time    0.0006: real time    0.0006
    --------------------------------------------
      LOOP:  cpu time    1.6709: real time    1.6708

 eigenvalue-minimisations  :  1121
 total energy-change (2. order) :-0.2736356E+03  (-0.2675865E+03)
 number of electron      18.0000000 magnetization 
 augmentation part       18.0000000 magnetization 

 Free energy of the ion-electron system (eV)
  ---------------------------------------------------
  alpha Z        PSCENC =        55.56725574
  Ewald energy   TEWEN  =     -1645.41618477
  -Hartree energ DENC   =      -724.55211973
  -exchange      EXHF   =         0.00000000
  -V(xc)+E(xc)   XCENC  =       -42.53782347
  PAW double counting   =      2249.78787100    -2317.67826404
  entropy T*S    EENTRO =         0.00003181
  eigenvalues    EBANDS =      -348.04853636
  atomic energy  EATOM  =      2640.52872706
  Solvation  Ediel_sol  =         0.00000000
  ---------------------------------------------------
  free energy    TOTEN  =      -132.34904276 eV

  energy without entropy =     -132.34907457  energy(sigma->0) =     -132.34905336


--------------------------------------------------------------------------------------------------------




--------------------------------------- Iteration      1(   3)  ---------------------------------------


     EDDAV:  cpu time    1.6436: real time    1.6430
       DOS:  cpu time    0.0007: real time    0.0007
    --------------------------------------------
      LOOP:  cpu time    1.6442: real time    1.6437

 eigenvalue-minimisations  :  1125
 total energy-change (2. order) :-0.8059177E+01  (-0.8052906E+01)
 number of electron      18.0000000 magnetization 
 augmentation part       18.0000000 magnetization 

 Free energy of the ion-electron system (eV)
  ---------------------------------------------------
  alpha Z        PSCENC =        55.56725574
  Ewald energy   TEWEN  =     -1645.41618477
  -Hartree energ DENC   =      -724.55211973
  -exchange      EXHF   =         0.00000000
  -V(xc)+E(xc)   XCENC  =       -42.53782347
  PAW double counting   =      2249.78787100    -2317.67826404
  entropy T*S    EENTRO =         0.00018214
  eigenvalues    EBANDS =      -356.10786382
  atomic energy  EATOM  =      2640.52872706
  Solvation  Ediel_sol  =         0.00000000
  ---------------------------------------------------
  free energy    TOTEN  =      -140.40821989 eV

  energy without entropy =     -140.40840203  energy(sigma->0) =     -140.40828061


--------------------------------------------------------------------------------------------------------




--------------------------------------- Iteration      1(   4)  ---------------------------------------


     EDDAV:  cpu time    1.8500: real time    1.8493
       DOS:  cpu time    0.0007: real time    0.0007
    --------------------------------------------
      LOOP:  cpu time    1.8506: real time    1.8500

 eigenvalue-minimisations  :  1386
 total energy-change (2. order) :-0.1486739E+00  (-0.1486602E+00)
 number of electron      18.0000000 magnetization 
 augmentation part       18.0000000 magnetization 

 Free energy of the ion-electron system (eV)
  ---------------------------------------------------
  alpha Z        PSCENC =        55.56725574
  Ewald energy   TEWEN  =     -1645.41618477
  -Hartree energ DENC   =      -724.55211973
  -exchange      EXHF   =         0.00000000
  -V(xc)+E(xc)   XCENC  =       -42.53782347
  PAW double counting   =      2249.78787100    -2317.67826404
  entropy T*S    EENTRO =         0.00017689
  eigenvalues    EBANDS =      -356.25653250
  atomic energy  EATOM  =      2640.52872706
  Solvation  Ediel_sol  =         0.00000000
  ---------------------------------------------------
  free energy    TOTEN  =      -140.55689382 eV

  energy without entropy =     -140.55707072  energy(sigma->0) =     -140.55695279


--------------------------------------------------------------------------------------------------------




--------------------------------------- Iteration      1(   5)  ---------------------------------------


     EDDAV:  cpu time    1.6813: real time    1.6807
       DOS:  cpu time    0.0007: real time    0.0007
    CHARGE:  cpu time    0.4864: real time    0.4862
    MIXING:  cpu time    0.0053: real time    0.0054
    --------------------------------------------
      LOOP:  cpu time    2.1737: real time    2.1729

 eigenvalue-minimisations  :  1175
 total energy-change (2. order) :-0.3209589E-02  (-0.3209547E-02)
 number of electron      18.0000000 magnetization 
 augmentation part        3.1350890 magnetization 

 Broyden mixing:
  rms(total) = 0.16247E+00    rms(broyden)= 0.16230E+00
  rms(prec ) = 0.29704E+00
  weight for this iteration     100.00

 Free energy of the ion-electron system (eV)
  ---------------------------------------------------
  alpha Z        PSCENC =        55.56725574
  Ewald energy   TEWEN  =     -1645.41618477
  -Hartree energ DENC   =      -724.55211973
  -exchange      EXHF   =         0.00000000
  -V(xc)+E(xc)   XCENC  =       -42.53782347
  PAW double counting   =      2249.78787100    -2317.67826404
  entropy T*S    EENTRO =         0.00017674
  eigenvalues    EBANDS =      -356.25974194
  atomic energy  EATOM  =      2640.52872706
  Solvation  Ediel_sol  =         0.00000000
  ---------------------------------------------------
  free energy    TOTEN  =      -140.56010341 eV

  energy without entropy =     -140.56028015  energy(sigma->0) =     -140.56016232


--------------------------------------------------------------------------------------------------------




--------------------------------------- Iteration      1(   6)  ---------------------------------------


    POTLOK:  cpu time    0.3069: real time    0.3071
    SETDIJ:  cpu time    0.0619: real time    0.0619
    EDDIAG:  cpu time    0.3381: real time    0.3380
  RMM-DIIS:  cpu time    2.4441: real time    2.4430
    ORTHCH:  cpu time    0.0038: real time    0.0037
       DOS:  cpu time    0.0011: real time    0.0011
    CHARGE:  cpu time    0.4662: real time    0.4660
    MIXING:  cpu time    0.0037: real time    0.0036
    --------------------------------------------
      LOOP:  cpu time    3.6258: real time    3.6245

 eigenvalue-minimisations  :  1131
 total energy-change (2. order) : 0.3499455E+01  (-0.4955644E+00)
 number of electron      18.0000000 magnetization 
 augmentation part        2.9808585 magnetization 

 Broyden mixing:
  rms(total) = 0.80795E-01    rms(broyden)= 0.80771E-01
  rms(prec ) = 0.16076E+00
  weight for this iteration     100.00

 eigenvalues of (default mixing * dielectric matrix)
  average eigenvalue GAMMA=   0.6753
  0.6753

 Free energy of the ion-electron system (eV)
  ---------------------------------------------------
  alpha Z        PSCENC =        55.56725574
  Ewald energy   TEWEN  =     -1645.41618477
  -Hartree energ DENC   =      -725.71785031
  -exchange      EXHF   =         0.00000000
  -V(xc)+E(xc)   XCENC  =       -50.60591061
  PAW double counting   =      2239.14013490    -2305.51693269
  entropy T*S    EENTRO =         0.00017323
  eigenvalues    EBANDS =      -345.04006080
  atomic energy  EATOM  =      2640.52872706
  Solvation  Ediel_sol  =         0.00000000
  ---------------------------------------------------
  free energy    TOTEN  =      -137.06064825 eV

  energy without entropy =     -137.06082148  energy(sigma->0) =     -137.06070600


--------------------------------------------------------------------------------------------------------




--------------------------------------- Iteration      1(   7)  ---------------------------------------


    POTLOK:  cpu time    0.3043: real time    0.3043
    SETDIJ:  cpu time    0.0847: real time    0.0847
    EDDIAG:  cpu time    0.3417: real time    0.3416
  RMM-DIIS:  cpu time    2.2688: real time    2.2680
    ORTHCH:  cpu time    0.0027: real time    0.0027
       DOS:  cpu time    0.0007: real time    0.0007
    CHARGE:  cpu time    0.4747: real time    0.4745
    MIXING:  cpu time    0.0047: real time    0.0047
    --------------------------------------------
      LOOP:  cpu time    3.4824: real time    3.4811

 eigenvalue-minimisations  :  1018
 total energy-change (2. order) : 0.2515166E-01  (-0.1532056E-01)
 number of electron      18.0000000 magnetization 
 augmentation part        2.9860455 magnetization 

 Broyden mixing:
  rms(total) = 0.59759E-01    rms(broyden)= 0.59749E-01
  rms(prec ) = 0.11715E+00
  weight for this iteration     100.00

 eigenvalues of (default mixing * dielectric matrix)
  average eigenvalue GAMMA=   0.8089
  0.8089  0.8089

 Free energy of the ion-electron system (eV)
  ---------------------------------------------------
  alpha Z        PSCENC =        55.56725574
  Ewald energy   TEWEN  =     -1645.41618477
  -Hartree energ DENC   =      -724.73063589
  -exchange      EXHF   =         0.00000000
  -V(xc)+E(xc)   XCENC  =       -51.38465255
  PAW double counting   =      2261.25093469    -2327.51319623
  entropy T*S    EENTRO =         0.00017451
  eigenvalues    EBANDS =      -345.33791916
  atomic energy  EATOM  =      2640.52872706
  Solvation  Ediel_sol  =         0.00000000
  ---------------------------------------------------
  free energy    TOTEN  =      -137.03549659 eV

  energy without entropy =     -137.03567110  energy(sigma->0) =     -137.03555476


--------------------------------------------------------------------------------------------------------




--------------------------------------- Iteration      1(   8)  ---------------------------------------


    POTLOK:  cpu time    0.3038: real time    0.3039
    SETDIJ:  cpu time    0.0962: real time    0.0961
    EDDIAG:  cpu time    0.3387: real time    0.3385
  RMM-DIIS:  cpu time    2.4649: real time    2.4638
    ORTHCH:  cpu time    0.0027: real time    0.0027
       DOS:  cpu time    0.0188: real time    0.0188
    CHARGE:  cpu time    0.4536: real time    0.4534
    MIXING:  cpu time    0.0032: real time    0.0032
    --------------------------------------------
      LOOP:  cpu time    3.6820: real time    3.6805

 eigenvalue-minimisations  :  1155
 total energy-change (2. order) : 0.6164212E-02  (-0.2437325E-02)
 number of electron      18.0000000 magnetization 
 augmentation part        2.9906945 magnetization 

 Broyden mixing:
  rms(total) = 0.49226E-01    rms(broyden)= 0.49226E-01
  rms(prec ) = 0.96653E-01
  weight for this iteration     100.00

 eigenvalues of (default mixing * dielectric matrix)
  average eigenvalue GAMMA=   1.1037
  0.8049  1.2530  1.2530

 Free energy of the ion-electron system (eV)
  ---------------------------------------------------
  alpha Z        PSCENC =        55.56725574
  Ewald energy   TEWEN  =     -1645.41618477
  -Hartree energ DENC   =      -724.21711797
  -exchange      EXHF   =         0.00000000
  -V(xc)+E(xc)   XCENC  =       -51.29247537
  PAW double counting   =      2268.58841493    -2334.86728112
  entropy T*S    EENTRO =         0.00017464
  eigenvalues    EBANDS =      -345.92084553
  atomic energy  EATOM  =      2640.52872706
  Solvation  Ediel_sol  =         0.00000000
  ---------------------------------------------------
  free energy    TOTEN  =      -137.02933238 eV

  energy without entropy =     -137.02950702  energy(sigma->0) =     -137.02939059


--------------------------------------------------------------------------------------------------------




--------------------------------------- Iteration      1(   9)  ---------------------------------------


    POTLOK:  cpu time    0.2986: real time    0.2986
    SETDIJ:  cpu time    0.0743: real time    0.0743
    EDDIAG:  cpu time    0.3479: real time    0.3478
  RMM-DIIS:  cpu time    2.4104: real time    2.4093
    ORTHCH:  cpu time    0.0031: real time    0.0031
       DOS:  cpu time    0.0010: real time    0.0010
    CHARGE:  cpu time    0.4643: real time    0.4641
    MIXING:  cpu time    0.0032: real time    0.0032
    --------------------------------------------
      LOOP:  cpu time    3.6029: real time    3.6015

 eigenvalue-minimisations  :  1085
 total energy-change (2. order) : 0.1327808E-01  (-0.7302601E-02)
 number of electron      18.0000000 magnetization 
 augmentation part        3.0075290 magnetization 

 Broyden mixing:
  rms(total) = 0.47488E-02    rms(broyden)= 0.47446E-02
  rms(prec ) = 0.79976E-02
  weight for this iteration     100.00

 eigenvalues of (default mixing * dielectric matrix)
  average eigenvalue GAMMA=   1.1888
  1.6270  1.2366  1.2366  0.6551

 Free energy of the ion-electron system (eV)
  ---------------------------------------------------
  alpha Z        PSCENC =        55.56725574
  Ewald energy   TEWEN  =     -1645.41618477
  -Hartree energ DENC   =      -722.39256175
  -exchange      EXHF   =         0.00000000
  -V(xc)+E(xc)   XCENC  =       -51.32912049
  PAW double counting   =      2297.50478024    -2363.92420609
  entropy T*S    EENTRO =         0.00017556
  eigenvalues    EBANDS =      -347.55491981
  atomic energy  EATOM  =      2640.52872706
  Solvation  Ediel_sol  =         0.00000000
  ---------------------------------------------------
  free energy    TOTEN  =      -137.01605430 eV

  energy without entropy =     -137.01622987  energy(sigma->0) =     -137.01611283


--------------------------------------------------------------------------------------------------------




--------------------------------------- Iteration      1(  10)  ---------------------------------------


    POTLOK:  cpu time    0.3048: real time    0.3048
    SETDIJ:  cpu time    0.0794: real time    0.0793
    EDDIAG:  cpu time    0.3358: real time    0.3356
  RMM-DIIS:  cpu time    2.4330: real time    2.4320
    ORTHCH:  cpu time    0.0028: real time    0.0027
       DOS:  cpu time    0.0007: real time    0.0007
    CHARGE:  cpu time    0.4780: real time    0.4777
    MIXING:  cpu time    0.0048: real time    0.0048
    --------------------------------------------
      LOOP:  cpu time    3.6392: real time    3.6377

 eigenvalue-minimisations  :  1129
 total energy-change (2. order) :-0.9831260E-04  (-0.2138400E-03)
 number of electron      18.0000000 magnetization 
 augmentation part        3.0068408 magnetization 

 Broyden mixing:
  rms(total) = 0.30197E-02    rms(broyden)= 0.30188E-02
  rms(prec ) = 0.50775E-02
  weight for this iteration     100.00

 eigenvalues of (default mixing * dielectric matrix)
  average eigenvalue GAMMA=   1.3996
  1.8744  1.8744  1.2394  1.2394  0.7703

 Free energy of the ion-electron system (eV)
  ---------------------------------------------------
  alpha Z        PSCENC =        55.56725574
  Ewald energy   TEWEN  =     -1645.41618477
  -Hartree energ DENC   =      -722.41521341
  -exchange      EXHF   =         0.00000000
  -V(xc)+E(xc)   XCENC  =       -51.21938123
  PAW double counting   =      2299.77057574    -2366.14893648
  entropy T*S    EENTRO =         0.00017573
  eigenvalues    EBANDS =      -347.68317100
  atomic energy  EATOM  =      2640.52872706
  Solvation  Ediel_sol  =         0.00000000
  ---------------------------------------------------
  free energy    TOTEN  =      -137.01615262 eV

  energy without entropy =     -137.01632835  energy(sigma->0) =     -137.01621119


--------------------------------------------------------------------------------------------------------




--------------------------------------- Iteration      1(  11)  ---------------------------------------


    POTLOK:  cpu time    0.3058: real time    0.3058
    SETDIJ:  cpu time    0.0976: real time    0.0976
    EDDIAG:  cpu time    0.3404: real time    0.3402
  RMM-DIIS:  cpu time    2.3715: real time    2.3712
    ORTHCH:  cpu time    0.0027: real time    0.0027
       DOS:  cpu time    0.0006: real time    0.0006
    CHARGE:  cpu time    0.4496: real time    0.4494
    MIXING:  cpu time    0.0132: real time    0.0132
    --------------------------------------------
      LOOP:  cpu time    3.5814: real time    3.5807

 eigenvalue-minimisations  :  1085
 total energy-change (2. order) : 0.1038866E-03  (-0.2797023E-03)
 number of electron      18.0000000 magnetization 
 augmentation part        3.0029930 magnetization 

 Broyden mixing:
  rms(total) = 0.50456E-02    rms(broyden)= 0.50455E-02
  rms(prec ) = 0.10332E-01
  weight for this iteration     100.00

 eigenvalues of (default mixing * dielectric matrix)
  average eigenvalue GAMMA=   1.3081
  1.9923  1.4091  1.4091  1.3358  0.7610  0.9410

 Free energy of the ion-electron system (eV)
  ---------------------------------------------------
  alpha Z        PSCENC =        55.56725574
  Ewald energy   TEWEN  =     -1645.41618477
  -Hartree energ DENC   =      -722.67063668
  -exchange      EXHF   =         0.00000000
  -V(xc)+E(xc)   XCENC  =       -51.20086131
  PAW double counting   =      2300.61391460    -2366.93535020
  entropy T*S    EENTRO =         0.00017624
  eigenvalues    EBANDS =      -347.50308942
  atomic energy  EATOM  =      2640.52872706
  Solvation  Ediel_sol  =         0.00000000
  ---------------------------------------------------
  free energy    TOTEN  =      -137.01604873 eV

  energy without entropy =     -137.01622497  energy(sigma->0) =     -137.01610748


--------------------------------------------------------------------------------------------------------




--------------------------------------- Iteration      1(  12)  ---------------------------------------


    POTLOK:  cpu time    0.3026: real time    0.3027
    SETDIJ:  cpu time    0.0766: real time    0.0766
    EDDIAG:  cpu time    0.3581: real time    0.3580
  RMM-DIIS:  cpu time    2.6042: real time    2.6031
    ORTHCH:  cpu time    0.0029: real time    0.0029
       DOS:  cpu time    0.0006: real time    0.0006
    CHARGE:  cpu time    0.4627: real time    0.4625
    MIXING:  cpu time    0.0243: real time    0.0242
    --------------------------------------------
      LOOP:  cpu time    3.8320: real time    3.8306

 eigenvalue-minimisations  :  1203
 total energy-change (2. order) : 0.9199569E-04  (-0.6495385E-04)
 number of electron      18.0000000 magnetization 
 augmentation part        3.0048900 magnetization 

 Broyden mixing:
  rms(total) = 0.10551E-02    rms(broyden)= 0.10550E-02
  rms(prec ) = 0.23186E-02
  weight for this iteration     100.00

 eigenvalues of (default mixing * dielectric matrix)
  average eigenvalue GAMMA=   1.2674
  1.9390  1.3377  1.3377  0.8182  1.1796  1.1300  1.1300

 Free energy of the ion-electron system (eV)
  ---------------------------------------------------
  alpha Z        PSCENC =        55.56725574
  Ewald energy   TEWEN  =     -1645.41618477
  -Hartree energ DENC   =      -722.47557736
  -exchange      EXHF   =         0.00000000
  -V(xc)+E(xc)   XCENC  =       -51.23085759
  PAW double counting   =      2302.33620591    -2368.68316710
  entropy T*S    EENTRO =         0.00017629
  eigenvalues    EBANDS =      -347.64253490
  atomic energy  EATOM  =      2640.52872706
  Solvation  Ediel_sol  =         0.00000000
  ---------------------------------------------------
  free energy    TOTEN  =      -137.01595673 eV

  energy without entropy =     -137.01613302  energy(sigma->0) =     -137.01601550


--------------------------------------------------------------------------------------------------------




--------------------------------------- Iteration      1(  13)  ---------------------------------------


    POTLOK:  cpu time    0.3117: real time    0.3120
    SETDIJ:  cpu time    0.0965: real time    0.0965
    EDDIAG:  cpu time    0.3400: real time    0.3398
  RMM-DIIS:  cpu time    2.4922: real time    2.4911
    ORTHCH:  cpu time    0.0027: real time    0.0027
       DOS:  cpu time    0.0006: real time    0.0006
    CHARGE:  cpu time    0.4555: real time    0.4553
    MIXING:  cpu time    0.0039: real time    0.0039
    --------------------------------------------
      LOOP:  cpu time    3.7030: real time    3.7018

 eigenvalue-minimisations  :  1196
 total energy-change (2. order) :-0.3799999E-04  (-0.2857219E-04)
 number of electron      18.0000000 magnetization 
 augmentation part        3.0053619 magnetization 

 Broyden mixing:
  rms(total) = 0.11288E-02    rms(broyden)= 0.11288E-02
  rms(prec ) = 0.22428E-02
  weight for this iteration     100.00

 eigenvalues of (default mixing * dielectric matrix)
  average eigenvalue GAMMA=   1.4361
  3.0697  1.5258  1.5258  1.3925  1.3925  0.7648  0.9089  0.9089

 Free energy of the ion-electron system (eV)
  ---------------------------------------------------
  alpha Z        PSCENC =        55.56725574
  Ewald energy   TEWEN  =     -1645.41618477
  -Hartree energ DENC   =      -722.39811337
  -exchange      EXHF   =         0.00000000
  -V(xc)+E(xc)   XCENC  =       -51.22762134
  PAW double counting   =      2302.57530734    -2368.93114646
  entropy T*S    EENTRO =         0.00017630
  eigenvalues    EBANDS =      -347.71439523
  atomic energy  EATOM  =      2640.52872706
  Solvation  Ediel_sol  =         0.00000000
  ---------------------------------------------------
  free energy    TOTEN  =      -137.01599473 eV

  energy without entropy =     -137.01617104  energy(sigma->0) =     -137.01605350


--------------------------------------------------------------------------------------------------------




--------------------------------------- Iteration      1(  14)  ---------------------------------------


    POTLOK:  cpu time    0.2946: real time    0.2946
    SETDIJ:  cpu time    0.0725: real time    0.0724
    EDDIAG:  cpu time    0.3669: real time    0.3667
  RMM-DIIS:  cpu time    2.3514: real time    2.3504
    ORTHCH:  cpu time    0.0042: real time    0.0042
       DOS:  cpu time    0.0019: real time    0.0019
    CHARGE:  cpu time    0.4515: real time    0.4513
    MIXING:  cpu time    0.0082: real time    0.0082
    --------------------------------------------
      LOOP:  cpu time    3.5512: real time    3.5498

 eigenvalue-minimisations  :  1053
 total energy-change (2. order) : 0.2683557E-04  (-0.9539593E-05)
 number of electron      18.0000000 magnetization 
 augmentation part        3.0050192 magnetization 

 Broyden mixing:
  rms(total) = 0.74849E-03    rms(broyden)= 0.74848E-03
  rms(prec ) = 0.18580E-02
  weight for this iteration     100.00

 eigenvalues of (default mixing * dielectric matrix)
  average eigenvalue GAMMA=   1.3111
  2.9409  1.3133  1.3133  1.5034  1.5034  1.0972  0.8648  0.7700  0.4936

 Free energy of the ion-electron system (eV)
  ---------------------------------------------------
  alpha Z        PSCENC =        55.56725574
  Ewald energy   TEWEN  =     -1645.41618477
  -Hartree energ DENC   =      -722.37783871
  -exchange      EXHF   =         0.00000000
  -V(xc)+E(xc)   XCENC  =       -51.22247640
  PAW double counting   =      2301.83029267    -2368.17770842
  entropy T*S    EENTRO =         0.00017638
  eigenvalues    EBANDS =      -347.74821146
  atomic energy  EATOM  =      2640.52872706
  Solvation  Ediel_sol  =         0.00000000
  ---------------------------------------------------
  free energy    TOTEN  =      -137.01596790 eV

  energy without entropy =     -137.01614428  energy(sigma->0) =     -137.01602669


--------------------------------------------------------------------------------------------------------




--------------------------------------- Iteration      1(  15)  ---------------------------------------


    POTLOK:  cpu time    0.3020: real time    0.3020
    SETDIJ:  cpu time    0.0856: real time    0.0855
    EDDIAG:  cpu time    0.3377: real time    0.3376
  RMM-DIIS:  cpu time    2.4133: real time    2.4122
    ORTHCH:  cpu time    0.0027: real time    0.0027
       DOS:  cpu time    0.0006: real time    0.0006
    CHARGE:  cpu time    0.4553: real time    0.4551
    MIXING:  cpu time    0.0115: real time    0.0115
    --------------------------------------------
      LOOP:  cpu time    3.6087: real time    3.6073

 eigenvalue-minimisations  :  1124
 total energy-change (2. order) :-0.1579706E-06  (-0.3223866E-05)
 number of electron      18.0000000 magnetization 
 augmentation part        3.0048066 magnetization 

 Broyden mixing:
  rms(total) = 0.30371E-03    rms(broyden)= 0.30370E-03
  rms(prec ) = 0.81293E-03
  weight for this iteration     100.00

 eigenvalues of (default mixing * dielectric matrix)
  average eigenvalue GAMMA=   1.6460
  5.0537  2.3677  1.4457  1.4457  1.2127  1.2127  1.1702  0.8837  0.8837  0.7847

 Free energy of the ion-electron system (eV)
  ---------------------------------------------------
  alpha Z        PSCENC =        55.56725574
  Ewald energy   TEWEN  =     -1645.41618477
  -Hartree energ DENC   =      -722.40716592
  -exchange      EXHF   =         0.00000000
  -V(xc)+E(xc)   XCENC  =       -51.22436423
  PAW double counting   =      2301.68869375    -2368.03587091
  entropy T*S    EENTRO =         0.00017637
  eigenvalues    EBANDS =      -347.71723514
  atomic energy  EATOM  =      2640.52872706
  Solvation  Ediel_sol  =         0.00000000
  ---------------------------------------------------
  free energy    TOTEN  =      -137.01596806 eV

  energy without entropy =     -137.01614443  energy(sigma->0) =     -137.01602685


--------------------------------------------------------------------------------------------------------




--------------------------------------- Iteration      1(  16)  ---------------------------------------


    POTLOK:  cpu time    0.3001: real time    0.3001
    SETDIJ:  cpu time    0.0786: real time    0.0785
    EDDIAG:  cpu time    0.3531: real time    0.3529
  RMM-DIIS:  cpu time    2.2635: real time    2.2625
    ORTHCH:  cpu time    0.0027: real time    0.0027
       DOS:  cpu time    0.0007: real time    0.0007
    CHARGE:  cpu time    0.4565: real time    0.4563
    MIXING:  cpu time    0.0091: real time    0.0091
    --------------------------------------------
      LOOP:  cpu time    3.4641: real time    3.4627

 eigenvalue-minimisations  :  1057
 total energy-change (2. order) :-0.3319181E-05  (-0.1576465E-05)
 number of electron      18.0000000 magnetization 
 augmentation part        3.0047465 magnetization 

 Broyden mixing:
  rms(total) = 0.15341E-03    rms(broyden)= 0.15339E-03
  rms(prec ) = 0.36282E-03
  weight for this iteration     100.00

 eigenvalues of (default mixing * dielectric matrix)
  average eigenvalue GAMMA=   1.5061
  2.7791  2.7791  2.6657  1.2600  1.2600  1.2517  1.2517  0.9124  0.7861  0.8107
  0.8107

 Free energy of the ion-electron system (eV)
  ---------------------------------------------------
  alpha Z        PSCENC =        55.56725574
  Ewald energy   TEWEN  =     -1645.41618477
  -Hartree energ DENC   =      -722.41928593
  -exchange      EXHF   =         0.00000000
  -V(xc)+E(xc)   XCENC  =       -51.22256331
  PAW double counting   =      2301.52822883    -2367.88411682
  entropy T*S    EENTRO =         0.00017637
  eigenvalues    EBANDS =      -347.69820855
  atomic energy  EATOM  =      2640.52872706
  Solvation  Ediel_sol  =         0.00000000
  ---------------------------------------------------
  free energy    TOTEN  =      -137.01597138 eV

  energy without entropy =     -137.01614775  energy(sigma->0) =     -137.01603017


--------------------------------------------------------------------------------------------------------




--------------------------------------- Iteration      1(  17)  ---------------------------------------


    POTLOK:  cpu time    0.3004: real time    0.3004
    SETDIJ:  cpu time    0.0708: real time    0.0708
    EDDIAG:  cpu time    0.3599: real time    0.3598
  RMM-DIIS:  cpu time    2.3026: real time    2.3016
    ORTHCH:  cpu time    0.0027: real time    0.0027
       DOS:  cpu time    0.0006: real time    0.0006
    CHARGE:  cpu time    0.4654: real time    0.4652
    MIXING:  cpu time    0.0050: real time    0.0050
    --------------------------------------------
      LOOP:  cpu time    3.5075: real time    3.5061

 eigenvalue-minimisations  :  1087
 total energy-change (2. order) :-0.5255159E-05  (-0.3253847E-06)
 number of electron      18.0000000 magnetization 
 augmentation part        3.0047797 magnetization 

 Broyden mixing:
  rms(total) = 0.16505E-03    rms(broyden)= 0.16503E-03
  rms(prec ) = 0.30310E-03
  weight for this iteration     100.00

 eigenvalues of (default mixing * dielectric matrix)
  average eigenvalue GAMMA=   1.6097
  5.1213  2.8601  2.1575  1.2960  1.2960  1.0815  1.0815  0.9766  0.9766  0.8556
  0.8556  0.7580

 Free energy of the ion-electron system (eV)
  ---------------------------------------------------
  alpha Z        PSCENC =        55.56725574
  Ewald energy   TEWEN  =     -1645.41618477
  -Hartree energ DENC   =      -722.42601268
  -exchange      EXHF   =         0.00000000
  -V(xc)+E(xc)   XCENC  =       -51.22200814
  PAW double counting   =      2301.91271865    -2368.27022988
  entropy T*S    EENTRO =         0.00017636
  eigenvalues    EBANDS =      -347.69041897
  atomic energy  EATOM  =      2640.52872706
  Solvation  Ediel_sol  =         0.00000000
  ---------------------------------------------------
  free energy    TOTEN  =      -137.01597663 eV

  energy without entropy =     -137.01615299  energy(sigma->0) =     -137.01603542


--------------------------------------------------------------------------------------------------------




--------------------------------------- Iteration      1(  18)  ---------------------------------------


    POTLOK:  cpu time    0.3005: real time    0.3005
    SETDIJ:  cpu time    0.0838: real time    0.0838
    EDDIAG:  cpu time    0.3334: real time    0.3333
  RMM-DIIS:  cpu time    2.3286: real time    2.3276
    ORTHCH:  cpu time    0.0029: real time    0.0029
       DOS:  cpu time    0.0007: real time    0.0007
    CHARGE:  cpu time    0.4451: real time    0.4449
    MIXING:  cpu time    0.0039: real time    0.0039
    --------------------------------------------
      LOOP:  cpu time    3.4989: real time    3.4975

 eigenvalue-minimisations  :  1083
 total energy-change (2. order) :-0.1782792E-07  (-0.2650889E-06)
 number of electron      18.0000000 magnetization 
 augmentation part        3.0047318 magnetization 

 Broyden mixing:
  rms(total) = 0.11568E-03    rms(broyden)= 0.11565E-03
  rms(prec ) = 0.19174E-03
  weight for this iteration     100.00

 eigenvalues of (default mixing * dielectric matrix)
  average eigenvalue GAMMA=   1.4887
  5.1278  2.8499  2.1615  1.2934  1.2934  1.0884  1.0884  0.9697  0.9697  0.8566
  0.8566  0.7590  0.0392

 Free energy of the ion-electron system (eV)
  ---------------------------------------------------
  alpha Z        PSCENC =        55.56725574
  Ewald energy   TEWEN  =     -1645.41618477
  -Hartree energ DENC   =      -722.43254894
  -exchange      EXHF   =         0.00000000
  -V(xc)+E(xc)   XCENC  =       -51.21996661
  PAW double counting   =      2301.96709335    -2368.32383444
  entropy T*S    EENTRO =         0.00017636
  eigenvalues    EBANDS =      -347.68669440
  atomic energy  EATOM  =      2640.52872706
  Solvation  Ediel_sol  =         0.00000000
  ---------------------------------------------------
  free energy    TOTEN  =      -137.01597665 eV

  energy without entropy =     -137.01615301  energy(sigma->0) =     -137.01603544


--------------------------------------------------------------------------------------------------------




--------------------------------------- Iteration      1(  19)  ---------------------------------------


    POTLOK:  cpu time    0.2976: real time    0.2976
    SETDIJ:  cpu time    0.0781: real time    0.0781
    EDDIAG:  cpu time    0.3653: real time    0.3651
  RMM-DIIS:  cpu time    2.4919: real time    2.4915
    ORTHCH:  cpu time    0.0027: real time    0.0027
       DOS:  cpu time    0.0007: real time    0.0007
    CHARGE:  cpu time    0.4658: real time    0.4657
    MIXING:  cpu time    0.0091: real time    0.0091
    --------------------------------------------
      LOOP:  cpu time    3.7111: real time    3.7104

 eigenvalue-minimisations  :  1172
 total energy-change (2. order) : 0.1033091E-05  (-0.2070833E-06)
 number of electron      18.0000000 magnetization 
 augmentation part        3.0046759 magnetization 

 Broyden mixing:
  rms(total) = 0.35934E-04    rms(broyden)= 0.35853E-04
  rms(prec ) = 0.71896E-04
  weight for this iteration     100.00

 eigenvalues of (default mixing * dielectric matrix)
  average eigenvalue GAMMA=   1.6244
  4.4077  2.6524  2.5535  2.5535  1.4147  1.4147  1.1849  1.1849  1.1644  0.9043
  0.9043  0.7872  0.8073  0.8073

 Free energy of the ion-electron system (eV)
  ---------------------------------------------------
  alpha Z        PSCENC =        55.56725574
  Ewald energy   TEWEN  =     -1645.41618477
  -Hartree energ DENC   =      -722.43521762
  -exchange      EXHF   =         0.00000000
  -V(xc)+E(xc)   XCENC  =       -51.21956741
  PAW double counting   =      2301.88019926    -2368.23387684
  entropy T*S    EENTRO =         0.00017635
  eigenvalues    EBANDS =      -347.68748739
  atomic energy  EATOM  =      2640.52872706
  Solvation  Ediel_sol  =         0.00000000
  ---------------------------------------------------
  free energy    TOTEN  =      -137.01597562 eV

  energy without entropy =     -137.01615197  energy(sigma->0) =     -137.01603440


--------------------------------------------------------------------------------------------------------




--------------------------------------- Iteration      1(  20)  ---------------------------------------


    POTLOK:  cpu time    0.3066: real time    0.3066
    SETDIJ:  cpu time    0.0790: real time    0.0790
    EDDIAG:  cpu time    0.3496: real time    0.3494
  RMM-DIIS:  cpu time    2.7779: real time    2.7767
    ORTHCH:  cpu time    0.0027: real time    0.0027
       DOS:  cpu time    0.0006: real time    0.0006
    CHARGE:  cpu time    0.4777: real time    0.4775
    MIXING:  cpu time    0.0053: real time    0.0053
    --------------------------------------------
      LOOP:  cpu time    3.9995: real time    3.9978

 eigenvalue-minimisations  :  1316
 total energy-change (2. order) : 0.3489890E-06  (-0.2978234E-07)
 number of electron      18.0000000 magnetization 
 augmentation part        3.0046903 magnetization 

 Broyden mixing:
  rms(total) = 0.15135E-04    rms(broyden)= 0.14962E-04
  rms(prec ) = 0.29150E-04
  weight for this iteration     100.00

 eigenvalues of (default mixing * dielectric matrix)
  average eigenvalue GAMMA=   1.5406
  4.3517  2.7278  2.7278  2.5739  1.4132  1.4132  1.1848  1.1848  1.1830  0.8918
  0.8918  0.7915  0.8055  0.8055  0.1623

 Free energy of the ion-electron system (eV)
  ---------------------------------------------------
  alpha Z        PSCENC =        55.56725574
  Ewald energy   TEWEN  =     -1645.41618477
  -Hartree energ DENC   =      -722.43300778
  -exchange      EXHF   =         0.00000000
  -V(xc)+E(xc)   XCENC  =       -51.22038715
  PAW double counting   =      2301.84633004    -2368.19989704
  entropy T*S    EENTRO =         0.00017636
  eigenvalues    EBANDS =      -347.68898772
  atomic energy  EATOM  =      2640.52872706
  Solvation  Ediel_sol  =         0.00000000
  ---------------------------------------------------
  free energy    TOTEN  =      -137.01597527 eV

  energy without entropy =     -137.01615162  energy(sigma->0) =     -137.01603405


--------------------------------------------------------------------------------------------------------




--------------------------------------- Iteration      1(  21)  ---------------------------------------


    POTLOK:  cpu time    0.3126: real time    0.3128
    SETDIJ:  cpu time    0.0943: real time    0.0942
    EDDIAG:  cpu time    0.3420: real time    0.3418
WARNING in EDDRMM: call to ZHEGV failed, returncode =   6  3     10
  RMM-DIIS:  cpu time    2.2464: real time    2.2456
    ORTHCH:  cpu time    0.0027: real time    0.0027
       DOS:  cpu time    0.0006: real time    0.0006
    --------------------------------------------
      LOOP:  cpu time    2.9986: real time    2.9978

 eigenvalue-minimisations  :  1021
 total energy-change (2. order) : 0.8236384E-08  (-0.5146321E-08)
 number of electron      18.0000000 magnetization 
 augmentation part        3.0046903 magnetization 

 Free energy of the ion-electron system (eV)
  ---------------------------------------------------
  alpha Z        PSCENC =        55.56725574
  Ewald energy   TEWEN  =     -1645.41618477
  -Hartree energ DENC   =      -722.43301520
  -exchange      EXHF   =         0.00000000
  -V(xc)+E(xc)   XCENC  =       -51.22037391
  PAW double counting   =      2301.84563895    -2368.19919939
  entropy T*S    EENTRO =         0.00017636
  eigenvalues    EBANDS =      -347.68900009
  atomic energy  EATOM  =      2640.52872706
  Solvation  Ediel_sol  =         0.00000000
  ---------------------------------------------------
  free energy    TOTEN  =      -137.01597526 eV

  energy without entropy =     -137.01615162  energy(sigma->0) =     -137.01603404


--------------------------------------------------------------------------------------------------------




 average (electrostatic) potential at core
  the test charge radii are     1.2024
  (the norm of the test charge is              1.0000)
       1-116.2234
 
 
 
 E-fermi :  -0.0325     XC(G=0):  -7.8361     alpha+bet : -6.3912


 k-point     1 :       0.0000    0.0000    0.0000
  band No.  band energies     occupation 
      1     -29.6377      2.00000
      2     -29.6377      2.00000
      3     -29.6377      2.00000
      4     -29.6369      2.00000
      5     -29.6369      2.00000
      6     -22.4977      2.00000
      7      -0.0468      1.46063
      8      -0.0468      1.46062
      9      -0.0468      1.46062
     10       2.7202      0.00000
     11       9.5870      0.00000
     12       9.5870      0.00000
     13       9.5870      0.00000

 k-point     2 :       0.1111    0.0000   -0.0000
  band No.  band energies     occupation 
      1     -29.6376      2.00000
      2     -29.6375      2.00000
      3     -29.6375      2.00000
      4     -29.6369      2.00000
      5     -29.6369      2.00000
      6     -22.4912      2.00000
      7      -0.5144      2.00000
      8      -0.0825      2.05027
      9      -0.0825      2.05027
     10       3.3003      0.00000
     11       8.9308      0.00000
     12       9.7062      0.00000
     13       9.7062      0.00000

 k-point     3 :       0.2222    0.0000   -0.0000
  band No.  band energies     occupation 
      1     -29.6376      2.00000
      2     -29.6376      2.00000
      3     -29.6372      2.00000
      4     -29.6360      2.00000
      5     -29.6360      2.00000
      6     -22.4746      2.00000
      7      -1.3048      2.00000
      8      -0.1705      2.00067
      9      -0.1705      2.00067
     10       4.2984      0.00000
     11       8.6208      0.00000
     12       9.7310      0.00000
     13       9.7310      0.00000

 k-point     4 :       0.3333    0.0000    0.0000
  band No.  band energies     occupation 
      1     -29.6379      2.00000
      2     -29.6379      2.00000
      3     -29.6369      2.00000
      4     -29.6348      2.00000
      5     -29.6348      2.00000
      6     -22.4557      2.00000
      7      -1.9395      2.00000
      8      -0.2664      2.00000
      9      -0.2664      2.00000
     10       4.9270      0.00000
     11       9.1336      0.00000
     12       9.4089      0.00000
     13       9.4089      0.00000

 k-point     5 :       0.4444    0.0000   -0.0000
  band No.  band energies     occupation 
      1     -29.6379      2.00000
      2     -29.6379      2.00000
      3     -29.6365      2.00000
      4     -29.6341      2.00000
      5     -29.6341      2.00000
      6     -22.4433      2.00000
      7      -2.2796      2.00000
      8      -0.3268      2.00000
      9      -0.3268      2.00000
     10       5.1036      0.00000
     11       9.1786      0.00000
     12       9.1786      0.00000
     13       9.5094      0.00000

 k-point     6 :       0.1111    0.1111   -0.0000
  band No.  band energies     occupation 
      1     -29.6378      2.00000
      2     -29.6372      2.00000
      3     -29.6372      2.00000
      4     -29.6371      2.00000
      5     -29.6367      2.00000
      6     -22.4890      2.00000
      7      -0.5356      2.00000
      8      -0.1586      2.00210
      9      -0.1586      2.00210
     10       3.4995      0.00000
     11       8.6563      0.00000
     12       9.8630      0.00000
     13       9.8630      0.00000

 k-point     7 :       0.2222    0.1111    0.0000
  band No.  band energies     occupation 
      1     -29.6378      2.00000
      2     -29.6373      2.00000
      3     -29.6370      2.00000
      4     -29.6363      2.00000
      5     -29.6359      2.00000
      6     -22.4758      2.00000
      7      -1.1291      2.00000
      8      -0.2743      2.00000
      9      -0.2404      2.00000
     10       4.3712      0.00000
     11       8.2643      0.00000
     12       9.3504      0.00000
     13      10.0745      0.00000

 k-point     8 :       0.3333    0.1111    0.0000
  band No.  band energies     occupation 
      1     -29.6378      2.00000
      2     -29.6372      2.00000
      3     -29.6370      2.00000
      4     -29.6354      2.00000
      5     -29.6347      2.00000
      6     -22.4577      2.00000
      7      -1.7471      2.00000
      8      -0.3738      2.00000
      9      -0.3670      2.00000
     10       5.1690      0.00000
     11       8.4856      0.00000
     12       8.7250      0.00000
     13       9.8825      0.00000

 k-point     9 :       0.4444    0.1111   -0.0000
  band No.  band energies     occupation 
      1     -29.6381      2.00000
      2     -29.6375      2.00000
      3     -29.6365      2.00000
      4     -29.6347      2.00000
      5     -29.6341      2.00000
      6     -22.4431      2.00000
      7      -2.1442      2.00000
      8      -0.5074      2.00000
      9      -0.4144      2.00000
     10       5.4937      0.00000
     11       8.3215      0.00000
     12       9.5536      0.00000
     13       9.5815      0.00000

 k-point    10 :      -0.4444    0.1111   -0.0000
  band No.  band energies     occupation 
      1     -29.6380      2.00000
      2     -29.6376      2.00000
      3     -29.6363      2.00000
      4     -29.6342      2.00000
      5     -29.6341      2.00000
      6     -22.4389      2.00000
      7      -2.2443      2.00000
      8      -0.5956      2.00000
      9      -0.3799      2.00000
     10       5.5513      0.00000
     11       8.2645      0.00000
     12       9.3827      0.00000
     13      10.2635      0.00000

 k-point    11 :      -0.3333    0.1111   -0.0000
  band No.  band energies     occupation 
      1     -29.6379      2.00000
      2     -29.6376      2.00000
      3     -29.6366      2.00000
      4     -29.6349      2.00000
      5     -29.6344      2.00000
      6     -22.4472      2.00000
      7      -2.0354      2.00000
      8      -0.5902      2.00000
      9      -0.2844      2.00000
     10       5.4470      0.00000
     11       8.5076      0.00000
     12       9.3190      0.00000
     13       9.4500      0.00000

 k-point    12 :      -0.2222    0.1111    0.0000
  band No.  band energies     occupation 
      1     -29.6376      2.00000
      2     -29.6373      2.00000
      3     -29.6371      2.00000
      4     -29.6360      2.00000
      5     -29.6351      2.00000
      6     -22.4640      2.00000
      7      -1.5603      2.00000
      8      -0.4810      2.00000
      9      -0.1682      2.00085
     10       4.9414      0.00000
     11       8.4965      0.00000
     12       9.0329      0.00000
     13       9.7625      0.00000

 k-point    13 :      -0.1111    0.1111    0.0000
[...]
      7      -1.6678      2.00000
      8      -0.5944      2.00000
      9      -0.5453      2.00000
     10       5.5968      0.00000
     11       7.5988      0.00000
     12       8.4727      0.00000
     13      10.7492      0.00000

 k-point    16 :       0.4444    0.2222   -0.0000
  band No.  band energies     occupation 
      1     -29.6383      2.00000
      2     -29.6371      2.00000
      3     -29.6364      2.00000
      4     -29.6345      2.00000
      5     -29.6339      2.00000
      6     -22.4384      2.00000
      7      -1.9598      2.00000
      8      -0.8476      2.00000
      9      -0.5907      2.00000
     10       6.0411      0.00000
     11       7.9412      0.00000
     12       8.4191      0.00000
     13      10.4334      0.00000

 k-point    17 :      -0.4444    0.2222    0.0000
  band No.  band energies     occupation 
      1     -29.6382      2.00000
      2     -29.6366      2.00000
      3     -29.6361      2.00000
      4     -29.6346      2.00000
      5     -29.6339      2.00000
      6     -22.4320      2.00000
      7      -2.0484      2.00000
      8      -1.0809      2.00000
      9      -0.5418      2.00000
     10       6.2771      0.00000
     11       7.8414      0.00000
     12       9.5530      0.00000
     13      10.1143      0.00000

 k-point    18 :      -0.3333    0.2222   -0.0000
  band No.  band energies     occupation 
      1     -29.6380      2.00000
      2     -29.6367      2.00000
      3     -29.6358      2.00000
      4     -29.6347      2.00000
      5     -29.6346      2.00000
      6     -22.4361      2.00000
      7      -1.9527      2.00000
      8      -1.1430      2.00000
      9      -0.4172      2.00000
     10       6.3780      0.00000
     11       7.8532      0.00000
     12       9.3068      0.00000
     13       9.9544      0.00000

 k-point    19 :      -0.2222    0.2222   -0.0000
  band No.  band energies     occupation 
      1     -29.6377      2.00000
      2     -29.6368      2.00000
      3     -29.6365      2.00000
      4     -29.6357      2.00000
      5     -29.6346      2.00000
      6     -22.4488      2.00000
      7      -1.7762      2.00000
      8      -0.9144      2.00000
      9      -0.2688      2.00000
     10       5.9045      0.00000
     11       8.2367      0.00000
     12       8.5249      0.00000
     13       9.9295      0.00000

 k-point    20 :       0.3333    0.3333    0.0000
  band No.  band energies     occupation 
      1     -29.6388      2.00000
      2     -29.6380      2.00000
      3     -29.6353      2.00000
      4     -29.6342      2.00000
      5     -29.6342      2.00000
      6     -22.4419      2.00000
      7      -1.8313      2.00000
      8      -0.6965      2.00000
      9      -0.6965      2.00000
     10       5.6373      0.00000
     11       7.1144      0.00000
     12       9.0478      0.00000
     13      11.6008      0.00000

 k-point    21 :       0.4444    0.3333    0.0000
  band No.  band energies     occupation 
      1     -29.6387      2.00000
      2     -29.6380      2.00000
      3     -29.6353      2.00000
      4     -29.6337      2.00000
      5     -29.6335      2.00000
      6     -22.4314      2.00000
      7      -1.9817      2.00000
      8      -0.9119      2.00000
      9      -0.7648      2.00000
     10       5.7537      0.00000
     11       7.1658      0.00000
     12       9.4285      0.00000
     13      11.6263      0.00000

 k-point    22 :      -0.4444    0.3333    0.0000
  band No.  band energies     occupation 
      1     -29.6385      2.00000
      2     -29.6372      2.00000
      3     -29.6356      2.00000
      4     -29.6339      2.00000
      5     -29.6335      2.00000
      6     -22.4258      2.00000
      7      -1.9320      2.00000
      8      -1.2938      2.00000
      9      -0.7250      2.00000
     10       6.0522      0.00000
     11       7.8170      0.00000
     12       9.4676      0.00000
     13      11.2262      0.00000

 k-point    23 :      -0.3333    0.3333   -0.0000
  band No.  band energies     occupation 
      1     -29.6383      2.00000
      2     -29.6360      2.00000
      3     -29.6358      2.00000
      4     -29.6348      2.00000
      5     -29.6342      2.00000
      6     -22.4277      2.00000
      7      -1.6933      2.00000
      8      -1.6306      2.00000
      9      -0.5914      2.00000
     10       6.4246      0.00000
     11       8.2518      0.00000
     12       9.6849      0.00000
     13      10.1001      0.00000

 k-point    24 :       0.4444    0.4444    0.0000
  band No.  band energies     occupation 
      1     -29.6392      2.00000
      2     -29.6383      2.00000
      3     -29.6349      2.00000
      4     -29.6332      2.00000
      5     -29.6332      2.00000
      6     -22.4254      2.00000
      7      -2.1046      2.00000
      8      -0.8623      2.00000
      9      -0.8623      2.00000
     10       5.4314      0.00000
     11       6.8017      0.00000
     12      10.9208      0.00000
     13      12.5557      0.00000

 k-point    25 :      -0.4444    0.4444   -0.0000
  band No.  band energies     occupation 
      1     -29.6389      2.00000
      2     -29.6380      2.00000
      3     -29.6350      2.00000
      4     -29.6332      2.00000
      5     -29.6331      2.00000
      6     -22.4232      2.00000
      7      -2.0785      2.00000
      8      -1.0380      2.00000
      9      -0.8473      2.00000
     10       5.5955      0.00000
     11       7.0188      0.00000
     12      11.3265      0.00000
     13      11.3343      0.00000

 k-point    26 :       0.3333    0.2222    0.1111
  band No.  band energies     occupation 
      1     -29.6377      2.00000
      2     -29.6375      2.00000
      3     -29.6368      2.00000
      4     -29.6358      2.00000
      5     -29.6350      2.00000
      6     -22.4618      2.00000
      7      -1.4998      2.00000
      8      -0.5726      2.00000
      9      -0.2901      2.00000
     10       5.2011      0.00000
     11       8.0277      0.00000
     12       8.6516      0.00000
     13      10.5211      0.00000

 k-point    27 :       0.4444    0.2222    0.1111
  band No.  band energies     occupation 
      1     -29.6378      2.00000
      2     -29.6371      2.00000
      3     -29.6367      2.00000
      4     -29.6350      2.00000
      5     -29.6344      2.00000
      6     -22.4458      2.00000
      7      -1.8634      2.00000
      8      -0.8144      2.00000
      9      -0.4010      2.00000
     10       5.9449      0.00000
     11       8.0578      0.00000
     12       8.4016      0.00000
     13      10.1644      0.00000

 k-point    28 :      -0.4444    0.2222    0.1111
  band No.  band energies     occupation 
      1     -29.6379      2.00000
      2     -29.6371      2.00000
      3     -29.6361      2.00000
      4     -29.6347      2.00000
      5     -29.6340      2.00000
      6     -22.4354      2.00000
      7      -2.0799      2.00000
      8      -0.9294      2.00000
      9      -0.4985      2.00000
     10       6.2237      0.00000
     11       7.7318      0.00000
     12       9.5271      0.00000
     13       9.9724      0.00000

 k-point    29 :       0.4444    0.3333    0.1111
  band No.  band energies     occupation 
      1     -29.6381      2.00000
      2     -29.6378      2.00000
      3     -29.6360      2.00000
      4     -29.6342      2.00000
      5     -29.6341      2.00000
      6     -22.4396      2.00000
      7      -1.8575      2.00000
      8      -0.8686      2.00000
      9      -0.6378      2.00000
     10       6.0397      0.00000
     11       7.5380      0.00000
     12       8.3935      0.00000
     13      11.2544      0.00000

 k-point    30 :      -0.4444    0.3333    0.1111
  band No.  band energies     occupation 
      1     -29.6380      2.00000
      2     -29.6371      2.00000
      3     -29.6360      2.00000
      4     -29.6344      2.00000
      5     -29.6336      2.00000
      6     -22.4299      2.00000
      7      -1.9201      2.00000
      8      -1.1626      2.00000
      9      -0.7265      2.00000
     10       6.4573      0.00000
     11       7.9094      0.00000
     12       8.4074      0.00000
     13      10.9721      0.00000

 k-point    31 :      -0.3333    0.3333    0.1111
  band No.  band energies     occupation 
      1     -29.6379      2.00000
      2     -29.6364      2.00000
      3     -29.6357      2.00000
      4     -29.6352      2.00000
      5     -29.6336      2.00000
      6     -22.4277      2.00000
      7      -1.8483      2.00000
      8      -1.3945      2.00000
      9      -0.6870      2.00000
     10       6.8062      0.00000
     11       7.7180      0.00000
     12       9.3806      0.00000
     13       9.9765      0.00000

 k-point    32 :      -0.2222    0.3333    0.1111
  band No.  band energies     occupation 
      1     -29.6378      2.00000
      2     -29.6365      2.00000
      3     -29.6365      2.00000
      4     -29.6347      2.00000
      5     -29.6343      2.00000
      6     -22.4340      2.00000
      7      -1.8517      2.00000
      8      -1.2546      2.00000
      9      -0.5447      2.00000
     10       6.8623      0.00000
     11       7.5354      0.00000
     12       8.5998      0.00000
     13      10.5669      0.00000

 k-point    33 :      -0.4444    0.4444    0.1111
  band No.  band energies     occupation 
      1     -29.6384      2.00000
      2     -29.6380      2.00000
      3     -29.6353      2.00000
      4     -29.6337      2.00000
      5     -29.6331      2.00000
      6     -22.4251      2.00000
      7      -2.0046      2.00000
      8      -1.0465      2.00000
      9      -0.8945      2.00000
     10       5.8946      0.00000
     11       7.2708      0.00000
     12       9.7717      0.00000
     13      11.4762      0.00000

 k-point    34 :      -0.3333    0.4444    0.1111
  band No.  band energies     occupation 
      1     -29.6381      2.00000
      2     -29.6371      2.00000
      3     -29.6355      2.00000
      4     -29.6345      2.00000
      5     -29.6331      2.00000
      6     -22.4236      2.00000
      7      -1.8499      2.00000
      8      -1.3757      2.00000
      9      -0.8611      2.00000
     10       6.3473      0.00000
     11       7.9261      0.00000
     12       9.3982      0.00000
     13      10.0970      0.00000

 k-point    35 :      -0.3333    0.4444    0.2222
  band No.  band energies     occupation 
      1     -29.6375      2.00000
      2     -29.6366      2.00000
      3     -29.6359      2.00000
      4     -29.6352      2.00000
      5     -29.6331      2.00000
      6     -22.4244      2.00000
      7      -1.7343      2.00000
      8      -1.4554      2.00000
      9      -0.9162      2.00000
     10       7.0492      0.00000
     11       8.0365      0.00000
     12       8.5009      0.00000
     13       9.7465      0.00000


--------------------------------------------------------------------------------------------------------


 soft charge-density along one line, spin component           1
         0         1         2         3         4         5         6         7         8         9
 total charge-density along one line
 
 pseudopotential strength for first ion, spin component:           1
-22.738   0.000  -0.000   0.000  -0.000   9.343  -0.000   0.000
  0.000 -22.738   0.000   0.000   0.000  -0.000   9.344  -0.000
 -0.000   0.000 -22.738   0.000  -0.000   0.000  -0.000   9.343
  0.000   0.000   0.000 -22.738   0.000  -0.000  -0.000  -0.000
 -0.000   0.000  -0.000   0.000 -22.738   0.000  -0.000   0.000
  9.343  -0.000   0.000  -0.000   0.000  19.269   0.000  -0.000
 -0.000   9.344  -0.000  -0.000  -0.000   0.000  19.269  -0.000
  0.000  -0.000   9.343  -0.000   0.000  -0.000  -0.000  19.269
 -0.000  -0.000  -0.000   9.344  -0.000   0.000  -0.000  -0.000
  0.000  -0.000   0.000  -0.000   9.343   0.000   0.000  -0.000
 -0.000  -0.000   0.000  -0.000  -0.000  -0.000  -0.000   0.000
 -0.000  -0.000   0.000  -0.000  -0.000   0.000   0.000  -0.000
  0.000   0.000   0.000   0.000   0.000   0.000   0.000   0.000
  0.000  -0.000   0.000   0.000   0.000   0.000  -0.000   0.000
 -0.000   0.000  -0.000   0.000   0.000  -0.000   0.000  -0.000
  0.000   0.000   0.000  -0.000   0.000   0.000   0.000   0.000
  0.000  -0.000   0.000   0.000   0.000   0.000  -0.000   0.000
 -0.000   0.000  -0.000   0.000   0.000  -0.000   0.000  -0.000
 total augmentation occupancy for first ion, spin component:           1
  1.996   0.000  -0.000   0.000   0.000  -0.005  -0.000   0.000  -0.000   0.000  -0.000   0.000   0.000   0.000   0.000   0.000
  0.000   1.996  -0.000   0.000   0.000  -0.000  -0.005   0.000  -0.000  -0.000  -0.000   0.000   0.000   0.000   0.000   0.000
 -0.000  -0.000   1.996   0.000  -0.000   0.000   0.000  -0.005  -0.000   0.000  -0.000   0.000   0.000   0.000   0.000   0.000
  0.000   0.000   0.000   1.996   0.000  -0.000  -0.000  -0.000  -0.005  -0.000  -0.000  -0.000   0.000   0.000   0.000   0.000
 -0.000   0.000  -0.000   0.000   1.996   0.000  -0.000   0.000  -0.000  -0.005  -0.000   0.000   0.000   0.000   0.000   0.000
 -0.005  -0.000   0.000  -0.000  -0.000   0.000   0.000   0.000   0.000  -0.000   0.000   0.000   0.000   0.000   0.000   0.000
 -0.000  -0.005   0.000  -0.000  -0.000   0.000   0.000  -0.000   0.000   0.000   0.000   0.000   0.000   0.000   0.000   0.000
  0.000   0.000  -0.005  -0.000   0.000   0.000  -0.000   0.000   0.000  -0.000   0.000  -0.000   0.000   0.000   0.000   0.000
 -0.000  -0.000  -0.000  -0.005  -0.000   0.000   0.000   0.000   0.000   0.000  -0.000   0.000   0.000   0.000   0.000   0.000
  0.000  -0.000   0.000  -0.000  -0.005   0.000   0.000  -0.000   0.000   0.000   0.000  -0.000   0.000   0.000   0.000   0.000
 -0.000  -0.000  -0.000   0.000  -0.000   0.000   0.000   0.000  -0.000   0.000   1.927  -0.039   0.000   0.000   0.000   0.000
  0.000   0.000   0.000  -0.000   0.000   0.000  -0.000  -0.000   0.000  -0.000  -0.039   0.002   0.000   0.000   0.000   0.000
  0.000   0.000   0.000   0.000   0.000   0.000   0.000   0.000   0.000   0.000   0.000   0.000   2.129  -0.000   0.000  -0.076
  0.000   0.000   0.000   0.000   0.000   0.000   0.000   0.000   0.000   0.000   0.000   0.000   0.000   2.129   0.000   0.000
  0.000   0.000   0.000   0.000   0.000   0.000   0.000   0.000   0.000   0.000   0.000   0.000   0.000   0.000   2.129  -0.000
  0.000   0.000   0.000   0.000   0.000   0.000   0.000   0.000   0.000   0.000   0.000   0.000  -0.076   0.000  -0.000   0.003
  0.000   0.000   0.000   0.000   0.000   0.000   0.000   0.000   0.000   0.000   0.000   0.000  -0.000  -0.076  -0.000  -0.000
  0.000   0.000   0.000   0.000   0.000   0.000   0.000   0.000   0.000   0.000   0.000   0.000  -0.000  -0.000  -0.076   0.000


------------------------ aborting loop because EDIFF is reached ----------------------------------------


    CHARGE:  cpu time    0.1307: real time    0.1306
    FORLOC:  cpu time    0.0094: real time    0.0094
    FORNL :  cpu time    0.5838: real time    0.5836
    STRESS:  cpu time    6.8955: real time    6.8925
    FORCOR:  cpu time    0.3055: real time    0.3053
    FORHAR:  cpu time    0.0163: real time    0.0163
    MIXING:  cpu time    0.0045: real time    0.0045
    OFIELD:  cpu time    0.0000: real time    0.0000

  FORCE on cell =-STRESS in cart. coord.  units (eV):
  Direction    XX          YY          ZZ          XY          YZ          ZX
  --------------------------------------------------------------------------------------
  Alpha Z    55.56726    55.56726    55.56726
  Ewald    -548.47208  -548.47208  -548.47208    -0.00000    -0.00000     0.00000
  Hartree   240.81137   240.81137   240.81137     0.00000    -0.00000     0.00000
  E(xc)    -111.03451  -110.94323  -110.88710     0.03940     0.00175     0.09811
  Local    -204.24196  -204.24197  -204.24197     0.00001     0.00000     0.00000
  n-local   102.11878   105.31938   107.30161     1.16972    -0.30239     3.25126
  augment    77.29695    77.29696    77.29696    -0.00000    -0.00000    -0.00000
  Kinetic   382.72224   385.27630   386.89699     1.12032     0.04707     2.73459
  Fock        0.00000     0.00000     0.00000     0.00000     0.00000     0.00000
  -------------------------------------------------------------------------------------
  Total      -0.11499    -0.11499    -0.11499     0.00000    -0.00000     0.00000
  in kB      -2.68317    -2.68317    -2.68317     0.00000    -0.00000     0.00000
  external pressure =       -2.68 kB  Pullay stress =        0.00 kB


 VOLUME and BASIS-vectors are now :
 -----------------------------------------------------------------------------
  energy-cutoff  :      600.00
  volume of cell :       68.66
      direct lattice vectors                 reciprocal lattice vectors
     4.596281300  0.000000000  0.000000000     0.217567189 -0.125612475 -0.088821433
     2.298140650  3.980496368 -0.000000000     0.000000000  0.251224950 -0.088821433
     2.298140650  1.326832123  3.752847966    -0.000000000  0.000000000  0.266464298

  length of vectors
     4.596281300  4.596281299  4.596281300     0.266464298  0.266464298  0.266464298


 FORCES acting on ions
    electron-ion (+dipol)            ewald-force                    non-local-force                 convergence-correction
 -----------------------------------------------------------------------------------------------
   -.332E-13 0.258E-14 -.558E-13   -.262E-14 0.958E-15 0.209E-14   0.106E-21 -.265E-22 0.000E+00   -.360E-12 -.178E-13 -.288E-12
 -----------------------------------------------------------------------------------------------
   -.404E-13 0.378E-14 -.663E-13   -.262E-14 0.958E-15 0.209E-14   0.106E-21 -.265E-22 0.000E+00   -.360E-12 -.178E-13 -.288E-12
 
 
 POSITION                                       TOTAL-FORCE (eV/Angst)
 -----------------------------------------------------------------------------------
      0.00000      0.00000      0.00000         0.000000     -0.000000     -0.000000
 -----------------------------------------------------------------------------------
    total drift:                               -0.000000     -0.000000     -0.000000


--------------------------------------------------------------------------------------------------------



  FREE ENERGIE OF THE ION-ELECTRON SYSTEM (eV)
  ---------------------------------------------------
  free  energy   TOTEN  =      -137.01597526 eV

  energy  without entropy=     -137.01615162  energy(sigma->0) =     -137.01603404
 


--------------------------------------------------------------------------------------------------------


    POTLOK:  cpu time    0.4038: real time    0.4036


--------------------------------------------------------------------------------------------------------


     LOOP+:  cpu time   75.1553: real time   75.1328
    4ORBIT:  cpu time    0.0000: real time    0.0000

 total amount of memory used by VASP MPI-rank0    65133. kBytes
=======================================================================

   base      :      30000. kBytes
   nonl-proj :       2942. kBytes
   fftplans  :      19355. kBytes
   grid      :       8453. kBytes
   one-center:         15. kBytes
   wavefun   :       4368. kBytes
 
  
  
 General timing and accounting informations for this job:
 ========================================================
  
                  Total CPU time used (sec):       76.426
                            User time (sec):       75.459
                          System time (sec):        0.967
                         Elapsed time (sec):       76.661
  
                   Maximum memory used (kb):      196316.
                   Average memory used (kb):           0.
  
                          Minor page faults:        91331
                          Major page faults:            0
                 Voluntary context switches:          445
