<?xml version="1.0" encoding="ISO-8859-1"?>
<modeling>
 <generator>
  <i name="program" type="string">vasp </i>
  <i name="version" type="string">5.4.4.18Apr17-6-g9f103f2a35  </i>
  <i name="subversion" type="string">(build Nov 03 2018 10:20:43) complex            parallel </i>
  <i name="platform" type="string">LinuxIFC </i>
  <i name="date" type="string">2018 11 29 </i>
  <i name="time" type="string">15:01:48 </i>
 </generator>
 <incar>
  <i type="string" name="SYSTEM">   Og_FCC</i>
  <i type="string" name="PREC">accurate</i>
  <i type="string" name="ALGO">   Fast</i>
  <i type="logical" name="ADDGRID"> T  </i>
  <i type="logical" name="LSORBIT"> F  </i>
  <i type="int" name="ISPIN">     1</i>
  <i type="int" name="MAXMIX">    50</i>
  <i type="int" name="NELM">   100</i>
  <i type="int" name="NELMDL">    -5</i>
  <i type="int" name="NELMIN">     5</i>
  <i type="int" name="IBRION">    -1</i>
  <i type="int" name="NFREE">     5</i>
  <i name="EDIFF">      0.00000001</i>
  <i name="EDIFFG">      0.00000100</i>
  <i type="int" name="NSW">     1</i>
  <i type="int" name="ISIF">     7</i>
  <i type="int" name="ISYM">     2</i>
  <i name="SYMPREC">      0.00000010</i>
  <i name="ENCUT">    600.00000000</i>
  <i type="logical" name="LREAL"> F  </i>
  <i type="int" name="ISMEAR">     1</i>
  <i name="SIGMA">      0.05000000</i>
  <i name="KSPACING">      0.20000000</i>
  <i type="int" name="NWRITE">     2</i>
  <i type="logical" name="LWAVE"> F  </i>
  <i type="logical" name="LCHARG"> F  </i>
  <i type="logical" name="LVTOT"> F  </i>
  <i type="logical" name="GGA_COMPAT"> F  </i>
  <v type="int" name="KPOINT_BSE">    -1     0     0     0</v>
  <i type="int" name="NELM">   100</i>
  <i type="string" name="METAGGA"> SCAN</i>
 </incar>
 <structure name="primitive_cell" >
  <crystal>
   <varray name="basis" >
    <v>       4.59628130       0.00000000       0.00000000 </v>
    <v>       2.29814065       3.98049637      -0.00000000 </v>
    <v>       2.29814065       1.32683212       3.75284797 </v>
   </varray>
   <i name="volume">     68.66015874 </i>
   <varray name="rec_basis" >
    <v>       0.21756719      -0.12561247      -0.08882143 </v>
    <v>       0.00000000       0.25122495      -0.08882143 </v>
    <v>      -0.00000000       0.00000000       0.26646430 </v>
   </varray>
  </crystal>
  <varray name="positions" >
   <v>       0.00000000       0.00000000       0.00000000 </v>
  </varray>
 </structure>
 <varray name="primitive_index" >
  <v type="int" >        1 </v>
 </varray>
 <kpoints>
  <generation param="Gamma">
   <v type="int" name="divisions">       9        9        9 </v>
   <v name="usershift">      0.00000000       0.00000000       0.00000000 </v>
   <v name="genvec1">      0.11111111       0.00000000       0.00000000 </v>
   <v name="genvec2">      0.00000000       0.11111111       0.00000000 </v>
   <v name="genvec3">      0.00000000       0.00000000       0.11111111 </v>
   <v name="shift">      0.00000000       0.00000000       0.00000000 </v>
  </generation>
  <varray name="kpointlist" >
   <v>       0.00000000       0.00000000       0.00000000 </v>
   <v>       0.11111111       0.00000000      -0.00000000 </v>
   <v>       0.22222222       0.00000000      -0.00000000 </v>
   <v>       0.33333333       0.00000000       0.00000000 </v>
   <v>       0.44444444       0.00000000      -0.00000000 </v>
   <v>       0.11111111       0.11111111      -0.00000000 </v>
   <v>       0.22222222       0.11111111       0.00000000 </v>
   <v>       0.33333333       0.11111111       0.00000000 </v>
   <v>       0.44444444       0.11111111      -0.00000000 </v>
   <v>      -0.44444444       0.11111111      -0.00000000 </v>
   <v>      -0.33333333       0.11111111      -0.00000000 </v>
   <v>      -0.22222222       0.11111111       0.00000000 </v>
   <v>      -0.11111111       0.11111111       0.00000000 </v>
   <v>       0.22222222       0.22222222       0.00000000 </v>
   <v>       0.33333333       0.22222222       0.00000000 </v>
   <v>       0.44444444       0.22222222      -0.00000000 </v>
   <v>      -0.44444444       0.22222222       0.00000000 </v>
   <v>      -0.33333333       0.22222222      -0.00000000 </v>
   <v>      -0.22222222       0.22222222      -0.00000000 </v>
   <v>       0.33333333       0.33333333       0.00000000 </v>
   <v>       0.44444444       0.33333333       0.00000000 </v>
   <v>      -0.44444444       0.33333333       0.00000000 </v>
   <v>      -0.33333333       0.33333333      -0.00000000 </v>
   <v>       0.44444444       0.44444444       0.00000000 </v>
   <v>      -0.44444444       0.44444444      -0.00000000 </v>
   <v>       0.33333333       0.22222222       0.11111111 </v>
   <v>       0.44444444       0.22222222       0.11111111 </v>
   <v>      -0.44444444       0.22222222       0.11111111 </v>
   <v>       0.44444444       0.33333333       0.11111111 </v>
   <v>      -0.44444444       0.33333333       0.11111111 </v>
   <v>      -0.33333333       0.33333333       0.11111111 </v>
   <v>      -0.22222222       0.33333333       0.11111111 </v>
   <v>      -0.44444444       0.44444444       0.11111111 </v>
   <v>      -0.33333333       0.44444444       0.11111111 </v>
   <v>      -0.33333333       0.44444444       0.22222222 </v>
  </varray>
  <varray name="weights" >
   <v>       0.00137174 </v>
   <v>       0.01097394 </v>
   <v>       0.01097394 </v>
   <v>       0.01097394 </v>
   <v>       0.01097394 </v>
   <v>       0.00823045 </v>
   <v>       0.03292181 </v>
   <v>       0.03292181 </v>
   <v>       0.03292181 </v>
   <v>       0.03292181 </v>
   <v>       0.03292181 </v>
   <v>       0.03292181 </v>
   <v>       0.01646091 </v>
   <v>       0.00823045 </v>
   <v>       0.03292181 </v>
   <v>       0.03292181 </v>
   <v>       0.03292181 </v>
   <v>       0.03292181 </v>
   <v>       0.01646091 </v>
   <v>       0.00823045 </v>
   <v>       0.03292181 </v>
   <v>       0.03292181 </v>
   <v>       0.01646091 </v>
   <v>       0.00823045 </v>
   <v>       0.01646091 </v>
   <v>       0.03292181 </v>
   <v>       0.06584362 </v>
   <v>       0.06584362 </v>
   <v>       0.03292181 </v>
   <v>       0.06584362 </v>
   <v>       0.06584362 </v>
   <v>       0.03292181 </v>
   <v>       0.03292181 </v>
   <v>       0.03292181 </v>
   <v>       0.03292181 </v>
  </varray>
 </kpoints>
 <parameters>
  <separator name="general" >
   <i type="string" name="SYSTEM">Og_FCC</i>
   <i type="logical" name="LCOMPAT"> F  </i>
  </separator>
  <separator name="electronic" >
   <i type="string" name="PREC">accura</i>
   <i name="ENMAX">    600.00000000</i>
   <i name="ENAUG">    361.02500000</i>
   <i name="EDIFF">      0.00000001</i>
   <i type="int" name="IALGO">    68</i>
   <i type="int" name="IWAVPR">    10</i>
   <i type="int" name="NBANDS">    13</i>
   <i name="NELECT">     18.00000000</i>
   <i type="int" name="TURBO">     0</i>
   <i type="int" name="IRESTART">     0</i>
   <i type="int" name="NREBOOT">     0</i>
   <i type="int" name="NMIN">     0</i>
   <i name="EREF">      0.00000000</i>
   <separator name="electronic smearing" >
    <i type="int" name="ISMEAR">     1</i>
    <i name="SIGMA">      0.05000000</i>
    <i name="KSPACING">      0.20000000</i>
    <i type="logical" name="KGAMMA"> T  </i>
   </separator>
   <separator name="electronic projectors" >
    <i type="logical" name="LREAL"> F  </i>
    <v name="ROPT">      0.00000000</v>
    <i type="int" name="LMAXPAW">  -100</i>
    <i type="int" name="LMAXMIX">     2</i>
    <i type="logical" name="NLSPLINE"> F  </i>
   </separator>
   <separator name="electronic startup" >
    <i type="int" name="ISTART">     0</i>
    <i type="int" name="ICHARG">     2</i>
    <i type="int" name="INIWAV">     1</i>
   </separator>
   <separator name="electronic spin" >
    <i type="int" name="ISPIN">     1</i>
    <i type="logical" name="LNONCOLLINEAR"> F  </i>
    <v name="MAGMOM">      1.00000000</v>
    <i name="NUPDOWN">     -1.00000000</i>
    <i type="logical" name="LSORBIT"> F  </i>
    <v name="SAXIS">      0.00000000      0.00000000      1.00000000</v>
    <i type="logical" name="LSPIRAL"> F  </i>
    <v name="QSPIRAL">      0.00000000      0.00000000      0.00000000</v>
    <i type="logical" name="LZEROZ"> F  </i>
   </separator>
   <separator name="electronic exchange-correlation" >
    <i type="logical" name="LASPH"> F  </i>
    <i type="logical" name="LMETAGGA"> F  </i>
   </separator>
   <separator name="electronic convergence" >
    <i type="int" name="NELM">   100</i>
    <i type="int" name="NELMDL">    -5</i>
    <i type="int" name="NELMIN">     5</i>
    <i name="ENINI">    600.00000000</i>
    <separator name="electronic convergence detail" >
     <i type="logical" name="LDIAG"> T  </i>
     <i type="logical" name="LSUBROT"> F  </i>
     <i name="WEIMIN">      0.00000000</i>
     <i name="EBREAK">      0.00000000</i>
     <i name="DEPER">      0.30000000</i>
     <i type="int" name="NRMM">     4</i>
     <i name="TIME">      0.40000000</i>
    </separator>
   </separator>
   <separator name="electronic mixer" >
    <i name="AMIX">      0.40000000</i>
    <i name="BMIX">      1.00000000</i>
    <i name="AMIN">      0.10000000</i>
    <i name="AMIX_MAG">      1.60000000</i>
    <i name="BMIX_MAG">      1.00000000</i>
    <separator name="electronic mixer details" >
     <i type="int" name="IMIX">     4</i>
     <i type="logical" name="MIXFIRST"> F  </i>
     <i type="int" name="MAXMIX">    50</i>
     <i name="WC">    100.00000000</i>
     <i type="int" name="INIMIX">     1</i>
     <i type="int" name="MIXPRE">     1</i>
     <i type="int" name="MREMOVE">     5</i>
    </separator>
   </separator>
   <separator name="electronic dipolcorrection" >
    <i type="logical" name="LDIPOL"> F  </i>
    <i type="logical" name="LMONO"> F  </i>
    <i type="int" name="IDIPOL">     0</i>
    <i name="EPSILON">      1.00000000</i>
    <v name="DIPOL">   -100.00000000   -100.00000000   -100.00000000</v>
    <i name="EFIELD">      0.00000000</i>
   </separator>
  </separator>
  <separator name="grids" >
   <i type="int" name="NGX">    40</i>
   <i type="int" name="NGY">    40</i>
   <i type="int" name="NGZ">    40</i>
   <i type="int" name="NGXF">    80</i>
   <i type="int" name="NGYF">    80</i>
   <i type="int" name="NGZF">    80</i>
   <i type="logical" name="ADDGRID"> T  </i>
  </separator>
  <separator name="ionic" >
   <i type="int" name="NSW">     1</i>
   <i type="int" name="IBRION">    -1</i>
   <i type="int" name="MDALGO">     0</i>
   <i type="int" name="ISIF">     7</i>
   <i name="PSTRESS">      0.00000000</i>
   <i name="EDIFFG">      0.00000100</i>
   <i type="int" name="NFREE">     5</i>
   <i name="POTIM">      0.50000000</i>
   <i name="SMASS">     -3.00000000</i>
   <i name="SCALEE">      1.00000000</i>
  </separator>
  <separator name="ionic md" >
   <i name="TEBEG">      0.00010000</i>
   <i name="TEEND">      0.00010000</i>
   <i type="int" name="NBLOCK">     1</i>
   <i type="int" name="KBLOCK">     1</i>
   <i type="int" name="NPACO">   256</i>
   <i name="APACO">     16.00000000</i>
  </separator>
  <separator name="symmetry" >
   <i type="int" name="ISYM">     2</i>
   <i name="SYMPREC">      0.00000010</i>
  </separator>
  <separator name="dos" >
   <i type="int" name="LORBIT">     0</i>
   <v name="RWIGS">     -1.00000000</v>
   <i type="int" name="NEDOS">   301</i>
   <i name="EMIN">     10.00000000</i>
   <i name="EMAX">    -10.00000000</i>
   <i name="EFERMI">      0.00000000</i>
  </separator>
  <separator name="writing" >
   <i type="int" name="NWRITE">     2</i>
   <i type="logical" name="LWAVE"> F  </i>
   <i type="logical" name="LDOWNSAMPLE"> F  </i>
   <i type="logical" name="LCHARG"> F  </i>
   <i type="logical" name="LPARD"> F  </i>
   <i type="logical" name="LVTOT"> F  </i>
   <i type="logical" name="LVHAR"> F  </i>
   <i type="logical" name="LELF"> F  </i>
   <i type="logical" name="LOPTICS"> F  </i>
   <v name="STM">      0.00000000      0.00000000      0.00000000      0.00000000      0.00000000      0.00000000      0.00000000</v>
  </separator>
  <separator name="performance" >
   <i type="int" name="NPAR">     1</i>
   <i type="int" name="NSIM">     4</i>
   <i type="int" name="NBLK">    -1</i>
   <i type="logical" name="LPLANE"> T  </i>
   <i type="logical" name="LSCALAPACK"> T  </i>
   <i type="logical" name="LSCAAWARE"> F  </i>
   <i type="logical" name="LSCALU"> F  </i>
   <i type="logical" name="LASYNC"> F  </i>
   <i type="logical" name="LORBITALREAL"> F  </i>
  </separator>
  <separator name="miscellaneous" >
   <i type="int" name="IDIOT">     3</i>
   <i type="int" name="ISPECIAL">     0</i>
   <i type="logical" name="LMUSIC"> F  </i>
   <v name="POMASS">      0.01000000</v>
   <v name="DARWINR">      0.00000000</v>
   <v name="DARWINV">      1.00000000</v>
   <i type="logical" name="LCORR"> T  </i>
  </separator>
  <i type="logical" name="GGA_COMPAT"> F  </i>
  <i type="logical" name="LBERRY"> F  </i>
  <i type="int" name="ICORELEVEL">     0</i>
  <i type="logical" name="LDAU"> F  </i>
  <i type="int" name="I_CONSTRAINED_M">     0</i>
  <separator name="electronic exchange-correlation" >
   <i type="string" name="GGA">--</i>
   <i type="int" name="VOSKOWN">     0</i>
   <i type="logical" name="LHFCALC"> F  </i>
   <i type="string" name="PRECFOCK"></i>
   <i type="logical" name="LSYMGRAD"> F  </i>
   <i type="logical" name="LHFONE"> F  </i>
   <i type="logical" name="LRHFCALC"> F  </i>
   <i type="logical" name="LTHOMAS"> F  </i>
   <i type="logical" name="LMODELHF"> F  </i>
   <i name="ENCUT4O">     -1.00000000</i>
   <i type="int" name="EXXOEP">     0</i>
   <i type="int" name="FOURORBIT">     0</i>
   <i name="AEXX">      0.00000000</i>
   <i name="HFALPHA">      0.00000000</i>
   <i name="MCALPHA">      0.00000000</i>
   <i name="ALDAX">      1.00000000</i>
   <i name="AGGAX">      1.00000000</i>
   <i name="ALDAC">      1.00000000</i>
   <i name="AGGAC">      1.00000000</i>
   <i type="int" name="NKREDX">     1</i>
   <i type="int" name="NKREDY">     1</i>
   <i type="int" name="NKREDZ">     1</i>
   <i type="logical" name="SHIFTRED"> F  </i>
   <i type="logical" name="ODDONLY"> F  </i>
   <i type="logical" name="EVENONLY"> F  </i>
   <i type="int" name="LMAXFOCK">     0</i>
   <i type="int" name="NMAXFOCKAE">     0</i>
   <i type="logical" name="LFOCKAEDFT"> F  </i>
   <i name="HFSCREEN">      0.00000000</i>
   <i name="HFSCREENC">      0.00000000</i>
   <i type="int" name="NBANDSGWLOW">     0</i>
  </separator>
  <separator name="vdW DFT" >
   <i type="logical" name="LUSE_VDW"> F  </i>
   <i name="Zab_VDW">     -0.84910000</i>
   <i name="PARAM1">      0.12340000</i>
   <i name="PARAM2">      1.00000000</i>
   <i name="PARAM3">      0.00000000</i>
  </separator>
  <separator name="model GW" >
   <i type="int" name="MODEL_GW">     0</i>
   <i name="MODEL_EPS0">     41.19609524</i>
   <i name="MODEL_ALPHA">      1.00000000</i>
  </separator>
  <separator name="linear response parameters" >
   <i type="logical" name="LEPSILON"> F  </i>
   <i type="logical" name="LRPA"> F  </i>
   <i type="logical" name="LNABLA"> F  </i>
   <i type="logical" name="LVEL"> F  </i>
   <i type="int" name="KINTER">     0</i>
   <i name="CSHIFT">      0.10000000</i>
   <i name="OMEGAMAX">     -1.00000000</i>
   <i name="DEG_THRESHOLD">      0.00200000</i>
   <i name="RTIME">     -0.10000000</i>
   <i name="WPLASMAI">      0.00000000</i>
   <v name="DFIELD">      0.00000000      0.00000000      0.00000000</v>
   <v name="WPLASMA">      0.00000000      0.00000000      0.00000000      0.00000000      0.00000000      0.00000000      0.00000000      0.00000000      0.00000000</v>
  </separator>
  <separator name="orbital magnetization" >
   <i type="logical" name="NUCIND"> F  </i>
   <v name="MAGPOS">      0.00000000      0.00000000      0.00000000</v>
   <i type="logical" name="LNICSALL"> T  </i>
   <i type="logical" name="ORBITALMAG"> F  </i>
   <i type="logical" name="LMAGBLOCH"> F  </i>
   <i type="logical" name="LCHIMAG"> F  </i>
   <i type="logical" name="LGAUGE"> T  </i>
   <i type="int" name="MAGATOM">     0</i>
   <v name="MAGDIPOL">      0.00000000      0.00000000      0.00000000</v>
   <v name="AVECCONST">      0.00000000      0.00000000      0.00000000</v>
  </separator>
  <separator name="response functions" >
   <i type="logical" name="LADDER"> F  </i>
   <i type="logical" name="LRPAFORCE"> F  </i>
   <i type="logical" name="LFXC"> F  </i>
   <i type="logical" name="LHARTREE"> T  </i>
   <i type="int" name="IBSE">     0</i>
   <v type="int" name="KPOINT">    -1     0     0     0</v>
   <i type="logical" name="LTCTE"> F  </i>
   <i type="logical" name="LTETE"> F  </i>
   <i type="logical" name="LTRIPLET"> F  </i>
   <i type="logical" name="LFXCEPS"> F  </i>
   <i type="logical" name="LFXHEG"> F  </i>
   <i type="int" name="NATURALO">     2</i>
   <i type="logical" name="L2ORDER"> F  </i>
   <i type="logical" name="LMP2LT"> F  </i>
   <i type="logical" name="LUSEW"> F  </i>
   <i name="ENCUTGW">     -2.00000000</i>
   <i name="ENCUTGWSOFT">     -2.00000000</i>
   <i name="ENCUTLF">     -1.00000000</i>
   <i type="int" name="LMAXMP2">    -1</i>
   <i name="SCISSOR">      0.00000000</i>
   <i type="int" name="NOMEGA">     0</i>
   <i type="int" name="NOMEGAR">     0</i>
   <i type="int" name="NBANDSGW">    -1</i>
   <i type="int" name="NBANDSO">    -1</i>
   <i type="int" name="NBANDSV">    -1</i>
   <i type="int" name="NELM">   100</i>
   <i type="int" name="NELMHF">     1</i>
   <i type="int" name="DIM">     3</i>
   <i type="int" name="ANTIRES">     0</i>
   <i name="OMEGAMAX">    -30.00000000</i>
   <i name="OMEGAMIN">    -30.00000000</i>
   <i name="OMEGATL">   -200.00000000</i>
   <i type="int" name="OMEGAGRID">   140</i>
   <i name="CSHIFT">     -0.10000000</i>
   <i type="logical" name="SELFENERGY"> F  </i>
   <i type="logical" name="LSPECTRAL"> F  </i>
   <i type="logical" name="LSPECTRALGW"> F  </i>
   <i type="logical" name="LSINGLES"> F  </i>
   <i type="logical" name="LFERMIGW"> F  </i>
   <i type="logical" name="ODDONLYGW"> F  </i>
   <i type="logical" name="EVENONLYGW"> F  </i>
   <i type="int" name="NKREDLFX">     1</i>
   <i type="int" name="NKREDLFY">     1</i>
   <i type="int" name="NKREDLFZ">     1</i>
   <i type="int" name="MAXMEM">  2800</i>
   <i type="int" name="TELESCOPE">     0</i>
   <i type="int" name="TAUPAR">     1</i>
   <i type="int" name="OMEGAPAR">    -1</i>
   <i name="LAMBDA">      1.00000000</i>
  </separator>
  <separator name="External order field" >
   <i name="OFIELD_KAPPA">      0.00000000</i>
   <v name="OFIELD_K">      0.00000000      0.00000000      0.00000000</v>
   <i name="OFIELD_Q6_NEAR">      0.00000000</i>
   <i name="OFIELD_Q6_FAR">      0.00000000</i>
   <i name="OFIELD_A">      0.00000000</i>
  </separator>
 </parameters>
 <atominfo>
  <atoms>       1 </atoms>
  <types>       1 </types>
  <array name="atoms" >
   <dimension dim="1">ion</dimension>
   <field type="string">element</field>
   <field type="int">atomtype</field>
   <set>
    <rc><c>Og</c><c>   1</c></rc>
   </set>
  </array>
  <array name="atomtypes" >
   <dimension dim="1">type</dimension>
   <field type="int">atomspertype</field>
   <field type="string">element</field>
   <field>mass</field>
   <field>valence</field>
   <field type="string">pseudopotential</field>
   <set>
    <rc><c>   1</c><c>Og</c><c>      0.01000000</c><c>     18.00000000</c><c>  PAW Og, JanMewes Oct 18               </c></rc>
   </set>
  </array>
 </atominfo>
 <structure name="initialpos" >
  <crystal>
   <varray name="basis" >
    <v>       4.59628130       0.00000000       0.00000000 </v>
    <v>       2.29814065       3.98049637      -0.00000000 </v>
    <v>       2.29814065       1.32683212       3.75284797 </v>
   </varray>
   <i name="volume">     68.66015874 </i>
   <varray name="rec_basis" >
    <v>       0.21756719      -0.12561247      -0.08882143 </v>
    <v>       0.00000000       0.25122495      -0.08882143 </v>
    <v>      -0.00000000       0.00000000       0.26646430 </v>
   </varray>
  </crystal>
  <varray name="positions" >
   <v>       0.00000000       0.00000000       0.00000000 </v>
  </varray>
  <varray name="velocities" >
   <v>       0.00000000       0.00000000       0.00000000 </v>
  </varray>
 </structure>
 <calculation>
  <scstep>
   <time name="dav">    1.47    1.47</time>
   <time name="total">    1.85    1.85</time>
   <energy>
    <i name="alphaZ">     55.56725574 </i>
    <i name="ewald">  -1645.41618477 </i>
    <i name="hartreedc">   -724.55211973 </i>
    <i name="XCdc">    -42.53782347 </i>
    <i name="pawpsdc">   2249.78787100 </i>
    <i name="pawaedc">  -2317.67826404 </i>
    <i name="eentropy">     -0.00026136 </i>
    <i name="bandstr">    -74.41262401 </i>
    <i name="atom">   2640.52872706 </i>
    <i name="e_fr_energy">    141.28657642 </i>
    <i name="e_wo_entrp">    141.28683777 </i>
    <i name="e_0_energy">    141.28666354 </i>
   </energy>
  </scstep>
  <scstep>
   <time name="dav">    1.67    1.67</time>
   <time name="total">    1.67    1.67</time>
   <energy>
    <i name="e_fr_energy">   -132.34904276 </i>
    <i name="e_wo_entrp">   -132.34907457 </i>
    <i name="e_0_energy">   -132.34905336 </i>
   </energy>
  </scstep>
  <scstep>
   <time name="dav">    1.64    1.64</time>
   <time name="total">    1.64    1.64</time>
   <energy>
    <i name="e_fr_energy">   -140.40821989 </i>
    <i name="e_wo_entrp">   -140.40840203 </i>
    <i name="e_0_energy">   -140.40828061 </i>
   </energy>
  </scstep>
  <scstep>
   <time name="dav">    1.85    1.85</time>
   <time name="total">    1.85    1.85</time>
   <energy>
    <i name="e_fr_energy">   -140.55689382 </i>
    <i name="e_wo_entrp">   -140.55707072 </i>
    <i name="e_0_energy">   -140.55695279 </i>
   </energy>
  </scstep>
  <scstep>
   <time name="dav">    1.68    1.68</time>
   <time name="total">    2.17    2.17</time>
   <energy>
    <i name="e_fr_energy">   -140.56010341 </i>
    <i name="e_wo_entrp">   -140.56028015 </i>
    <i name="e_0_energy">   -140.56016232 </i>
   </energy>
  </scstep>
  <scstep>
   <time name="diag">    0.34    0.34</time>
   <time name="diis">    2.44    2.44</time>
   <time name="orth">    0.00    0.00</time>
   <time name="total">    3.63    3.62</time>
   <energy>
    <i name="e_fr_energy">   -137.06064825 </i>
    <i name="e_wo_entrp">   -137.06082148 </i>
    <i name="e_0_energy">   -137.06070600 </i>
   </energy>
  </scstep>
  <scstep>
   <time name="diag">    0.34    0.34</time>
   <time name="diis">    2.27    2.27</time>
   <time name="orth">    0.00    0.00</time>
   <time name="total">    3.48    3.48</time>
   <energy>
    <i name="e_fr_energy">   -137.03549659 </i>
    <i name="e_wo_entrp">   -137.03567110 </i>
    <i name="e_0_energy">   -137.03555476 </i>
   </energy>
  </scstep>
  <scstep>
   <time name="diag">    0.34    0.34</time>
   <time name="diis">    2.46    2.46</time>
   <time name="orth">    0.00    0.00</time>
   <time name="total">    3.68    3.68</time>
   <energy>
    <i name="e_fr_energy">   -137.02933238 </i>
    <i name="e_wo_entrp">   -137.02950702 </i>
    <i name="e_0_energy">   -137.02939059 </i>
   </energy>
  </scstep>
  <scstep>
   <time name="diag">    0.35    0.35</time>
   <time name="diis">    2.41    2.41</time>
   <time name="orth">    0.00    0.00</time>
   <time name="total">    3.60    3.60</time>
   <energy>
    <i name="e_fr_energy">   -137.01605430 </i>
    <i name="e_wo_entrp">   -137.01622987 </i>
    <i name="e_0_energy">   -137.01611283 </i>
   </energy>
  </scstep>
  <scstep>
   <time name="diag">    0.34    0.34</time>
   <time name="diis">    2.43    2.43</time>
   <time name="orth">    0.00    0.00</time>
   <time name="total">    3.64    3.64</time>
   <energy>
    <i name="e_fr_energy">   -137.01615262 </i>
    <i name="e_wo_entrp">   -137.01632835 </i>
    <i name="e_0_energy">   -137.01621119 </i>
   </energy>
  </scstep>
  <scstep>
   <time name="diag">    0.34    0.34</time>
   <time name="diis">    2.37    2.37</time>
   <time name="orth">    0.00    0.00</time>
   <time name="total">    3.58    3.58</time>
   <energy>
    <i name="e_fr_energy">   -137.01604873 </i>
    <i name="e_wo_entrp">   -137.01622497 </i>
    <i name="e_0_energy">   -137.01610748 </i>
   </energy>
  </scstep>
  <scstep>
   <time name="diag">    0.36    0.36</time>
   <time name="diis">    2.60    2.60</time>
   <time name="orth">    0.00    0.00</time>
   <time name="total">    3.83    3.83</time>
   <energy>
    <i name="e_fr_energy">   -137.01595673 </i>
    <i name="e_wo_entrp">   -137.01613302 </i>
    <i name="e_0_energy">   -137.01601550 </i>
   </energy>
  </scstep>
  <scstep>
   <time name="diag">    0.34    0.34</time>
   <time name="diis">    2.49    2.49</time>
   <time name="orth">    0.00    0.00</time>
   <time name="total">    3.70    3.70</time>
   <energy>
    <i name="e_fr_energy">   -137.01599473 </i>
    <i name="e_wo_entrp">   -137.01617104 </i>
    <i name="e_0_energy">   -137.01605350 </i>
   </energy>
  </scstep>
  <scstep>
   <time name="diag">    0.37    0.37</time>
   <time name="diis">    2.35    2.35</time>
   <time name="orth">    0.00    0.00</time>
   <time name="total">    3.55    3.55</time>
   <energy>
    <i name="e_fr_energy">   -137.01596790 </i>
    <i name="e_wo_entrp">   -137.01614428 </i>
    <i name="e_0_energy">   -137.01602669 </i>
   </energy>
  </scstep>
  <scstep>
   <time name="diag">    0.34    0.34</time>
   <time name="diis">    2.41    2.41</time>
   <time name="orth">    0.00    0.00</time>
   <time name="total">    3.61    3.61</time>
   <energy>
    <i name="e_fr_energy">   -137.01596806 </i>
    <i name="e_wo_entrp">   -137.01614443 </i>
    <i name="e_0_energy">   -137.01602685 </i>
   </energy>
  </scstep>
  <scstep>
   <time name="diag">    0.35    0.35</time>
   <time name="diis">    2.26    2.26</time>
   <time name="orth">    0.00    0.00</time>
   <time name="total">    3.46    3.46</time>
   <energy>
    <i name="e_fr_energy">   -137.01597138 </i>
    <i name="e_wo_entrp">   -137.01614775 </i>
    <i name="e_0_energy">   -137.01603017 </i>
   </energy>
  </scstep>
  <scstep>
   <time name="diag">    0.36    0.36</time>
   <time name="diis">    2.30    2.30</time>
   <time name="orth">    0.00    0.00</time>
   <time name="total">    3.51    3.51</time>
   <energy>
    <i name="e_fr_energy">   -137.01597663 </i>
    <i name="e_wo_entrp">   -137.01615299 </i>
    <i name="e_0_energy">   -137.01603542 </i>
   </energy>
  </scstep>
  <scstep>
   <time name="diag">    0.33    0.33</time>
   <time name="diis">    2.33    2.33</time>
   <time name="orth">    0.00    0.00</time>
   <time name="total">    3.50    3.50</time>
   <energy>
    <i name="e_fr_energy">   -137.01597665 </i>
    <i name="e_wo_entrp">   -137.01615301 </i>
    <i name="e_0_energy">   -137.01603544 </i>
   </energy>
  </scstep>
  <scstep>
   <time name="diag">    0.37    0.37</time>
   <time name="diis">    2.49    2.49</time>
   <time name="orth">    0.00    0.00</time>
   <time name="total">    3.71    3.71</time>
   <energy>
    <i name="e_fr_energy">   -137.01597562 </i>
    <i name="e_wo_entrp">   -137.01615197 </i>
    <i name="e_0_energy">   -137.01603440 </i>
   </energy>
  </scstep>
  <scstep>
   <time name="diag">    0.35    0.35</time>
   <time name="diis">    2.78    2.78</time>
   <time name="orth">    0.00    0.00</time>
   <time name="total">    4.00    4.00</time>
   <energy>
    <i name="e_fr_energy">   -137.01597527 </i>
    <i name="e_wo_entrp">   -137.01615162 </i>
    <i name="e_0_energy">   -137.01603405 </i>
   </energy>
  </scstep>
  <scstep>
   <time name="diag">    0.34    0.34</time>
   <time name="diis">    2.25    2.25</time>
   <time name="orth">    0.00    0.00</time>
   <time name="total">    3.00    3.00</time>
   <energy>
    <i name="alphaZ">     55.56725574 </i>
    <i name="ewald">  -1645.41618477 </i>
    <i name="hartreedc">   -722.43301520 </i>
    <i name="XCdc">    -51.22037391 </i>
    <i name="pawpsdc">   2301.84563895 </i>
    <i name="pawaedc">  -2368.19919939 </i>
    <i name="eentropy">      0.00017636 </i>
    <i name="bandstr">   -347.68900009 </i>
    <i name="atom">   2640.52872706 </i>
    <i name="e_fr_energy">   -137.01597526 </i>
    <i name="e_wo_entrp">   -137.01615162 </i>
    <i name="e_0_energy">   -137.01603404 </i>
   </energy>
  </scstep>
  <structure>
   <crystal>
    <varray name="basis" >
     <v>       4.59628130       0.00000000       0.00000000 </v>
     <v>       2.29814065       3.98049637      -0.00000000 </v>
     <v>       2.29814065       1.32683212       3.75284797 </v>
    </varray>
    <i name="volume">     68.66015874 </i>
    <varray name="rec_basis" >
     <v>       0.21756719      -0.12561247      -0.08882143 </v>
     <v>       0.00000000       0.25122495      -0.08882143 </v>
     <v>      -0.00000000       0.00000000       0.26646430 </v>
    </varray>
   </crystal>
   <varray name="positions" >
    <v>       0.00000000       0.00000000       0.00000000 </v>
   </varray>
  </structure>
  <varray name="forces" >
   <v>       0.00000000      -0.00000000      -0.00000000 </v>
  </varray>
  <varray name="stress" >
   <v>      -2.68316970      -0.00000000       0.00000000 </v>
   <v>       0.00000000      -2.68316970      -0.00000000 </v>
   <v>      -0.00000000      -0.00000000      -2.68316970 </v>
  </varray>
  <energy>
   <i name="e_fr_energy">   -137.01597526 </i>
   <i name="e_wo_entrp">   -137.01603404 </i>
   <i name="e_0_energy">      0.00017636 </i>
  </energy>
  <time name="totalsc">   75.16   75.13</time>
  <eigenvalues>
   <array>
    <dimension dim="1">band</dimension>
    <dimension dim="2">kpoint</dimension>
    <dimension dim="3">spin</dimension>
    <field>eigene</field>
    <field>occ</field>
    <set>
     <set comment="spin 1">
      <set comment="kpoint 1">
       <r>  -29.6377    1.0000 </r>
       <r>  -29.6377    1.0000 </r>
       <r>  -29.6377    1.0000 </r>
       <r>  -29.6369    1.0000 </r>
       <r>  -29.6369    1.0000 </r>
       <r>  -22.4977    1.0000 </r>
       <r>   -0.0468    0.7303 </r>
       <r>   -0.0468    0.7303 </r>
       <r>   -0.0468    0.7303 </r>
       <r>    2.7202    0.0000 </r>
       <r>    9.5870    0.0000 </r>
       <r>    9.5870    0.0000 </r>
       <r>    9.5870    0.0000 </r>
      </set>
      <set comment="kpoint 2">
       <r>  -29.6376    1.0000 </r>
       <r>  -29.6375    1.0000 </r>
       <r>  -29.6375    1.0000 </r>
       <r>  -29.6369    1.0000 </r>
       <r>  -29.6369    1.0000 </r>
       <r>  -22.4912    1.0000 </r>
       <r>   -0.5144    1.0000 </r>
       <r>   -0.0825    1.0251 </r>
       <r>   -0.0825    1.0251 </r>
       <r>    3.3003    0.0000 </r>
       <r>    8.9308    0.0000 </r>
       <r>    9.7062    0.0000 </r>
       <r>    9.7062    0.0000 </r>
      </set>
      <set comment="kpoint 3">
       <r>  -29.6376    1.0000 </r>
       <r>  -29.6376    1.0000 </r>
       <r>  -29.6372    1.0000 </r>
       <r>  -29.6360    1.0000 </r>
       <r>  -29.6360    1.0000 </r>
       <r>  -22.4746    1.0000 </r>
       <r>   -1.3048    1.0000 </r>
       <r>   -0.1705    1.0003 </r>
       <r>   -0.1705    1.0003 </r>
       <r>    4.2984    0.0000 </r>
       <r>    8.6208    0.0000 </r>
       <r>    9.7310    0.0000 </r>
       <r>    9.7310    0.0000 </r>
      </set>
      <set comment="kpoint 4">
       <r>  -29.6379    1.0000 </r>
       <r>  -29.6379    1.0000 </r>
       <r>  -29.6369    1.0000 </r>
       <r>  -29.6348    1.0000 </r>
       <r>  -29.6348    1.0000 </r>
       <r>  -22.4557    1.0000 </r>
       <r>   -1.9395    1.0000 </r>
       <r>   -0.2664    1.0000 </r>
       <r>   -0.2664    1.0000 </r>
       <r>    4.9270    0.0000 </r>
       <r>    9.1336    0.0000 </r>
       <r>    9.4089    0.0000 </r>
       <r>    9.4089    0.0000 </r>
      </set>
      <set comment="kpoint 5">
       <r>  -29.6379    1.0000 </r>
       <r>  -29.6379    1.0000 </r>
       <r>  -29.6365    1.0000 </r>
       <r>  -29.6341    1.0000 </r>
       <r>  -29.6341    1.0000 </r>
       <r>  -22.4433    1.0000 </r>
       <r>   -2.2796    1.0000 </r>
       <r>   -0.3268    1.0000 </r>
       <r>   -0.3268    1.0000 </r>
       <r>    5.1036    0.0000 </r>
       <r>    9.1786    0.0000 </r>
       <r>    9.1786    0.0000 </r>
       <r>    9.5094    0.0000 </r>
      </set>
      <set comment="kpoint 6">
       <r>  -29.6378    1.0000 </r>
       <r>  -29.6372    1.0000 </r>
       <r>  -29.6372    1.0000 </r>
       <r>  -29.6371    1.0000 </r>
       <r>  -29.6367    1.0000 </r>
       <r>  -22.4890    1.0000 </r>
       <r>   -0.5356    1.0000 </r>
       <r>   -0.1586    1.0010 </r>
       <r>   -0.1586    1.0010 </r>
       <r>    3.4995    0.0000 </r>
       <r>    8.6563    0.0000 </r>
       <r>    9.8630    0.0000 </r>
       <r>    9.8630    0.0000 </r>
      </set>
      <set comment="kpoint 7">
       <r>  -29.6378    1.0000 </r>
       <r>  -29.6373    1.0000 </r>
       <r>  -29.6370    1.0000 </r>
       <r>  -29.6363    1.0000 </r>
       <r>  -29.6359    1.0000 </r>
       <r>  -22.4758    1.0000 </r>
       <r>   -1.1291    1.0000 </r>
       <r>   -0.2743    1.0000 </r>
       <r>   -0.2404    1.0000 </r>
       <r>    4.3712    0.0000 </r>
       <r>    8.2643    0.0000 </r>
       <r>    9.3504    0.0000 </r>
       <r>   10.0745    0.0000 </r>
      </set>
      <set comment="kpoint 8">
       <r>  -29.6378    1.0000 </r>
       <r>  -29.6372    1.0000 </r>
       <r>  -29.6370    1.0000 </r>
       <r>  -29.6354    1.0000 </r>
       <r>  -29.6347    1.0000 </r>
       <r>  -22.4577    1.0000 </r>
       <r>   -1.7471    1.0000 </r>
       <r>   -0.3738    1.0000 </r>
       <r>   -0.3670    1.0000 </r>
       <r>    5.1690    0.0000 </r>
       <r>    8.4856    0.0000 </r>
       <r>    8.7250    0.0000 </r>
       <r>    9.8825    0.0000 </r>
      </set>
      <set comment="kpoint 9">
       <r>  -29.6381    1.0000 </r>
       <r>  -29.6375    1.0000 </r>
       <r>  -29.6365    1.0000 </r>
       <r>  -29.6347    1.0000 </r>
       <r>  -29.6341    1.0000 </r>
       <r>  -22.4431    1.0000 </r>
       <r>   -2.1442    1.0000 </r>
       <r>   -0.5074    1.0000 </r>
       <r>   -0.4144    1.0000 </r>
       <r>    5.4937    0.0000 </r>
       <r>    8.3215    0.0000 </r>
       <r>    9.5536    0.0000 </r>
       <r>    9.5815    0.0000 </r>
      </set>
      <set comment="kpoint 10">
       <r>  -29.6380    1.0000 </r>
       <r>  -29.6376    1.0000 </r>
       <r>  -29.6363    1.0000 </r>
       <r>  -29.6342    1.0000 </r>
       <r>  -29.6341    1.0000 </r>
       <r>  -22.4389    1.0000 </r>
       <r>   -2.2443    1.0000 </r>
       <r>   -0.5956    1.0000 </r>
       <r>   -0.3799    1.0000 </r>
       <r>    5.5513    0.0000 </r>
       <r>    8.2645    0.0000 </r>
       <r>    9.3827    0.0000 </r>
       <r>   10.2635    0.0000 </r>
      </set>
      <set comment="kpoint 11">
       <r>  -29.6379    1.0000 </r>
       <r>  -29.6376    1.0000 </r>
       <r>  -29.6366    1.0000 </r>
       <r>  -29.6349    1.0000 </r>
       <r>  -29.6344    1.0000 </r>
       <r>  -22.4472    1.0000 </r>
       <r>   -2.0354    1.0000 </r>
       <r>   -0.5902    1.0000 </r>
       <r>   -0.2844    1.0000 </r>
       <r>    5.4470    0.0000 </r>
       <r>    8.5076    0.0000 </r>
       <r>    9.3190    0.0000 </r>
       <r>    9.4500    0.0000 </r>
      </set>
      <set comment="kpoint 12">
       <r>  -29.6376    1.0000 </r>
       <r>  -29.6373    1.0000 </r>
       <r>  -29.6371    1.0000 </r>
       <r>  -29.6360    1.0000 </r>
       <r>  -29.6351    1.0000 </r>
       <r>  -22.4640    1.0000 </r>
       <r>   -1.5603    1.0000 </r>
       <r>   -0.4810    1.0000 </r>
       <r>   -0.1682    1.0004 </r>
       <r>    4.9414    0.0000 </r>
       <r>    8.4965    0.0000 </r>
       <r>    9.0329    0.0000 </r>
       <r>    9.7625    0.0000 </r>
      </set>
      <set comment="kpoint 13">
       <r>  -29.6375    1.0000 </r>
       <r>  -29.6374    1.0000 </r>
       <r>  -29.6372    1.0000 </r>
       <r>  -29.6370    1.0000 </r>
       <r>  -29.6361    1.0000 </r>
       <r>  -22.4813    1.0000 </r>
       <r>   -0.9537    1.0000 </r>
       <r>   -0.2827    1.0000 </r>
       <r>   -0.0865    1.0316 </r>
       <r>    4.0094    0.0000 </r>
       <r>    8.5343    0.0000 </r>
       <r>    9.6374    0.0000 </r>
       <r>    9.8707    0.0000 </r>
      </set>
      <set comment="kpoint 14">
       <r>  -29.6383    1.0000 </r>
       <r>  -29.6375    1.0000 </r>
       <r>  -29.6361    1.0000 </r>
       <r>  -29.6357    1.0000 </r>
       <r>  -29.6357    1.0000 </r>
       <r>  -22.4670    1.0000 </r>
       <r>   -1.2844    1.0000 </r>
       <r>   -0.4230    1.0000 </r>
       <r>   -0.4230    1.0000 </r>
       <r>    4.9363    0.0000 </r>
       <r>    7.7372    0.0000 </r>
       <r>    8.8737    0.0000 </r>
       <r>   10.5984    0.0000 </r>
      </set>
      <set comment="kpoint 15">
       <r>  -29.6383    1.0000 </r>
       <r>  -29.6377    1.0000 </r>
       <r>  -29.6362    1.0000 </r>
       <r>  -29.6350    1.0000 </r>
       <r>  -29.6346    1.0000 </r>
       <r>  -22.4522    1.0000 </r>
       <r>   -1.6678    1.0000 </r>
       <r>   -0.5944    1.0000 </r>
       <r>   -0.5453    1.0000 </r>
       <r>    5.5968    0.0000 </r>
       <r>    7.5988    0.0000 </r>
       <r>    8.4727    0.0000 </r>
       <r>   10.7492    0.0000 </r>
      </set>
      <set comment="kpoint 16">
       <r>  -29.6383    1.0000 </r>
       <r>  -29.6371    1.0000 </r>
       <r>  -29.6364    1.0000 </r>
       <r>  -29.6345    1.0000 </r>
       <r>  -29.6339    1.0000 </r>
       <r>  -22.4384    1.0000 </r>
       <r>   -1.9598    1.0000 </r>
       <r>   -0.8476    1.0000 </r>
       <r>   -0.5907    1.0000 </r>
       <r>    6.0411    0.0000 </r>
       <r>    7.9412    0.0000 </r>
       <r>    8.4191    0.0000 </r>
       <r>   10.4334    0.0000 </r>
      </set>
      <set comment="kpoint 17">
       <r>  -29.6382    1.0000 </r>
       <r>  -29.6366    1.0000 </r>
       <r>  -29.6361    1.0000 </r>
       <r>  -29.6346    1.0000 </r>
       <r>  -29.6339    1.0000 </r>
       <r>  -22.4320    1.0000 </r>
       <r>   -2.0484    1.0000 </r>
       <r>   -1.0809    1.0000 </r>
       <r>   -0.5418    1.0000 </r>
       <r>    6.2771    0.0000 </r>
       <r>    7.8414    0.0000 </r>
       <r>    9.5530    0.0000 </r>
       <r>   10.1143    0.0000 </r>
      </set>
      <set comment="kpoint 18">
       <r>  -29.6380    1.0000 </r>
       <r>  -29.6367    1.0000 </r>
       <r>  -29.6358    1.0000 </r>
       <r>  -29.6347    1.0000 </r>
       <r>  -29.6346    1.0000 </r>
       <r>  -22.4361    1.0000 </r>
       <r>   -1.9527    1.0000 </r>
       <r>   -1.1430    1.0000 </r>
       <r>   -0.4172    1.0000 </r>
       <r>    6.3780    0.0000 </r>
       <r>    7.8532    0.0000 </r>
       <r>    9.3068    0.0000 </r>
       <r>    9.9544    0.0000 </r>
      </set>
      <set comment="kpoint 19">
       <r>  -29.6377    1.0000 </r>
       <r>  -29.6368    1.0000 </r>
       <r>  -29.6365    1.0000 </r>
       <r>  -29.6357    1.0000 </r>
       <r>  -29.6346    1.0000 </r>
       <r>  -22.4488    1.0000 </r>
       <r>   -1.7762    1.0000 </r>
       <r>   -0.9144    1.0000 </r>
       <r>   -0.2688    1.0000 </r>
       <r>    5.9045    0.0000 </r>
       <r>    8.2367    0.0000 </r>
       <r>    8.5249    0.0000 </r>
       <r>    9.9295    0.0000 </r>
      </set>
      <set comment="kpoint 20">
       <r>  -29.6388    1.0000 </r>
       <r>  -29.6380    1.0000 </r>
       <r>  -29.6353    1.0000 </r>
       <r>  -29.6342    1.0000 </r>
       <r>  -29.6342    1.0000 </r>
       <r>  -22.4419    1.0000 </r>
       <r>   -1.8313    1.0000 </r>
       <r>   -0.6965    1.0000 </r>
       <r>   -0.6965    1.0000 </r>
       <r>    5.6373    0.0000 </r>
       <r>    7.1144    0.0000 </r>
       <r>    9.0478    0.0000 </r>
       <r>   11.6008    0.0000 </r>
      </set>
      <set comment="kpoint 21">
       <r>  -29.6387    1.0000 </r>
       <r>  -29.6380    1.0000 </r>
       <r>  -29.6353    1.0000 </r>
       <r>  -29.6337    1.0000 </r>
       <r>  -29.6335    1.0000 </r>
       <r>  -22.4314    1.0000 </r>
       <r>   -1.9817    1.0000 </r>
       <r>   -0.9119    1.0000 </r>
       <r>   -0.7648    1.0000 </r>
       <r>    5.7537    0.0000 </r>
       <r>    7.1658    0.0000 </r>
       <r>    9.4285    0.0000 </r>
       <r>   11.6263    0.0000 </r>
      </set>
      <set comment="kpoint 22">
       <r>  -29.6385    1.0000 </r>
       <r>  -29.6372    1.0000 </r>
       <r>  -29.6356    1.0000 </r>
       <r>  -29.6339    1.0000 </r>
       <r>  -29.6335    1.0000 </r>
       <r>  -22.4258    1.0000 </r>
       <r>   -1.9320    1.0000 </r>
       <r>   -1.2938    1.0000 </r>
       <r>   -0.7250    1.0000 </r>
       <r>    6.0522    0.0000 </r>
       <r>    7.8170    0.0000 </r>
       <r>    9.4676    0.0000 </r>
       <r>   11.2262    0.0000 </r>
      </set>
      <set comment="kpoint 23">
       <r>  -29.6383    1.0000 </r>
       <r>  -29.6360    1.0000 </r>
       <r>  -29.6358    1.0000 </r>
       <r>  -29.6348    1.0000 </r>
       <r>  -29.6342    1.0000 </r>
       <r>  -22.4277    1.0000 </r>
       <r>   -1.6933    1.0000 </r>
       <r>   -1.6306    1.0000 </r>
       <r>   -0.5914    1.0000 </r>
       <r>    6.4246    0.0000 </r>
       <r>    8.2518    0.0000 </r>
       <r>    9.6849    0.0000 </r>
       <r>   10.1001    0.0000 </r>
      </set>
      <set comment="kpoint 24">
       <r>  -29.6392    1.0000 </r>
       <r>  -29.6383    1.0000 </r>
       <r>  -29.6349    1.0000 </r>
       <r>  -29.6332    1.0000 </r>
       <r>  -29.6332    1.0000 </r>
       <r>  -22.4254    1.0000 </r>
       <r>   -2.1046    1.0000 </r>
       <r>   -0.8623    1.0000 </r>
       <r>   -0.8623    1.0000 </r>
       <r>    5.4314    0.0000 </r>
       <r>    6.8017    0.0000 </r>
       <r>   10.9208    0.0000 </r>
       <r>   12.5557    0.0000 </r>
      </set>
      <set comment="kpoint 25">
       <r>  -29.6389    1.0000 </r>
       <r>  -29.6380    1.0000 </r>
       <r>  -29.6350    1.0000 </r>
       <r>  -29.6332    1.0000 </r>
       <r>  -29.6331    1.0000 </r>
       <r>  -22.4232    1.0000 </r>
       <r>   -2.0785    1.0000 </r>
       <r>   -1.0380    1.0000 </r>
       <r>   -0.8473    1.0000 </r>
       <r>    5.5955    0.0000 </r>
       <r>    7.0188    0.0000 </r>
       <r>   11.3265    0.0000 </r>
       <r>   11.3343    0.0000 </r>
      </set>
      <set comment="kpoint 26">
       <r>  -29.6377    1.0000 </r>
       <r>  -29.6375    1.0000 </r>
       <r>  -29.6368    1.0000 </r>
       <r>  -29.6358    1.0000 </r>
       <r>  -29.6350    1.0000 </r>
       <r>  -22.4618    1.0000 </r>
       <r>   -1.4998    1.0000 </r>
       <r>   -0.5726    1.0000 </r>
       <r>   -0.2901    1.0000 </r>
       <r>    5.2011    0.0000 </r>
       <r>    8.0277    0.0000 </r>
       <r>    8.6516    0.0000 </r>
       <r>   10.5211    0.0000 </r>
      </set>
      <set comment="kpoint 27">
       <r>  -29.6378    1.0000 </r>
       <r>  -29.6371    1.0000 </r>
       <r>  -29.6367    1.0000 </r>
       <r>  -29.6350    1.0000 </r>
       <r>  -29.6344    1.0000 </r>
       <r>  -22.4458    1.0000 </r>
       <r>   -1.8634    1.0000 </r>
       <r>   -0.8144    1.0000 </r>
       <r>   -0.4010    1.0000 </r>
       <r>    5.9449    0.0000 </r>
       <r>    8.0578    0.0000 </r>
       <r>    8.4016    0.0000 </r>
       <r>   10.1644    0.0000 </r>
      </set>
      <set comment="kpoint 28">
       <r>  -29.6379    1.0000 </r>
       <r>  -29.6371    1.0000 </r>
       <r>  -29.6361    1.0000 </r>
       <r>  -29.6347    1.0000 </r>
       <r>  -29.6340    1.0000 </r>
       <r>  -22.4354    1.0000 </r>
       <r>   -2.0799    1.0000 </r>
       <r>   -0.9294    1.0000 </r>
       <r>   -0.4985    1.0000 </r>
       <r>    6.2237    0.0000 </r>
       <r>    7.7318    0.0000 </r>
       <r>    9.5271    0.0000 </r>
       <r>    9.9724    0.0000 </r>
      </set>
      <set comment="kpoint 29">
       <r>  -29.6381    1.0000 </r>
       <r>  -29.6378    1.0000 </r>
       <r>  -29.6360    1.0000 </r>
       <r>  -29.6342    1.0000 </r>
       <r>  -29.6341    1.0000 </r>
       <r>  -22.4396    1.0000 </r>
       <r>   -1.8575    1.0000 </r>
       <r>   -0.8686    1.0000 </r>
       <r>   -0.6378    1.0000 </r>
       <r>    6.0397    0.0000 </r>
       <r>    7.5380    0.0000 </r>
       <r>    8.3935    0.0000 </r>
       <r>   11.2544    0.0000 </r>
      </set>
      <set comment="kpoint 30">
       <r>  -29.6380    1.0000 </r>
       <r>  -29.6371    1.0000 </r>
       <r>  -29.6360    1.0000 </r>
       <r>  -29.6344    1.0000 </r>
       <r>  -29.6336    1.0000 </r>
       <r>  -22.4299    1.0000 </r>
       <r>   -1.9201    1.0000 </r>
       <r>   -1.1626    1.0000 </r>
       <r>   -0.7265    1.0000 </r>
       <r>    6.4573    0.0000 </r>
       <r>    7.9094    0.0000 </r>
       <r>    8.4074    0.0000 </r>
       <r>   10.9721    0.0000 </r>
      </set>
      <set comment="kpoint 31">
       <r>  -29.6379    1.0000 </r>
       <r>  -29.6364    1.0000 </r>
       <r>  -29.6357    1.0000 </r>
       <r>  -29.6352    1.0000 </r>
       <r>  -29.6336    1.0000 </r>
       <r>  -22.4277    1.0000 </r>
       <r>   -1.8483    1.0000 </r>
       <r>   -1.3945    1.0000 </r>
       <r>   -0.6870    1.0000 </r>
       <r>    6.8062    0.0000 </r>
       <r>    7.7180    0.0000 </r>
       <r>    9.3806    0.0000 </r>
       <r>    9.9765    0.0000 </r>
      </set>
      <set comment="kpoint 32">
       <r>  -29.6378    1.0000 </r>
       <r>  -29.6365    1.0000 </r>
       <r>  -29.6365    1.0000 </r>
       <r>  -29.6347    1.0000 </r>
       <r>  -29.6343    1.0000 </r>
       <r>  -22.4340    1.0000 </r>
       <r>   -1.8517    1.0000 </r>
       <r>   -1.2546    1.0000 </r>
       <r>   -0.5447    1.0000 </r>
       <r>    6.8623    0.0000 </r>
       <r>    7.5354    0.0000 </r>
       <r>    8.5998    0.0000 </r>
       <r>   10.5669    0.0000 </r>
      </set>
      <set comment="kpoint 33">
       <r>  -29.6384    1.0000 </r>
       <r>  -29.6380    1.0000 </r>
       <r>  -29.6353    1.0000 </r>
       <r>  -29.6337    1.0000 </r>
       <r>  -29.6331    1.0000 </r>
       <r>  -22.4251    1.0000 </r>
       <r>   -2.0046    1.0000 </r>
       <r>   -1.0465    1.0000 </r>
       <r>   -0.8945    1.0000 </r>
       <r>    5.8946    0.0000 </r>
       <r>    7.2708    0.0000 </r>
       <r>    9.7717    0.0000 </r>
       <r>   11.4762    0.0000 </r>
      </set>
      <set comment="kpoint 34">
       <r>  -29.6381    1.0000 </r>
       <r>  -29.6371    1.0000 </r>
       <r>  -29.6355    1.0000 </r>
       <r>  -29.6345    1.0000 </r>
       <r>  -29.6331    1.0000 </r>
       <r>  -22.4236    1.0000 </r>
       <r>   -1.8499    1.0000 </r>
       <r>   -1.3757    1.0000 </r>
       <r>   -0.8611    1.0000 </r>
       <r>    6.3473    0.0000 </r>
       <r>    7.9261    0.0000 </r>
       <r>    9.3982    0.0000 </r>
       <r>   10.0970    0.0000 </r>
      </set>
      <set comment="kpoint 35">
       <r>  -29.6375    1.0000 </r>
       <r>  -29.6366    1.0000 </r>
       <r>  -29.6359    1.0000 </r>
       <r>  -29.6352    1.0000 </r>
       <r>  -29.6331    1.0000 </r>
       <r>  -22.4244    1.0000 </r>
       <r>   -1.7343    1.0000 </r>
       <r>   -1.4554    1.0000 </r>
       <r>   -0.9162    1.0000 </r>
       <r>    7.0492    0.0000 </r>
       <r>    8.0365    0.0000 </r>
       <r>    8.5009    0.0000 </r>
       <r>    9.7465    0.0000 </r>
      </set>
     </set>
    </set>
   </array>
  </eigenvalues>
  <separator name="orbital magnetization" >
   <v name="MAGDIPOLOUT">      0.00000000      0.00000000      0.00000000</v>
  </separator>
  <dos>
   <i name="efermi">     -0.03252999 </i>
   <total>
    <array>
     <dimension dim="1">gridpoints</dimension>
     <dimension dim="2">spin</dimension>
     <field>energy</field>
     <field>total</field>
     <field>integrated</field>
     <set>
      <set comment="spin 1">
       <r>   -31.7490     0.0000     0.0000 </r>
       <r>   -31.5942     0.0000     0.0000 </r>
       <r>   -31.4395     0.0000     0.0000 </r>
       <r>   -31.2848     0.0000     0.0000 </r>
       <r>   -31.1301     0.0000     0.0000 </r>
       <r>   -30.9754     0.0000     0.0000 </r>
       <r>   -30.8207     0.0000     0.0000 </r>
       <r>   -30.6660     0.0000     0.0000 </r>
       <r>   -30.5112     0.0000     0.0000 </r>
       <r>   -30.3565     0.0000     0.0000 </r>
       <r>   -30.2018     0.0000     0.0000 </r>
       <r>   -30.0471    -0.0000    -0.0000 </r>
       <r>   -29.8924    -0.0000    -0.0000 </r>
       <r>   -29.7377    -0.4683    -0.0725 </r>
       <r>   -29.5830    67.0577    10.3024 </r>
       <r>   -29.4282    -1.9543    10.0000 </r>
       <r>   -29.2735    -0.0000    10.0000 </r>
       <r>   -29.1188     0.0000    10.0000 </r>
       <r>   -28.9641     0.0000    10.0000 </r>
       <r>   -28.8094     0.0000    10.0000 </r>
       <r>   -28.6547     0.0000    10.0000 </r>
       <r>   -28.4999     0.0000    10.0000 </r>
       <r>   -28.3452     0.0000    10.0000 </r>
       <r>   -28.1905     0.0000    10.0000 </r>
       <r>   -28.0358     0.0000    10.0000 </r>
       <r>   -27.8811     0.0000    10.0000 </r>
       <r>   -27.7264     0.0000    10.0000 </r>
       <r>   -27.5717     0.0000    10.0000 </r>
       <r>   -27.4169     0.0000    10.0000 </r>
       <r>   -27.2622     0.0000    10.0000 </r>
       <r>   -27.1075     0.0000    10.0000 </r>
       <r>   -26.9528     0.0000    10.0000 </r>
       <r>   -26.7981     0.0000    10.0000 </r>
       <r>   -26.6434     0.0000    10.0000 </r>
       <r>   -26.4887     0.0000    10.0000 </r>
       <r>   -26.3339     0.0000    10.0000 </r>
       <r>   -26.1792     0.0000    10.0000 </r>
       <r>   -26.0245     0.0000    10.0000 </r>
       <r>   -25.8698     0.0000    10.0000 </r>
       <r>   -25.7151     0.0000    10.0000 </r>
       <r>   -25.5604     0.0000    10.0000 </r>
       <r>   -25.4057     0.0000    10.0000 </r>
       <r>   -25.2509     0.0000    10.0000 </r>
       <r>   -25.0962     0.0000    10.0000 </r>
       <r>   -24.9415     0.0000    10.0000 </r>
       <r>   -24.7868     0.0000    10.0000 </r>
       <r>   -24.6321     0.0000    10.0000 </r>
       <r>   -24.4774     0.0000    10.0000 </r>
       <r>   -24.3227     0.0000    10.0000 </r>
       <r>   -24.1679     0.0000    10.0000 </r>
       <r>   -24.0132     0.0000    10.0000 </r>
       <r>   -23.8585     0.0000    10.0000 </r>
       <r>   -23.7038     0.0000    10.0000 </r>
       <r>   -23.5491     0.0000    10.0000 </r>
       <r>   -23.3944     0.0000    10.0000 </r>
       <r>   -23.2397     0.0000    10.0000 </r>
       <r>   -23.0849     0.0000    10.0000 </r>
       <r>   -22.9302    -0.0000    10.0000 </r>
       <r>   -22.7755    -0.0000    10.0000 </r>
       <r>   -22.6208    -0.0004     9.9999 </r>
       <r>   -22.4661     2.2615    10.3498 </r>
       <r>   -22.3114    10.6827    12.0026 </r>
       <r>   -22.1566    -0.0168    12.0000 </r>
       <r>   -22.0019     0.0000    12.0000 </r>
       <r>   -21.8472     0.0000    12.0000 </r>
       <r>   -21.6925     0.0000    12.0000 </r>
       <r>   -21.5378     0.0000    12.0000 </r>
       <r>   -21.3831     0.0000    12.0000 </r>
       <r>   -21.2284     0.0000    12.0000 </r>
       <r>   -21.0736     0.0000    12.0000 </r>
       <r>   -20.9189     0.0000    12.0000 </r>
       <r>   -20.7642     0.0000    12.0000 </r>
       <r>   -20.6095     0.0000    12.0000 </r>
       <r>   -20.4548     0.0000    12.0000 </r>
       <r>   -20.3001     0.0000    12.0000 </r>
       <r>   -20.1454     0.0000    12.0000 </r>
       <r>   -19.9906     0.0000    12.0000 </r>
       <r>   -19.8359     0.0000    12.0000 </r>
       <r>   -19.6812     0.0000    12.0000 </r>
       <r>   -19.5265     0.0000    12.0000 </r>
       <r>   -19.3718     0.0000    12.0000 </r>
       <r>   -19.2171     0.0000    12.0000 </r>
       <r>   -19.0624     0.0000    12.0000 </r>
       <r>   -18.9076     0.0000    12.0000 </r>
       <r>   -18.7529     0.0000    12.0000 </r>
       <r>   -18.5982     0.0000    12.0000 </r>
       <r>   -18.4435     0.0000    12.0000 </r>
       <r>   -18.2888     0.0000    12.0000 </r>
       <r>   -18.1341     0.0000    12.0000 </r>
       <r>   -17.9794     0.0000    12.0000 </r>
       <r>   -17.8246     0.0000    12.0000 </r>
       <r>   -17.6699     0.0000    12.0000 </r>
       <r>   -17.5152     0.0000    12.0000 </r>
       <r>   -17.3605     0.0000    12.0000 </r>
       <r>   -17.2058     0.0000    12.0000 </r>
       <r>   -17.0511     0.0000    12.0000 </r>
       <r>   -16.8964     0.0000    12.0000 </r>
       <r>   -16.7416     0.0000    12.0000 </r>
       <r>   -16.5869     0.0000    12.0000 </r>
       <r>   -16.4322     0.0000    12.0000 </r>
       <r>   -16.2775     0.0000    12.0000 </r>
       <r>   -16.1228     0.0000    12.0000 </r>
       <r>   -15.9681     0.0000    12.0000 </r>
       <r>   -15.8133     0.0000    12.0000 </r>
       <r>   -15.6586     0.0000    12.0000 </r>
       <r>   -15.5039     0.0000    12.0000 </r>
       <r>   -15.3492     0.0000    12.0000 </r>
       <r>   -15.1945     0.0000    12.0000 </r>
       <r>   -15.0398     0.0000    12.0000 </r>
       <r>   -14.8851     0.0000    12.0000 </r>
       <r>   -14.7303     0.0000    12.0000 </r>
       <r>   -14.5756     0.0000    12.0000 </r>
       <r>   -14.4209     0.0000    12.0000 </r>
       <r>   -14.2662     0.0000    12.0000 </r>
       <r>   -14.1115     0.0000    12.0000 </r>
       <r>   -13.9568     0.0000    12.0000 </r>
       <r>   -13.8021     0.0000    12.0000 </r>
       <r>   -13.6473     0.0000    12.0000 </r>
       <r>   -13.4926     0.0000    12.0000 </r>
       <r>   -13.3379     0.0000    12.0000 </r>
       <r>   -13.1832     0.0000    12.0000 </r>
       <r>   -13.0285     0.0000    12.0000 </r>
       <r>   -12.8738     0.0000    12.0000 </r>
       <r>   -12.7191     0.0000    12.0000 </r>
       <r>   -12.5643     0.0000    12.0000 </r>
       <r>   -12.4096     0.0000    12.0000 </r>
       <r>   -12.2549     0.0000    12.0000 </r>
       <r>   -12.1002     0.0000    12.0000 </r>
       <r>   -11.9455     0.0000    12.0000 </r>
       <r>   -11.7908     0.0000    12.0000 </r>
       <r>   -11.6361     0.0000    12.0000 </r>
       <r>   -11.4813     0.0000    12.0000 </r>
       <r>   -11.3266     0.0000    12.0000 </r>
       <r>   -11.1719     0.0000    12.0000 </r>
       <r>   -11.0172     0.0000    12.0000 </r>
       <r>   -10.8625     0.0000    12.0000 </r>
       <r>   -10.7078     0.0000    12.0000 </r>
       <r>   -10.5531     0.0000    12.0000 </r>
       <r>   -10.3983     0.0000    12.0000 </r>
       <r>   -10.2436     0.0000    12.0000 </r>
       <r>   -10.0889     0.0000    12.0000 </r>
       <r>    -9.9342     0.0000    12.0000 </r>
       <r>    -9.7795     0.0000    12.0000 </r>
       <r>    -9.6248     0.0000    12.0000 </r>
       <r>    -9.4700     0.0000    12.0000 </r>
       <r>    -9.3153     0.0000    12.0000 </r>
       <r>    -9.1606     0.0000    12.0000 </r>
       <r>    -9.0059     0.0000    12.0000 </r>
       <r>    -8.8512     0.0000    12.0000 </r>
       <r>    -8.6965     0.0000    12.0000 </r>
       <r>    -8.5418     0.0000    12.0000 </r>
       <r>    -8.3870     0.0000    12.0000 </r>
       <r>    -8.2323     0.0000    12.0000 </r>
       <r>    -8.0776     0.0000    12.0000 </r>
       <r>    -7.9229     0.0000    12.0000 </r>
       <r>    -7.7682     0.0000    12.0000 </r>
       <r>    -7.6135     0.0000    12.0000 </r>
       <r>    -7.4588     0.0000    12.0000 </r>
       <r>    -7.3040     0.0000    12.0000 </r>
       <r>    -7.1493     0.0000    12.0000 </r>
       <r>    -6.9946     0.0000    12.0000 </r>
       <r>    -6.8399     0.0000    12.0000 </r>
       <r>    -6.6852     0.0000    12.0000 </r>
       <r>    -6.5305     0.0000    12.0000 </r>
       <r>    -6.3758     0.0000    12.0000 </r>
       <r>    -6.2210     0.0000    12.0000 </r>
       <r>    -6.0663     0.0000    12.0000 </r>
       <r>    -5.9116     0.0000    12.0000 </r>
       <r>    -5.7569     0.0000    12.0000 </r>
       <r>    -5.6022     0.0000    12.0000 </r>
       <r>    -5.4475     0.0000    12.0000 </r>
       <r>    -5.2928     0.0000    12.0000 </r>
       <r>    -5.1380     0.0000    12.0000 </r>
       <r>    -4.9833     0.0000    12.0000 </r>
       <r>    -4.8286     0.0000    12.0000 </r>
       <r>    -4.6739     0.0000    12.0000 </r>
       <r>    -4.5192     0.0000    12.0000 </r>
       <r>    -4.3645     0.0000    12.0000 </r>
       <r>    -4.2097     0.0000    12.0000 </r>
       <r>    -4.0550     0.0000    12.0000 </r>
       <r>    -3.9003     0.0000    12.0000 </r>
       <r>    -3.7456     0.0000    12.0000 </r>
       <r>    -3.5909     0.0000    12.0000 </r>
       <r>    -3.4362     0.0000    12.0000 </r>
       <r>    -3.2815     0.0000    12.0000 </r>
       <r>    -3.1267     0.0000    12.0000 </r>
       <r>    -2.9720     0.0000    12.0000 </r>
       <r>    -2.8173    -0.0000    12.0000 </r>
       <r>    -2.6626    -0.0000    12.0000 </r>
       <r>    -2.5079    -0.0000    12.0000 </r>
       <r>    -2.3532    -0.0059    11.9991 </r>
       <r>    -2.1985     0.5656    12.0866 </r>
       <r>    -2.0437     1.9483    12.3880 </r>
       <r>    -1.8890     3.7583    12.9695 </r>
       <r>    -1.7343     3.6742    13.5379 </r>
       <r>    -1.5796     1.2828    13.7364 </r>
       <r>    -1.4249     1.2245    13.9258 </r>
       <r>    -1.2702     1.9239    14.2235 </r>
       <r>    -1.1155     1.9717    14.5286 </r>
       <r>    -0.9607     1.3201    14.7328 </r>
       <r>    -0.8060     4.7090    15.4614 </r>
       <r>    -0.6513     3.1013    15.9412 </r>
       <r>    -0.4966     5.0793    16.7270 </r>
       <r>    -0.3419     4.0367    17.3515 </r>
       <r>    -0.1872     2.9296    17.8048 </r>
       <r>    -0.0325     1.2618    18.0000 </r>
       <r>     0.1223    -0.0001    18.0000 </r>
       <r>     0.2770    -0.0000    18.0000 </r>
       <r>     0.4317     0.0000    18.0000 </r>
       <r>     0.5864     0.0000    18.0000 </r>
       <r>     0.7411     0.0000    18.0000 </r>
       <r>     0.8958     0.0000    18.0000 </r>
       <r>     1.0505     0.0000    18.0000 </r>
       <r>     1.2053     0.0000    18.0000 </r>
       <r>     1.3600     0.0000    18.0000 </r>
       <r>     1.5147     0.0000    18.0000 </r>
       <r>     1.6694     0.0000    18.0000 </r>
       <r>     1.8241     0.0000    18.0000 </r>
       <r>     1.9788     0.0000    18.0000 </r>
       <r>     2.1336     0.0000    18.0000 </r>
       <r>     2.2883    -0.0000    18.0000 </r>
       <r>     2.4430    -0.0000    18.0000 </r>
       <r>     2.5977    -0.0000    18.0000 </r>
       <r>     2.7524     0.0167    18.0026 </r>
       <r>     2.9071     0.0011    18.0027 </r>
       <r>     3.0618    -0.0000    18.0027 </r>
       <r>     3.2166    -0.0028    18.0023 </r>
       <r>     3.3713     0.1490    18.0254 </r>
       <r>     3.5260     0.0900    18.0393 </r>
       <r>     3.6807     0.0121    18.0412 </r>
       <r>     3.8354    -0.0000    18.0412 </r>
       <r>     3.9901     0.0423    18.0477 </r>
       <r>     4.1448     0.1705    18.0741 </r>
       <r>     4.2996     0.0607    18.0835 </r>
       <r>     4.4543     0.5153    18.1632 </r>
       <r>     4.6090    -0.0086    18.1619 </r>
       <r>     4.7637    -0.0000    18.1619 </r>
       <r>     4.9184     0.1388    18.1833 </r>
       <r>     5.0731     0.5413    18.2671 </r>
       <r>     5.2278     0.9545    18.4148 </r>
       <r>     5.3826     0.0134    18.4168 </r>
       <r>     5.5373     1.0785    18.5837 </r>
       <r>     5.6920     1.0634    18.7482 </r>
       <r>     5.8467     0.4120    18.8120 </r>
       <r>     6.0014     1.5429    19.0507 </r>
       <r>     6.1561     1.2175    19.2390 </r>
       <r>     6.3108     1.2925    19.4390 </r>
       <r>     6.4656     1.6226    19.6900 </r>
       <r>     6.6203     0.3012    19.7366 </r>
       <r>     6.7750     0.0638    19.7465 </r>
       <r>     6.9297     1.3308    19.9524 </r>
       <r>     7.0844     0.6169    20.0478 </r>
       <r>     7.2391     0.5825    20.1380 </r>
       <r>     7.3938     0.3854    20.1976 </r>
       <r>     7.5486     0.5797    20.2873 </r>
       <r>     7.7033     1.0057    20.4429 </r>
       <r>     7.8580     2.4509    20.8221 </r>
       <r>     8.0127     2.2149    21.1647 </r>
       <r>     8.1674     1.4999    21.3968 </r>
       <r>     8.3221     1.4969    21.6284 </r>
       <r>     8.4769     3.4030    22.1549 </r>
       <r>     8.6316     2.5126    22.5436 </r>
       <r>     8.7863     0.9507    22.6907 </r>
       <r>     8.9410     0.1852    22.7194 </r>
       <r>     9.0957     0.5959    22.8116 </r>
       <r>     9.2504     0.3874    22.8715 </r>
       <r>     9.4051     2.8466    23.3119 </r>
       <r>     9.5599     3.2628    23.8167 </r>
       <r>     9.7146     1.4432    24.0400 </r>
       <r>     9.8693     1.9366    24.3396 </r>
       <r>    10.0240     2.8795    24.7851 </r>
       <r>    10.1787     2.1157    25.1125 </r>
       <r>    10.3334     0.6398    25.2114 </r>
       <r>    10.4881     0.4419    25.2798 </r>
       <r>    10.6429     0.9420    25.4255 </r>
       <r>    10.7976     0.4237    25.4911 </r>
       <r>    10.9523     0.2539    25.5304 </r>
       <r>    11.1070     0.6942    25.6378 </r>
       <r>    11.2617     0.6616    25.7401 </r>
       <r>    11.4164     0.6082    25.8342 </r>
       <r>    11.5711     0.4325    25.9012 </r>
       <r>    11.7259     0.5361    25.9841 </r>
       <r>    11.8806    -0.0036    25.9835 </r>
       <r>    12.0353    -0.0000    25.9835 </r>
       <r>    12.1900    -0.0000    25.9835 </r>
       <r>    12.3447    -0.0000    25.9835 </r>
       <r>    12.4994    -0.0036    25.9830 </r>
       <r>    12.6541     0.1109    26.0001 </r>
       <r>    12.8089    -0.0009    26.0000 </r>
       <r>    12.9636     0.0000    26.0000 </r>
       <r>    13.1183     0.0000    26.0000 </r>
       <r>    13.2730     0.0000    26.0000 </r>
       <r>    13.4277     0.0000    26.0000 </r>
       <r>    13.5824     0.0000    26.0000 </r>
       <r>    13.7371     0.0000    26.0000 </r>
       <r>    13.8919     0.0000    26.0000 </r>
       <r>    14.0466     0.0000    26.0000 </r>
       <r>    14.2013     0.0000    26.0000 </r>
       <r>    14.3560     0.0000    26.0000 </r>
       <r>    14.5107     0.0000    26.0000 </r>
       <r>    14.6654     0.0000    26.0000 </r>
      </set>
     </set>
    </array>
   </total>
  </dos>
 </calculation>
 <structure name="finalpos" >
  <crystal>
   <varray name="basis" >
    <v>       4.59628130       0.00000000       0.00000000 </v>
    <v>       2.29814065       3.98049637      -0.00000000 </v>
    <v>       2.29814065       1.32683212       3.75284797 </v>
   </varray>
   <i name="volume">     68.66015874 </i>
   <varray name="rec_basis" >
    <v>       0.21756719      -0.12561247      -0.08882143 </v>
    <v>       0.00000000       0.25122495      -0.08882143 </v>
    <v>      -0.00000000       0.00000000       0.26646430 </v>
   </varray>
  </crystal>
  <varray name="positions" >
   <v>       0.00000000       0.00000000       0.00000000 </v>
  </varray>
  <varray name="velocities" >
   <v>       0.00000000       0.00000000       0.00000000 </v>
  </varray>
 </structure>
</modeling>
