Og_FCC                                  
           1
     4.561827    0.000000    0.000000
     2.280913    3.950658   -0.000000
     2.280913    1.316886    3.724716
   Og
   1
Direct configuration=     1
   0.00000000  0.00000000  0.00000000
