Og_FCC                                  
           1
     4.596281    0.000000    0.000000
     2.298141    3.980496   -0.000000
     2.298141    1.326832    3.752848
   Og
   1
Direct configuration=     1
   0.00000000  0.00000000  0.00000000
