   1   1   0   0
  0.1860393E+02  0.2974221E-09  0.2974221E-09  0.2974221E-09  0.1000000E-15
  1.000000000000000E-004
  CAR 
 Og_FCC                                  
    135.02025923    -53.97880362  301    -17.12398637      1.00000000
    -53.979  0.0000E+00  0.0000E+00
    -53.349  0.0000E+00  0.0000E+00
    -52.719  0.0000E+00  0.0000E+00
    -52.089  0.0000E+00  0.0000E+00
    -51.459  0.0000E+00  0.0000E+00
    -50.829  0.0000E+00  0.0000E+00
    -50.199  0.0000E+00  0.0000E+00
    -49.569  0.0000E+00  0.0000E+00
    -48.939  0.0000E+00  0.0000E+00
    -48.309  0.0000E+00  0.0000E+00
    -47.679  0.0000E+00  0.0000E+00
    -47.049  0.0000E+00  0.0000E+00
    -46.419  0.0000E+00  0.0000E+00
    -45.789  0.0000E+00  0.0000E+00
    -45.159  0.0000E+00  0.2000E+01
    -44.529  0.0000E+00  0.2000E+01
    -43.899  0.0000E+00  0.2000E+01
    -43.269  0.0000E+00  0.2000E+01
    -42.639  0.0000E+00  0.2000E+01
    -42.009  0.0000E+00  0.2000E+01
    -41.379  0.0000E+00  0.2000E+01
    -40.749  0.0000E+00  0.2000E+01
    -40.119  0.0000E+00  0.2000E+01
    -39.489  0.0000E+00  0.2000E+01
    -38.859  0.0000E+00  0.2000E+01
    -38.229  0.0000E+00  0.2000E+01
    -37.599  0.0000E+00  0.2000E+01
    -36.969  0.0000E+00  0.2000E+01
    -36.339  0.0000E+00  0.2000E+01
    -35.709  0.0000E+00  0.2000E+01
    -35.079  0.0000E+00  0.2000E+01
    -34.449  0.0000E+00  0.2000E+01
    -33.819  0.0000E+00  0.2000E+01
    -33.189  0.0000E+00  0.2000E+01
    -32.559  0.0000E+00  0.2000E+01
    -31.929  0.0000E+00  0.2000E+01
    -31.299  0.0000E+00  0.2000E+01
    -30.669  0.0000E+00  0.2000E+01
    -30.039  0.0000E+00  0.2000E+01
    -29.409  0.0000E+00  0.2000E+01
    -28.779  0.0000E+00  0.2000E+01
    -28.149  0.0000E+00  0.2000E+01
    -27.519  0.0000E+00  0.2000E+01
    -26.889  0.0000E+00  0.2000E+01
    -26.259  0.0000E+00  0.2000E+01
    -25.629  0.0000E+00  0.2000E+01
    -24.999  0.0000E+00  0.2000E+01
    -24.369  0.0000E+00  0.2000E+01
    -23.739  0.0000E+00  0.2000E+01
    -23.109  0.0000E+00  0.2000E+01
    -22.479  0.0000E+00  0.2000E+01
    -21.849  0.0000E+00  0.2000E+01
    -21.219  0.0000E+00  0.2000E+01
    -20.589  0.0000E+00  0.2000E+01
    -19.959  0.0000E+00  0.2000E+01
    -19.329  0.0000E+00  0.2000E+01
    -18.699  0.0000E+00  0.2037E+01
    -18.069  0.0000E+00  0.4194E+01
    -17.439  0.9414E-02  0.7691E+01
    -16.809  0.0000E+00  0.8000E+01
    -16.179  0.0000E+00  0.8000E+01
    -15.549  0.0000E+00  0.8000E+01
    -14.919  0.0000E+00  0.8000E+01
    -14.289  0.0000E+00  0.8000E+01
    -13.659  0.0000E+00  0.8000E+01
    -13.029  0.0000E+00  0.8000E+01
    -12.399  0.0000E+00  0.8000E+01
    -11.769  0.0000E+00  0.8000E+01
    -11.139  0.0000E+00  0.8000E+01
    -10.509  0.0000E+00  0.8000E+01
     -9.879  0.0000E+00  0.8000E+01
     -9.249  0.0000E+00  0.8000E+01
     -8.619  0.0000E+00  0.8000E+01
     -7.989  0.0000E+00  0.8000E+01
     -7.359  0.0000E+00  0.8000E+01
     -6.729  0.0000E+00  0.8000E+01
     -6.099  0.0000E+00  0.8000E+01
     -5.469  0.0000E+00  0.8000E+01
     -4.839  0.0000E+00  0.8000E+01
     -4.209  0.0000E+00  0.8000E+01
     -3.579  0.0000E+00  0.8000E+01
     -2.949  0.0000E+00  0.8000E+01
     -2.319  0.0000E+00  0.8000E+01
     -1.689  0.0000E+00  0.8000E+01
     -1.059  0.0000E+00  0.8000E+01
     -0.429  0.0000E+00  0.8000E+01
      0.201  0.0000E+00  0.8000E+01
      0.831  0.0000E+00  0.8000E+01
      1.461  0.0000E+00  0.8000E+01
      2.091  0.0000E+00  0.8000E+01
      2.721  0.0000E+00  0.8000E+01
      3.351  0.0000E+00  0.8000E+01
      3.981  0.0000E+00  0.8000E+01
      4.611  0.0000E+00  0.8009E+01
      5.241  0.0000E+00  0.8083E+01
      5.871  0.0000E+00  0.8139E+01
      6.501  0.0000E+00  0.8250E+01
      7.131  0.0000E+00  0.8250E+01
      7.761  0.0000E+00  0.8546E+01
      8.391  0.1137E-01  0.8553E+01
      9.021  0.0000E+00  0.8602E+01
      9.651  0.0000E+00  0.9046E+01
     10.281  0.0000E+00  0.9269E+01
     10.911  0.0000E+00  0.9565E+01
     11.541  0.0000E+00  0.9593E+01
     12.171  0.0000E+00  0.1004E+02
     12.801  0.0000E+00  0.1026E+02
     13.431  0.0000E+00  0.1051E+02
     14.061  0.0000E+00  0.1084E+02
     14.691  0.0000E+00  0.1129E+02
     15.321  0.0000E+00  0.1147E+02
     15.951  0.5159E-02  0.1192E+02
     16.581  0.0000E+00  0.1239E+02
     17.211  0.0000E+00  0.1267E+02
     17.841  0.0000E+00  0.1283E+02
     18.471  0.0000E+00  0.1308E+02
     19.101  0.0000E+00  0.1358E+02
     19.731  0.0000E+00  0.1388E+02
     20.361  0.0000E+00  0.1444E+02
     20.991  0.0000E+00  0.1477E+02
     21.621  0.0000E+00  0.1499E+02
     22.251  0.2283E+00  0.1588E+02
     22.881  0.0000E+00  0.1670E+02
     23.511  0.0000E+00  0.1749E+02
     24.141  0.0000E+00  0.1789E+02
     24.771  0.0000E+00  0.1814E+02
     25.401  0.0000E+00  0.1901E+02
     26.031  0.0000E+00  0.1901E+02
     26.661  0.0000E+00  0.1981E+02
     27.291  0.0000E+00  0.2059E+02
     27.921  0.0000E+00  0.2067E+02
     28.551  0.0000E+00  0.2133E+02
     29.181  0.0000E+00  0.2197E+02
     29.811  0.0000E+00  0.2208E+02
     30.441  0.0000E+00  0.2256E+02
     31.071  0.0000E+00  0.2312E+02
     31.701  0.0000E+00  0.2418E+02
     32.331  0.0000E+00  0.2482E+02
     32.961  0.0000E+00  0.2534E+02
     33.591  0.0000E+00  0.2619E+02
     34.221  0.0000E+00  0.2686E+02
     34.851  0.1764E+00  0.2756E+02
     35.481  0.0000E+00  0.2756E+02
     36.111  0.0000E+00  0.2801E+02
     36.741  0.0000E+00  0.2884E+02
     37.371  0.0000E+00  0.2912E+02
     38.001  0.5802E-04  0.2964E+02
     38.631  0.0000E+00  0.2982E+02
     39.261  0.0000E+00  0.2996E+02
     39.891  0.0000E+00  0.3019E+02
     40.521  0.5068E-01  0.3051E+02
     41.151  0.2846E-09  0.3124E+02
     41.781  0.0000E+00  0.3253E+02
     42.411  0.0000E+00  0.3300E+02
     43.041  0.0000E+00  0.3367E+02
     43.671  0.0000E+00  0.3441E+02
     44.301  0.0000E+00  0.3463E+02
     44.931  0.0000E+00  0.3485E+02
     45.561  0.0000E+00  0.3541E+02
     46.191  0.0000E+00  0.3628E+02
     46.821  0.0000E+00  0.3654E+02
     47.451  0.0000E+00  0.3734E+02
     48.081  0.0000E+00  0.3798E+02
     48.711  0.0000E+00  0.3854E+02
     49.341  0.0000E+00  0.3898E+02
     49.971  0.0000E+00  0.3954E+02
     50.601  0.0000E+00  0.4044E+02
     51.231  0.0000E+00  0.4097E+02
     51.861  0.0000E+00  0.4125E+02
     52.491  0.0000E+00  0.4236E+02
     53.121  0.0000E+00  0.4325E+02
     53.751  0.0000E+00  0.4362E+02
     54.381  0.0000E+00  0.4436E+02
     55.011  0.0000E+00  0.4440E+02
     55.641  0.0000E+00  0.4540E+02
     56.271  0.0000E+00  0.4584E+02
     56.901  0.0000E+00  0.4592E+02
     57.531  0.0000E+00  0.4692E+02
     58.161  0.0000E+00  0.4724E+02
     58.791  0.0000E+00  0.4802E+02
     59.421  0.0000E+00  0.4881E+02
     60.051  0.0000E+00  0.4936E+02
     60.681  0.0000E+00  0.5008E+02
     61.311  0.0000E+00  0.5129E+02
     61.941  0.0000E+00  0.5231E+02
     62.571  0.0000E+00  0.5284E+02
     63.201  0.0000E+00  0.5344E+02
     63.831  0.0000E+00  0.5365E+02
     64.461  0.0000E+00  0.5476E+02
     65.091  0.0000E+00  0.5550E+02
     65.721  0.0000E+00  0.5591E+02
     66.351  0.0000E+00  0.5719E+02
     66.981  0.0000E+00  0.5757E+02
     67.611  0.0000E+00  0.5869E+02
     68.241  0.0000E+00  0.5920E+02
     68.871  0.0000E+00  0.5991E+02
     69.501  0.0000E+00  0.6023E+02
     70.131  0.0000E+00  0.6079E+02
     70.761  0.0000E+00  0.6196E+02
     71.391  0.0000E+00  0.6224E+02
     72.021  0.1250E-07  0.6286E+02
     72.651  0.0000E+00  0.6356E+02
     73.281  0.0000E+00  0.6422E+02
     73.911  0.0000E+00  0.6522E+02
     74.541  0.2304E-01  0.6588E+02
     75.171  0.6497E-01  0.6696E+02
     75.801  0.2352E+00  0.6773E+02
     76.431  0.1764E+00  0.6834E+02
     77.061  0.0000E+00  0.6864E+02
     77.691  0.0000E+00  0.6897E+02
     78.321  0.0000E+00  0.7022E+02
     78.951  0.4417E-13  0.7075E+02
     79.581  0.0000E+00  0.7157E+02
     80.211  0.0000E+00  0.7193E+02
     80.841  0.0000E+00  0.7233E+02
     81.471  0.0000E+00  0.7285E+02
     82.101  0.0000E+00  0.7380E+02
     82.731  0.0000E+00  0.7444E+02
     83.361  0.0000E+00  0.7614E+02
     83.991  0.0000E+00  0.7690E+02
     84.621  0.1093E-15  0.7801E+02
     85.251  0.1207E-15  0.7858E+02
     85.881  0.0000E+00  0.7968E+02
     86.510  0.0000E+00  0.8045E+02
     87.140  0.0000E+00  0.8122E+02
     87.770  0.0000E+00  0.8189E+02
     88.400  0.0000E+00  0.8295E+02
     89.030  0.3916E-16  0.8329E+02
     89.660  0.0000E+00  0.8347E+02
     90.290  0.0000E+00  0.8394E+02
     90.920  0.0000E+00  0.8452E+02
     91.550  0.0000E+00  0.8596E+02
     92.180  0.0000E+00  0.8648E+02
     92.810  0.0000E+00  0.8746E+02
     93.440  0.0000E+00  0.8824E+02
     94.070  0.0000E+00  0.8920E+02
     94.700  0.0000E+00  0.8994E+02
     95.330  0.0000E+00  0.9050E+02
     95.960  0.0000E+00  0.9178E+02
     96.590  0.0000E+00  0.9248E+02
     97.220  0.1176E+00  0.9350E+02
     97.850  0.0000E+00  0.9481E+02
     98.480  0.0000E+00  0.9525E+02
     99.110  0.3527E+00  0.9681E+02
     99.740  0.0000E+00  0.9758E+02
    100.370  0.0000E+00  0.9819E+02
    101.000  0.0000E+00  0.9908E+02
    101.630  0.0000E+00  0.9960E+02
    102.260  0.0000E+00  0.1004E+03
    102.890  0.0000E+00  0.1014E+03
    103.520  0.0000E+00  0.1025E+03
    104.150  0.0000E+00  0.1032E+03
    104.780  0.0000E+00  0.1038E+03
    105.410  0.0000E+00  0.1043E+03
    106.040  0.0000E+00  0.1047E+03
    106.670  0.0000E+00  0.1056E+03
    107.300  0.0000E+00  0.1063E+03
    107.930  0.0000E+00  0.1071E+03
    108.560  0.0000E+00  0.1081E+03
    109.190  0.8818E-01  0.1091E+03
    109.820  0.0000E+00  0.1096E+03
    110.450  0.0000E+00  0.1114E+03
    111.080  0.0000E+00  0.1125E+03
    111.710  0.0000E+00  0.1133E+03
    112.340  0.0000E+00  0.1146E+03
    112.970  0.0000E+00  0.1154E+03
    113.600  0.0000E+00  0.1167E+03
    114.230  0.0000E+00  0.1170E+03
    114.860  0.0000E+00  0.1181E+03
    115.490  0.0000E+00  0.1189E+03
    116.120  0.0000E+00  0.1197E+03
    116.750  0.0000E+00  0.1201E+03
    117.380  0.0000E+00  0.1209E+03
    118.010  0.0000E+00  0.1212E+03
    118.640  0.0000E+00  0.1218E+03
    119.270  0.0000E+00  0.1226E+03
    119.900  0.0000E+00  0.1238E+03
    120.530  0.1447E-01  0.1250E+03
    121.160  0.0000E+00  0.1260E+03
    121.790  0.0000E+00  0.1268E+03
    122.420  0.0000E+00  0.1273E+03
    123.050  0.0000E+00  0.1277E+03
    123.680  0.0000E+00  0.1277E+03
    124.310  0.0000E+00  0.1279E+03
    124.940  0.0000E+00  0.1279E+03
    125.570  0.0000E+00  0.1279E+03
    126.200  0.0000E+00  0.1279E+03
    126.830  0.0000E+00  0.1280E+03
    127.460  0.0000E+00  0.1280E+03
    128.090  0.0000E+00  0.1280E+03
    128.720  0.0000E+00  0.1280E+03
    129.350  0.0000E+00  0.1280E+03
    129.980  0.0000E+00  0.1280E+03
    130.610  0.0000E+00  0.1280E+03
    131.240  0.0000E+00  0.1280E+03
    131.870  0.0000E+00  0.1280E+03
    132.500  0.0000E+00  0.1280E+03
    133.130  0.0000E+00  0.1280E+03
    133.760  0.0000E+00  0.1280E+03
    134.390  0.0000E+00  0.1280E+03
    135.020  0.0000E+00  0.1280E+03
