   1   1   0   0
  0.3298244E+02  0.3599697E-09  0.3599697E-09  0.3599697E-09  0.1000000E-15
  1.000000000000000E-004
  CAR 
 Og_FCC                                  
     90.20964648    -29.05924849  301     -7.88901963      1.00000000
    -29.059  0.0000E+00  0.0000E+00
    -28.662  0.0000E+00  0.0000E+00
    -28.264  0.0000E+00  0.0000E+00
    -27.867  0.0000E+00  0.0000E+00
    -27.469  0.0000E+00  0.0000E+00
    -27.071  0.0000E+00  0.0000E+00
    -26.674  0.0000E+00  0.0000E+00
    -26.276  0.0000E+00  0.0000E+00
    -25.879  0.0000E+00  0.0000E+00
    -25.481  0.0000E+00  0.0000E+00
    -25.084  0.0000E+00  0.0000E+00
    -24.686  0.0000E+00  0.0000E+00
    -24.288  0.0000E+00  0.0000E+00
    -23.891  0.0000E+00  0.0000E+00
    -23.493  0.0000E+00  0.1389E+00
    -23.096  0.0000E+00  0.2000E+01
    -22.698  0.0000E+00  0.2000E+01
    -22.301  0.0000E+00  0.2000E+01
    -21.903  0.0000E+00  0.2000E+01
    -21.506  0.0000E+00  0.2000E+01
    -21.108  0.0000E+00  0.2000E+01
    -20.710  0.0000E+00  0.2000E+01
    -20.313  0.0000E+00  0.2000E+01
    -19.915  0.0000E+00  0.2000E+01
    -19.518  0.0000E+00  0.2000E+01
    -19.120  0.0000E+00  0.2000E+01
    -18.723  0.0000E+00  0.2000E+01
    -18.325  0.0000E+00  0.2000E+01
    -17.927  0.0000E+00  0.2000E+01
    -17.530  0.0000E+00  0.2000E+01
    -17.132  0.0000E+00  0.2000E+01
    -16.735  0.0000E+00  0.2000E+01
    -16.337  0.0000E+00  0.2000E+01
    -15.940  0.0000E+00  0.2000E+01
    -15.542  0.0000E+00  0.2000E+01
    -15.145  0.0000E+00  0.2000E+01
    -14.747  0.0000E+00  0.2000E+01
    -14.349  0.0000E+00  0.2000E+01
    -13.952  0.0000E+00  0.2000E+01
    -13.554  0.0000E+00  0.2000E+01
    -13.157  0.0000E+00  0.2000E+01
    -12.759  0.0000E+00  0.2000E+01
    -12.362  0.0000E+00  0.2000E+01
    -11.964  0.0000E+00  0.2000E+01
    -11.566  0.0000E+00  0.2000E+01
    -11.169  0.0000E+00  0.2000E+01
    -10.771  0.0000E+00  0.2000E+01
    -10.374  0.0000E+00  0.2000E+01
     -9.976  0.0000E+00  0.2287E+01
     -9.579  0.0000E+00  0.3528E+01
     -9.181  0.0000E+00  0.4306E+01
     -8.784  0.0000E+00  0.5139E+01
     -8.386  0.0000E+00  0.7546E+01
     -7.988  0.0000E+00  0.8000E+01
     -7.591  0.0000E+00  0.8000E+01
     -7.193  0.0000E+00  0.8000E+01
     -6.796  0.0000E+00  0.8000E+01
     -6.398  0.0000E+00  0.8000E+01
     -6.001  0.0000E+00  0.8000E+01
     -5.603  0.0000E+00  0.8000E+01
     -5.205  0.0000E+00  0.8000E+01
     -4.808  0.0000E+00  0.8000E+01
     -4.410  0.0000E+00  0.8000E+01
     -4.013  0.0000E+00  0.8000E+01
     -3.615  0.0000E+00  0.8000E+01
     -3.218  0.0000E+00  0.8000E+01
     -2.820  0.0000E+00  0.8000E+01
     -2.423  0.0000E+00  0.8000E+01
     -2.025  0.0000E+00  0.8000E+01
     -1.627  0.0000E+00  0.8000E+01
     -1.230  0.0000E+00  0.8000E+01
     -0.832  0.0000E+00  0.8000E+01
     -0.435  0.0000E+00  0.8000E+01
     -0.037  0.0000E+00  0.8000E+01
      0.360  0.0000E+00  0.8000E+01
      0.758  0.0000E+00  0.8000E+01
      1.156  0.0000E+00  0.8000E+01
      1.553  0.0000E+00  0.8000E+01
      1.951  0.0000E+00  0.8000E+01
      2.348  0.0000E+00  0.8000E+01
      2.746  0.0000E+00  0.8000E+01
      3.143  0.0000E+00  0.8000E+01
      3.541  0.0000E+00  0.8000E+01
      3.938  0.0000E+00  0.8000E+01
      4.336  0.0000E+00  0.8000E+01
      4.734  0.0000E+00  0.8000E+01
      5.131  0.0000E+00  0.8000E+01
      5.529  0.0000E+00  0.8000E+01
      5.926  0.2988E-02  0.8001E+01
      6.324  0.0000E+00  0.8009E+01
      6.721  0.0000E+00  0.8009E+01
      7.119  0.0000E+00  0.8139E+01
      7.517  0.0000E+00  0.8139E+01
      7.914  0.0000E+00  0.8139E+01
      8.312  0.0000E+00  0.8250E+01
      8.709  0.0000E+00  0.8630E+01
      9.107  0.9316E-01  0.8667E+01
      9.504  0.0000E+00  0.9000E+01
      9.902  0.0000E+00  0.9667E+01
     10.299  0.0000E+00  0.1000E+02
     10.697  0.0000E+00  0.1003E+02
     11.095  0.0000E+00  0.1042E+02
     11.492  0.0000E+00  0.1097E+02
     11.890  0.0000E+00  0.1168E+02
     12.287  0.0000E+00  0.1203E+02
     12.685  0.0000E+00  0.1258E+02
     13.082  0.5590E+00  0.1347E+02
     13.480  0.0000E+00  0.1399E+02
     13.878  0.0000E+00  0.1433E+02
     14.275  0.2967E-04  0.1487E+02
     14.673  0.0000E+00  0.1569E+02
     15.070  0.0000E+00  0.1662E+02
     15.468  0.0000E+00  0.1790E+02
     15.865  0.0000E+00  0.1853E+02
     16.263  0.5587E+00  0.1897E+02
     16.660  0.0000E+00  0.1975E+02
     17.058  0.0000E+00  0.2026E+02
     17.456  0.0000E+00  0.2070E+02
     17.853  0.0000E+00  0.2133E+02
     18.251  0.0000E+00  0.2159E+02
     18.648  0.0000E+00  0.2215E+02
     19.046  0.0000E+00  0.2270E+02
     19.443  0.0000E+00  0.2294E+02
     19.841  0.5589E+00  0.2361E+02
     20.239  0.4089E-01  0.2410E+02
     20.636  0.0000E+00  0.2460E+02
     21.034  0.0000E+00  0.2551E+02
     21.431  0.0000E+00  0.2562E+02
     21.829  0.0000E+00  0.2621E+02
     22.226  0.0000E+00  0.2699E+02
     22.624  0.0000E+00  0.2706E+02
     23.022  0.0000E+00  0.2753E+02
     23.419  0.1397E+00  0.2795E+02
     23.817  0.0000E+00  0.2840E+02
     24.214  0.0000E+00  0.2847E+02
     24.612  0.1256E-09  0.2903E+02
     25.009  0.3356E-06  0.2958E+02
     25.407  0.0000E+00  0.3014E+02
     25.804  0.0000E+00  0.3017E+02
     26.202  0.0000E+00  0.3106E+02
     26.600  0.1397E+00  0.3136E+02
     26.997  0.0000E+00  0.3210E+02
     27.395  0.0000E+00  0.3310E+02
     27.792  0.0000E+00  0.3342E+02
     28.190  0.0000E+00  0.3414E+02
     28.587  0.0000E+00  0.3414E+02
     28.985  0.0000E+00  0.3458E+02
     29.383  0.0000E+00  0.3481E+02
     29.780  0.0000E+00  0.3553E+02
     30.178  0.0000E+00  0.3614E+02
     30.575  0.0000E+00  0.3640E+02
     30.973  0.5590E+00  0.3718E+02
     31.370  0.0000E+00  0.3758E+02
     31.768  0.0000E+00  0.3881E+02
     32.165  0.0000E+00  0.3893E+02
     32.563  0.5590E+00  0.3970E+02
     32.961  0.0000E+00  0.4018E+02
     33.358  0.0000E+00  0.4040E+02
     33.756  0.1863E+00  0.4114E+02
     34.153  0.3981E+00  0.4150E+02
     34.551  0.0000E+00  0.4179E+02
     34.948  0.0000E+00  0.4219E+02
     35.346  0.0000E+00  0.4327E+02
     35.744  0.4203E-10  0.4429E+02
     36.141  0.0000E+00  0.4516E+02
     36.539  0.0000E+00  0.4541E+02
     36.936  0.5590E+00  0.4630E+02
     37.334  0.0000E+00  0.4663E+02
     37.731  0.0000E+00  0.4685E+02
     38.129  0.0000E+00  0.4746E+02
     38.526  0.0000E+00  0.4776E+02
     38.924  0.0000E+00  0.4845E+02
     39.322  0.2587E-07  0.4868E+02
     39.719  0.0000E+00  0.4912E+02
     40.117  0.5582E+00  0.5064E+02
     40.514  0.0000E+00  0.5079E+02
     40.912  0.6987E-01  0.5151E+02
     41.309  0.0000E+00  0.5223E+02
     41.707  0.0000E+00  0.5335E+02
     42.105  0.0000E+00  0.5346E+02
     42.502  0.0000E+00  0.5470E+02
     42.900  0.2361E-13  0.5515E+02
     43.297  0.0000E+00  0.5587E+02
     43.695  0.0000E+00  0.5609E+02
     44.092  0.0000E+00  0.5665E+02
     44.490  0.0000E+00  0.5709E+02
     44.887  0.0000E+00  0.5739E+02
     45.285  0.4559E+00  0.5790E+02
     45.683  0.9244E-08  0.5935E+02
     46.080  0.0000E+00  0.5982E+02
     46.478  0.0000E+00  0.6049E+02
     46.875  0.5590E+00  0.6097E+02
     47.273  0.0000E+00  0.6179E+02
     47.670  0.0000E+00  0.6251E+02
     48.068  0.0000E+00  0.6294E+02
     48.466  0.0000E+00  0.6351E+02
     48.863  0.0000E+00  0.6448E+02
     49.261  0.0000E+00  0.6530E+02
     49.658  0.1569E+00  0.6595E+02
     50.056  0.0000E+00  0.6672E+02
     50.453  0.0000E+00  0.6720E+02
     50.851  0.5590E+00  0.6789E+02
     51.248  0.2808E-10  0.6861E+02
     51.646  0.0000E+00  0.6906E+02
     52.044  0.5589E+00  0.6960E+02
     52.441  0.0000E+00  0.7000E+02
     52.839  0.0000E+00  0.7100E+02
     53.236  0.0000E+00  0.7167E+02
     53.634  0.0000E+00  0.7208E+02
     54.031  0.0000E+00  0.7247E+02
     54.429  0.0000E+00  0.7303E+02
     54.827  0.0000E+00  0.7423E+02
     55.224  0.1025E+00  0.7490E+02
     55.622  0.0000E+00  0.7596E+02
     56.019  0.0000E+00  0.7640E+02
     56.417  0.0000E+00  0.7678E+02
     56.814  0.1863E+00  0.7732E+02
     57.212  0.0000E+00  0.7797E+02
     57.609  0.0000E+00  0.7881E+02
     58.007  0.0000E+00  0.7966E+02
     58.405  0.0000E+00  0.8025E+02
     58.802  0.0000E+00  0.8142E+02
     59.200  0.0000E+00  0.8205E+02
     59.597  0.0000E+00  0.8324E+02
     59.995  0.0000E+00  0.8339E+02
     60.392  0.0000E+00  0.8361E+02
     60.790  0.0000E+00  0.8394E+02
     61.188  0.0000E+00  0.8531E+02
     61.585  0.5431E+00  0.8634E+02
     61.983  0.0000E+00  0.8729E+02
     62.380  0.0000E+00  0.8769E+02
     62.778  0.0000E+00  0.8846E+02
     63.175  0.0000E+00  0.8876E+02
     63.573  0.0000E+00  0.9027E+02
     63.970  0.0000E+00  0.9086E+02
     64.368  0.2795E+00  0.9175E+02
     64.766  0.0000E+00  0.9232E+02
     65.163  0.0000E+00  0.9291E+02
     65.561  0.0000E+00  0.9405E+02
     65.958  0.0000E+00  0.9479E+02
     66.356  0.0000E+00  0.9540E+02
     66.753  0.0000E+00  0.9631E+02
     67.151  0.0000E+00  0.9741E+02
     67.549  0.0000E+00  0.9805E+02
     67.946  0.0000E+00  0.9882E+02
     68.344  0.0000E+00  0.9931E+02
     68.741  0.0000E+00  0.9997E+02
     69.139  0.0000E+00  0.1009E+03
     69.536  0.0000E+00  0.1016E+03
     69.934  0.0000E+00  0.1027E+03
     70.331  0.0000E+00  0.1033E+03
     70.729  0.0000E+00  0.1044E+03
     71.127  0.1863E+00  0.1054E+03
     71.524  0.0000E+00  0.1057E+03
     71.922  0.3590E-01  0.1063E+03
     72.319  0.0000E+00  0.1071E+03
     72.717  0.5480E-04  0.1076E+03
     73.114  0.2986E-01  0.1083E+03
     73.512  0.0000E+00  0.1087E+03
     73.910  0.0000E+00  0.1099E+03
     74.307  0.0000E+00  0.1106E+03
     74.705  0.0000E+00  0.1110E+03
     75.102  0.0000E+00  0.1119E+03
     75.500  0.0000E+00  0.1131E+03
     75.897  0.0000E+00  0.1138E+03
     76.295  0.0000E+00  0.1149E+03
     76.693  0.0000E+00  0.1161E+03
     77.090  0.0000E+00  0.1173E+03
     77.488  0.0000E+00  0.1177E+03
     77.885  0.5590E+00  0.1189E+03
     78.283  0.0000E+00  0.1198E+03
     78.680  0.0000E+00  0.1205E+03
     79.078  0.0000E+00  0.1210E+03
     79.475  0.0000E+00  0.1217E+03
     79.873  0.0000E+00  0.1224E+03
     80.271  0.0000E+00  0.1235E+03
     80.668  0.0000E+00  0.1240E+03
     81.066  0.0000E+00  0.1244E+03
     81.463  0.0000E+00  0.1255E+03
     81.861  0.3027E-03  0.1263E+03
     82.258  0.0000E+00  0.1269E+03
     82.656  0.0000E+00  0.1272E+03
     83.054  0.0000E+00  0.1273E+03
     83.451  0.0000E+00  0.1275E+03
     83.849  0.0000E+00  0.1278E+03
     84.246  0.0000E+00  0.1279E+03
     84.644  0.0000E+00  0.1279E+03
     85.041  0.0000E+00  0.1280E+03
     85.439  0.0000E+00  0.1280E+03
     85.836  0.0000E+00  0.1280E+03
     86.234  0.0000E+00  0.1280E+03
     86.632  0.0000E+00  0.1280E+03
     87.029  0.0000E+00  0.1280E+03
     87.427  0.0000E+00  0.1280E+03
     87.824  0.0000E+00  0.1280E+03
     88.222  0.0000E+00  0.1280E+03
     88.619  0.0000E+00  0.1280E+03
     89.017  0.0000E+00  0.1280E+03
     89.415  0.0000E+00  0.1280E+03
     89.812  0.0000E+00  0.1280E+03
     90.210  0.0000E+00  0.1280E+03
