 vasp.5.4.4.18Apr17-6-g9f103f2a35 (build Nov 03 2018 10:20:46) complex          
  
 executed on             LinuxIFC date 2018.11.14  09:37:23
 running on   40 total cores
 distrk:  each k-point on   20 cores,    2 groups
 distr:  one band on NCORES_PER_BAND=   4 cores,    5 groups


--------------------------------------------------------------------------------------------------------


 INCAR:
 POTCAR:    PAW Og, JanMewes Oct 18               

 ----------------------------------------------------------------------------- 
|                                                                             |
|           W    W    AA    RRRRR   N    N  II  N    N   GGGG   !!!           |
|           W    W   A  A   R    R  NN   N  II  NN   N  G    G  !!!           |
|           W    W  A    A  R    R  N N  N  II  N N  N  G       !!!           |
|           W WW W  AAAAAA  RRRRR   N  N N  II  N  N N  G  GGG   !            |
|           WW  WW  A    A  R   R   N   NN  II  N   NN  G    G                |
|           W    W  A    A  R    R  N    N  II  N    N   GGGG   !!!           |
|                                                                             |
|      You have enabled k-point parallelism (KPAR>1).                         |
|      This developmental code was originally  written by Paul Kent at ORNL,  |
|      and carefully double checked in Vienna.                                |
|      GW as well as linear response parallelism added by Martijn Marsman     |
|      and Georg Kresse.                                                      |
|      Carefully verify results versus KPAR=1.                                |
|      Report problems to Paul Kent and Vienna.                               |
|                                                                             |
 ----------------------------------------------------------------------------- 

 POTCAR:    PAW Og, JanMewes Oct 18               
   VRHFIN =Og : 10d 2s 6p, PE                                                   
   LEXCH  = PE                                                                  
   EATOM  =  2640.5573 eV,  194.0755 Ry                                         
                                                                                
   TITEL  = PAW Og, JanMewes Oct 18                                             
   LULTRA =        F    use ultrasoft PP ?                                      
   IUNSCR =        1    unscreen: 0-lin 1-nonlin 2-no                           
   RPACOR =    1.700    partial core radius                                     
   POMASS =    0.010; ZVAL   =   18.000    mass and valenz                      
   RCORE  =    2.600    outmost cutoff radius                                   
   RWIGS  =    3.500; RWIGS  =    1.852    wigner-seitz radius (au A)           
   ENMAX  =  339.336; ENMIN  =  254.502 eV                                      
   ICORE  =        3    local potential                                         
   LCOR   =        T    correct aug charges                                     
   LPAW   =        T    paw PP                                                  
   EAUG   =  361.025                                                            
   DEXC   =   -0.000                                                            
   RAUG   =    1.300    factor for augmentation sphere                          
   RDEP   =    2.775    radius for radial grids                                 
   RDEPT  =    2.135    core radius for aug-charge                              
   QCUT   =   -4.994; QGAM   =    9.988    optimization parameters              
                                                                                
   Atomic configuration                                                         
   22 entries                                                                   
     n  l   j            E        occ.                                          
     1  0  0.50   -225781.4217   2.0000                                         
     2  0  0.50    -47342.3774   2.0000                                         
     2  1  1.50    -33463.4058   6.0000                                         
     3  0  0.50    -12845.8060   2.0000                                         
     3  1  1.50     -9184.5562   6.0000                                         
     3  2  2.50     -7322.6146  10.0000                                         
     4  0  0.50     -3781.9433   2.0000                                         
     4  1  1.50     -2605.9204   6.0000                                         
     4  2  2.50     -1899.4626  10.0000                                         
     4  3  3.50     -1273.6890  14.0000                                         
     5  0  0.50     -1046.0643   2.0000                                         
     5  1  1.50      -650.9265   6.0000                                         
     5  2  2.50      -388.1490  10.0000                                         
     5  3  3.50      -152.1121  14.0000                                         
     6  0  0.50      -224.6639   2.0000                                         
     6  1  0.50      -184.3267   2.0000                                         
     6  1  1.50       -97.8537   4.0000                                         
     6  2  2.50       -35.6667  10.0000                                         
     7  0  0.50       -28.5889   2.0000                                         
     8  0  0.50        -1.3606   0.0000                                         
     7  1  1.50        -7.0827   6.0000                                         
     6  3  3.50        -0.0136   0.0000                                         
   Description                                                                  
     l       E           TYP  RCUT    TYP  RCUT                                 
     2    -35.6666962     23  2.100                                             
     2     34.0145650     23  2.300                                             
     0    -28.5889381     23  1.600                                             
     0     40.8174780     23  2.200                                             
     1     -7.0826811     23  2.200                                             
     1    148.3035034     23  1.900                                             
     3      6.8029130      7  2.600                                             
  local pseudopotential read in
  partial core-charges read in
  partial kinetic energy density read in
  kinetic energy density of atom read in
  atomic valenz-charges read in
  non local Contribution for L=           2  read in
    real space projection operators read in
  non local Contribution for L=           2  read in
    real space projection operators read in
  non local Contribution for L=           0  read in
    real space projection operators read in
  non local Contribution for L=           0  read in
    real space projection operators read in
  non local Contribution for L=           1  read in
    real space projection operators read in
  non local Contribution for L=           1  read in
    real space projection operators read in
    PAW grid and wavefunctions read in
 
   number of l-projection  operators is LMAX  =           6
   number of lm-projection operators is LMMAX =          18
 
  PAW Og, JanMewes Oct 18               :
 energy of atom  1       EATOM=-2640.5573
 kinetic energy error for atom=    0.6524 (will be added to EATOM!!)
 
 
 POSCAR: Og_FCC                                  
  positions in direct lattice
  velocities in cartesian coordinates
 exchange correlation table for  LEXCH =        8
   RHO(1)=    0.500       N(1)  =     2000
   RHO(2)=  100.500       N(2)  =     4000
 


--------------------------------------------------------------------------------------------------------


 ion  position               nearest neighbor table
   1  0.000  0.000  0.000-
 

IMPORTANT INFORMATION: All symmetrisations will be switched off!
NOSYMM: (Re-)initialisation of all symmetry stuff for point group C_1.

 
 
 KPOINTS: k-points                                

Automatic generation of k-mesh.
Space group operators:
 irot       det(A)        alpha          n_x          n_y          n_z        tau_x        tau_y        tau_z
    1     1.000000     0.000000     1.000000     0.000000     0.000000     0.000000     0.000000     0.000000
 
 Subroutine IBZKPT returns following result:
 ===========================================
 
 Found     64 irreducible k-points:
 
 Following reciprocal coordinates:
            Coordinates               Weight
  0.000000  0.000000  0.000000      1.000000
  0.250000  0.000000  0.000000      1.000000
  0.500000  0.000000  0.000000      1.000000
 -0.250000 -0.000000 -0.000000      1.000000
  0.000000  0.250000 -0.000000      1.000000
  0.250000  0.250000  0.000000      1.000000
  0.500000  0.250000  0.000000      1.000000
 -0.250000  0.250000 -0.000000      1.000000
  0.000000  0.500000 -0.000000      1.000000
  0.250000  0.500000  0.000000      1.000000
  0.500000  0.500000  0.000000      1.000000
 -0.250000  0.500000 -0.000000      1.000000
 -0.000000 -0.250000  0.000000      1.000000
  0.250000 -0.250000  0.000000      1.000000
  0.500000 -0.250000  0.000000      1.000000
 -0.250000 -0.250000 -0.000000      1.000000
  0.000000  0.000000  0.250000      1.000000
  0.250000 -0.000000  0.250000      1.000000
  0.500000 -0.000000  0.250000      1.000000
 -0.250000 -0.000000  0.250000      1.000000
 -0.000000  0.250000  0.250000      1.000000
  0.250000  0.250000  0.250000      1.000000
  0.500000  0.250000  0.250000      1.000000
 -0.250000  0.250000  0.250000      1.000000
 -0.000000  0.500000  0.250000      1.000000
  0.250000  0.500000  0.250000      1.000000
  0.500000  0.500000  0.250000      1.000000
 -0.250000  0.500000  0.250000      1.000000
  0.000000 -0.250000  0.250000      1.000000
  0.250000 -0.250000  0.250000      1.000000
  0.500000 -0.250000  0.250000      1.000000
 -0.250000 -0.250000  0.250000      1.000000
  0.000000  0.000000  0.500000      1.000000
  0.250000  0.000000  0.500000      1.000000
  0.500000 -0.000000  0.500000      1.000000
 -0.250000  0.000000  0.500000      1.000000
 -0.000000  0.250000  0.500000      1.000000
  0.250000  0.250000  0.500000      1.000000
  0.500000  0.250000  0.500000      1.000000
 -0.250000  0.250000  0.500000      1.000000
 -0.000000  0.500000  0.500000      1.000000
  0.250000  0.500000  0.500000      1.000000
  0.500000  0.500000  0.500000      1.000000
 -0.250000  0.500000  0.500000      1.000000
  0.000000 -0.250000  0.500000      1.000000
  0.250000 -0.250000  0.500000      1.000000
  0.500000 -0.250000  0.500000      1.000000
 -0.250000 -0.250000  0.500000      1.000000
  0.000000  0.000000 -0.250000      1.000000
  0.250000  0.000000 -0.250000      1.000000
  0.500000  0.000000 -0.250000      1.000000
 -0.250000  0.000000 -0.250000      1.000000
  0.000000  0.250000 -0.250000      1.000000
  0.250000  0.250000 -0.250000      1.000000
  0.500000  0.250000 -0.250000      1.000000
 -0.250000  0.250000 -0.250000      1.000000
  0.000000  0.500000 -0.250000      1.000000
  0.250000  0.500000 -0.250000      1.000000
  0.500000  0.500000 -0.250000      1.000000
 -0.250000  0.500000 -0.250000      1.000000
  0.000000 -0.250000 -0.250000      1.000000
  0.250000 -0.250000 -0.250000      1.000000
  0.500000 -0.250000 -0.250000      1.000000
 -0.250000 -0.250000 -0.250000      1.000000
 
 Following cartesian coordinates:
            Coordinates               Weight
  0.000000  0.000000  0.000000      1.000000
  0.057573 -0.033240 -0.023504      1.000000
  0.115145 -0.066479 -0.047008      1.000000
 -0.057573  0.033240  0.023504      1.000000
  0.000000  0.066479 -0.023504      1.000000
  0.057573  0.033240 -0.047008      1.000000
  0.115145  0.000000 -0.070512      1.000000
 -0.057573  0.099719  0.000000      1.000000
  0.000000  0.132958 -0.047008      1.000000
  0.057573  0.099719 -0.070512      1.000000
  0.115145  0.066479 -0.094016      1.000000
 -0.057573  0.166198 -0.023504      1.000000
 -0.000000 -0.066479  0.023504      1.000000
  0.057573 -0.099719 -0.000000      1.000000
  0.115145 -0.132958 -0.023504      1.000000
 -0.057573 -0.033240  0.047008      1.000000
 -0.000000  0.000000  0.070512      1.000000
  0.057573 -0.033240  0.047008      1.000000
  0.115145 -0.066479  0.023504      1.000000
 -0.057573  0.033240  0.094016      1.000000
 -0.000000  0.066479  0.047008      1.000000
  0.057573  0.033240  0.023504      1.000000
  0.115145  0.000000 -0.000000      1.000000
 -0.057573  0.099719  0.070512      1.000000
 -0.000000  0.132958  0.023504      1.000000
  0.057573  0.099719  0.000000      1.000000
  0.115145  0.066479 -0.023504      1.000000
 -0.057573  0.166198  0.047008      1.000000
 -0.000000 -0.066479  0.094016      1.000000
  0.057573 -0.099719  0.070512      1.000000
  0.115145 -0.132958  0.047008      1.000000
 -0.057573 -0.033240  0.117520      1.000000
 -0.000000  0.000000  0.141023      1.000000
  0.057573 -0.033240  0.117520      1.000000
  0.115145 -0.066479  0.094016      1.000000
 -0.057573  0.033240  0.164527      1.000000
 -0.000000  0.066479  0.117520      1.000000
  0.057573  0.033240  0.094016      1.000000
  0.115145  0.000000  0.070512      1.000000
 -0.057573  0.099719  0.141023      1.000000
 -0.000000  0.132958  0.094016      1.000000
  0.057573  0.099719  0.070512      1.000000
  0.115145  0.066479  0.047008      1.000000
 -0.057573  0.166198  0.117520      1.000000
 -0.000000 -0.066479  0.164527      1.000000
  0.057573 -0.099719  0.141023      1.000000
  0.115145 -0.132958  0.117520      1.000000
 -0.057573 -0.033240  0.188031      1.000000
  0.000000 -0.000000 -0.070512      1.000000
  0.057573 -0.033240 -0.094016      1.000000
  0.115145 -0.066479 -0.117520      1.000000
 -0.057573  0.033240 -0.047008      1.000000
  0.000000  0.066479 -0.094016      1.000000
  0.057573  0.033240 -0.117520      1.000000
  0.115145 -0.000000 -0.141023      1.000000
 -0.057573  0.099719 -0.070512      1.000000
  0.000000  0.132958 -0.117520      1.000000
  0.057573  0.099719 -0.141023      1.000000
  0.115145  0.066479 -0.164527      1.000000
 -0.057573  0.166198 -0.094016      1.000000
  0.000000 -0.066479 -0.047008      1.000000
  0.057573 -0.099719 -0.070512      1.000000
  0.115145 -0.132958 -0.094016      1.000000
 -0.057573 -0.033240 -0.023504      1.000000
 


--------------------------------------------------------------------------------------------------------




 Dimension of arrays:
   k-points           NKPTS =     64   k-points in BZ     NKDIM =     64   number of bands    NBANDS=     30
   number of dos      NEDOS =    301   number of ions     NIONS =      1
   non local maximal  LDIM  =      6   non local SUM 2l+1 LMDIM =     18
   total plane-waves  NPLWV =  21952
   max r-space proj   IRMAX =      1   max aug-charges    IRDMAX= 182324
   dimension x,y,z NGX =    28 NGY =   28 NGZ =   28
   dimension x,y,z NGXF=    56 NGYF=   56 NGZF=   56
   support grid    NGXF=   112 NGYF=  112 NGZF=  112
   ions per type =               1
   NGX,Y,Z   is equivalent  to a cutoff of  10.72, 10.72, 10.72 a.u.
   NGXF,Y,Z  is equivalent  to a cutoff of  21.44, 21.44, 21.44 a.u.

 SYSTEM =  Og_FCC                                  
 POSCAR =  Og_FCC                                  

 Startparameter for this run:
   NWRITE =      2    write-flag & timer
   PREC   = accura    normal or accurate (medium, high low for compatibility)
   ISTART =      1    job   : 0-new  1-cont  2-samecut
   ICHARG =      0    charge: 1-file 2-atom 10-const
   ISPIN  =      1    spin polarized calculation?
   LNONCOLLINEAR =      T non collinear calculations
   LSORBIT =      T    spin-orbit coupling
   INIWAV =      1    electr: 0-lowe 1-rand  2-diag
   LASPH  =      F    aspherical Exc in radial PAW
   METAGGA=      F    non-selfconsistent MetaGGA calc.

 Electronic Relaxation 1
   ENCUT  =  300.0 eV  22.05 Ry    4.70 a.u.   6.13  6.13  6.13*2*pi/ulx,y,z
   ENINI  =  300.0     initial cutoff
   ENAUG  =  361.0 eV  augmentation charge cutoff
   NELM   =     50;   NELMIN=  2; NELMDL= -5     # of ELM steps 
   EDIFF  = 0.1E-07   stopping-criterion for ELM
   LREAL  =      F    real-space projection
   NLSPLINE    = F    spline interpolate recip. space projectors
   LCOMPAT=      F    compatible to vasp.4.4
   GGA_COMPAT  = F    GGA compatible to vasp.4.4-vasp.4.6
   LMAXPAW     = -100 max onsite density
   LMAXMIX     =    2 max onsite mixed and CHGCAR
   VOSKOWN=      0    Vosko Wilk Nusair interpolation
   ROPT   =    0.00000
 Ionic relaxation
   EDIFFG = 0.1E-04   stopping-criterion for IOM
   NSW    =      1    number of steps for IOM
   NBLOCK =      1;   KBLOCK =      1    inner block; outer block 
   IBRION =     -1    ionic relax: 0-MD 1-quasi-New 2-CG
   NFREE  =      5    steps in history (QN), initial steepest desc. (CG)
   ISIF   =      3    stress and relaxation
   IWAVPR =     10    prediction:  0-non 1-charg 2-wave 3-comb
   ISYM   =      0    0-nonsym 1-usesym 2-fastsym
   LCORR  =      T    Harris-Foulkes like correction to forces

   POTIM  = 0.1000    time-step for ionic-motion
   TEIN   =    0.0    initial temperature
   TEBEG  =    0.0;   TEEND  =   0.0 temperature during run
   SMASS  =  -3.00    Nose mass-parameter (am)
   estimated Nose-frequenzy (Omega)   =  0.10E-29 period in steps =****** mass=  -0.431E-27a.u.
   SCALEE = 1.0000    scale energy and forces
   NPACO  =    256;   APACO  = 16.0  distance and # of slots for P.C.
   PSTRESS=    0.0 pullay stress

  Mass of Ions in am
   POMASS =   0.01
  Ionic Valenz
   ZVAL   =  18.00
  Atomic Wigner-Seitz radii
   RWIGS  =  -1.00
  virtual crystal weights 
   VCA    =   1.00
   NELECT =      18.0000    total number of electrons
   NUPDOWN=      -1.0000    fix difference up-down

 DOS related values:
   EMIN   =  10.00;   EMAX   =-10.00  energy-range for DOS
   EFERMI =   0.00
   ISMEAR =     0;   SIGMA  =   0.00  broadening in eV -4-tet -1-fermi 0-gaus

 Electronic relaxation 2 (details)
   IALGO  =     38    algorithm
   LDIAG  =      T    sub-space diagonalisation (order eigenvalues)
   LSUBROT=      F    optimize rotation matrix (better conditioning)
   TURBO    =      0    0=normal 1=particle mesh
   IRESTART =      0    0=no restart 2=restart with 2 vectors
   NREBOOT  =      0    no. of reboots
   NMIN     =      0    reboot dimension
   EREF     =   0.00    reference energy to select bands
   IMIX   =      4    mixing-type and parameters
     AMIX     =   0.40;   BMIX     =  1.00
     AMIX_MAG =   1.60;   BMIX_MAG =  1.00
     AMIN     =   0.10
     WC   =   100.;   INIMIX=   1;  MIXPRE=   1;  MAXMIX=  50

 Intra band minimization:
   WEIMIN = 0.0000     energy-eigenvalue tresh-hold
   EBREAK =  0.83E-10  absolut break condition
   DEPER  =   0.30     relativ break condition  

   TIME   =   0.40     timestep for ELM

  volume/ion in A,a.u.               =      57.90       390.71
  Fermi-wavevector in a.u.,A,eV,Ry     =   1.109038  2.095777 16.734680  1.229964
  Thomas-Fermi vector in A             =   2.245572
 
 Write flags
   LWAVE        =      T    write WAVECAR
   LDOWNSAMPLE  =      F    k-point downsampling of WAVECAR
   LCHARG       =      F    write CHGCAR
   LVTOT        =      F    write LOCPOT, total local potential
   LVHAR        =      F    write LOCPOT, Hartree potential only
   LELF         =      F    write electronic localiz. function (ELF)
   LORBIT       =      0    0 simple, 1 ext, 2 COOP (PROOUT), +10 PAW based schemes


 Dipole corrections
   LMONO  =      F    monopole corrections only (constant potential shift)
   LDIPOL =      F    correct potential (dipole corrections)
   IDIPOL =      0    1-x, 2-y, 3-z, 4-all directions 
   EPSILON=  1.0000000 bulk dielectric constant

 Exchange correlation treatment:
   GGA     =    PE    GGA type
   LEXCH   =     8    internal setting for exchange type
   VOSKOWN=      0    Vosko Wilk Nusair interpolation
   LHFCALC =     F    Hartree Fock is set to
   LHFONE  =     F    Hartree Fock one center treatment
   AEXX    =    0.0000 exact exchange contribution

 Linear response parameters
   LEPSILON=     F    determine dielectric tensor
   LRPA    =     F    only Hartree local field effects (RPA)
   LNABLA  =     F    use nabla operator in PAW spheres
   LVEL    =     F    velocity operator in full k-point grid
   LINTERFAST=   F  fast interpolation
   KINTER  =     0    interpolate to denser k-point grid
   CSHIFT  =0.1000    complex shift for real part using Kramers Kronig
   OMEGAMAX=  -1.0    maximum frequency
   DEG_THRESHOLD= 0.2000000E-02 threshold for treating states as degnerate
   RTIME   =   -0.100 relaxation time in fs
  (WPLASMAI=    0.000 imaginary part of plasma frequency in eV, 0.658/RTIME)
   DFIELD  = 0.0000000 0.0000000 0.0000000 field for delta impulse in time
 
 Orbital magnetization related:
   ORBITALMAG=     F  switch on orbital magnetization
   LCHIMAG   =     F  perturbation theory with respect to B field
   DQ        =  0.001000  dq finite difference perturbation B field
   LLRAUG    =     F  two centre corrections for induced B field



--------------------------------------------------------------------------------------------------------


 Static calculation
 charge density and potential will be updated during run
 non collinear spin polarized calculation
 Variant of blocked Davidson
 Davidson routine will perform the subspace rotation
 perform sub-space diagonalisation
    after iterative eigenvector-optimisation
 modified Broyden-mixing scheme, WC =      100.0
 initial mixing is a Kerker type mixing with AMIX =  0.4000 and BMIX =      1.0000
 Hartree-type preconditioning will be used
 using additional bands           21
 reciprocal scheme for non local part
 use partial core corrections
 calculate Harris-corrections to forces 
   (improved forces if not selfconsistent)
 use gradient corrections 
 use of overlap-Matrix (Vanderbilt PP)
 Gauss-broadening in eV      SIGMA  =   0.00


--------------------------------------------------------------------------------------------------------


  energy-cutoff  :      300.00
  volume of cell :       57.90
      direct lattice vectors                 reciprocal lattice vectors
     4.342345876  0.000000000  0.000000000     0.230290269 -0.132958149 -0.094015609
     2.171172938  3.760581840 -0.000000000     0.000000000  0.265916298 -0.094015609
     2.171172938  1.253527280  3.545510561    -0.000000000  0.000000000  0.282046826

  length of vectors
     4.342345876  4.342345876  4.342345876     0.282046826  0.282046826  0.282046826


 
 old parameters found on file WAVECAR:
  energy-cutoff  :      300.00
  volume of cell :       57.90
      direct lattice vectors                 reciprocal lattice vectors
     4.342345876  0.000000000  0.000000000     0.230290269 -0.132958149 -0.094015609
     2.171172938  3.760581840 -0.000000000     0.000000000  0.265916298 -0.094015609
     2.171172938  1.253527280  3.545510561    -0.000000000  0.000000000  0.282046826

  length of vectors

 
 k-points in units of 2pi/SCALE and weight: k-points                                
   0.00000000  0.00000000  0.00000000       0.016
   0.05757257 -0.03323954 -0.02350390       0.016
   0.11514513 -0.06647907 -0.04700780       0.016
  -0.05757257  0.03323954  0.02350390       0.016
   0.00000000  0.06647907 -0.02350390       0.016
   0.05757257  0.03323954 -0.04700780       0.016
   0.11514513  0.00000000 -0.07051171       0.016
  -0.05757257  0.09971861  0.00000000       0.016
   0.00000000  0.13295815 -0.04700780       0.016
   0.05757257  0.09971861 -0.07051171       0.016
   0.11514513  0.06647907 -0.09401561       0.016
  -0.05757257  0.16619769 -0.02350390       0.016
  -0.00000000 -0.06647907  0.02350390       0.016
   0.05757257 -0.09971861 -0.00000000       0.016
   0.11514513 -0.13295815 -0.02350390       0.016
  -0.05757257 -0.03323954  0.04700780       0.016
  -0.00000000  0.00000000  0.07051171       0.016
   0.05757257 -0.03323954  0.04700780       0.016
   0.11514513 -0.06647907  0.02350390       0.016
  -0.05757257  0.03323954  0.09401561       0.016
  -0.00000000  0.06647907  0.04700780       0.016
   0.05757257  0.03323954  0.02350390       0.016
   0.11514513  0.00000000 -0.00000000       0.016
  -0.05757257  0.09971861  0.07051171       0.016
  -0.00000000  0.13295815  0.02350390       0.016
   0.05757257  0.09971861  0.00000000       0.016
   0.11514513  0.06647907 -0.02350390       0.016
  -0.05757257  0.16619769  0.04700780       0.016
  -0.00000000 -0.06647907  0.09401561       0.016
   0.05757257 -0.09971861  0.07051171       0.016
   0.11514513 -0.13295815  0.04700780       0.016
  -0.05757257 -0.03323954  0.11751951       0.016
  -0.00000000  0.00000000  0.14102341       0.016
   0.05757257 -0.03323954  0.11751951       0.016
   0.11514513 -0.06647907  0.09401561       0.016
  -0.05757257  0.03323954  0.16452732       0.016
  -0.00000000  0.06647907  0.11751951       0.016
   0.05757257  0.03323954  0.09401561       0.016
   0.11514513  0.00000000  0.07051171       0.016
  -0.05757257  0.09971861  0.14102341       0.016
  -0.00000000  0.13295815  0.09401561       0.016
   0.05757257  0.09971861  0.07051171       0.016
   0.11514513  0.06647907  0.04700780       0.016
  -0.05757257  0.16619769  0.11751951       0.016
  -0.00000000 -0.06647907  0.16452732       0.016
   0.05757257 -0.09971861  0.14102341       0.016
   0.11514513 -0.13295815  0.11751951       0.016
  -0.05757257 -0.03323954  0.18803122       0.016
   0.00000000 -0.00000000 -0.07051171       0.016
   0.05757257 -0.03323954 -0.09401561       0.016
   0.11514513 -0.06647907 -0.11751951       0.016
  -0.05757257  0.03323954 -0.04700780       0.016
   0.00000000  0.06647907 -0.09401561       0.016
   0.05757257  0.03323954 -0.11751951       0.016
   0.11514513 -0.00000000 -0.14102341       0.016
  -0.05757257  0.09971861 -0.07051171       0.016
   0.00000000  0.13295815 -0.11751951       0.016
   0.05757257  0.09971861 -0.14102341       0.016
   0.11514513  0.06647907 -0.16452732       0.016
  -0.05757257  0.16619769 -0.09401561       0.016
   0.00000000 -0.06647907 -0.04700780       0.016
   0.05757257 -0.09971861 -0.07051171       0.016
   0.11514513 -0.13295815 -0.09401561       0.016
  -0.05757257 -0.03323954 -0.02350390       0.016
 
 k-points in reciprocal lattice and weights: k-points                                
   0.00000000  0.00000000  0.00000000       0.016
   0.25000000  0.00000000  0.00000000       0.016
   0.50000000  0.00000000  0.00000000       0.016
  -0.25000000 -0.00000000 -0.00000000       0.016
   0.00000000  0.25000000 -0.00000000       0.016
   0.25000000  0.25000000  0.00000000       0.016
   0.50000000  0.25000000  0.00000000       0.016
  -0.25000000  0.25000000 -0.00000000       0.016
   0.00000000  0.50000000 -0.00000000       0.016
   0.25000000  0.50000000  0.00000000       0.016
   0.50000000  0.50000000  0.00000000       0.016
  -0.25000000  0.50000000 -0.00000000       0.016
  -0.00000000 -0.25000000  0.00000000       0.016
   0.25000000 -0.25000000  0.00000000       0.016
   0.50000000 -0.25000000  0.00000000       0.016
  -0.25000000 -0.25000000 -0.00000000       0.016
   0.00000000  0.00000000  0.25000000       0.016
   0.25000000 -0.00000000  0.25000000       0.016
   0.50000000 -0.00000000  0.25000000       0.016
  -0.25000000 -0.00000000  0.25000000       0.016
  -0.00000000  0.25000000  0.25000000       0.016
   0.25000000  0.25000000  0.25000000       0.016
   0.50000000  0.25000000  0.25000000       0.016
  -0.25000000  0.25000000  0.25000000       0.016
  -0.00000000  0.50000000  0.25000000       0.016
   0.25000000  0.50000000  0.25000000       0.016
   0.50000000  0.50000000  0.25000000       0.016
  -0.25000000  0.50000000  0.25000000       0.016
   0.00000000 -0.25000000  0.25000000       0.016
   0.25000000 -0.25000000  0.25000000       0.016
   0.50000000 -0.25000000  0.25000000       0.016
  -0.25000000 -0.25000000  0.25000000       0.016
   0.00000000  0.00000000  0.50000000       0.016
   0.25000000  0.00000000  0.50000000       0.016
   0.50000000 -0.00000000  0.50000000       0.016
  -0.25000000  0.00000000  0.50000000       0.016
  -0.00000000  0.25000000  0.50000000       0.016
   0.25000000  0.25000000  0.50000000       0.016
   0.50000000  0.25000000  0.50000000       0.016
  -0.25000000  0.25000000  0.50000000       0.016
  -0.00000000  0.50000000  0.50000000       0.016
   0.25000000  0.50000000  0.50000000       0.016
   0.50000000  0.50000000  0.50000000       0.016
  -0.25000000  0.50000000  0.50000000       0.016
   0.00000000 -0.25000000  0.50000000       0.016
   0.25000000 -0.25000000  0.50000000       0.016
   0.50000000 -0.25000000  0.50000000       0.016
  -0.25000000 -0.25000000  0.50000000       0.016
   0.00000000  0.00000000 -0.25000000       0.016
   0.25000000  0.00000000 -0.25000000       0.016
   0.50000000  0.00000000 -0.25000000       0.016
  -0.25000000  0.00000000 -0.25000000       0.016
   0.00000000  0.25000000 -0.25000000       0.016
   0.25000000  0.25000000 -0.25000000       0.016
   0.50000000  0.25000000 -0.25000000       0.016
  -0.25000000  0.25000000 -0.25000000       0.016
   0.00000000  0.50000000 -0.25000000       0.016
   0.25000000  0.50000000 -0.25000000       0.016
   0.50000000  0.50000000 -0.25000000       0.016
  -0.25000000  0.50000000 -0.25000000       0.016
   0.00000000 -0.25000000 -0.25000000       0.016
   0.25000000 -0.25000000 -0.25000000       0.016
   0.50000000 -0.25000000 -0.25000000       0.016
  -0.25000000 -0.25000000 -0.25000000       0.016
 
 position of ions in fractional coordinates (direct lattice) 
   0.00000000  0.00000000  0.00000000
 
 position of ions in cartesian coordinates  (Angst):
   0.00000000  0.00000000  0.00000000
 
 Euler angles ALPHA=     0.0000000  BETA=     0.0000000

 transformation matrix from SAXIS to cartesian coordinates
 ---------------------------------------------------------
     1.0000000 m_x     0.0000000 m_y     0.0000000 m_z
     0.0000000 m_x     1.0000000 m_y     0.0000000 m_z
     0.0000000 m_x     0.0000000 m_y     1.0000000 m_z

 transformation matrix from cartesian coordinates to SAXIS
 ---------------------------------------------------------
     1.0000000 m_x     0.0000000 m_y     0.0000000 m_z
     0.0000000 m_x     1.0000000 m_y     0.0000000 m_z
     0.0000000 m_x     0.0000000 m_y     1.0000000 m_z




--------------------------------------------------------------------------------------------------------


 k-point  1 :   0.0000 0.0000 0.0000  plane waves:    1402
 k-point  2 :   0.2500 0.0000 0.0000  plane waves:    1358
 k-point  3 :   0.5000 0.0000 0.0000  plane waves:    1400
 k-point  4 :  -0.2500-0.0000-0.0000  plane waves:    1358
 k-point  5 :   0.0000 0.2500-0.0000  plane waves:    1358
 k-point  6 :   0.2500 0.2500 0.0000  plane waves:    1362
 k-point  7 :   0.5000 0.2500 0.0000  plane waves:    1374
 k-point  8 :  -0.2500 0.2500-0.0000  plane waves:    1352
 k-point  9 :   0.0000 0.5000-0.0000  plane waves:    1400
 k-point 10 :   0.2500 0.5000 0.0000  plane waves:    1374
 k-point 11 :   0.5000 0.5000 0.0000  plane waves:    1384
 k-point 12 :  -0.2500 0.5000-0.0000  plane waves:    1374
 k-point 13 :  -0.0000-0.2500 0.0000  plane waves:    1358
 k-point 14 :   0.2500-0.2500 0.0000  plane waves:    1352
 k-point 15 :   0.5000-0.2500 0.0000  plane waves:    1374
 k-point 16 :  -0.2500-0.2500-0.0000  plane waves:    1362
 k-point 17 :   0.0000 0.0000 0.2500  plane waves:    1358
 k-point 18 :   0.2500-0.0000 0.2500  plane waves:    1362
 k-point 19 :   0.5000-0.0000 0.2500  plane waves:    1374
 k-point 20 :  -0.2500-0.0000 0.2500  plane waves:    1352
 k-point 21 :  -0.0000 0.2500 0.2500  plane waves:    1362
 k-point 22 :   0.2500 0.2500 0.2500  plane waves:    1358
 k-point 23 :   0.5000 0.2500 0.2500  plane waves:    1352
 k-point 24 :  -0.2500 0.2500 0.2500  plane waves:    1374
 k-point 25 :  -0.0000 0.5000 0.2500  plane waves:    1374
 k-point 26 :   0.2500 0.5000 0.2500  plane waves:    1352
 k-point 27 :   0.5000 0.5000 0.2500  plane waves:    1374
 k-point 28 :  -0.2500 0.5000 0.2500  plane waves:    1368
 k-point 29 :   0.0000-0.2500 0.2500  plane waves:    1352
 k-point 30 :   0.2500-0.2500 0.2500  plane waves:    1374
 k-point 31 :   0.5000-0.2500 0.2500  plane waves:    1368
 k-point 32 :  -0.2500-0.2500 0.2500  plane waves:    1374
 k-point 33 :   0.0000 0.0000 0.5000  plane waves:    1400
 k-point 34 :   0.2500 0.0000 0.5000  plane waves:    1374
 k-point 35 :   0.5000-0.0000 0.5000  plane waves:    1384
 k-point 36 :  -0.2500 0.0000 0.5000  plane waves:    1374
 k-point 37 :  -0.0000 0.2500 0.5000  plane waves:    1374
 k-point 38 :   0.2500 0.2500 0.5000  plane waves:    1352
 k-point 39 :   0.5000 0.2500 0.5000  plane waves:    1374
 k-point 40 :  -0.2500 0.2500 0.5000  plane waves:    1368
 k-point 41 :  -0.0000 0.5000 0.5000  plane waves:    1384
 k-point 42 :   0.2500 0.5000 0.5000  plane waves:    1374
 k-point 43 :   0.5000 0.5000 0.5000  plane waves:    1400
 k-point 44 :  -0.2500 0.5000 0.5000  plane waves:    1374
 k-point 45 :   0.0000-0.2500 0.5000  plane waves:    1374
 k-point 46 :   0.2500-0.2500 0.5000  plane waves:    1368
 k-point 47 :   0.5000-0.2500 0.5000  plane waves:    1374
 k-point 48 :  -0.2500-0.2500 0.5000  plane waves:    1352
 k-point 49 :   0.0000 0.0000-0.2500  plane waves:    1358
 k-point 50 :   0.2500 0.0000-0.2500  plane waves:    1352
 k-point 51 :   0.5000 0.0000-0.2500  plane waves:    1374
 k-point 52 :  -0.2500 0.0000-0.2500  plane waves:    1362
 k-point 53 :   0.0000 0.2500-0.2500  plane waves:    1352
 k-point 54 :   0.2500 0.2500-0.2500  plane waves:    1374
 k-point 55 :   0.5000 0.2500-0.2500  plane waves:    1368
 k-point 56 :  -0.2500 0.2500-0.2500  plane waves:    1374
 k-point 57 :   0.0000 0.5000-0.2500  plane waves:    1374
 k-point 58 :   0.2500 0.5000-0.2500  plane waves:    1368
 k-point 59 :   0.5000 0.5000-0.2500  plane waves:    1374
 k-point 60 :  -0.2500 0.5000-0.2500  plane waves:    1352
 k-point 61 :   0.0000-0.2500-0.2500  plane waves:    1362
 k-point 62 :   0.2500-0.2500-0.2500  plane waves:    1374
 k-point 63 :   0.5000-0.2500-0.2500  plane waves:    1352
 k-point 64 :  -0.2500-0.2500-0.2500  plane waves:    1358

 maximum and minimum number of plane-waves per node :       378      316

 maximum number of plane-waves:      1402
 maximum index in each direction: 
   IXMAX=    6   IYMAX=    6   IZMAX=    6
   IXMIN=   -6   IYMIN=   -6   IZMIN=   -6


 parallel 3D FFT for wavefunctions:
    minimum data exchange during FFTs selected (reduces bandwidth)
 parallel 3D FFT for charge:
    minimum data exchange during FFTs selected (reduces bandwidth)


 total amount of memory used by VASP MPI-rank0    39871. kBytes
=======================================================================

   base      :      30000. kBytes
   nonl-proj :       1661. kBytes
   fftplans  :       2882. kBytes
   grid      :       2809. kBytes
   one-center:         62. kBytes
   wavefun   :       2457. kBytes
 
     INWAV:  cpu time    0.3439: real time    0.3452
 Broyden mixing: mesh for mixing (old mesh)
   NGX = 13   NGY = 13   NGZ = 13
  (NGX  = 56   NGY  = 56   NGZ  = 56)
  gives a total of   2197 points

 charge density for first step will be calculated from the start-wavefunctions


--------------------------------------------------------------------------------------------------------


 Maximum index for augmentation-charges        10127 (set IRDMAX)


--------------------------------------------------------------------------------------------------------


 initial charge from wavefunction
 First call to EWALD:  gamma=   0.458
 Maximum number of real-space cells 3x 3x 3
 Maximum number of reciprocal cells 3x 3x 3

    FEWALD:  cpu time    0.0033: real time    0.0033


--------------------------------------- Iteration      1(   1)  ---------------------------------------


    POTLOK:  cpu time    0.0289: real time    0.0296
    SETDIJ:  cpu time    0.0445: real time    0.0444
     EDDAV:  cpu time    0.5928: real time    0.5926
       DOS:  cpu time    0.0005: real time    0.0005
    --------------------------------------------
      LOOP:  cpu time    0.6667: real time    0.6671

 eigenvalue-minimisations  :  5750
 total energy-change (2. order) :-0.4040355E+01  (-0.1253322E+03)
 number of electron      18.0000000 magnetization      -0.0076714      0.0003735      0.0002503
 augmentation part        2.9081185 magnetization       0.0006637      0.0000179      0.0000133

 Free energy of the ion-electron system (eV)
  ---------------------------------------------------
  alpha Z        PSCENC =        65.89697999
  Ewald energy   TEWEN  =     -1741.63824267
  -Hartree energ DENC   =      -679.49780559
  -exchange      EXHF   =         0.00000000
  -V(xc)+E(xc)   XCENC  =       -68.45849610
  PAW double counting   =      2312.79450522    -2243.94336287
  entropy T*S    EENTRO =        -0.00000000
  eigenvalues    EBANDS =      -289.09885691
  atomic energy  EATOM  =      2639.90492407
  Solvation  Ediel_sol  =         0.00000000
  ---------------------------------------------------
  free energy    TOTEN  =        -4.04035487 eV

  energy without entropy =       -4.04035487  energy(sigma->0) =       -4.04035487


--------------------------------------------------------------------------------------------------------




--------------------------------------- Iteration      1(   2)  ---------------------------------------


     EDDAV:  cpu time    0.5220: real time    0.5225
       DOS:  cpu time    0.0004: real time    0.0004
    --------------------------------------------
      LOOP:  cpu time    0.5224: real time    0.5230

 eigenvalue-minimisations  :  4950
 total energy-change (2. order) :-0.8724758E+01  (-0.8628972E+01)
 number of electron      18.0000000 magnetization      -0.0076714      0.0003735      0.0002503
 augmentation part        2.9081185 magnetization       0.0006637      0.0000179      0.0000133

 Free energy of the ion-electron system (eV)
  ---------------------------------------------------
  alpha Z        PSCENC =        65.89697999
  Ewald energy   TEWEN  =     -1741.63824267
  -Hartree energ DENC   =      -679.49780559
  -exchange      EXHF   =         0.00000000
  -V(xc)+E(xc)   XCENC  =       -68.45849610
  PAW double counting   =      2312.79450522    -2243.94336287
  entropy T*S    EENTRO =        -0.00000000
  eigenvalues    EBANDS =      -297.82361515
  atomic energy  EATOM  =      2639.90492407
  Solvation  Ediel_sol  =         0.00000000
  ---------------------------------------------------
  free energy    TOTEN  =       -12.76511311 eV

  energy without entropy =      -12.76511311  energy(sigma->0) =      -12.76511311


--------------------------------------------------------------------------------------------------------




--------------------------------------- Iteration      1(   3)  ---------------------------------------


     EDDAV:  cpu time    0.5878: real time    0.5875
       DOS:  cpu time    0.0005: real time    0.0005
    --------------------------------------------
      LOOP:  cpu time    0.5883: real time    0.5880

 eigenvalue-minimisations  :  5960
 total energy-change (2. order) :-0.2102588E+00  (-0.2100840E+00)
 number of electron      18.0000000 magnetization      -0.0076714      0.0003735      0.0002503
 augmentation part        2.9081185 magnetization       0.0006637      0.0000179      0.0000133

 Free energy of the ion-electron system (eV)
  ---------------------------------------------------
  alpha Z        PSCENC =        65.89697999
  Ewald energy   TEWEN  =     -1741.63824267
  -Hartree energ DENC   =      -679.49780559
  -exchange      EXHF   =         0.00000000
  -V(xc)+E(xc)   XCENC  =       -68.45849610
  PAW double counting   =      2312.79450522    -2243.94336287
  entropy T*S    EENTRO =        -0.00000000
  eigenvalues    EBANDS =      -298.03387398
  atomic energy  EATOM  =      2639.90492407
  Solvation  Ediel_sol  =         0.00000000
  ---------------------------------------------------
  free energy    TOTEN  =       -12.97537194 eV

  energy without entropy =      -12.97537194  energy(sigma->0) =      -12.97537194


--------------------------------------------------------------------------------------------------------




--------------------------------------- Iteration      1(   4)  ---------------------------------------


     EDDAV:  cpu time    0.5298: real time    0.5295
       DOS:  cpu time    0.0005: real time    0.0005
    --------------------------------------------
      LOOP:  cpu time    0.5303: real time    0.5299

 eigenvalue-minimisations  :  5040
 total energy-change (2. order) :-0.4409805E-02  (-0.4409090E-02)
 number of electron      18.0000000 magnetization      -0.0076714      0.0003735      0.0002503
 augmentation part        2.9081185 magnetization       0.0006637      0.0000179      0.0000133

 Free energy of the ion-electron system (eV)
  ---------------------------------------------------
  alpha Z        PSCENC =        65.89697999
  Ewald energy   TEWEN  =     -1741.63824267
  -Hartree energ DENC   =      -679.49780559
  -exchange      EXHF   =         0.00000000
  -V(xc)+E(xc)   XCENC  =       -68.45849610
  PAW double counting   =      2312.79450522    -2243.94336287
  entropy T*S    EENTRO =        -0.00000000
  eigenvalues    EBANDS =      -298.03828379
  atomic energy  EATOM  =      2639.90492407
  Solvation  Ediel_sol  =         0.00000000
  ---------------------------------------------------
  free energy    TOTEN  =       -12.97978175 eV

  energy without entropy =      -12.97978175  energy(sigma->0) =      -12.97978175


--------------------------------------------------------------------------------------------------------




--------------------------------------- Iteration      1(   5)  ---------------------------------------


     EDDAV:  cpu time    0.6382: real time    0.6378
       DOS:  cpu time    0.0005: real time    0.0005
    CHARGE:  cpu time    0.0620: real time    0.0620
    MIXING:  cpu time    0.0031: real time    0.0031
    --------------------------------------------
      LOOP:  cpu time    0.7047: real time    0.7033

 eigenvalue-minimisations  :  6450
 total energy-change (2. order) :-0.1483911E-03  (-0.1483886E-03)
 number of electron      18.0000000 magnetization       0.0003025      0.0009527      0.0008415
 augmentation part        2.6949524 magnetization       0.0016112      0.0000829      0.0000848

 Broyden mixing:
  rms(total) = 0.16462E+00    rms(broyden)= 0.16428E+00
  rms(prec ) = 0.39611E+00
  weight for this iteration     100.00

 Free energy of the ion-electron system (eV)
  ---------------------------------------------------
  alpha Z        PSCENC =        65.89697999
  Ewald energy   TEWEN  =     -1741.63824267
  -Hartree energ DENC   =      -679.49780559
  -exchange      EXHF   =         0.00000000
  -V(xc)+E(xc)   XCENC  =       -68.45849610
  PAW double counting   =      2312.79450522    -2243.94336287
  entropy T*S    EENTRO =        -0.00000000
  eigenvalues    EBANDS =      -298.03843218
  atomic energy  EATOM  =      2639.90492407
  Solvation  Ediel_sol  =         0.00000000
  ---------------------------------------------------
  free energy    TOTEN  =       -12.97993014 eV

  energy without entropy =      -12.97993014  energy(sigma->0) =      -12.97993014


--------------------------------------------------------------------------------------------------------




--------------------------------------- Iteration      1(   6)  ---------------------------------------


    POTLOK:  cpu time    0.0269: real time    0.0270
    SETDIJ:  cpu time    0.0449: real time    0.0449
     EDDAV:  cpu time    0.5165: real time    0.5161
       DOS:  cpu time    0.0005: real time    0.0005
    CHARGE:  cpu time    0.0600: real time    0.0600
    MIXING:  cpu time    0.0038: real time    0.0038
    --------------------------------------------
      LOOP:  cpu time    0.6516: real time    0.6522

 eigenvalue-minimisations  :  4910
 total energy-change (2. order) :-0.6697928E-01  (-0.2743095E-01)
 number of electron      18.0000000 magnetization      -0.0003734     -0.0004197     -0.0003721
 augmentation part        2.7398756 magnetization      -0.0002934     -0.0005891     -0.0005210

 Broyden mixing:
  rms(total) = 0.88123E-01    rms(broyden)= 0.88071E-01
  rms(prec ) = 0.19524E+00
  weight for this iteration     100.00

 eigenvalues of (default mixing * dielectric matrix)
  average eigenvalue GAMMA=   0.9430
  0.9430

 Free energy of the ion-electron system (eV)
  ---------------------------------------------------
  alpha Z        PSCENC =        65.89697999
  Ewald energy   TEWEN  =     -1741.63824267
  -Hartree energ DENC   =      -673.88395193
  -exchange      EXHF   =         0.00000000
  -V(xc)+E(xc)   XCENC  =       -68.58451933
  PAW double counting   =      2318.89734293    -2246.95301600
  entropy T*S    EENTRO =        -0.00000000
  eigenvalues    EBANDS =      -306.68642648
  atomic energy  EATOM  =      2639.90492407
  Solvation  Ediel_sol  =         0.00000000
  ---------------------------------------------------
  free energy    TOTEN  =       -13.04690942 eV

  energy without entropy =      -13.04690942  energy(sigma->0) =      -13.04690942


--------------------------------------------------------------------------------------------------------




--------------------------------------- Iteration      1(   7)  ---------------------------------------


    POTLOK:  cpu time    0.0267: real time    0.0267
    SETDIJ:  cpu time    0.0429: real time    0.0429
     EDDAV:  cpu time    0.5201: real time    0.5196
       DOS:  cpu time    0.0005: real time    0.0005
    CHARGE:  cpu time    0.0590: real time    0.0590
    MIXING:  cpu time    0.0043: real time    0.0043
    --------------------------------------------
      LOOP:  cpu time    0.6534: real time    0.6530

 eigenvalue-minimisations  :  5030
 total energy-change (2. order) :-0.7883611E-01  (-0.6842514E-02)
 number of electron      18.0000000 magnetization       0.0002485      0.0002573      0.0001969
 augmentation part        2.7607955 magnetization       0.0002645      0.0002622      0.0002202

 Broyden mixing:
  rms(total) = 0.53433E-01    rms(broyden)= 0.53421E-01
  rms(prec ) = 0.11320E+00
  weight for this iteration     100.00

 eigenvalues of (default mixing * dielectric matrix)
  average eigenvalue GAMMA=   1.1998
  1.7138  0.6859

 Free energy of the ion-electron system (eV)
  ---------------------------------------------------
  alpha Z        PSCENC =        65.89697999
  Ewald energy   TEWEN  =     -1741.63824267
  -Hartree energ DENC   =      -671.83162332
  -exchange      EXHF   =         0.00000000
  -V(xc)+E(xc)   XCENC  =       -68.66001693
  PAW double counting   =      2330.98257701    -2256.93787324
  entropy T*S    EENTRO =        -0.00000000
  eigenvalues    EBANDS =      -310.84247044
  atomic energy  EATOM  =      2639.90492407
  Solvation  Ediel_sol  =         0.00000000
  ---------------------------------------------------
  free energy    TOTEN  =       -13.12574553 eV

  energy without entropy =      -13.12574553  energy(sigma->0) =      -13.12574553


--------------------------------------------------------------------------------------------------------




--------------------------------------- Iteration      1(   8)  ---------------------------------------


    POTLOK:  cpu time    0.0255: real time    0.0255
    SETDIJ:  cpu time    0.0446: real time    0.0445
     EDDAV:  cpu time    0.5982: real time    0.5978
       DOS:  cpu time    0.0005: real time    0.0005
    CHARGE:  cpu time    0.0593: real time    0.0593
    MIXING:  cpu time    0.0047: real time    0.0047
    --------------------------------------------
      LOOP:  cpu time    0.7328: real time    0.7324

 eigenvalue-minimisations  :  5910
 total energy-change (2. order) :-0.2220547E-01  (-0.6445417E-03)
 number of electron      18.0000000 magnetization       0.0001947      0.0003338      0.0002865
 augmentation part        2.7624885 magnetization       0.0001976      0.0002917      0.0002581

 Broyden mixing:
  rms(total) = 0.37607E-01    rms(broyden)= 0.37604E-01
  rms(prec ) = 0.65782E-01
  weight for this iteration     100.00

 eigenvalues of (default mixing * dielectric matrix)
  average eigenvalue GAMMA=   1.4900
  2.4455  1.3762  0.6483

 Free energy of the ion-electron system (eV)
  ---------------------------------------------------
  alpha Z        PSCENC =        65.89697999
  Ewald energy   TEWEN  =     -1741.63824267
  -Hartree energ DENC   =      -672.01409237
  -exchange      EXHF   =         0.00000000
  -V(xc)+E(xc)   XCENC  =       -68.69152515
  PAW double counting   =      2338.14605180    -2263.28416051
  entropy T*S    EENTRO =        -0.00000000
  eigenvalues    EBANDS =      -311.46788617
  atomic energy  EATOM  =      2639.90492407
  Solvation  Ediel_sol  =         0.00000000
  ---------------------------------------------------
  free energy    TOTEN  =       -13.14795100 eV

  energy without entropy =      -13.14795100  energy(sigma->0) =      -13.14795100


--------------------------------------------------------------------------------------------------------




--------------------------------------- Iteration      1(   9)  ---------------------------------------


    POTLOK:  cpu time    0.0251: real time    0.0252
    SETDIJ:  cpu time    0.0432: real time    0.0432
     EDDAV:  cpu time    0.5075: real time    0.5071
       DOS:  cpu time    0.0009: real time    0.0009
    CHARGE:  cpu time    0.0611: real time    0.0610
    MIXING:  cpu time    0.0033: real time    0.0033
    --------------------------------------------
      LOOP:  cpu time    0.6411: real time    0.6406

 eigenvalue-minimisations  :  4810
 total energy-change (2. order) :-0.4737745E-02  (-0.4147704E-03)
 number of electron      18.0000000 magnetization       0.0006482      0.0012342      0.0008493
 augmentation part        2.7622193 magnetization      -0.0002668     -0.0005114     -0.0003286

 Broyden mixing:
  rms(total) = 0.89011E-02    rms(broyden)= 0.88963E-02
  rms(prec ) = 0.17440E-01
  weight for this iteration     100.00

 eigenvalues of (default mixing * dielectric matrix)
  average eigenvalue GAMMA=   1.4041
  2.7405  1.5185  0.7261  0.6315

 Free energy of the ion-electron system (eV)
  ---------------------------------------------------
  alpha Z        PSCENC =        65.89697999
  Ewald energy   TEWEN  =     -1741.63824267
  -Hartree energ DENC   =      -672.40306635
  -exchange      EXHF   =         0.00000000
  -V(xc)+E(xc)   XCENC  =       -68.72287557
  PAW double counting   =      2342.57012243    -2267.01278154
  entropy T*S    EENTRO =        -0.00000800
  eigenvalues    EBANDS =      -311.74774109
  atomic energy  EATOM  =      2639.90492407
  Solvation  Ediel_sol  =         0.00000000
  ---------------------------------------------------
  free energy    TOTEN  =       -13.15268875 eV

  energy without entropy =      -13.15268075  energy(sigma->0) =      -13.15268475


--------------------------------------------------------------------------------------------------------




--------------------------------------- Iteration      1(  10)  ---------------------------------------


    POTLOK:  cpu time    0.0254: real time    0.0255
    SETDIJ:  cpu time    0.0439: real time    0.0438
     EDDAV:  cpu time    0.5916: real time    0.5914
       DOS:  cpu time    0.0010: real time    0.0009
    CHARGE:  cpu time    0.0622: real time    0.0622
    MIXING:  cpu time    0.0030: real time    0.0030
    --------------------------------------------
      LOOP:  cpu time    0.7271: real time    0.7269

 eigenvalue-minimisations  :  5790
 total energy-change (2. order) :-0.2329551E-03  (-0.3798756E-04)
 number of electron      18.0000000 magnetization       0.0055724      0.0111138      0.0076996
 augmentation part        2.7620952 magnetization       0.0022546      0.0045300      0.0031469

 Broyden mixing:
  rms(total) = 0.60667E-02    rms(broyden)= 0.60662E-02
  rms(prec ) = 0.94423E-02
  weight for this iteration     100.00

 eigenvalues of (default mixing * dielectric matrix)
  average eigenvalue GAMMA=   1.1704
  2.7371  1.5194  0.7335  0.6316  0.2305

 Free energy of the ion-electron system (eV)
  ---------------------------------------------------
  alpha Z        PSCENC =        65.89697999
  Ewald energy   TEWEN  =     -1741.63824267
  -Hartree energ DENC   =      -672.33986892
  -exchange      EXHF   =         0.00000000
  -V(xc)+E(xc)   XCENC  =       -68.72485464
  PAW double counting   =      2340.91060373    -2265.39402894
  entropy T*S    EENTRO =        -0.00000193
  eigenvalues    EBANDS =      -311.76843237
  atomic energy  EATOM  =      2639.90492407
  Solvation  Ediel_sol  =         0.00000000
  ---------------------------------------------------
  free energy    TOTEN  =       -13.15292170 eV

  energy without entropy =      -13.15291977  energy(sigma->0) =      -13.15292073


--------------------------------------------------------------------------------------------------------




--------------------------------------- Iteration      1(  11)  ---------------------------------------


    POTLOK:  cpu time    0.0266: real time    0.0267
    SETDIJ:  cpu time    0.0461: real time    0.0460
     EDDAV:  cpu time    0.5243: real time    0.5239
       DOS:  cpu time    0.0005: real time    0.0005
    CHARGE:  cpu time    0.0591: real time    0.0591
    MIXING:  cpu time    0.0047: real time    0.0047
    --------------------------------------------
      LOOP:  cpu time    0.6611: real time    0.6608

 eigenvalue-minimisations  :  4950
 total energy-change (2. order) :-0.2299616E-03  (-0.4030929E-04)
 number of electron      18.0000000 magnetization       0.0050369      0.0096856      0.0066833
 augmentation part        2.7617484 magnetization       0.0012208      0.0024774      0.0017223

 Broyden mixing:
  rms(total) = 0.43327E-02    rms(broyden)= 0.43327E-02
  rms(prec ) = 0.52661E-02
  weight for this iteration     100.00

 eigenvalues of (default mixing * dielectric matrix)
  average eigenvalue GAMMA=   1.3442
  2.7776  1.9505  1.4558  0.7275  0.6356  0.5181

 Free energy of the ion-electron system (eV)
  ---------------------------------------------------
  alpha Z        PSCENC =        65.89697999
  Ewald energy   TEWEN  =     -1741.63824267
  -Hartree energ DENC   =      -672.20557736
  -exchange      EXHF   =         0.00000000
  -V(xc)+E(xc)   XCENC  =       -68.72952345
  PAW double counting   =      2337.77889759    -2262.31913458
  entropy T*S    EENTRO =        -0.00000000
  eigenvalues    EBANDS =      -311.84147525
  atomic energy  EATOM  =      2639.90492407
  Solvation  Ediel_sol  =         0.00000000
  ---------------------------------------------------
  free energy    TOTEN  =       -13.15315166 eV

  energy without entropy =      -13.15315166  energy(sigma->0) =      -13.15315166


--------------------------------------------------------------------------------------------------------




--------------------------------------- Iteration      1(  12)  ---------------------------------------


    POTLOK:  cpu time    0.0253: real time    0.0254
    SETDIJ:  cpu time    0.0436: real time    0.0436
     EDDAV:  cpu time    0.5116: real time    0.5112
       DOS:  cpu time    0.0005: real time    0.0005
    CHARGE:  cpu time    0.0621: real time    0.0621
    MIXING:  cpu time    0.0029: real time    0.0029
    --------------------------------------------
      LOOP:  cpu time    0.6459: real time    0.6455

 eigenvalue-minimisations  :  4900
 total energy-change (2. order) :-0.8777372E-04  (-0.6750464E-05)
 number of electron      18.0000000 magnetization       0.0038413      0.0066616      0.0045472
 augmentation part        2.7615092 magnetization      -0.0001061     -0.0003491     -0.0002485

 Broyden mixing:
  rms(total) = 0.24228E-02    rms(broyden)= 0.24227E-02
  rms(prec ) = 0.28036E-02
  weight for this iteration     100.00

 eigenvalues of (default mixing * dielectric matrix)
  average eigenvalue GAMMA=   1.2909
  2.8069  2.0835  1.4835  0.7257  0.6308  0.6530  0.6530

 Free energy of the ion-electron system (eV)
  ---------------------------------------------------
  alpha Z        PSCENC =        65.89697999
  Ewald energy   TEWEN  =     -1741.63824267
  -Hartree energ DENC   =      -672.15148246
  -exchange      EXHF   =         0.00000000
  -V(xc)+E(xc)   XCENC  =       -68.73121314
  PAW double counting   =      2336.37886111    -2260.95790530
  entropy T*S    EENTRO =        -0.00000000
  eigenvalues    EBANDS =      -311.85516104
  atomic energy  EATOM  =      2639.90492407
  Solvation  Ediel_sol  =         0.00000000
  ---------------------------------------------------
  free energy    TOTEN  =       -13.15323944 eV

  energy without entropy =      -13.15323944  energy(sigma->0) =      -13.15323944


--------------------------------------------------------------------------------------------------------




--------------------------------------- Iteration      1(  13)  ---------------------------------------


    POTLOK:  cpu time    0.0255: real time    0.0255
    SETDIJ:  cpu time    0.0441: real time    0.0440
     EDDAV:  cpu time    0.5294: real time    0.5290
       DOS:  cpu time    0.0005: real time    0.0005
    CHARGE:  cpu time    0.0618: real time    0.0617
    MIXING:  cpu time    0.0035: real time    0.0035
    --------------------------------------------
      LOOP:  cpu time    0.6648: real time    0.6643

 eigenvalue-minimisations  :  4800
 total energy-change (2. order) :-0.3685430E-04  (-0.3751039E-05)
 number of electron      18.0000000 magnetization       0.0035042      0.0055239      0.0037136
 augmentation part        2.7614130 magnetization      -0.0004313     -0.0010340     -0.0007311

 Broyden mixing:
  rms(total) = 0.73615E-03    rms(broyden)= 0.73605E-03
  rms(prec ) = 0.11066E-02
  weight for this iteration     100.00

 eigenvalues of (default mixing * dielectric matrix)
  average eigenvalue GAMMA=   1.3478
  2.9801  2.4958  1.5711  0.8851  0.8851  0.7197  0.6058  0.6393

 Free energy of the ion-electron system (eV)
  ---------------------------------------------------
  alpha Z        PSCENC =        65.89697999
  Ewald energy   TEWEN  =     -1741.63824267
  -Hartree energ DENC   =      -672.14667572
  -exchange      EXHF   =         0.00000000
  -V(xc)+E(xc)   XCENC  =       -68.73079262
  PAW double counting   =      2336.33018643    -2260.92816837
  entropy T*S    EENTRO =        -0.00000000
  eigenvalues    EBANDS =      -311.84148740
  atomic energy  EATOM  =      2639.90492407
  Solvation  Ediel_sol  =         0.00000000
  ---------------------------------------------------
  free energy    TOTEN  =       -13.15327629 eV

  energy without entropy =      -13.15327629  energy(sigma->0) =      -13.15327629


--------------------------------------------------------------------------------------------------------




--------------------------------------- Iteration      1(  14)  ---------------------------------------


    POTLOK:  cpu time    0.0260: real time    0.0261
    SETDIJ:  cpu time    0.0461: real time    0.0461
     EDDAV:  cpu time    0.5386: real time    0.5381
       DOS:  cpu time    0.0005: real time    0.0005
    CHARGE:  cpu time    0.0619: real time    0.0618
    MIXING:  cpu time    0.0028: real time    0.0028
    --------------------------------------------
      LOOP:  cpu time    0.6758: real time    0.6754

 eigenvalue-minimisations  :  5060
 total energy-change (2. order) :-0.4424995E-05  (-0.1091349E-05)
 number of electron      18.0000000 magnetization       0.0039614      0.0055748      0.0036908
 augmentation part        2.7613685 magnetization      -0.0001524     -0.0006275     -0.0004570

 Broyden mixing:
  rms(total) = 0.40432E-03    rms(broyden)= 0.40428E-03
  rms(prec ) = 0.54632E-03
  weight for this iteration     100.00

 eigenvalues of (default mixing * dielectric matrix)
  average eigenvalue GAMMA=   1.3274
  3.0788  2.5297  1.6596  1.1217  0.7839  0.7839  0.7436  0.6082  0.6378

 Free energy of the ion-electron system (eV)
  ---------------------------------------------------
  alpha Z        PSCENC =        65.89697999
  Ewald energy   TEWEN  =     -1741.63824267
  -Hartree energ DENC   =      -672.14463474
  -exchange      EXHF   =         0.00000000
  -V(xc)+E(xc)   XCENC  =       -68.73029279
  PAW double counting   =      2336.42123705    -2261.03127434
  entropy T*S    EENTRO =        -0.00000000
  eigenvalues    EBANDS =      -311.83197728
  atomic energy  EATOM  =      2639.90492407
  Solvation  Ediel_sol  =         0.00000000
  ---------------------------------------------------
  free energy    TOTEN  =       -13.15328072 eV

  energy without entropy =      -13.15328072  energy(sigma->0) =      -13.15328072


--------------------------------------------------------------------------------------------------------




--------------------------------------- Iteration      1(  15)  ---------------------------------------


    POTLOK:  cpu time    0.0258: real time    0.0259
    SETDIJ:  cpu time    0.0443: real time    0.0443
     EDDAV:  cpu time    0.5117: real time    0.5113
       DOS:  cpu time    0.0005: real time    0.0005
    CHARGE:  cpu time    0.0591: real time    0.0591
    MIXING:  cpu time    0.0047: real time    0.0047
    --------------------------------------------
      LOOP:  cpu time    0.6462: real time    0.6458

 eigenvalue-minimisations  :  4750
 total energy-change (2. order) :-0.2578912E-05  (-0.8679243E-06)
 number of electron      18.0000000 magnetization       0.0040257      0.0053581      0.0035123
 augmentation part        2.7613754 magnetization      -0.0002407     -0.0003950     -0.0002656

 Broyden mixing:
  rms(total) = 0.16216E-03    rms(broyden)= 0.16215E-03
  rms(prec ) = 0.17463E-03
  weight for this iteration     100.00

 eigenvalues of (default mixing * dielectric matrix)
  average eigenvalue GAMMA=   1.3764
  3.2306  2.5470  2.1225  1.4158  0.9193  0.9193  0.7263  0.6555  0.6139  0.6139

 Free energy of the ion-electron system (eV)
  ---------------------------------------------------
  alpha Z        PSCENC =        65.89697999
  Ewald energy   TEWEN  =     -1741.63824267
  -Hartree energ DENC   =      -672.14509313
  -exchange      EXHF   =         0.00000000
  -V(xc)+E(xc)   XCENC  =       -68.72989433
  PAW double counting   =      2336.58778672    -2261.20148511
  entropy T*S    EENTRO =        -0.00000000
  eigenvalues    EBANDS =      -311.82825883
  atomic energy  EATOM  =      2639.90492407
  Solvation  Ediel_sol  =         0.00000000
  ---------------------------------------------------
  free energy    TOTEN  =       -13.15328329 eV

  energy without entropy =      -13.15328329  energy(sigma->0) =      -13.15328329


--------------------------------------------------------------------------------------------------------




--------------------------------------- Iteration      1(  16)  ---------------------------------------


    POTLOK:  cpu time    0.0254: real time    0.0255
    SETDIJ:  cpu time    0.0445: real time    0.0445
     EDDAV:  cpu time    0.5032: real time    0.5028
       DOS:  cpu time    0.0005: real time    0.0005
    CHARGE:  cpu time    0.0586: real time    0.0586
    MIXING:  cpu time    0.0052: real time    0.0052
    --------------------------------------------
      LOOP:  cpu time    0.6374: real time    0.6370

 eigenvalue-minimisations  :  4670
 total energy-change (2. order) :-0.8337884E-07  (-0.5744055E-06)
 number of electron      18.0000000 magnetization       0.0040657      0.0053087      0.0034604
 augmentation part        2.7613796 magnetization      -0.0002750     -0.0003688     -0.0002403

 Broyden mixing:
  rms(total) = 0.79536E-04    rms(broyden)= 0.79531E-04
  rms(prec ) = 0.83991E-04
  weight for this iteration     100.00

 eigenvalues of (default mixing * dielectric matrix)
  average eigenvalue GAMMA=   1.3505
  3.2826  2.5484  2.3803  1.4673  1.1584  0.7802  0.7802  0.6917  0.6488  0.6141
  0.5036

 Free energy of the ion-electron system (eV)
  ---------------------------------------------------
  alpha Z        PSCENC =        65.89697999
  Ewald energy   TEWEN  =     -1741.63824267
  -Hartree energ DENC   =      -672.14547405
  -exchange      EXHF   =         0.00000000
  -V(xc)+E(xc)   XCENC  =       -68.72983108
  PAW double counting   =      2336.62546146    -2261.23920347
  entropy T*S    EENTRO =        -0.00000000
  eigenvalues    EBANDS =      -311.82789763
  atomic energy  EATOM  =      2639.90492407
  Solvation  Ediel_sol  =         0.00000000
  ---------------------------------------------------
  free energy    TOTEN  =       -13.15328338 eV

  energy without entropy =      -13.15328338  energy(sigma->0) =      -13.15328338


--------------------------------------------------------------------------------------------------------




--------------------------------------- Iteration      1(  17)  ---------------------------------------


    POTLOK:  cpu time    0.0258: real time    0.0258
    SETDIJ:  cpu time    0.0449: real time    0.0448
     EDDAV:  cpu time    0.4943: real time    0.4939
       DOS:  cpu time    0.0005: real time    0.0005
    CHARGE:  cpu time    0.0612: real time    0.0611
    MIXING:  cpu time    0.0041: real time    0.0041
    --------------------------------------------
      LOOP:  cpu time    0.6306: real time    0.6302

 eigenvalue-minimisations  :  4590
 total energy-change (2. order) : 0.8107691E-07  (-0.2637447E-06)
 number of electron      18.0000000 magnetization       0.0040884      0.0051180      0.0033008
 augmentation part        2.7613816 magnetization      -0.0002553     -0.0004367     -0.0003021

 Broyden mixing:
  rms(total) = 0.50988E-04    rms(broyden)= 0.50987E-04
  rms(prec ) = 0.54519E-04
  weight for this iteration     100.00

 eigenvalues of (default mixing * dielectric matrix)
  average eigenvalue GAMMA=   1.3737
  3.3294  2.6541  2.6361  1.6557  1.3638  0.9135  0.9135  0.6911  0.6391  0.6391
  0.6324  0.4165

 Free energy of the ion-electron system (eV)
  ---------------------------------------------------
  alpha Z        PSCENC =        65.89697999
  Ewald energy   TEWEN  =     -1741.63824267
  -Hartree energ DENC   =      -672.14547639
  -exchange      EXHF   =         0.00000000
  -V(xc)+E(xc)   XCENC  =       -68.72982724
  PAW double counting   =      2336.63197952    -2261.24560581
  entropy T*S    EENTRO =        -0.00000000
  eigenvalues    EBANDS =      -311.82801476
  atomic energy  EATOM  =      2639.90492407
  Solvation  Ediel_sol  =         0.00000000
  ---------------------------------------------------
  free energy    TOTEN  =       -13.15328330 eV

  energy without entropy =      -13.15328330  energy(sigma->0) =      -13.15328330


--------------------------------------------------------------------------------------------------------




--------------------------------------- Iteration      1(  18)  ---------------------------------------


    POTLOK:  cpu time    0.0265: real time    0.0265
    SETDIJ:  cpu time    0.0452: real time    0.0451
     EDDAV:  cpu time    0.4995: real time    0.4991
       DOS:  cpu time    0.0010: real time    0.0005
    CHARGE:  cpu time    0.0594: real time    0.0598
    MIXING:  cpu time    0.0051: real time    0.0051
    --------------------------------------------
      LOOP:  cpu time    0.6366: real time    0.6362

 eigenvalue-minimisations  :  4640
 total energy-change (2. order) :-0.1156586E-06  (-0.1373800E-06)
 number of electron      18.0000000 magnetization       0.0041069      0.0050249      0.0032147
 augmentation part        2.7613836 magnetization      -0.0002769     -0.0003977     -0.0002634

 Broyden mixing:
  rms(total) = 0.38031E-04    rms(broyden)= 0.38029E-04
  rms(prec ) = 0.39162E-04
  weight for this iteration     100.00

 eigenvalues of (default mixing * dielectric matrix)
  average eigenvalue GAMMA=   1.3498
  3.4120  2.9143  2.5782  1.8439  1.3912  0.9556  0.9042  0.7058  0.6433  0.6433
  0.6266  0.5640  0.3653

 Free energy of the ion-electron system (eV)
  ---------------------------------------------------
  alpha Z        PSCENC =        65.89697999
  Ewald energy   TEWEN  =     -1741.63824267
  -Hartree energ DENC   =      -672.14544212
  -exchange      EXHF   =         0.00000000
  -V(xc)+E(xc)   XCENC  =       -68.72982695
  PAW double counting   =      2336.63854724    -2261.25208819
  entropy T*S    EENTRO =        -0.00000000
  eigenvalues    EBANDS =      -311.82813478
  atomic energy  EATOM  =      2639.90492407
  Solvation  Ediel_sol  =         0.00000000
  ---------------------------------------------------
  free energy    TOTEN  =       -13.15328341 eV

  energy without entropy =      -13.15328341  energy(sigma->0) =      -13.15328341


--------------------------------------------------------------------------------------------------------




--------------------------------------- Iteration      1(  19)  ---------------------------------------


    POTLOK:  cpu time    0.0263: real time    0.0264
    SETDIJ:  cpu time    0.0444: real time    0.0444
     EDDAV:  cpu time    0.4626: real time    0.4622
       DOS:  cpu time    0.0005: real time    0.0005
    CHARGE:  cpu time    0.0613: real time    0.0613
    MIXING:  cpu time    0.0040: real time    0.0039
    --------------------------------------------
      LOOP:  cpu time    0.5990: real time    0.5987

 eigenvalue-minimisations  :  4070
 total energy-change (2. order) : 0.3363311E-08  (-0.6997427E-07)
 number of electron      18.0000000 magnetization       0.0041171      0.0049150      0.0031228
 augmentation part        2.7613835 magnetization      -0.0002696     -0.0003959     -0.0002672

 Broyden mixing:
  rms(total) = 0.28097E-04    rms(broyden)= 0.28095E-04
  rms(prec ) = 0.28543E-04
  weight for this iteration     100.00

 eigenvalues of (default mixing * dielectric matrix)
  average eigenvalue GAMMA=   1.3770
  3.9094  3.1961  2.5635  2.1218  1.4238  1.0075  0.8688  0.7239  0.7239  0.7145
  0.6267  0.6079  0.4283  0.3622

 Free energy of the ion-electron system (eV)
  ---------------------------------------------------
  alpha Z        PSCENC =        65.89697999
  Ewald energy   TEWEN  =     -1741.63824267
  -Hartree energ DENC   =      -672.14544605
  -exchange      EXHF   =         0.00000000
  -V(xc)+E(xc)   XCENC  =       -68.72983015
  PAW double counting   =      2336.63959727    -2261.25311775
  entropy T*S    EENTRO =        -0.00000000
  eigenvalues    EBANDS =      -311.82814811
  atomic energy  EATOM  =      2639.90492407
  Solvation  Ediel_sol  =         0.00000000
  ---------------------------------------------------
  free energy    TOTEN  =       -13.15328341 eV

  energy without entropy =      -13.15328341  energy(sigma->0) =      -13.15328341


--------------------------------------------------------------------------------------------------------




--------------------------------------- Iteration      1(  20)  ---------------------------------------


    POTLOK:  cpu time    0.0253: real time    0.0253
    SETDIJ:  cpu time    0.0441: real time    0.0440
     EDDAV:  cpu time    0.4435: real time    0.4431
       DOS:  cpu time    0.0005: real time    0.0005
    CHARGE:  cpu time    0.0589: real time    0.0588
    MIXING:  cpu time    0.0054: real time    0.0053
    --------------------------------------------
      LOOP:  cpu time    0.5775: real time    0.5771

 eigenvalue-minimisations  :  3960
 total energy-change (2. order) :-0.1956460E-07  (-0.5539403E-07)
 number of electron      18.0000000 magnetization       0.0041338      0.0048432      0.0030568
 augmentation part        2.7613838 magnetization      -0.0002824     -0.0003690     -0.0002365

 Broyden mixing:
  rms(total) = 0.25440E-04    rms(broyden)= 0.25438E-04
  rms(prec ) = 0.25703E-04
  weight for this iteration     100.00

 eigenvalues of (default mixing * dielectric matrix)
  average eigenvalue GAMMA=   1.4194
  5.0775  3.2648  2.5599  2.2573  1.4418  1.0173  1.0173  0.7482  0.7482  0.6983
  0.6320  0.5905  0.5905  0.3877  0.2603

 Free energy of the ion-electron system (eV)
  ---------------------------------------------------
  alpha Z        PSCENC =        65.89697999
  Ewald energy   TEWEN  =     -1741.63824267
  -Hartree energ DENC   =      -672.14544632
  -exchange      EXHF   =         0.00000000
  -V(xc)+E(xc)   XCENC  =       -68.72983376
  PAW double counting   =      2336.64027223    -2261.25376280
  entropy T*S    EENTRO =        -0.00000000
  eigenvalues    EBANDS =      -311.82817416
  atomic energy  EATOM  =      2639.90492407
  Solvation  Ediel_sol  =         0.00000000
  ---------------------------------------------------
  free energy    TOTEN  =       -13.15328343 eV

  energy without entropy =      -13.15328343  energy(sigma->0) =      -13.15328343


--------------------------------------------------------------------------------------------------------




--------------------------------------- Iteration      1(  21)  ---------------------------------------


    POTLOK:  cpu time    0.0256: real time    0.0257
    SETDIJ:  cpu time    0.0453: real time    0.0453
     EDDAV:  cpu time    0.4758: real time    0.4754
       DOS:  cpu time    0.0005: real time    0.0005
    CHARGE:  cpu time    0.0590: real time    0.0590
    MIXING:  cpu time    0.0054: real time    0.0054
    --------------------------------------------
      LOOP:  cpu time    0.6117: real time    0.6114

 eigenvalue-minimisations  :  4310
 total energy-change (2. order) : 0.2587967E-08  (-0.1578101E-07)
 number of electron      18.0000000 magnetization       0.0041323      0.0047597      0.0029858
 augmentation part        2.7613838 magnetization      -0.0002772     -0.0003759     -0.0002464

 Broyden mixing:
  rms(total) = 0.17842E-04    rms(broyden)= 0.17841E-04
  rms(prec ) = 0.18306E-04
  weight for this iteration     100.00

 eigenvalues of (default mixing * dielectric matrix)
  average eigenvalue GAMMA=   1.4428
  6.1664  3.2841  2.5616  2.3138  1.4568  1.0371  1.0371  0.7958  0.7958  0.6881
  0.6302  0.6302  0.6308  0.4259  0.3386  0.2918

 Free energy of the ion-electron system (eV)
  ---------------------------------------------------
  alpha Z        PSCENC =        65.89697999
  Ewald energy   TEWEN  =     -1741.63824267
  -Hartree energ DENC   =      -672.14544622
  -exchange      EXHF   =         0.00000000
  -V(xc)+E(xc)   XCENC  =       -68.72983593
  PAW double counting   =      2336.64035152    -2261.25382241
  entropy T*S    EENTRO =        -0.00000000
  eigenvalues    EBANDS =      -311.82819177
  atomic energy  EATOM  =      2639.90492407
  Solvation  Ediel_sol  =         0.00000000
  ---------------------------------------------------
  free energy    TOTEN  =       -13.15328343 eV

  energy without entropy =      -13.15328343  energy(sigma->0) =      -13.15328343


--------------------------------------------------------------------------------------------------------




--------------------------------------- Iteration      1(  22)  ---------------------------------------


    POTLOK:  cpu time    0.0259: real time    0.0260
    SETDIJ:  cpu time    0.0441: real time    0.0441
     EDDAV:  cpu time    0.4590: real time    0.4587
       DOS:  cpu time    0.0005: real time    0.0005
    CHARGE:  cpu time    0.0594: real time    0.0594
    MIXING:  cpu time    0.0052: real time    0.0052
    --------------------------------------------
      LOOP:  cpu time    0.5942: real time    0.5938

 eigenvalue-minimisations  :  4040
 total energy-change (2. order) :-0.1027229E-07  (-0.2114532E-07)
 number of electron      18.0000000 magnetization       0.0041523      0.0046775      0.0029083
 augmentation part        2.7613838 magnetization      -0.0002857     -0.0003895     -0.0002575

 Broyden mixing:
  rms(total) = 0.17811E-04    rms(broyden)= 0.17810E-04
  rms(prec ) = 0.18340E-04
  weight for this iteration     100.00

 eigenvalues of (default mixing * dielectric matrix)
  average eigenvalue GAMMA=   1.4100
  6.3989  3.2885  2.5665  2.3154  1.4648  1.0863  1.0863  0.8518  0.8518  0.6933
  0.6351  0.6351  0.6326  0.5142  0.3724  0.3249  0.2515

 Free energy of the ion-electron system (eV)
  ---------------------------------------------------
  alpha Z        PSCENC =        65.89697999
  Ewald energy   TEWEN  =     -1741.63824267
  -Hartree energ DENC   =      -672.14544880
  -exchange      EXHF   =         0.00000000
  -V(xc)+E(xc)   XCENC  =       -68.72983673
  PAW double counting   =      2336.64047886    -2261.25394118
  entropy T*S    EENTRO =        -0.00000000
  eigenvalues    EBANDS =      -311.82819696
  atomic energy  EATOM  =      2639.90492407
  Solvation  Ediel_sol  =         0.00000000
  ---------------------------------------------------
  free energy    TOTEN  =       -13.15328344 eV

  energy without entropy =      -13.15328344  energy(sigma->0) =      -13.15328344


--------------------------------------------------------------------------------------------------------




--------------------------------------- Iteration      1(  23)  ---------------------------------------


    POTLOK:  cpu time    0.0258: real time    0.0259
    SETDIJ:  cpu time    0.0453: real time    0.0453
     EDDAV:  cpu time    0.4505: real time    0.4502
       DOS:  cpu time    0.0005: real time    0.0005
    CHARGE:  cpu time    0.0589: real time    0.0588
    MIXING:  cpu time    0.0056: real time    0.0056
    --------------------------------------------
      LOOP:  cpu time    0.5866: real time    0.5862

 eigenvalue-minimisations  :  3960
 total energy-change (2. order) : 0.1346370E-07  (-0.2457435E-07)
 number of electron      18.0000000 magnetization       0.0041673      0.0046117      0.0028524
 augmentation part        2.7613837 magnetization      -0.0002709     -0.0003490     -0.0002299

 Broyden mixing:
  rms(total) = 0.14331E-04    rms(broyden)= 0.14330E-04
  rms(prec ) = 0.14691E-04
  weight for this iteration     100.00

 eigenvalues of (default mixing * dielectric matrix)
  average eigenvalue GAMMA=   1.3841
  6.4489  3.2945  2.5731  2.3077  1.4823  1.2303  1.2303  0.9008  0.9008  0.6919
  0.6511  0.6511  0.6312  0.5860  0.4228  0.3749  0.2820  0.2535

 Free energy of the ion-electron system (eV)
  ---------------------------------------------------
  alpha Z        PSCENC =        65.89697999
  Ewald energy   TEWEN  =     -1741.63824267
  -Hartree energ DENC   =      -672.14545123
  -exchange      EXHF   =         0.00000000
  -V(xc)+E(xc)   XCENC  =       -68.72983672
  PAW double counting   =      2336.63999341    -2261.25346062
  entropy T*S    EENTRO =        -0.00000000
  eigenvalues    EBANDS =      -311.82818965
  atomic energy  EATOM  =      2639.90492407
  Solvation  Ediel_sol  =         0.00000000
  ---------------------------------------------------
  free energy    TOTEN  =       -13.15328342 eV

  energy without entropy =      -13.15328342  energy(sigma->0) =      -13.15328342


--------------------------------------------------------------------------------------------------------




--------------------------------------- Iteration      1(  24)  ---------------------------------------


    POTLOK:  cpu time    0.0259: real time    0.0260
    SETDIJ:  cpu time    0.0446: real time    0.0445
     EDDAV:  cpu time    0.4466: real time    0.4463
       DOS:  cpu time    0.0005: real time    0.0005
[...]
    0.000000  547.548874  547.476720  547.508952  -78.373066 -117.163754 -127.399951
    0.552251    8.584630    8.583701    8.584056    3.481853    5.196897    5.659682
    1.104503    1.650181    1.650114    1.650108    0.380243    0.566308    0.618064
    1.656754    1.755620    1.755587    1.755578    0.109127    0.161726    0.177390
    2.209006    9.338246    9.338284    9.338277    0.041112    0.059878    0.066956
    2.761257   11.310749   11.310770   11.310755    0.027148    0.040285    0.044046
    3.313509    1.175651    1.175621    1.175608    0.017110    0.025290    0.027688
    3.865760    6.126417    6.126458    6.126432    0.010750    0.015449    0.017364
    4.418012    4.201786    4.201693    4.201657    0.006216    0.007615    0.010008
    4.970263   22.327356   22.327391   22.327174   -0.002509   -0.008053   -0.004230
    5.522515    8.195190    8.203104    8.204109    0.015831    0.047701    0.035105
    6.074766    3.114181    3.113287    3.118696    0.006205    0.018796    0.014774
    6.627018    3.897672    3.898798    3.901931    0.032297    0.051951    0.053045
    7.179269    2.316696    2.241621    2.226747   -0.044866   -0.159116   -0.114233
    7.731521    4.082913    4.090697    4.090314    0.004067    0.012812    0.007177
    8.283772    1.279489    1.279310    1.279686   -0.001454   -0.001649   -0.001702
    8.836024    1.218230    1.217914    1.217899   -0.000096   -0.000610   -0.000451
    9.388275    2.287221    2.274884    2.273342    0.011836   -0.000931    0.008713
    9.940526    1.753366    1.755679    1.755991   -0.002358   -0.001189   -0.001752
   10.492778    0.473530    0.473741    0.473662   -0.000732   -0.000808   -0.001179
   11.045029    1.140627    1.131415    1.132883    0.003074   -0.007922    0.003472
   11.597281    0.475516    0.471404    0.470068    0.004400    0.004093    0.004719
   12.149532    0.130246    0.130213    0.130201   -0.000915   -0.001375   -0.001514
   12.701784    0.199680    0.200091    0.199978   -0.000378   -0.000582   -0.000883
   13.254035    0.350501    0.350442    0.350459   -0.000316   -0.000407   -0.000473
   13.806287    0.205645    0.205647    0.205649   -0.000405   -0.000522   -0.000624
   14.358538    0.225173    0.225200    0.225194   -0.000392   -0.000428   -0.000551
   14.910790    0.558704    0.558773    0.558955   -0.000926   -0.000799   -0.001154
   15.463041    0.109199    0.109227    0.109189   -0.000355   -0.000429   -0.000651
   16.015293    0.576282    0.576302    0.576298   -0.000405   -0.000592   -0.000666
   16.567544    0.115794    0.115841    0.115868   -0.000429   -0.000621   -0.000630
   17.119796    0.449833    0.449636    0.449518    0.000020   -0.000393   -0.000244
   17.672047    0.945164    0.945126    0.945079   -0.000346   -0.000516   -0.000573
   18.224298    0.241624    0.241621    0.241633   -0.000277   -0.000402   -0.000432
   18.776550    0.360175    0.360120    0.360100   -0.000732   -0.001300   -0.001215
   19.328801    0.287799    0.287840    0.287614   -0.000563   -0.001375   -0.001263
   19.881053    0.197048    0.197050    0.197041   -0.000258   -0.000462   -0.000427
   20.433304    0.038852    0.038857    0.038854   -0.000279   -0.000446   -0.000451
   20.985556    0.072293    0.072740    0.072587   -0.000368   -0.000223   -0.000580
   21.537807    0.034457    0.034354    0.034363   -0.000689   -0.001368   -0.001092
   22.090059    0.186100    0.186679    0.186526   -0.001087   -0.001465   -0.001655
   22.642310    0.038432    0.038472    0.038450   -0.000693   -0.001048   -0.001113
   23.194562    0.009034    0.009039    0.009037   -0.001049   -0.001582   -0.001693
   23.746813    0.008478    0.008480    0.008479   -0.002231   -0.003340   -0.003622
   24.299065    0.039581    0.039584    0.039583    0.005322    0.007945    0.008652
   24.851316    0.005309    0.005309    0.005309    0.001626    0.002426    0.002644
   25.403568    0.005341    0.005341    0.005341    0.000960    0.001432    0.001561
   25.955819    0.021387    0.021387    0.021387    0.000722    0.001076    0.001174
   26.508071    0.016137    0.016137    0.016137    0.000712    0.001070    0.001156
   27.060322    0.085655    0.085655    0.085655    0.000838    0.001261    0.001361
   27.612573    0.047764    0.047764    0.047764    0.001879    0.002840    0.003050
   28.164825    0.015165    0.015164    0.015165   -0.000647   -0.000992   -0.001048
   28.717076    0.058932    0.058931    0.058931   -0.000167   -0.000265   -0.000271
   29.269328    0.018347    0.018344    0.018342   -0.000112   -0.000198   -0.000181
   29.821579    0.096430    0.096385    0.096321   -0.000167   -0.000331   -0.000316
   30.373831    0.198514    0.198805    0.198795   -0.000121   -0.000357   -0.000155
   30.926082    0.057026    0.056943    0.056920    0.000160    0.000033    0.000150
   31.478334    0.083810    0.083689    0.083644    0.000120   -0.000144    0.000055
   32.030585    0.096555    0.096551    0.096554    0.000042    0.000062    0.000076
   32.582837    0.150307    0.150353    0.150255   -0.000780   -0.001527   -0.001446
   33.135088    0.055407    0.055408    0.055407    0.000038    0.000042    0.000066
   33.687340    0.198906    0.198903    0.198904   -0.000021   -0.000063   -0.000022
   34.239591    0.099502    0.099391    0.099376    0.000251    0.000148    0.000298
   34.791843    0.078753    0.078558    0.078757    0.000346   -0.000092    0.000148
   35.344094    0.134168    0.134174    0.134145   -0.000139   -0.000133   -0.000280
   35.896346    0.109130    0.108795    0.108716    0.000541    0.000167    0.000483
   36.448597    0.091053    0.091049    0.091051    0.000058    0.000042    0.000073
   37.000848    0.084619    0.084625    0.084707   -0.000019   -0.000122    0.000030
   37.553100    0.187040    0.187040    0.187003    0.000035    0.000065    0.000026
   38.105351    0.049652    0.049692    0.049731   -0.000060   -0.000034    0.000031
   38.657603    0.171185    0.171383    0.171557   -0.000677   -0.000034   -0.000395
   39.209854    0.121273    0.121704    0.122767   -0.001831   -0.000901   -0.001096
   39.762106    0.012299    0.012290    0.012262    0.000008    0.000020   -0.000041
   40.314357    0.021190    0.021192    0.021192   -0.000026   -0.000002   -0.000049
   40.866609    0.021057    0.021057    0.021058   -0.000008    0.000020   -0.000022
   41.418860    0.013944    0.013943    0.013946   -0.000012    0.000009   -0.000027
   41.971112    0.055090    0.055092    0.055088   -0.000021   -0.000009   -0.000050
   42.523363    0.030871    0.030857    0.030865    0.000024    0.000055    0.000026
   43.075615    0.028593    0.028593    0.028594    0.000010    0.000048   -0.000003
   43.627866    0.019099    0.019098    0.019105   -0.000017   -0.000003   -0.000045
   44.180118    0.091752    0.091807    0.091605    0.000006   -0.000117   -0.000303
   44.732369    0.016340    0.016388    0.016364   -0.000137   -0.000199   -0.000359
   45.284620    0.100619    0.099645    0.100242    0.000567    0.000310    0.000966
   45.836872    0.033404    0.033383    0.033401   -0.000050   -0.000175   -0.000074
   46.389123    0.004999    0.004996    0.004998    0.000018    0.000005    0.000049
   46.941375    0.001783    0.001782    0.001783    0.000017    0.000013    0.000041
   47.493626    0.001021    0.001020    0.001021    0.000016    0.000016    0.000036
   48.045878    0.000689    0.000689    0.000690    0.000015    0.000017    0.000032
   48.598129    0.000508    0.000508    0.000508    0.000014    0.000017    0.000029
   49.150381    0.000395    0.000395    0.000395    0.000013    0.000016    0.000026
   49.702632    0.000318    0.000318    0.000318    0.000012    0.000016    0.000024
   50.254884    0.000263    0.000263    0.000263    0.000011    0.000015    0.000023
   50.807135    0.000222    0.000222    0.000222    0.000011    0.000015    0.000021
   51.359387    0.000190    0.000190    0.000190    0.000010    0.000014    0.000020
   51.911638    0.000165    0.000165    0.000165    0.000010    0.000014    0.000019
   52.463890    0.000144    0.000144    0.000144    0.000009    0.000013    0.000018
   53.016141    0.000128    0.000128    0.000128    0.000009    0.000013    0.000017
   53.568393    0.000113    0.000113    0.000114    0.000008    0.000012    0.000016
   54.120644    0.000102    0.000102    0.000102    0.000008    0.000012    0.000015
   54.672895    0.000091    0.000091    0.000091    0.000008    0.000012    0.000014

  frequency dependent      REAL DIELECTRIC FUNCTION (independent particle, no local field effects) current-current (2nd set in vasprun.xml)
     E(ev)        X           Y           Z          XY          YZ          ZX
  --------------------------------------------------------------------------------------------------------------
    0.000000   79.846942   79.836836   79.841258   17.146481   25.601606   27.871104
    0.552251  -43.510559  -43.503896  -43.507124   -0.805425   -1.196432   -1.309106
    1.104503   -2.227652   -2.226500   -2.227219   -0.420084   -0.626219   -0.682987
    1.656754    5.662392    5.662734    5.662380   -0.196493   -0.292993   -0.319585
    2.209006   16.466057   16.466177   16.465939   -0.108193   -0.160770   -0.176122
    2.761257    2.243922    2.243748    2.243545   -0.069150   -0.102985   -0.112758
    3.313509    0.887933    0.887651    0.887461   -0.050162   -0.075092   -0.081862
    3.865760    4.417562    4.417206    4.416999   -0.037640   -0.057598   -0.061427
    4.418012    6.346963    6.346469    6.346195   -0.028381   -0.042674   -0.046630
    4.970263    5.944593    5.943977    5.943365   -0.011125   -0.014499   -0.019330
    5.522515   -3.620269   -3.626577   -3.616880    0.035070    0.063326    0.065738
    6.074766    0.688419    0.687408    0.689541   -0.025625   -0.032669   -0.038397
    6.627018   -2.423616   -2.430345   -2.432974   -0.029253   -0.060110   -0.053827
    7.179269    0.348100    0.325838    0.321434    0.029359    0.031206    0.029791
    7.731521   -1.698713   -1.706149   -1.709172    0.008785    0.011450    0.005951
    8.283772   -2.733781   -2.735071   -2.735945   -0.012424   -0.023805   -0.022046
    8.836024    0.157425    0.155671    0.155306   -0.005040   -0.009506   -0.009876
    9.388275   -0.851462   -0.860137   -0.861282    0.002150   -0.004543   -0.004353
    9.940526   -2.071838   -2.075890   -2.076389   -0.002064   -0.009244   -0.006773
   10.492778   -0.870495   -0.871823   -0.871774   -0.004279   -0.007817   -0.007665
   11.045029   -0.120359   -0.103119   -0.105430   -0.002104    0.006715    0.001525
   11.597281   -0.561216   -0.563004   -0.563199    0.002947    0.005729    0.003269
   12.149532   -0.146081   -0.146151   -0.146090   -0.004145   -0.006286   -0.006716
   12.701784   -0.006082   -0.006016   -0.006018   -0.003810   -0.006319   -0.006079
   13.254035    0.027049    0.026985    0.027002   -0.003240   -0.004690   -0.005146
   13.806287    0.250078    0.250106    0.250108   -0.002919   -0.004301   -0.004670
   14.358538    0.658291    0.658366    0.658360   -0.002733   -0.004001   -0.004302
   14.910790    0.255728    0.254881    0.255135   -0.001848   -0.003541   -0.003094
   15.463041    0.461145    0.461048    0.461149   -0.002491   -0.003701   -0.003964
   16.015293    0.757542    0.757530    0.757572   -0.002115   -0.003124   -0.003395
   16.567544    0.618075    0.618149    0.618215   -0.002076   -0.002908   -0.003258
   17.119796    0.628968    0.629114    0.629221   -0.002313   -0.003377   -0.003521
   17.672047   -0.149258   -0.149240   -0.149215   -0.001731   -0.002459   -0.002769
   18.224298   -0.074597   -0.074581   -0.074522   -0.001671   -0.002365   -0.002625
   18.776550    0.396946    0.396919    0.397082   -0.001528   -0.001937   -0.002226
   19.328801    0.137317    0.137290    0.137534   -0.002624   -0.003730   -0.003836
   19.881053    0.168551    0.168561    0.168602   -0.001478   -0.002179   -0.002331
   20.433304    0.411313    0.411334    0.411349   -0.001363   -0.001996   -0.002188
   20.985556    0.485711    0.485592    0.485644   -0.001355   -0.001717   -0.002234
   21.537807    0.576511    0.576419    0.576432   -0.000798   -0.001256   -0.001483
   22.090059    0.419234    0.419974    0.419697   -0.001126   -0.002758   -0.002237
   22.642310    0.579338    0.579336    0.579334   -0.001083   -0.001620   -0.001731
   23.194562    0.601367    0.601355    0.601376   -0.000953   -0.001420   -0.001534
   23.746813    0.659680    0.659681    0.659696   -0.000483   -0.000708   -0.000769
   24.299065    0.639048    0.639050    0.639064    0.003723    0.005577    0.006071
   24.851316    0.700721    0.700727    0.700740   -0.000707   -0.001039   -0.001132
   25.403568    0.740156    0.740163    0.740175   -0.000827   -0.001217   -0.001326
   25.955819    0.796495    0.796502    0.796514   -0.000819   -0.001203   -0.001313
   26.508071    0.770317    0.770324    0.770337   -0.000816   -0.001199   -0.001307
   27.060322    0.770854    0.770861    0.770874   -0.000826   -0.001217   -0.001323
   27.612573    0.823836    0.823842    0.823856   -0.001726   -0.002579   -0.002781
   28.164825    0.793029    0.793035    0.793046   -0.000939   -0.001385   -0.001507
   28.717076    0.888156    0.888159    0.888170   -0.000745   -0.001090   -0.001191
   29.269328    0.834321    0.834316    0.834322   -0.000676   -0.000973   -0.001084
   29.821579    0.921976    0.921906    0.921862   -0.000472   -0.000479   -0.000809
   30.373831    0.751468    0.751907    0.751792   -0.000674   -0.000886   -0.001109
   30.926082    0.811772    0.811740    0.811750   -0.000595   -0.000954   -0.000968
   31.478334    0.846219    0.845973    0.845903   -0.000229   -0.000710   -0.000672
   32.030585    0.850607    0.850614    0.850645   -0.000644   -0.000916   -0.000996
   32.582837    0.879027    0.879116    0.878963    0.000372    0.000218    0.000254
   33.135088    0.903339    0.903341    0.903376   -0.000511   -0.000728   -0.000792
   33.687340    0.889003    0.888999    0.889037   -0.000456   -0.000660   -0.000722
   34.239591    0.762497    0.762490    0.762554    0.000290    0.000536    0.000460
   34.791843    0.831427    0.831436    0.831468   -0.000718   -0.000753   -0.001174
   35.344094    0.877640    0.877716    0.877640   -0.000512   -0.000458   -0.000715
   35.896346    0.777123    0.777406    0.777482   -0.000701   -0.000523   -0.000762
   36.448597    0.840107    0.840194    0.840238   -0.000535   -0.000568   -0.000687
   37.000848    0.939045    0.939129    0.939249   -0.000595   -0.000715   -0.000706
   37.553100    0.820729    0.820823    0.820953   -0.000750   -0.000875   -0.000881
   38.105351    0.857241    0.857412    0.857584   -0.000932   -0.000720   -0.000880
   38.657603    0.687346    0.687126    0.686897    0.000171   -0.000685   -0.000663
   39.209854    0.800568    0.800396    0.800075    0.000808    0.000702    0.000567
   39.762106    0.784532    0.784519    0.784546   -0.000344   -0.000588   -0.000625
   40.314357    0.826875    0.826855    0.826842   -0.000259   -0.000493   -0.000525
   40.866609    0.828312    0.828296    0.828281   -0.000255   -0.000474   -0.000506
   41.418860    0.850522    0.850508    0.850498   -0.000253   -0.000460   -0.000488
   41.971112    0.882038    0.882029    0.882022   -0.000263   -0.000469   -0.000496
   42.523363    0.845201    0.845196    0.845188   -0.000159   -0.000283   -0.000328
   43.075615    0.862473    0.862466    0.862464   -0.000245   -0.000451   -0.000462
   43.627866    0.891863    0.891856    0.891868   -0.000250   -0.000441   -0.000458
   44.180118    0.870485    0.870584    0.870218    0.000432    0.000191    0.000117
   44.732369    0.885875    0.885949    0.885937   -0.000061   -0.000248   -0.000226
   45.284620    0.782286    0.782377    0.782229   -0.002377   -0.003559   -0.003658
   45.836872    0.846313    0.846377    0.846311   -0.000309   -0.000389   -0.000412
   46.389123    0.838513    0.838533    0.838501   -0.000285   -0.000390   -0.000443
   46.941375    0.857684    0.857694    0.857672   -0.000268   -0.000380   -0.000426
   47.493626    0.868235    0.868242    0.868224   -0.000256   -0.000371   -0.000412
   48.045878    0.875796    0.875801    0.875786   -0.000247   -0.000362   -0.000401
   48.598129    0.881822    0.881825    0.881813   -0.000239   -0.000353   -0.000390
   49.150381    0.886902    0.886904    0.886893   -0.000232   -0.000345   -0.000381
   49.702632    0.891332    0.891334    0.891324   -0.000226   -0.000337   -0.000372
   50.254884    0.895285    0.895287    0.895278   -0.000221   -0.000330   -0.000363
   50.807135    0.898867    0.898869    0.898860   -0.000215   -0.000323   -0.000355
   51.359387    0.902151    0.902153    0.902145   -0.000211   -0.000316   -0.000347
   51.911638    0.905188    0.905190    0.905182   -0.000206   -0.000309   -0.000339
   52.463890    0.908016    0.908018    0.908011   -0.000201   -0.000303   -0.000332
   53.016141    0.910664    0.910665    0.910658   -0.000197   -0.000296   -0.000325
   53.568393    0.913154    0.913155    0.913149   -0.000193   -0.000290   -0.000318
   54.120644    0.915504    0.915505    0.915499   -0.000189   -0.000284   -0.000312
   54.672895    0.917729    0.917730    0.917724   -0.000185   -0.000279   -0.000305
 
 The outermost node in the dielectric function lies at epsilon=  18.3


--------------------------------------------------------------------------------------------------------


    OPTICS:  cpu time    0.1724: real time    0.1770
    4ORBIT:  cpu time    0.0000: real time    0.0000

 Spin-Orbit-Coupling matrix elements

 Ion:    1  E_soc:    -33.0198362
 l=   1
     0.0000000    -5.0849986    -5.0849961
    -5.0849986     0.0000000    -5.0849961
    -5.0849961    -5.0849961     0.0000000
 l=   2
     0.0000000    -0.0836663     0.0000000    -0.0836663    -0.3346355
    -0.0836663     0.0000000    -0.2509766    -0.0836736    -0.0836662
     0.0000000    -0.2509766     0.0000000    -0.2509767     0.0000000
    -0.0836663    -0.0836736    -0.2509767     0.0000000    -0.0836663
    -0.3346355    -0.0836662     0.0000000    -0.0836663     0.0000000
 l=   3
     0.0000000     0.0000000     0.0000000     0.0000000     0.0000000     0.0000000     0.0000000
     0.0000000     0.0000000     0.0000000     0.0000000     0.0000000     0.0000000     0.0000000
     0.0000000     0.0000000     0.0000000     0.0000000     0.0000000     0.0000000     0.0000000
     0.0000000     0.0000000     0.0000000     0.0000000     0.0000000     0.0000000     0.0000000
     0.0000000     0.0000000     0.0000000     0.0000000     0.0000000     0.0000000     0.0000000
     0.0000000     0.0000000     0.0000000     0.0000000     0.0000000     0.0000000     0.0000000
     0.0000000     0.0000000     0.0000000     0.0000000     0.0000000     0.0000000     0.0000000

 total amount of memory used by VASP MPI-rank0    39871. kBytes
=======================================================================

   base      :      30000. kBytes
   nonl-proj :       1661. kBytes
   fftplans  :       2882. kBytes
   grid      :       2809. kBytes
   one-center:         62. kBytes
   wavefun   :       2457. kBytes
 
  
  
 General timing and accounting informations for this job:
 ========================================================
  
                  Total CPU time used (sec):       25.702
                            User time (sec):       24.664
                          System time (sec):        1.038
                         Elapsed time (sec):      124.620
  
                   Maximum memory used (kb):      131532.
                   Average memory used (kb):           0.
  
                          Minor page faults:       148184
                          Major page faults:            0
                 Voluntary context switches:         2424
