   1   1   0   0
  0.6008441E+02  0.4396350E-09  0.4396350E-09  0.4396350E-09  0.1000000E-15
  1.000000000000000E-004
  CAR 
 Og_FCC                                  
    102.35185801   -235.43221175  301      3.76931447      1.00000000
   -235.432  0.0000E+00  0.0000E+00
   -234.306  0.0000E+00  0.0000E+00
   -233.180  0.0000E+00  0.0000E+00
   -232.054  0.0000E+00  0.0000E+00
   -230.928  0.0000E+00  0.0000E+00
   -229.802  0.0000E+00  0.0000E+00
   -228.677  0.0000E+00  0.0000E+00
   -227.551  0.0000E+00  0.0000E+00
   -226.425  0.0000E+00  0.0000E+00
   -225.299  0.0000E+00  0.0000E+00
   -224.173  0.0000E+00  0.0000E+00
   -223.047  0.0000E+00  0.0000E+00
   -221.921  0.0000E+00  0.0000E+00
   -220.795  0.0000E+00  0.0000E+00
   -219.669  0.0000E+00  0.2000E+01
   -218.543  0.0000E+00  0.2000E+01
   -217.417  0.0000E+00  0.2000E+01
   -216.291  0.0000E+00  0.2000E+01
   -215.165  0.0000E+00  0.2000E+01
   -214.039  0.0000E+00  0.2000E+01
   -212.913  0.0000E+00  0.2000E+01
   -211.787  0.0000E+00  0.2000E+01
   -210.661  0.0000E+00  0.2000E+01
   -209.535  0.0000E+00  0.2000E+01
   -208.409  0.0000E+00  0.2000E+01
   -207.284  0.0000E+00  0.2000E+01
   -206.158  0.0000E+00  0.2000E+01
   -205.032  0.0000E+00  0.2000E+01
   -203.906  0.0000E+00  0.2000E+01
   -202.780  0.0000E+00  0.2000E+01
   -201.654  0.0000E+00  0.2000E+01
   -200.528  0.0000E+00  0.2000E+01
   -199.402  0.0000E+00  0.2000E+01
   -198.276  0.0000E+00  0.2000E+01
   -197.150  0.0000E+00  0.2000E+01
   -196.024  0.0000E+00  0.2000E+01
   -194.898  0.0000E+00  0.2000E+01
   -193.772  0.0000E+00  0.2000E+01
   -192.646  0.0000E+00  0.2000E+01
   -191.520  0.0000E+00  0.2000E+01
   -190.394  0.0000E+00  0.2000E+01
   -189.268  0.0000E+00  0.2000E+01
   -188.142  0.0000E+00  0.2000E+01
   -187.016  0.0000E+00  0.2000E+01
   -185.891  0.0000E+00  0.2000E+01
   -184.765  0.0000E+00  0.2000E+01
   -183.639  0.0000E+00  0.2000E+01
   -182.513  0.0000E+00  0.2000E+01
   -181.387  0.0000E+00  0.2000E+01
   -180.261  0.0000E+00  0.2000E+01
   -179.135  0.0000E+00  0.2000E+01
   -178.009  0.0000E+00  0.2000E+01
   -176.883  0.0000E+00  0.2000E+01
   -175.757  0.0000E+00  0.2000E+01
   -174.631  0.0000E+00  0.2000E+01
   -173.505  0.0000E+00  0.2000E+01
   -172.379  0.0000E+00  0.2000E+01
   -171.253  0.0000E+00  0.2000E+01
   -170.127  0.0000E+00  0.2000E+01
   -169.001  0.0000E+00  0.2000E+01
   -167.875  0.0000E+00  0.2000E+01
   -166.749  0.0000E+00  0.2000E+01
   -165.624  0.0000E+00  0.2000E+01
   -164.498  0.0000E+00  0.2000E+01
   -163.372  0.0000E+00  0.2000E+01
   -162.246  0.0000E+00  0.2000E+01
   -161.120  0.0000E+00  0.2000E+01
   -159.994  0.0000E+00  0.2000E+01
   -158.868  0.0000E+00  0.2000E+01
   -157.742  0.0000E+00  0.2000E+01
   -156.616  0.0000E+00  0.2000E+01
   -155.490  0.0000E+00  0.2000E+01
   -154.364  0.0000E+00  0.2000E+01
   -153.238  0.0000E+00  0.2000E+01
   -152.112  0.0000E+00  0.2000E+01
   -150.986  0.0000E+00  0.2000E+01
   -149.860  0.0000E+00  0.2000E+01
   -148.734  0.0000E+00  0.2000E+01
   -147.608  0.0000E+00  0.2000E+01
   -146.482  0.0000E+00  0.2000E+01
   -145.356  0.0000E+00  0.2000E+01
   -144.231  0.0000E+00  0.2000E+01
   -143.105  0.0000E+00  0.2000E+01
   -141.979  0.0000E+00  0.2000E+01
   -140.853  0.0000E+00  0.2000E+01
   -139.727  0.0000E+00  0.2000E+01
   -138.601  0.0000E+00  0.4000E+01
   -137.475  0.0000E+00  0.4000E+01
   -136.349  0.0000E+00  0.4000E+01
   -135.223  0.0000E+00  0.4000E+01
   -134.097  0.0000E+00  0.4000E+01
   -132.971  0.0000E+00  0.4000E+01
   -131.845  0.0000E+00  0.4000E+01
   -130.719  0.0000E+00  0.4000E+01
   -129.593  0.0000E+00  0.4000E+01
   -128.467  0.0000E+00  0.4000E+01
   -127.341  0.0000E+00  0.4000E+01
   -126.215  0.0000E+00  0.4000E+01
   -125.089  0.0000E+00  0.4000E+01
   -123.963  0.0000E+00  0.4000E+01
   -122.838  0.0000E+00  0.4000E+01
   -121.712  0.0000E+00  0.4000E+01
   -120.586  0.0000E+00  0.4000E+01
   -119.460  0.0000E+00  0.4000E+01
   -118.334  0.0000E+00  0.4000E+01
   -117.208  0.0000E+00  0.4000E+01
   -116.082  0.0000E+00  0.4000E+01
   -114.956  0.0000E+00  0.4000E+01
   -113.830  0.0000E+00  0.4000E+01
   -112.704  0.0000E+00  0.4000E+01
   -111.578  0.0000E+00  0.4000E+01
   -110.452  0.0000E+00  0.4000E+01
   -109.326  0.0000E+00  0.4000E+01
   -108.200  0.0000E+00  0.4000E+01
   -107.074  0.0000E+00  0.4000E+01
   -105.948  0.0000E+00  0.4000E+01
   -104.822  0.0000E+00  0.4000E+01
   -103.696  0.0000E+00  0.4000E+01
   -102.570  0.0000E+00  0.4000E+01
   -101.445  0.0000E+00  0.4000E+01
   -100.319  0.0000E+00  0.4000E+01
    -99.193  0.0000E+00  0.4000E+01
    -98.067  0.0000E+00  0.4000E+01
    -96.941  0.0000E+00  0.4000E+01
    -95.815  0.0000E+00  0.4000E+01
    -94.689  0.0000E+00  0.4000E+01
    -93.563  0.0000E+00  0.4000E+01
    -92.437  0.0000E+00  0.4000E+01
    -91.311  0.0000E+00  0.4000E+01
    -90.185  0.0000E+00  0.8000E+01
    -89.059  0.0000E+00  0.8000E+01
    -87.933  0.0000E+00  0.8000E+01
    -86.807  0.0000E+00  0.8000E+01
    -85.681  0.0000E+00  0.8000E+01
    -84.555  0.0000E+00  0.8000E+01
    -83.429  0.0000E+00  0.8000E+01
    -82.303  0.0000E+00  0.8000E+01
    -81.177  0.0000E+00  0.8000E+01
    -80.052  0.0000E+00  0.8000E+01
    -78.926  0.0000E+00  0.8000E+01
    -77.800  0.0000E+00  0.8000E+01
    -76.674  0.0000E+00  0.8000E+01
    -75.548  0.0000E+00  0.8000E+01
    -74.422  0.0000E+00  0.8000E+01
    -73.296  0.0000E+00  0.8000E+01
    -72.170  0.0000E+00  0.8000E+01
    -71.044  0.0000E+00  0.8000E+01
    -69.918  0.0000E+00  0.8000E+01
    -68.792  0.0000E+00  0.8000E+01
    -67.666  0.0000E+00  0.8000E+01
    -66.540  0.0000E+00  0.8000E+01
    -65.414  0.0000E+00  0.8000E+01
    -64.288  0.0000E+00  0.8000E+01
    -63.162  0.0000E+00  0.8000E+01
    -62.036  0.0000E+00  0.8000E+01
    -60.910  0.0000E+00  0.8000E+01
    -59.784  0.0000E+00  0.8000E+01
    -58.659  0.0000E+00  0.8000E+01
    -57.533  0.0000E+00  0.8000E+01
    -56.407  0.0000E+00  0.8000E+01
    -55.281  0.0000E+00  0.8000E+01
    -54.155  0.0000E+00  0.8000E+01
    -53.029  0.0000E+00  0.8000E+01
    -51.903  0.0000E+00  0.8000E+01
    -50.777  0.0000E+00  0.8000E+01
    -49.651  0.0000E+00  0.8000E+01
    -48.525  0.0000E+00  0.8000E+01
    -47.399  0.0000E+00  0.8000E+01
    -46.273  0.0000E+00  0.8000E+01
    -45.147  0.0000E+00  0.8000E+01
    -44.021  0.0000E+00  0.8000E+01
    -42.895  0.0000E+00  0.8000E+01
    -41.769  0.0000E+00  0.8000E+01
    -40.643  0.0000E+00  0.8000E+01
    -39.517  0.0000E+00  0.8000E+01
    -38.392  0.0000E+00  0.8000E+01
    -37.266  0.0000E+00  0.8000E+01
    -36.140  0.0000E+00  0.8000E+01
    -35.014  0.0000E+00  0.8000E+01
    -33.888  0.0000E+00  0.8000E+01
    -32.762  0.0000E+00  0.1200E+02
    -31.636  0.0000E+00  0.1200E+02
    -30.510  0.0000E+00  0.1200E+02
    -29.384  0.0000E+00  0.1200E+02
    -28.258  0.0000E+00  0.1200E+02
    -27.132  0.0000E+00  0.1200E+02
    -26.006  0.0000E+00  0.1800E+02
    -24.880  0.0000E+00  0.1800E+02
    -23.754  0.0000E+00  0.1800E+02
    -22.628  0.0000E+00  0.1800E+02
    -21.502  0.0000E+00  0.1800E+02
    -20.376  0.0000E+00  0.2000E+02
    -19.250  0.0000E+00  0.2000E+02
    -18.124  0.0000E+00  0.2000E+02
    -16.999  0.0000E+00  0.2000E+02
    -15.873  0.0000E+00  0.2000E+02
    -14.747  0.0000E+00  0.2000E+02
    -13.621  0.0000E+00  0.2000E+02
    -12.495  0.0000E+00  0.2000E+02
    -11.369  0.0000E+00  0.2000E+02
    -10.243  0.0000E+00  0.2000E+02
     -9.117  0.0000E+00  0.2000E+02
     -7.991  0.0000E+00  0.2000E+02
     -6.865  0.0000E+00  0.2000E+02
     -5.739  0.0000E+00  0.2000E+02
     -4.613  0.0000E+00  0.2000E+02
     -3.487  0.3704E-06  0.2145E+02
     -2.361  0.0000E+00  0.2200E+02
     -1.235  0.0000E+00  0.2200E+02
     -0.109  0.0000E+00  0.2200E+02
      1.017  0.4934E-01  0.2292E+02
      2.143  0.0000E+00  0.2436E+02
      3.269  0.0000E+00  0.2578E+02
      4.394  0.0000E+00  0.2601E+02
      5.520  0.0000E+00  0.2608E+02
      6.646  0.0000E+00  0.2639E+02
      7.772  0.0000E+00  0.2756E+02
      8.898  0.0000E+00  0.2853E+02
     10.024  0.0000E+00  0.3032E+02
     11.150  0.0000E+00  0.3197E+02
     12.276  0.0000E+00  0.3380E+02
     13.402  0.0000E+00  0.3612E+02
     14.528  0.1974E+00  0.3847E+02
     15.654  0.0000E+00  0.4014E+02
     16.780  0.0000E+00  0.4257E+02
     17.906  0.1274E-07  0.4515E+02
     19.032  0.0000E+00  0.5031E+02
     20.158  0.0000E+00  0.5344E+02
     21.284  0.0000E+00  0.5441E+02
     22.410  0.0000E+00  0.5577E+02
     23.536  0.4587E-14  0.5797E+02
     24.662  0.0000E+00  0.6169E+02
     25.787  0.1847E-04  0.6497E+02
     26.913  0.0000E+00  0.6653E+02
     28.039  0.1941E+00  0.6924E+02
     29.165  0.7465E-07  0.7106E+02
     30.291  0.0000E+00  0.7382E+02
     31.417  0.7599E-01  0.7760E+02
     32.543  0.0000E+00  0.8044E+02
     33.669  0.0000E+00  0.8247E+02
     34.795  0.0000E+00  0.8613E+02
     35.921  0.0000E+00  0.8942E+02
     37.047  0.0000E+00  0.9191E+02
     38.173  0.6170E-02  0.9418E+02
     39.299  0.0000E+00  0.9738E+02
     40.425  0.3687E-11  0.1007E+03
     41.551  0.0000E+00  0.1042E+03
     42.677  0.0000E+00  0.1066E+03
     43.803  0.0000E+00  0.1095E+03
     44.929  0.0000E+00  0.1136E+03
     46.055  0.0000E+00  0.1168E+03
     47.180  0.9868E-01  0.1198E+03
     48.306  0.0000E+00  0.1233E+03
     49.432  0.0000E+00  0.1266E+03
     50.558  0.0000E+00  0.1305E+03
     51.684  0.6163E-01  0.1345E+03
     52.810  0.4847E-01  0.1374E+03
     53.936  0.0000E+00  0.1406E+03
     55.062  0.0000E+00  0.1446E+03
     56.188  0.0000E+00  0.1475E+03
     57.314  0.2467E-01  0.1512E+03
     58.440  0.3289E-01  0.1550E+03
     59.566  0.0000E+00  0.1586E+03
     60.692  0.5040E-01  0.1626E+03
     61.818  0.0000E+00  0.1654E+03
     62.944  0.0000E+00  0.1704E+03
     64.070  0.0000E+00  0.1736E+03
     65.196  0.0000E+00  0.1783E+03
     66.322  0.2067E+00  0.1817E+03
     67.448  0.0000E+00  0.1854E+03
     68.573  0.0000E+00  0.1888E+03
     69.699  0.8715E-02  0.1933E+03
     70.825  0.0000E+00  0.1969E+03
     71.951  0.1974E+00  0.2020E+03
     73.077  0.1974E+00  0.2054E+03
     74.203  0.0000E+00  0.2095E+03
     75.329  0.0000E+00  0.2138E+03
     76.455  0.0000E+00  0.2174E+03
     77.581  0.0000E+00  0.2214E+03
     78.707  0.0000E+00  0.2257E+03
     79.833  0.0000E+00  0.2300E+03
     80.959  0.0000E+00  0.2343E+03
     82.085  0.0000E+00  0.2390E+03
     83.211  0.1440E+00  0.2429E+03
     84.337  0.0000E+00  0.2474E+03
     85.463  0.3175E-01  0.2514E+03
     86.589  0.0000E+00  0.2554E+03
     87.715  0.0000E+00  0.2560E+03
     88.840  0.0000E+00  0.2560E+03
     89.966  0.0000E+00  0.2560E+03
     91.092  0.0000E+00  0.2560E+03
     92.218  0.0000E+00  0.2560E+03
     93.344  0.0000E+00  0.2560E+03
     94.470  0.0000E+00  0.2560E+03
     95.596  0.0000E+00  0.2560E+03
     96.722  0.0000E+00  0.2560E+03
     97.848  0.0000E+00  0.2560E+03
     98.974  0.0000E+00  0.2560E+03
    100.100  0.0000E+00  0.2560E+03
    101.226  0.0000E+00  0.2560E+03
    102.352  0.0000E+00  0.2560E+03
