<?xml version="1.0" encoding="ISO-8859-1"?>
<modeling>
 <generator>
  <i name="program" type="string">vasp </i>
  <i name="version" type="string">5.4.4.18Apr17-6-g9f103f2a35  </i>
  <i name="subversion" type="string">(build Nov 03 2018 10:20:46) complex            parallel </i>
  <i name="platform" type="string">LinuxIFC </i>
  <i name="date" type="string">2019 01 02 </i>
  <i name="time" type="string">09:18:44 </i>
 </generator>
 <incar>
  <i type="string" name="SYSTEM">   Og_FCC</i>
  <i type="string" name="PREC">accurate</i>
  <i type="string" name="ALGO">   EXACT</i>
  <i type="logical" name="ADDGRID"> T  </i>
  <i type="logical" name="LSORBIT"> T  </i>
  <i type="int" name="ISPIN">     1</i>
  <i type="int" name="MAXMIX">    50</i>
  <i type="int" name="NELM">    50</i>
  <i type="int" name="NELMDL">    -5</i>
  <i type="int" name="NELMIN">     2</i>
  <i type="int" name="IBRION">    -1</i>
  <i type="int" name="NFREE">     5</i>
  <i name="EDIFF">      0.00000001</i>
  <i name="EDIFFG">      0.00001000</i>
  <i type="int" name="NSW">     1</i>
  <i type="int" name="ISIF">     3</i>
  <i type="int" name="ISYM">     0</i>
  <i name="SYMPREC">      0.00000010</i>
  <i name="ENCUT">    300.00000000</i>
  <i type="int" name="NBANDS">   256</i>
  <i name="POTIM">      0.10000000</i>
  <i type="logical" name="LREAL"> F  </i>
  <i type="int" name="ISMEAR">     0</i>
  <i name="SIGMA">      0.00100000</i>
  <i type="int" name="NWRITE">     2</i>
  <i type="logical" name="LWAVE"> T  </i>
  <i type="logical" name="LCHARG"> F  </i>
  <i type="logical" name="LVTOT"> F  </i>
  <i type="logical" name="LOPTICS"> T  </i>
  <i type="logical" name="GGA_COMPAT"> F  </i>
  <v type="int" name="KPOINT_BSE">    -1     0     0     0</v>
  <i type="int" name="NELM">    50</i>
  <i type="string" name="GGA"> PE</i>
 </incar>
 <structure name="primitive_cell" >
  <crystal>
   <varray name="basis" >
    <v>       4.39635018       0.00000000       0.00000000 </v>
    <v>       2.19817509       3.80735094      -0.00000000 </v>
    <v>       2.19817509       1.26911698       3.58960489 </v>
   </varray>
   <i name="volume">     60.08441465 </i>
   <varray name="rec_basis" >
    <v>       0.22746141      -0.13132490      -0.09286073 </v>
    <v>       0.00000000       0.26264981      -0.09286073 </v>
    <v>      -0.00000000       0.00000000       0.27858219 </v>
   </varray>
  </crystal>
  <varray name="positions" >
   <v>       0.00000000       0.00000000       0.00000000 </v>
  </varray>
 </structure>
 <varray name="primitive_index" >
  <v type="int" >        1 </v>
 </varray>
 <kpoints>
  <generation param="Gamma">
   <v type="int" name="divisions">       6        6        6 </v>
   <v name="usershift">      0.00000000       0.00000000       0.00000000 </v>
   <v name="genvec1">      0.16666667       0.00000000       0.00000000 </v>
   <v name="genvec2">      0.00000000       0.16666667       0.00000000 </v>
   <v name="genvec3">      0.00000000      -0.00000000       0.16666667 </v>
   <v name="shift">      0.00000000       0.00000000       0.00000000 </v>
  </generation>
  <varray name="kpointlist" >
   <v>       0.00000000       0.00000000       0.00000000 </v>
   <v>       0.16666667      -0.00000000      -0.00000000 </v>
   <v>       0.33333333      -0.00000000       0.00000000 </v>
   <v>       0.50000000      -0.00000000       0.00000000 </v>
   <v>      -0.33333333       0.00000000      -0.00000000 </v>
   <v>      -0.16666667       0.00000000       0.00000000 </v>
   <v>      -0.00000000       0.16666667       0.00000000 </v>
   <v>       0.16666667       0.16666667       0.00000000 </v>
   <v>       0.33333333       0.16666667       0.00000000 </v>
   <v>       0.50000000       0.16666667       0.00000000 </v>
   <v>      -0.33333333       0.16666667      -0.00000000 </v>
   <v>      -0.16666667       0.16666667      -0.00000000 </v>
   <v>      -0.00000000       0.33333333      -0.00000000 </v>
   <v>       0.16666667       0.33333333      -0.00000000 </v>
   <v>       0.33333333       0.33333333       0.00000000 </v>
   <v>       0.50000000       0.33333333      -0.00000000 </v>
   <v>      -0.33333333       0.33333333      -0.00000000 </v>
   <v>      -0.16666667       0.33333333      -0.00000000 </v>
   <v>       0.00000000       0.50000000      -0.00000000 </v>
   <v>       0.16666667       0.50000000      -0.00000000 </v>
   <v>       0.33333333       0.50000000       0.00000000 </v>
   <v>       0.50000000       0.50000000       0.00000000 </v>
   <v>      -0.33333333       0.50000000      -0.00000000 </v>
   <v>      -0.16666667       0.50000000      -0.00000000 </v>
   <v>       0.00000000      -0.33333333       0.00000000 </v>
   <v>       0.16666667      -0.33333333       0.00000000 </v>
   <v>       0.33333333      -0.33333333       0.00000000 </v>
   <v>       0.50000000      -0.33333333       0.00000000 </v>
   <v>      -0.33333333      -0.33333333      -0.00000000 </v>
   <v>      -0.16666667      -0.33333333       0.00000000 </v>
   <v>       0.00000000      -0.16666667       0.00000000 </v>
   <v>       0.16666667      -0.16666667       0.00000000 </v>
   <v>       0.33333333      -0.16666667       0.00000000 </v>
   <v>       0.50000000      -0.16666667       0.00000000 </v>
   <v>      -0.33333333      -0.16666667       0.00000000 </v>
   <v>      -0.16666667      -0.16666667       0.00000000 </v>
   <v>       0.00000000       0.00000000       0.16666667 </v>
   <v>       0.16666667      -0.00000000       0.16666667 </v>
   <v>       0.33333333      -0.00000000       0.16666667 </v>
   <v>       0.50000000      -0.00000000       0.16666667 </v>
   <v>      -0.33333333       0.00000000       0.16666667 </v>
   <v>      -0.16666667       0.00000000       0.16666667 </v>
   <v>      -0.00000000       0.16666667       0.16666667 </v>
   <v>       0.16666667       0.16666667       0.16666667 </v>
   <v>       0.33333333       0.16666667       0.16666667 </v>
   <v>       0.50000000       0.16666667       0.16666667 </v>
   <v>      -0.33333333       0.16666667       0.16666667 </v>
   <v>      -0.16666667       0.16666667       0.16666667 </v>
   <v>       0.00000000       0.33333333       0.16666667 </v>
   <v>       0.16666667       0.33333333       0.16666667 </v>
   <v>       0.33333333       0.33333333       0.16666667 </v>
   <v>       0.50000000       0.33333333       0.16666667 </v>
   <v>      -0.33333333       0.33333333       0.16666667 </v>
   <v>      -0.16666667       0.33333333       0.16666667 </v>
   <v>       0.00000000       0.50000000       0.16666667 </v>
   <v>       0.16666667       0.50000000       0.16666667 </v>
   <v>       0.33333333       0.50000000       0.16666667 </v>
   <v>       0.50000000       0.50000000       0.16666667 </v>
   <v>      -0.33333333       0.50000000       0.16666667 </v>
   <v>      -0.16666667       0.50000000       0.16666667 </v>
   <v>       0.00000000      -0.33333333       0.16666667 </v>
   <v>       0.16666667      -0.33333333       0.16666667 </v>
   <v>       0.33333333      -0.33333333       0.16666667 </v>
   <v>       0.50000000      -0.33333333       0.16666667 </v>
   <v>      -0.33333333      -0.33333333       0.16666667 </v>
   <v>      -0.16666667      -0.33333333       0.16666667 </v>
   <v>       0.00000000      -0.16666667       0.16666667 </v>
   <v>       0.16666667      -0.16666667       0.16666667 </v>
   <v>       0.33333333      -0.16666667       0.16666667 </v>
   <v>       0.50000000      -0.16666667       0.16666667 </v>
   <v>      -0.33333333      -0.16666667       0.16666667 </v>
   <v>      -0.16666667      -0.16666667       0.16666667 </v>
   <v>       0.00000000       0.00000000       0.33333333 </v>
   <v>       0.16666667      -0.00000000       0.33333333 </v>
   <v>       0.33333333      -0.00000000       0.33333333 </v>
   <v>       0.50000000      -0.00000000       0.33333333 </v>
   <v>      -0.33333333       0.00000000       0.33333333 </v>
   <v>      -0.16666667       0.00000000       0.33333333 </v>
   <v>      -0.00000000       0.16666667       0.33333333 </v>
   <v>       0.16666667       0.16666667       0.33333333 </v>
   <v>       0.33333333       0.16666667       0.33333333 </v>
   <v>       0.50000000       0.16666667       0.33333333 </v>
   <v>      -0.33333333       0.16666667       0.33333333 </v>
   <v>      -0.16666667       0.16666667       0.33333333 </v>
   <v>       0.00000000       0.33333333       0.33333333 </v>
   <v>       0.16666667       0.33333333       0.33333333 </v>
   <v>       0.33333333       0.33333333       0.33333333 </v>
   <v>       0.50000000       0.33333333       0.33333333 </v>
   <v>      -0.33333333       0.33333333       0.33333333 </v>
   <v>      -0.16666667       0.33333333       0.33333333 </v>
   <v>       0.00000000       0.50000000       0.33333333 </v>
   <v>       0.16666667       0.50000000       0.33333333 </v>
   <v>       0.33333333       0.50000000       0.33333333 </v>
   <v>       0.50000000       0.50000000       0.33333333 </v>
   <v>      -0.33333333       0.50000000       0.33333333 </v>
   <v>      -0.16666667       0.50000000       0.33333333 </v>
   <v>      -0.00000000      -0.33333333       0.33333333 </v>
   <v>       0.16666667      -0.33333333       0.33333333 </v>
   <v>       0.33333333      -0.33333333       0.33333333 </v>
   <v>       0.50000000      -0.33333333       0.33333333 </v>
   <v>      -0.33333333      -0.33333333       0.33333333 </v>
   <v>      -0.16666667      -0.33333333       0.33333333 </v>
   <v>       0.00000000      -0.16666667       0.33333333 </v>
   <v>       0.16666667      -0.16666667       0.33333333 </v>
   <v>       0.33333333      -0.16666667       0.33333333 </v>
   <v>       0.50000000      -0.16666667       0.33333333 </v>
   <v>      -0.33333333      -0.16666667       0.33333333 </v>
   <v>      -0.16666667      -0.16666667       0.33333333 </v>
   <v>       0.00000000       0.00000000       0.50000000 </v>
   <v>       0.16666667       0.00000000       0.50000000 </v>
   <v>       0.33333333      -0.00000000       0.50000000 </v>
   <v>       0.50000000      -0.00000000       0.50000000 </v>
   <v>      -0.33333333       0.00000000       0.50000000 </v>
   <v>      -0.16666667       0.00000000       0.50000000 </v>
   <v>      -0.00000000       0.16666667       0.50000000 </v>
   <v>       0.16666667       0.16666667       0.50000000 </v>
   <v>       0.33333333       0.16666667       0.50000000 </v>
   <v>       0.50000000       0.16666667       0.50000000 </v>
   <v>      -0.33333333       0.16666667       0.50000000 </v>
   <v>      -0.16666667       0.16666667       0.50000000 </v>
   <v>       0.00000000       0.33333333       0.50000000 </v>
   <v>       0.16666667       0.33333333       0.50000000 </v>
   <v>       0.33333333       0.33333333       0.50000000 </v>
   <v>       0.50000000       0.33333333       0.50000000 </v>
   <v>      -0.33333333       0.33333333       0.50000000 </v>
   <v>      -0.16666667       0.33333333       0.50000000 </v>
   <v>       0.00000000       0.50000000       0.50000000 </v>
   <v>       0.16666667       0.50000000       0.50000000 </v>
   <v>       0.33333333       0.50000000       0.50000000 </v>
   <v>       0.50000000       0.50000000       0.50000000 </v>
   <v>      -0.33333333       0.50000000       0.50000000 </v>
   <v>      -0.16666667       0.50000000       0.50000000 </v>
   <v>       0.00000000      -0.33333333       0.50000000 </v>
   <v>       0.16666667      -0.33333333       0.50000000 </v>
   <v>       0.33333333      -0.33333333       0.50000000 </v>
   <v>       0.50000000      -0.33333333       0.50000000 </v>
   <v>      -0.33333333      -0.33333333       0.50000000 </v>
   <v>      -0.16666667      -0.33333333       0.50000000 </v>
   <v>       0.00000000      -0.16666667       0.50000000 </v>
   <v>       0.16666667      -0.16666667       0.50000000 </v>
   <v>       0.33333333      -0.16666667       0.50000000 </v>
   <v>       0.50000000      -0.16666667       0.50000000 </v>
   <v>      -0.33333333      -0.16666667       0.50000000 </v>
   <v>      -0.16666667      -0.16666667       0.50000000 </v>
   <v>       0.00000000      -0.00000000      -0.33333333 </v>
   <v>       0.16666667      -0.00000000      -0.33333333 </v>
   <v>       0.33333333      -0.00000000      -0.33333333 </v>
   <v>       0.50000000      -0.00000000      -0.33333333 </v>
   <v>      -0.33333333       0.00000000      -0.33333333 </v>
   <v>      -0.16666667       0.00000000      -0.33333333 </v>
   <v>      -0.00000000       0.16666667      -0.33333333 </v>
   <v>       0.16666667       0.16666667      -0.33333333 </v>
   <v>       0.33333333       0.16666667      -0.33333333 </v>
   <v>       0.50000000       0.16666667      -0.33333333 </v>
   <v>      -0.33333333       0.16666667      -0.33333333 </v>
   <v>      -0.16666667       0.16666667      -0.33333333 </v>
   <v>       0.00000000       0.33333333      -0.33333333 </v>
   <v>       0.16666667       0.33333333      -0.33333333 </v>
   <v>       0.33333333       0.33333333      -0.33333333 </v>
   <v>       0.50000000       0.33333333      -0.33333333 </v>
   <v>      -0.33333333       0.33333333      -0.33333333 </v>
   <v>      -0.16666667       0.33333333      -0.33333333 </v>
   <v>       0.00000000       0.50000000      -0.33333333 </v>
   <v>       0.16666667       0.50000000      -0.33333333 </v>
   <v>       0.33333333       0.50000000      -0.33333333 </v>
   <v>       0.50000000       0.50000000      -0.33333333 </v>
   <v>      -0.33333333       0.50000000      -0.33333333 </v>
   <v>      -0.16666667       0.50000000      -0.33333333 </v>
   <v>       0.00000000      -0.33333333      -0.33333333 </v>
   <v>       0.16666667      -0.33333333      -0.33333333 </v>
   <v>       0.33333333      -0.33333333      -0.33333333 </v>
   <v>       0.50000000      -0.33333333      -0.33333333 </v>
   <v>      -0.33333333      -0.33333333      -0.33333333 </v>
   <v>      -0.16666667      -0.33333333      -0.33333333 </v>
   <v>       0.00000000      -0.16666667      -0.33333333 </v>
   <v>       0.16666667      -0.16666667      -0.33333333 </v>
   <v>       0.33333333      -0.16666667      -0.33333333 </v>
   <v>       0.50000000      -0.16666667      -0.33333333 </v>
   <v>      -0.33333333      -0.16666667      -0.33333333 </v>
   <v>      -0.16666667      -0.16666667      -0.33333333 </v>
   <v>       0.00000000      -0.00000000      -0.16666667 </v>
   <v>       0.16666667      -0.00000000      -0.16666667 </v>
   <v>       0.33333333      -0.00000000      -0.16666667 </v>
   <v>       0.50000000      -0.00000000      -0.16666667 </v>
   <v>      -0.33333333       0.00000000      -0.16666667 </v>
   <v>      -0.16666667       0.00000000      -0.16666667 </v>
   <v>       0.00000000       0.16666667      -0.16666667 </v>
   <v>       0.16666667       0.16666667      -0.16666667 </v>
   <v>       0.33333333       0.16666667      -0.16666667 </v>
   <v>       0.50000000       0.16666667      -0.16666667 </v>
   <v>      -0.33333333       0.16666667      -0.16666667 </v>
   <v>      -0.16666667       0.16666667      -0.16666667 </v>
   <v>       0.00000000       0.33333333      -0.16666667 </v>
   <v>       0.16666667       0.33333333      -0.16666667 </v>
   <v>       0.33333333       0.33333333      -0.16666667 </v>
   <v>       0.50000000       0.33333333      -0.16666667 </v>
   <v>      -0.33333333       0.33333333      -0.16666667 </v>
   <v>      -0.16666667       0.33333333      -0.16666667 </v>
   <v>       0.00000000       0.50000000      -0.16666667 </v>
   <v>       0.16666667       0.50000000      -0.16666667 </v>
   <v>       0.33333333       0.50000000      -0.16666667 </v>
   <v>       0.50000000       0.50000000      -0.16666667 </v>
   <v>      -0.33333333       0.50000000      -0.16666667 </v>
   <v>      -0.16666667       0.50000000      -0.16666667 </v>
   <v>      -0.00000000      -0.33333333      -0.16666667 </v>
   <v>       0.16666667      -0.33333333      -0.16666667 </v>
   <v>       0.33333333      -0.33333333      -0.16666667 </v>
   <v>       0.50000000      -0.33333333      -0.16666667 </v>
   <v>      -0.33333333      -0.33333333      -0.16666667 </v>
   <v>      -0.16666667      -0.33333333      -0.16666667 </v>
   <v>       0.00000000      -0.16666667      -0.16666667 </v>
   <v>       0.16666667      -0.16666667      -0.16666667 </v>
   <v>       0.33333333      -0.16666667      -0.16666667 </v>
   <v>       0.50000000      -0.16666667      -0.16666667 </v>
   <v>      -0.33333333      -0.16666667      -0.16666667 </v>
   <v>      -0.16666667      -0.16666667      -0.16666667 </v>
  </varray>
  <varray name="weights" >
   <v>       0.00462963 </v>
   <v>       0.00462963 </v>
   <v>       0.00462963 </v>
   <v>       0.00462963 </v>
   <v>       0.00462963 </v>
   <v>       0.00462963 </v>
   <v>       0.00462963 </v>
   <v>       0.00462963 </v>
   <v>       0.00462963 </v>
   <v>       0.00462963 </v>
   <v>       0.00462963 </v>
   <v>       0.00462963 </v>
   <v>       0.00462963 </v>
   <v>       0.00462963 </v>
   <v>       0.00462963 </v>
   <v>       0.00462963 </v>
   <v>       0.00462963 </v>
   <v>       0.00462963 </v>
   <v>       0.00462963 </v>
   <v>       0.00462963 </v>
   <v>       0.00462963 </v>
   <v>       0.00462963 </v>
   <v>       0.00462963 </v>
   <v>       0.00462963 </v>
   <v>       0.00462963 </v>
   <v>       0.00462963 </v>
   <v>       0.00462963 </v>
   <v>       0.00462963 </v>
   <v>       0.00462963 </v>
   <v>       0.00462963 </v>
   <v>       0.00462963 </v>
   <v>       0.00462963 </v>
   <v>       0.00462963 </v>
   <v>       0.00462963 </v>
   <v>       0.00462963 </v>
   <v>       0.00462963 </v>
   <v>       0.00462963 </v>
   <v>       0.00462963 </v>
   <v>       0.00462963 </v>
   <v>       0.00462963 </v>
   <v>       0.00462963 </v>
   <v>       0.00462963 </v>
   <v>       0.00462963 </v>
   <v>       0.00462963 </v>
   <v>       0.00462963 </v>
   <v>       0.00462963 </v>
   <v>       0.00462963 </v>
   <v>       0.00462963 </v>
   <v>       0.00462963 </v>
   <v>       0.00462963 </v>
   <v>       0.00462963 </v>
   <v>       0.00462963 </v>
   <v>       0.00462963 </v>
   <v>       0.00462963 </v>
   <v>       0.00462963 </v>
   <v>       0.00462963 </v>
   <v>       0.00462963 </v>
   <v>       0.00462963 </v>
   <v>       0.00462963 </v>
   <v>       0.00462963 </v>
   <v>       0.00462963 </v>
   <v>       0.00462963 </v>
   <v>       0.00462963 </v>
   <v>       0.00462963 </v>
   <v>       0.00462963 </v>
   <v>       0.00462963 </v>
   <v>       0.00462963 </v>
   <v>       0.00462963 </v>
   <v>       0.00462963 </v>
   <v>       0.00462963 </v>
   <v>       0.00462963 </v>
   <v>       0.00462963 </v>
   <v>       0.00462963 </v>
   <v>       0.00462963 </v>
   <v>       0.00462963 </v>
   <v>       0.00462963 </v>
   <v>       0.00462963 </v>
   <v>       0.00462963 </v>
   <v>       0.00462963 </v>
   <v>       0.00462963 </v>
   <v>       0.00462963 </v>
   <v>       0.00462963 </v>
   <v>       0.00462963 </v>
   <v>       0.00462963 </v>
   <v>       0.00462963 </v>
   <v>       0.00462963 </v>
   <v>       0.00462963 </v>
   <v>       0.00462963 </v>
   <v>       0.00462963 </v>
   <v>       0.00462963 </v>
   <v>       0.00462963 </v>
   <v>       0.00462963 </v>
   <v>       0.00462963 </v>
   <v>       0.00462963 </v>
   <v>       0.00462963 </v>
   <v>       0.00462963 </v>
   <v>       0.00462963 </v>
   <v>       0.00462963 </v>
   <v>       0.00462963 </v>
   <v>       0.00462963 </v>
   <v>       0.00462963 </v>
   <v>       0.00462963 </v>
   <v>       0.00462963 </v>
   <v>       0.00462963 </v>
   <v>       0.00462963 </v>
   <v>       0.00462963 </v>
   <v>       0.00462963 </v>
   <v>       0.00462963 </v>
   <v>       0.00462963 </v>
   <v>       0.00462963 </v>
   <v>       0.00462963 </v>
   <v>       0.00462963 </v>
   <v>       0.00462963 </v>
   <v>       0.00462963 </v>
   <v>       0.00462963 </v>
   <v>       0.00462963 </v>
   <v>       0.00462963 </v>
   <v>       0.00462963 </v>
   <v>       0.00462963 </v>
   <v>       0.00462963 </v>
   <v>       0.00462963 </v>
   <v>       0.00462963 </v>
   <v>       0.00462963 </v>
   <v>       0.00462963 </v>
   <v>       0.00462963 </v>
   <v>       0.00462963 </v>
   <v>       0.00462963 </v>
   <v>       0.00462963 </v>
   <v>       0.00462963 </v>
   <v>       0.00462963 </v>
   <v>       0.00462963 </v>
   <v>       0.00462963 </v>
   <v>       0.00462963 </v>
   <v>       0.00462963 </v>
   <v>       0.00462963 </v>
   <v>       0.00462963 </v>
   <v>       0.00462963 </v>
   <v>       0.00462963 </v>
   <v>       0.00462963 </v>
   <v>       0.00462963 </v>
   <v>       0.00462963 </v>
   <v>       0.00462963 </v>
   <v>       0.00462963 </v>
   <v>       0.00462963 </v>
   <v>       0.00462963 </v>
   <v>       0.00462963 </v>
   <v>       0.00462963 </v>
   <v>       0.00462963 </v>
   <v>       0.00462963 </v>
   <v>       0.00462963 </v>
   <v>       0.00462963 </v>
   <v>       0.00462963 </v>
   <v>       0.00462963 </v>
   <v>       0.00462963 </v>
   <v>       0.00462963 </v>
   <v>       0.00462963 </v>
   <v>       0.00462963 </v>
   <v>       0.00462963 </v>
   <v>       0.00462963 </v>
   <v>       0.00462963 </v>
   <v>       0.00462963 </v>
   <v>       0.00462963 </v>
   <v>       0.00462963 </v>
   <v>       0.00462963 </v>
   <v>       0.00462963 </v>
   <v>       0.00462963 </v>
   <v>       0.00462963 </v>
   <v>       0.00462963 </v>
   <v>       0.00462963 </v>
   <v>       0.00462963 </v>
   <v>       0.00462963 </v>
   <v>       0.00462963 </v>
   <v>       0.00462963 </v>
   <v>       0.00462963 </v>
   <v>       0.00462963 </v>
   <v>       0.00462963 </v>
   <v>       0.00462963 </v>
   <v>       0.00462963 </v>
   <v>       0.00462963 </v>
   <v>       0.00462963 </v>
   <v>       0.00462963 </v>
   <v>       0.00462963 </v>
   <v>       0.00462963 </v>
   <v>       0.00462963 </v>
   <v>       0.00462963 </v>
   <v>       0.00462963 </v>
   <v>       0.00462963 </v>
   <v>       0.00462963 </v>
   <v>       0.00462963 </v>
   <v>       0.00462963 </v>
   <v>       0.00462963 </v>
   <v>       0.00462963 </v>
   <v>       0.00462963 </v>
   <v>       0.00462963 </v>
   <v>       0.00462963 </v>
   <v>       0.00462963 </v>
   <v>       0.00462963 </v>
   <v>       0.00462963 </v>
   <v>       0.00462963 </v>
   <v>       0.00462963 </v>
   <v>       0.00462963 </v>
   <v>       0.00462963 </v>
   <v>       0.00462963 </v>
   <v>       0.00462963 </v>
   <v>       0.00462963 </v>
   <v>       0.00462963 </v>
   <v>       0.00462963 </v>
   <v>       0.00462963 </v>
   <v>       0.00462963 </v>
   <v>       0.00462963 </v>
   <v>       0.00462963 </v>
   <v>       0.00462963 </v>
   <v>       0.00462963 </v>
   <v>       0.00462963 </v>
   <v>       0.00462963 </v>
   <v>       0.00462963 </v>
  </varray>
 </kpoints>
 <parameters>
  <separator name="general" >
   <i type="string" name="SYSTEM">Og_FCC</i>
   <i type="logical" name="LCOMPAT"> F  </i>
  </separator>
  <separator name="electronic" >
   <i type="string" name="PREC">accura</i>
   <i name="ENMAX">    300.00000000</i>
   <i name="ENAUG">    440.95700000</i>
   <i name="EDIFF">      0.00000001</i>
   <i type="int" name="IALGO">    90</i>
   <i type="int" name="IWAVPR">    10</i>
   <i type="int" name="NBANDS">   256</i>
   <i name="NELECT">     26.00000000</i>
   <i type="int" name="TURBO">     0</i>
   <i type="int" name="IRESTART">     0</i>
   <i type="int" name="NREBOOT">     0</i>
   <i type="int" name="NMIN">     0</i>
   <i name="EREF">      0.00000000</i>
   <separator name="electronic smearing" >
    <i type="int" name="ISMEAR">     0</i>
    <i name="SIGMA">      0.00100000</i>
    <i name="KSPACING">      0.50000000</i>
    <i type="logical" name="KGAMMA"> T  </i>
   </separator>
   <separator name="electronic projectors" >
    <i type="logical" name="LREAL"> F  </i>
    <v name="ROPT">      0.00000000</v>
    <i type="int" name="LMAXPAW">  -100</i>
    <i type="int" name="LMAXMIX">     2</i>
    <i type="logical" name="NLSPLINE"> F  </i>
   </separator>
   <separator name="electronic startup" >
    <i type="int" name="ISTART">     1</i>
    <i type="int" name="ICHARG">     0</i>
    <i type="int" name="INIWAV">     1</i>
   </separator>
   <separator name="electronic spin" >
    <i type="int" name="ISPIN">     1</i>
    <i type="logical" name="LNONCOLLINEAR"> T  </i>
    <v name="MAGMOM">      1.00000000      1.00000000      1.00000000</v>
    <i name="NUPDOWN">     -1.00000000</i>
    <i type="logical" name="LSORBIT"> T  </i>
    <v name="SAXIS">      0.00000000      0.00000000      1.00000000</v>
    <i type="logical" name="LSPIRAL"> F  </i>
    <v name="QSPIRAL">      0.00000000      0.00000000      0.00000000</v>
    <i type="logical" name="LZEROZ"> F  </i>
   </separator>
   <separator name="electronic exchange-correlation" >
    <i type="logical" name="LASPH"> F  </i>
    <i type="logical" name="LMETAGGA"> F  </i>
   </separator>
   <separator name="electronic convergence" >
    <i type="int" name="NELM">    50</i>
    <i type="int" name="NELMDL">    -5</i>
    <i type="int" name="NELMIN">     2</i>
    <i name="ENINI">    300.00000000</i>
    <separator name="electronic convergence detail" >
     <i type="logical" name="LDIAG"> T  </i>
     <i type="logical" name="LSUBROT"> F  </i>
     <i name="WEIMIN">      0.00000000</i>
     <i name="EBREAK">      0.00000000</i>
     <i name="DEPER">      0.30000000</i>
     <i type="int" name="NRMM">     4</i>
     <i name="TIME">      0.40000000</i>
    </separator>
   </separator>
   <separator name="electronic mixer" >
    <i name="AMIX">      0.40000000</i>
    <i name="BMIX">      1.00000000</i>
    <i name="AMIN">      0.10000000</i>
    <i name="AMIX_MAG">      1.60000000</i>
    <i name="BMIX_MAG">      1.00000000</i>
    <separator name="electronic mixer details" >
     <i type="int" name="IMIX">     4</i>
     <i type="logical" name="MIXFIRST"> F  </i>
     <i type="int" name="MAXMIX">    50</i>
     <i name="WC">    100.00000000</i>
     <i type="int" name="INIMIX">     1</i>
     <i type="int" name="MIXPRE">     1</i>
     <i type="int" name="MREMOVE">     5</i>
    </separator>
   </separator>
   <separator name="electronic dipolcorrection" >
    <i type="logical" name="LDIPOL"> F  </i>
    <i type="logical" name="LMONO"> F  </i>
    <i type="int" name="IDIPOL">     0</i>
    <i name="EPSILON">      1.00000000</i>
    <v name="DIPOL">   -100.00000000   -100.00000000   -100.00000000</v>
    <i name="EFIELD">      0.00000000</i>
   </separator>
  </separator>
  <separator name="grids" >
   <i type="int" name="NGX">    28</i>
   <i type="int" name="NGY">    28</i>
   <i type="int" name="NGZ">    28</i>
   <i type="int" name="NGXF">    56</i>
   <i type="int" name="NGYF">    56</i>
   <i type="int" name="NGZF">    56</i>
   <i type="logical" name="ADDGRID"> T  </i>
  </separator>
  <separator name="ionic" >
   <i type="int" name="NSW">     1</i>
   <i type="int" name="IBRION">    -1</i>
   <i type="int" name="MDALGO">     0</i>
   <i type="int" name="ISIF">     3</i>
   <i name="PSTRESS">      0.00000000</i>
   <i name="EDIFFG">      0.00001000</i>
   <i type="int" name="NFREE">     5</i>
   <i name="POTIM">      0.10000000</i>
   <i name="SMASS">     -3.00000000</i>
   <i name="SCALEE">      1.00000000</i>
  </separator>
  <separator name="ionic md" >
   <i name="TEBEG">      0.00010000</i>
   <i name="TEEND">      0.00010000</i>
   <i type="int" name="NBLOCK">     1</i>
   <i type="int" name="KBLOCK">     1</i>
   <i type="int" name="NPACO">   256</i>
   <i name="APACO">     16.00000000</i>
  </separator>
  <separator name="symmetry" >
   <i type="int" name="ISYM">     0</i>
   <i name="SYMPREC">      0.00000010</i>
  </separator>
  <separator name="dos" >
   <i type="int" name="LORBIT">     0</i>
   <v name="RWIGS">     -1.00000000</v>
   <i type="int" name="NEDOS">   301</i>
   <i name="EMIN">     10.00000000</i>
   <i name="EMAX">    -10.00000000</i>
   <i name="EFERMI">      0.00000000</i>
  </separator>
  <separator name="writing" >
   <i type="int" name="NWRITE">     2</i>
   <i type="logical" name="LWAVE"> T  </i>
   <i type="logical" name="LDOWNSAMPLE"> F  </i>
   <i type="logical" name="LCHARG"> F  </i>
   <i type="logical" name="LPARD"> F  </i>
   <i type="logical" name="LVTOT"> F  </i>
   <i type="logical" name="LVHAR"> F  </i>
   <i type="logical" name="LELF"> F  </i>
   <i type="logical" name="LOPTICS"> T  </i>
   <v name="STM">      0.00000000      0.00000000      0.00000000      0.00000000      0.00000000      0.00000000      0.00000000</v>
  </separator>
  <separator name="performance" >
   <i type="int" name="NPAR">     4</i>
   <i type="int" name="NSIM">     4</i>
   <i type="int" name="NBLK">    -1</i>
   <i type="logical" name="LPLANE"> T  </i>
   <i type="logical" name="LSCALAPACK"> T  </i>
   <i type="logical" name="LSCAAWARE"> T  </i>
   <i type="logical" name="LSCALU"> F  </i>
   <i type="logical" name="LASYNC"> F  </i>
   <i type="logical" name="LORBITALREAL"> F  </i>
  </separator>
  <separator name="miscellaneous" >
   <i type="int" name="IDIOT">     3</i>
   <i type="int" name="ISPECIAL">     0</i>
   <i type="logical" name="LMUSIC"> F  </i>
   <v name="POMASS">      0.01000000</v>
   <v name="DARWINR">      0.00000000</v>
   <v name="DARWINV">      1.00000000</v>
   <i type="logical" name="LCORR"> T  </i>
  </separator>
  <i type="logical" name="GGA_COMPAT"> F  </i>
  <i type="logical" name="LBERRY"> F  </i>
  <i type="int" name="ICORELEVEL">     0</i>
  <i type="logical" name="LDAU"> F  </i>
  <i type="int" name="I_CONSTRAINED_M">     0</i>
  <separator name="electronic exchange-correlation" >
   <i type="string" name="GGA">PE</i>
   <i type="int" name="VOSKOWN">     0</i>
   <i type="logical" name="LHFCALC"> F  </i>
   <i type="string" name="PRECFOCK"></i>
   <i type="logical" name="LSYMGRAD"> F  </i>
   <i type="logical" name="LHFONE"> F  </i>
   <i type="logical" name="LRHFCALC"> F  </i>
   <i type="logical" name="LTHOMAS"> F  </i>
   <i type="logical" name="LMODELHF"> F  </i>
   <i name="ENCUT4O">     -1.00000000</i>
   <i type="int" name="EXXOEP">     0</i>
   <i type="int" name="FOURORBIT">     0</i>
   <i name="AEXX">      0.00000000</i>
   <i name="HFALPHA">      0.00000000</i>
   <i name="MCALPHA">      0.00000000</i>
   <i name="ALDAX">      1.00000000</i>
   <i name="AGGAX">      1.00000000</i>
   <i name="ALDAC">      1.00000000</i>
   <i name="AGGAC">      1.00000000</i>
   <i type="int" name="NKREDX">     1</i>
   <i type="int" name="NKREDY">     1</i>
   <i type="int" name="NKREDZ">     1</i>
   <i type="logical" name="SHIFTRED"> F  </i>
   <i type="logical" name="ODDONLY"> F  </i>
   <i type="logical" name="EVENONLY"> F  </i>
   <i type="int" name="LMAXFOCK">     0</i>
   <i type="int" name="NMAXFOCKAE">     0</i>
   <i type="logical" name="LFOCKAEDFT"> F  </i>
   <i name="HFSCREEN">      0.00000000</i>
   <i name="HFSCREENC">      0.00000000</i>
   <i type="int" name="NBANDSGWLOW">     0</i>
  </separator>
  <separator name="vdW DFT" >
   <i type="logical" name="LUSE_VDW"> F  </i>
   <i name="Zab_VDW">     -0.84910000</i>
   <i name="PARAM1">      0.12340000</i>
   <i name="PARAM2">      1.00000000</i>
   <i name="PARAM3">      0.00000000</i>
  </separator>
  <separator name="model GW" >
   <i type="int" name="MODEL_GW">     0</i>
   <i name="MODEL_EPS0">     36.05064879</i>
   <i name="MODEL_ALPHA">      1.00000000</i>
  </separator>
  <separator name="linear response parameters" >
   <i type="logical" name="LEPSILON"> F  </i>
   <i type="logical" name="LRPA"> F  </i>
   <i type="logical" name="LNABLA"> F  </i>
   <i type="logical" name="LVEL"> F  </i>
   <i type="int" name="KINTER">     0</i>
   <i name="CSHIFT">      0.10000000</i>
   <i name="OMEGAMAX">     -1.00000000</i>
   <i name="DEG_THRESHOLD">      0.00200000</i>
   <i name="RTIME">     -0.10000000</i>
   <i name="WPLASMAI">      0.00000000</i>
   <v name="DFIELD">      0.00000000      0.00000000      0.00000000</v>
   <v name="WPLASMA">      0.00000000      0.00000000      0.00000000      0.00000000      0.00000000      0.00000000      0.00000000      0.00000000      0.00000000</v>
  </separator>
  <separator name="orbital magnetization" >
   <i type="logical" name="NUCIND"> F  </i>
   <v name="MAGPOS">      0.00000000      0.00000000      0.00000000</v>
   <i type="logical" name="LNICSALL"> T  </i>
   <i type="logical" name="ORBITALMAG"> F  </i>
   <i type="logical" name="LMAGBLOCH"> F  </i>
   <i type="logical" name="LCHIMAG"> F  </i>
   <i type="logical" name="LGAUGE"> T  </i>
   <i type="int" name="MAGATOM">     0</i>
   <v name="MAGDIPOL">      0.00000000      0.00000000      0.00000000</v>
   <v name="AVECCONST">      0.00000000      0.00000000      0.00000000</v>
  </separator>
  <separator name="response functions" >
   <i type="logical" name="LADDER"> F  </i>
   <i type="logical" name="LRPAFORCE"> F  </i>
   <i type="logical" name="LFXC"> F  </i>
   <i type="logical" name="LHARTREE"> T  </i>
   <i type="int" name="IBSE">     0</i>
   <v type="int" name="KPOINT">    -1     0     0     0</v>
   <i type="logical" name="LTCTE"> F  </i>
   <i type="logical" name="LTETE"> F  </i>
   <i type="logical" name="LTRIPLET"> F  </i>
   <i type="logical" name="LFXCEPS"> F  </i>
   <i type="logical" name="LFXHEG"> F  </i>
   <i type="int" name="NATURALO">     2</i>
   <i type="logical" name="L2ORDER"> F  </i>
   <i type="logical" name="LMP2LT"> F  </i>
   <i type="logical" name="LUSEW"> F  </i>
   <i name="ENCUTGW">     -2.00000000</i>
   <i name="ENCUTGWSOFT">     -2.00000000</i>
   <i name="ENCUTLF">     -1.00000000</i>
   <i type="int" name="LMAXMP2">    -1</i>
   <i name="SCISSOR">      0.00000000</i>
   <i type="int" name="NOMEGA">     0</i>
   <i type="int" name="NOMEGAR">     0</i>
   <i type="int" name="NBANDSGW">    -1</i>
   <i type="int" name="NBANDSO">    -1</i>
   <i type="int" name="NBANDSV">    -1</i>
   <i type="int" name="NELM">    50</i>
   <i type="int" name="NELMHF">     1</i>
   <i type="int" name="DIM">     3</i>
   <i type="int" name="ANTIRES">     0</i>
   <i name="OMEGAMAX">    -30.00000000</i>
   <i name="OMEGAMIN">    -30.00000000</i>
   <i name="OMEGATL">   -200.00000000</i>
   <i type="int" name="OMEGAGRID">   140</i>
   <i name="CSHIFT">     -0.10000000</i>
   <i type="logical" name="SELFENERGY"> F  </i>
   <i type="logical" name="LSPECTRAL"> F  </i>
   <i type="logical" name="LSPECTRALGW"> F  </i>
   <i type="logical" name="LSINGLES"> F  </i>
   <i type="logical" name="LFERMIGW"> F  </i>
   <i type="logical" name="ODDONLYGW"> F  </i>
   <i type="logical" name="EVENONLYGW"> F  </i>
   <i type="int" name="NKREDLFX">     1</i>
   <i type="int" name="NKREDLFY">     1</i>
   <i type="int" name="NKREDLFZ">     1</i>
   <i type="int" name="MAXMEM">  2800</i>
   <i type="int" name="TELESCOPE">     0</i>
   <i type="int" name="TAUPAR">     1</i>
   <i type="int" name="OMEGAPAR">    -1</i>
   <i name="LAMBDA">      1.00000000</i>
  </separator>
  <separator name="External order field" >
   <i name="OFIELD_KAPPA">      0.00000000</i>
   <v name="OFIELD_K">      0.00000000      0.00000000      0.00000000</v>
   <i name="OFIELD_Q6_NEAR">      0.00000000</i>
   <i name="OFIELD_Q6_FAR">      0.00000000</i>
   <i name="OFIELD_A">      0.00000000</i>
  </separator>
 </parameters>
 <atominfo>
  <atoms>       1 </atoms>
  <types>       1 </types>
  <array name="atoms" >
   <dimension dim="1">ion</dimension>
   <field type="string">element</field>
   <field type="int">atomtype</field>
   <set>
    <rc><c>Og</c><c>   1</c></rc>
   </set>
  </array>
  <array name="atomtypes" >
   <dimension dim="1">type</dimension>
   <field type="int">atomspertype</field>
   <field type="string">element</field>
   <field>mass</field>
   <field>valence</field>
   <field type="string">pseudopotential</field>
   <set>
    <rc><c>   1</c><c>Og</c><c>      0.01000000</c><c>     26.00000000</c><c>  PAW-PBE Og 26VE, fit to 4cPBE, JanMewe</c></rc>
   </set>
  </array>
 </atominfo>
 <structure name="initialpos" >
  <crystal>
   <varray name="basis" >
    <v>       4.39635018       0.00000000       0.00000000 </v>
    <v>       2.19817509       3.80735094      -0.00000000 </v>
    <v>       2.19817509       1.26911698       3.58960489 </v>
   </varray>
   <i name="volume">     60.08441465 </i>
   <varray name="rec_basis" >
    <v>       0.22746141      -0.13132490      -0.09286073 </v>
    <v>       0.00000000       0.26264981      -0.09286073 </v>
    <v>      -0.00000000       0.00000000       0.27858219 </v>
   </varray>
  </crystal>
  <varray name="positions" >
   <v>       0.00000000       0.00000000       0.00000000 </v>
  </varray>
  <varray name="velocities" >
   <v>       0.00000000       0.00000000       0.00000000 </v>
  </varray>
 </structure>
 <calculation>
  <scstep>
   <time name="diag">  107.85  107.92</time>
   <time name="total">  107.94  108.00</time>
   <energy>
    <i name="alphaZ">    109.17887805 </i>
    <i name="ewald">  -3589.15135869 </i>
    <i name="hartreedc">  -2285.74987789 </i>
    <i name="XCdc">    111.43401712 </i>
    <i name="pawpsdc">   5446.08291221 </i>
    <i name="pawaedc">  -5443.22140404 </i>
    <i name="eentropy">     -0.00000002 </i>
    <i name="bandstr">  -1413.08856972 </i>
    <i name="atom">   7048.12983700 </i>
    <i name="e_fr_energy">    -16.38556599 </i>
    <i name="e_wo_entrp">    -16.38556596 </i>
    <i name="e_0_energy">    -16.38556598 </i>
   </energy>
  </scstep>
  <scstep>
   <time name="diag">  107.69  107.71</time>
   <time name="total">  107.70  107.72</time>
   <energy>
    <i name="e_fr_energy">    -16.38556599 </i>
    <i name="e_wo_entrp">    -16.38556596 </i>
    <i name="e_0_energy">    -16.38556598 </i>
   </energy>
  </scstep>
  <scstep>
   <time name="diag">  107.99  108.02</time>
   <time name="total">  108.01  108.03</time>
   <energy>
    <i name="e_fr_energy">    -16.38556599 </i>
    <i name="e_wo_entrp">    -16.38556596 </i>
    <i name="e_0_energy">    -16.38556598 </i>
   </energy>
  </scstep>
  <scstep>
   <time name="diag">  107.93  108.10</time>
   <time name="total">  107.94  108.12</time>
   <energy>
    <i name="e_fr_energy">    -16.38556599 </i>
    <i name="e_wo_entrp">    -16.38556596 </i>
    <i name="e_0_energy">    -16.38556598 </i>
   </energy>
  </scstep>
  <scstep>
   <time name="diag">  107.74  107.77</time>
   <time name="total">  107.89  107.92</time>
   <energy>
    <i name="e_fr_energy">    -16.38556599 </i>
    <i name="e_wo_entrp">    -16.38556596 </i>
    <i name="e_0_energy">    -16.38556598 </i>
   </energy>
  </scstep>
  <scstep>
   <time name="diag">  107.85  108.01</time>
   <time name="total">  107.93  108.10</time>
   <energy>
    <i name="alphaZ">    109.17887805 </i>
    <i name="ewald">  -3589.15135869 </i>
    <i name="hartreedc">  -2285.74989873 </i>
    <i name="XCdc">    111.43401765 </i>
    <i name="pawpsdc">   5446.08296462 </i>
    <i name="pawaedc">  -5443.22145630 </i>
    <i name="eentropy">     -0.00000002 </i>
    <i name="bandstr">  -1413.08854957 </i>
    <i name="atom">   7048.12983700 </i>
    <i name="e_fr_energy">    -16.38556599 </i>
    <i name="e_wo_entrp">    -16.38556596 </i>
    <i name="e_0_energy">    -16.38556597 </i>
   </energy>
  </scstep>
  <structure>
   <crystal>
    <varray name="basis" >
     <v>       4.39635018       0.00000000       0.00000000 </v>
     <v>       2.19817509       3.80735094      -0.00000000 </v>
     <v>       2.19817509       1.26911698       3.58960489 </v>
    </varray>
    <i name="volume">     60.08441465 </i>
    <varray name="rec_basis" >
     <v>       0.22746141      -0.13132490      -0.09286073 </v>
     <v>       0.00000000       0.26264981      -0.09286073 </v>
     <v>      -0.00000000       0.00000000       0.27858219 </v>
    </varray>
   </crystal>
   <varray name="positions" >
    <v>       0.00000000       0.00000000       0.00000000 </v>
   </varray>
  </structure>
  <varray name="forces" >
   <v>       0.00000000       0.00000000       0.00000000 </v>
  </varray>
  <varray name="stress" >
   <v>   -1406.08692058      -0.00038813      -0.00026794 </v>
   <v>      -0.00038862   -1406.08627656      -0.00015630 </v>
   <v>      -0.00026880      -0.00015563   -1406.08608285 </v>
  </varray>
  <energy>
   <i name="e_fr_energy">    -16.80904840 </i>
   <i name="e_wo_entrp">    -16.80904839 </i>
   <i name="e_0_energy">     -0.00000002 </i>
  </energy>
  <time name="totalsc">  653.46  655.08</time>
  <eigenvalues>
   <array>
    <dimension dim="1">band</dimension>
    <dimension dim="2">kpoint</dimension>
    <dimension dim="3">spin</dimension>
    <field>eigene</field>
    <field>occ</field>
    <set>
     <set comment="spin 1">
      <set comment="kpoint 1">
       <r> -220.0762    1.0000 </r>
       <r> -220.0762    1.0000 </r>
       <r> -139.4343    1.0000 </r>
       <r> -139.4343    1.0000 </r>
       <r>  -90.7648    1.0000 </r>
       <r>  -90.7648    1.0000 </r>
       <r>  -90.7646    1.0000 </r>
       <r>  -90.7646    1.0000 </r>
       <r>  -33.2695    1.0000 </r>
       <r>  -33.2694    1.0000 </r>
       <r>  -33.2693    1.0000 </r>
       <r>  -33.2693    1.0000 </r>
       <r>  -26.1351    1.0000 </r>
       <r>  -26.1344    1.0000 </r>
       <r>  -26.1136    1.0000 </r>
       <r>  -26.1132    1.0000 </r>
       <r>  -26.1130    1.0000 </r>
       <r>  -26.1127    1.0000 </r>
       <r>  -21.3661    1.0000 </r>
       <r>  -21.3654    1.0000 </r>
       <r>   -2.9277    1.0000 </r>
       <r>   -2.9265    1.0000 </r>
       <r>    3.6762    1.0000 </r>
       <r>    3.6765    1.0000 </r>
       <r>    3.7670    0.9996 </r>
       <r>    3.7670    0.9995 </r>
       <r>    3.7716    0.0005 </r>
       <r>    3.7717    0.0004 </r>
       <r>   10.7429    0.0000 </r>
       <r>   10.7430    0.0000 </r>
       <r>   10.7436    0.0000 </r>
       <r>   10.7437    0.0000 </r>
       <r>   11.2142    0.0000 </r>
       <r>   11.2147    0.0000 </r>
       <r>   11.2231    0.0000 </r>
       <r>   11.2245    0.0000 </r>
       <r>   13.3229    0.0000 </r>
       <r>   13.3254    0.0000 </r>
       <r>   13.5081    0.0000 </r>
       <r>   13.5084    0.0000 </r>
       <r>   13.5091    0.0000 </r>
       <r>   13.5093    0.0000 </r>
       <r>   14.0521    0.0000 </r>
       <r>   14.0534    0.0000 </r>
       <r>   14.0543    0.0000 </r>
       <r>   14.0556    0.0000 </r>
       <r>   16.3126    0.0000 </r>
       <r>   16.3129    0.0000 </r>
       <r>   19.9579    0.0000 </r>
       <r>   19.9582    0.0000 </r>
       <r>   19.9584    0.0000 </r>
       <r>   19.9593    0.0000 </r>
       <r>   19.9595    0.0000 </r>
       <r>   19.9598    0.0000 </r>
       <r>   24.3170    0.0000 </r>
       <r>   24.3190    0.0000 </r>
       <r>   25.6546    0.0000 </r>
       <r>   25.6548    0.0000 </r>
       <r>   25.6565    0.0000 </r>
       <r>   25.6567    0.0000 </r>
       <r>   25.7893    0.0000 </r>
       <r>   25.7900    0.0000 </r>
       <r>   28.0038    0.0000 </r>
       <r>   28.0045    0.0000 </r>
       <r>   28.7728    0.0000 </r>
       <r>   28.7737    0.0000 </r>
       <r>   28.7739    0.0000 </r>
       <r>   28.7748    0.0000 </r>
       <r>   29.3002    0.0000 </r>
       <r>   29.3007    0.0000 </r>
       <r>   29.5907    0.0000 </r>
       <r>   29.5909    0.0000 </r>
       <r>   29.5915    0.0000 </r>
       <r>   29.5917    0.0000 </r>
       <r>   30.0281    0.0000 </r>
       <r>   30.0284    0.0000 </r>
       <r>   30.8892    0.0000 </r>
       <r>   30.8893    0.0000 </r>
       <r>   30.8905    0.0000 </r>
       <r>   30.8906    0.0000 </r>
       <r>   36.9893    0.0000 </r>
       <r>   36.9900    0.0000 </r>
       <r>   36.9901    0.0000 </r>
       <r>   36.9903    0.0000 </r>
       <r>   36.9904    0.0000 </r>
       <r>   36.9911    0.0000 </r>
       <r>   37.9521    0.0000 </r>
       <r>   37.9523    0.0000 </r>
       <r>   37.9532    0.0000 </r>
       <r>   37.9547    0.0000 </r>
       <r>   37.9556    0.0000 </r>
       <r>   37.9559    0.0000 </r>
       <r>   39.2823    0.0000 </r>
       <r>   39.2838    0.0000 </r>
       <r>   40.2933    0.0000 </r>
       <r>   40.2935    0.0000 </r>
       <r>   40.2938    0.0000 </r>
       <r>   40.2941    0.0000 </r>
       <r>   40.5529    0.0000 </r>
       <r>   40.5536    0.0000 </r>
       <r>   41.5946    0.0000 </r>
       <r>   41.5952    0.0000 </r>
       <r>   41.6572    0.0000 </r>
       <r>   41.6583    0.0000 </r>
       <r>   41.6590    0.0000 </r>
       <r>   41.6601    0.0000 </r>
       <r>   42.4574    0.0000 </r>
       <r>   42.4579    0.0000 </r>
       <r>   42.4582    0.0000 </r>
       <r>   42.4587    0.0000 </r>
       <r>   42.9091    0.0000 </r>
       <r>   42.9092    0.0000 </r>
       <r>   42.9110    0.0000 </r>
       <r>   42.9112    0.0000 </r>
       <r>   42.9356    0.0000 </r>
       <r>   42.9361    0.0000 </r>
       <r>   42.9365    0.0000 </r>
       <r>   42.9370    0.0000 </r>
       <r>   43.1839    0.0000 </r>
       <r>   43.1845    0.0000 </r>
       <r>   44.2551    0.0000 </r>
       <r>   44.2557    0.0000 </r>
       <r>   44.8944    0.0000 </r>
       <r>   44.8957    0.0000 </r>
       <r>   45.1530    0.0000 </r>
       <r>   45.1532    0.0000 </r>
       <r>   45.1543    0.0000 </r>
       <r>   45.1545    0.0000 </r>
       <r>   45.9757    0.0000 </r>
       <r>   45.9759    0.0000 </r>
       <r>   46.2373    0.0000 </r>
       <r>   46.2374    0.0000 </r>
       <r>   46.2376    0.0000 </r>
       <r>   46.2378    0.0000 </r>
       <r>   46.3157    0.0000 </r>
       <r>   46.3165    0.0000 </r>
       <r>   49.2349    0.0000 </r>
       <r>   49.2353    0.0000 </r>
       <r>   49.2354    0.0000 </r>
       <r>   49.2365    0.0000 </r>
       <r>   49.2365    0.0000 </r>
       <r>   49.2369    0.0000 </r>
       <r>   52.3343    0.0000 </r>
       <r>   52.3363    0.0000 </r>
       <r>   52.4254    0.0000 </r>
       <r>   52.4256    0.0000 </r>
       <r>   52.4266    0.0000 </r>
       <r>   52.4268    0.0000 </r>
       <r>   56.4591    0.0000 </r>
       <r>   56.4595    0.0000 </r>
       <r>   57.5624    0.0000 </r>
       <r>   57.5630    0.0000 </r>
       <r>   57.7289    0.0000 </r>
       <r>   57.7291    0.0000 </r>
       <r>   57.7297    0.0000 </r>
       <r>   57.7299    0.0000 </r>
       <r>   63.9480    0.0000 </r>
       <r>   63.9487    0.0000 </r>
       <r>   64.3665    0.0000 </r>
       <r>   64.3669    0.0000 </r>
       <r>   64.3674    0.0000 </r>
       <r>   64.3679    0.0000 </r>
       <r>   65.2576    0.0000 </r>
       <r>   65.2578    0.0000 </r>
       <r>   65.2590    0.0000 </r>
       <r>   65.2592    0.0000 </r>
       <r>   65.3087    0.0000 </r>
       <r>   65.3089    0.0000 </r>
       <r>   66.3183    0.0000 </r>
       <r>   66.3191    0.0000 </r>
       <r>   66.3196    0.0000 </r>
       <r>   66.3204    0.0000 </r>
       <r>   67.3704    0.0000 </r>
       <r>   67.3706    0.0000 </r>
       <r>   67.3712    0.0000 </r>
       <r>   67.3724    0.0000 </r>
       <r>   67.3730    0.0000 </r>
       <r>   67.3731    0.0000 </r>
       <r>   69.9081    0.0000 </r>
       <r>   69.9091    0.0000 </r>
       <r>   70.7732    0.0000 </r>
       <r>   70.7735    0.0000 </r>
       <r>   70.7749    0.0000 </r>
       <r>   70.7751    0.0000 </r>
       <r>   71.3543    0.0000 </r>
       <r>   71.3556    0.0000 </r>
       <r>   71.3562    0.0000 </r>
       <r>   71.3574    0.0000 </r>
       <r>   72.4324    0.0000 </r>
       <r>   72.4330    0.0000 </r>
       <r>   72.4330    0.0000 </r>
       <r>   72.4334    0.0000 </r>
       <r>   72.4335    0.0000 </r>
       <r>   72.4341    0.0000 </r>
       <r>   72.5820    0.0000 </r>
       <r>   72.5823    0.0000 </r>
       <r>   72.5830    0.0000 </r>
       <r>   72.5833    0.0000 </r>
       <r>   72.5839    0.0000 </r>
       <r>   72.5842    0.0000 </r>
       <r>   73.1256    0.0000 </r>
       <r>   73.1261    0.0000 </r>
       <r>   73.7459    0.0000 </r>
       <r>   73.7468    0.0000 </r>
       <r>   74.8755    0.0000 </r>
       <r>   74.8765    0.0000 </r>
       <r>   75.1025    0.0000 </r>
       <r>   75.1026    0.0000 </r>
       <r>   75.1039    0.0000 </r>
       <r>   75.1041    0.0000 </r>
       <r>   75.6173    0.0000 </r>
       <r>   75.6175    0.0000 </r>
       <r>   75.6184    0.0000 </r>
       <r>   75.6186    0.0000 </r>
       <r>   75.7008    0.0000 </r>
       <r>   75.7015    0.0000 </r>
       <r>   76.9074    0.0000 </r>
       <r>   76.9082    0.0000 </r>
       <r>   76.9088    0.0000 </r>
       <r>   76.9097    0.0000 </r>
       <r>   76.9297    0.0000 </r>
       <r>   76.9302    0.0000 </r>
       <r>   76.9304    0.0000 </r>
       <r>   76.9311    0.0000 </r>
       <r>   76.9314    0.0000 </r>
       <r>   76.9318    0.0000 </r>
       <r>   77.0954    0.0000 </r>
       <r>   77.0957    0.0000 </r>
       <r>   78.7465    0.0000 </r>
       <r>   78.7466    0.0000 </r>
       <r>   78.7475    0.0000 </r>
       <r>   78.7476    0.0000 </r>
       <r>   79.0080    0.0000 </r>
       <r>   79.0086    0.0000 </r>
       <r>   80.0230    0.0000 </r>
       <r>   80.0232    0.0000 </r>
       <r>   80.0234    0.0000 </r>
       <r>   80.0236    0.0000 </r>
       <r>   80.1234    0.0000 </r>
       <r>   80.1240    0.0000 </r>
       <r>   80.2495    0.0000 </r>
       <r>   80.2498    0.0000 </r>
       <r>   81.4287    0.0000 </r>
       <r>   81.4298    0.0000 </r>
       <r>   81.4304    0.0000 </r>
       <r>   81.4314    0.0000 </r>
       <r>   83.2992    0.0000 </r>
       <r>   83.3011    0.0000 </r>
       <r>   83.6195    0.0000 </r>
       <r>   83.6198    0.0000 </r>
       <r>   83.6206    0.0000 </r>
       <r>   83.6208    0.0000 </r>
       <r>   85.3901    0.0000 </r>
       <r>   85.3901    0.0000 </r>
       <r>   85.3907    0.0000 </r>
       <r>   85.3912    0.0000 </r>
      </set>
      <set comment="kpoint 2">
       <r> -220.0584    1.0000 </r>
       <r> -220.0584    1.0000 </r>
       <r> -139.1598    1.0000 </r>
       <r> -139.1597    1.0000 </r>
       <r>  -90.7445    1.0000 </r>
       <r>  -90.7444    1.0000 </r>
       <r>  -90.7068    1.0000 </r>
       <r>  -90.7067    1.0000 </r>
       <r>  -33.2587    1.0000 </r>
       <r>  -33.2586    1.0000 </r>
       <r>  -33.2406    1.0000 </r>
       <r>  -33.2405    1.0000 </r>
       <r>  -26.1122    1.0000 </r>
       <r>  -26.1122    1.0000 </r>
       <r>  -26.0808    1.0000 </r>
       <r>  -26.0801    1.0000 </r>
       <r>  -26.0730    1.0000 </r>
       <r>  -26.0728    1.0000 </r>
       <r>  -21.3461    1.0000 </r>
       <r>  -21.3455    1.0000 </r>
       <r>   -3.1152    1.0000 </r>
       <r>   -3.1140    1.0000 </r>
       <r>    2.2385    1.0000 </r>
       <r>    2.2405    1.0000 </r>
       <r>    3.6273    1.0000 </r>
       <r>    3.6304    1.0000 </r>
       <r>    5.3967    0.0000 </r>
       <r>    5.3975    0.0000 </r>
       <r>    9.8735    0.0000 </r>
       <r>    9.8742    0.0000 </r>
       <r>   10.8997    0.0000 </r>
       <r>   10.9000    0.0000 </r>
       <r>   11.3347    0.0000 </r>
       <r>   11.3351    0.0000 </r>
       <r>   12.2217    0.0000 </r>
       <r>   12.2226    0.0000 </r>
       <r>   12.4133    0.0000 </r>
       <r>   12.4150    0.0000 </r>
       <r>   12.5997    0.0000 </r>
       <r>   12.6011    0.0000 </r>
       <r>   13.7115    0.0000 </r>
       <r>   13.7125    0.0000 </r>
       <r>   15.7075    0.0000 </r>
       <r>   15.7092    0.0000 </r>
       <r>   15.7847    0.0000 </r>
       <r>   15.7864    0.0000 </r>
       <r>   18.0127    0.0000 </r>
       <r>   18.0131    0.0000 </r>
       <r>   19.5258    0.0000 </r>
       <r>   19.5270    0.0000 </r>
       <r>   19.6317    0.0000 </r>
       <r>   19.6330    0.0000 </r>
       <r>   20.0228    0.0000 </r>
       <r>   20.0241    0.0000 </r>
       <r>   22.5894    0.0000 </r>
       <r>   22.5899    0.0000 </r>
       <r>   24.6690    0.0000 </r>
       <r>   24.6697    0.0000 </r>
       <r>   25.1198    0.0000 </r>
       <r>   25.1211    0.0000 </r>
       <r>   25.4168    0.0000 </r>
       <r>   25.4177    0.0000 </r>
       <r>   26.6705    0.0000 </r>
       <r>   26.6714    0.0000 </r>
       <r>   27.4439    0.0000 </r>
       <r>   27.4442    0.0000 </r>
       <r>   28.0243    0.0000 </r>
       <r>   28.0250    0.0000 </r>
       <r>   29.4517    0.0000 </r>
       <r>   29.4532    0.0000 </r>
       <r>   29.9079    0.0000 </r>
       <r>   29.9088    0.0000 </r>
       <r>   30.0726    0.0000 </r>
       <r>   30.0734    0.0000 </r>
       <r>   30.6682    0.0000 </r>
       <r>   30.6682    0.0000 </r>
       <r>   32.1981    0.0000 </r>
       <r>   32.1994    0.0000 </r>
       <r>   34.8648    0.0000 </r>
       <r>   34.8655    0.0000 </r>
       <r>   35.0676    0.0000 </r>
       <r>   35.0686    0.0000 </r>
       <r>   35.7800    0.0000 </r>
       <r>   35.7804    0.0000 </r>
       <r>   35.8693    0.0000 </r>
       <r>   35.8701    0.0000 </r>
       <r>   36.0353    0.0000 </r>
       <r>   36.0357    0.0000 </r>
       <r>   37.5834    0.0000 </r>
       <r>   37.5836    0.0000 </r>
       <r>   38.2385    0.0000 </r>
       <r>   38.2400    0.0000 </r>
       <r>   38.6081    0.0000 </r>
       <r>   38.6089    0.0000 </r>
       <r>   38.6512    0.0000 </r>
       <r>   38.6520    0.0000 </r>
       <r>   38.7794    0.0000 </r>
       <r>   38.7798    0.0000 </r>
       <r>   39.6392    0.0000 </r>
       <r>   39.6395    0.0000 </r>
       <r>   39.6634    0.0000 </r>
       <r>   39.6638    0.0000 </r>
       <r>   40.5909    0.0000 </r>
       <r>   40.5917    0.0000 </r>
       <r>   40.5924    0.0000 </r>
       <r>   40.5929    0.0000 </r>
       <r>   41.5758    0.0000 </r>
       <r>   41.5763    0.0000 </r>
       <r>   42.1100    0.0000 </r>
       <r>   42.1110    0.0000 </r>
       <r>   42.3783    0.0000 </r>
       <r>   42.3789    0.0000 </r>
       <r>   43.4189    0.0000 </r>
       <r>   43.4195    0.0000 </r>
       <r>   43.8826    0.0000 </r>
       <r>   43.8833    0.0000 </r>
       <r>   43.9806    0.0000 </r>
       <r>   43.9814    0.0000 </r>
       <r>   44.0554    0.0000 </r>
       <r>   44.0563    0.0000 </r>
       <r>   45.2647    0.0000 </r>
       <r>   45.2655    0.0000 </r>
       <r>   46.2874    0.0000 </r>
       <r>   46.2878    0.0000 </r>
       <r>   46.5336    0.0000 </r>
       <r>   46.5342    0.0000 </r>
       <r>   47.5782    0.0000 </r>
       <r>   47.5785    0.0000 </r>
       <r>   48.4484    0.0000 </r>
       <r>   48.4490    0.0000 </r>
       <r>   48.4503    0.0000 </r>
       <r>   48.4506    0.0000 </r>
       <r>   49.0512    0.0000 </r>
       <r>   49.0519    0.0000 </r>
       <r>   49.4584    0.0000 </r>
       <r>   49.4591    0.0000 </r>
       <r>   50.7255    0.0000 </r>
       <r>   50.7263    0.0000 </r>
       <r>   51.0119    0.0000 </r>
       <r>   51.0127    0.0000 </r>
       <r>   51.1379    0.0000 </r>
       <r>   51.1383    0.0000 </r>
       <r>   52.3446    0.0000 </r>
       <r>   52.3453    0.0000 </r>
       <r>   52.4043    0.0000 </r>
       <r>   52.4050    0.0000 </r>
       <r>   52.8020    0.0000 </r>
       <r>   52.8024    0.0000 </r>
       <r>   55.7499    0.0000 </r>
       <r>   55.7504    0.0000 </r>
       <r>   57.8288    0.0000 </r>
       <r>   57.8295    0.0000 </r>
       <r>   57.8896    0.0000 </r>
       <r>   57.8901    0.0000 </r>
       <r>   58.7771    0.0000 </r>
       <r>   58.7778    0.0000 </r>
       <r>   61.4042    0.0000 </r>
       <r>   61.4053    0.0000 </r>
       <r>   61.6312    0.0000 </r>
       <r>   61.6321    0.0000 </r>
       <r>   62.5822    0.0000 </r>
       <r>   62.5829    0.0000 </r>
       <r>   62.6194    0.0000 </r>
       <r>   62.6209    0.0000 </r>
       <r>   63.9570    0.0000 </r>
       <r>   63.9576    0.0000 </r>
       <r>   64.5197    0.0000 </r>
       <r>   64.5206    0.0000 </r>
       <r>   65.0238    0.0000 </r>
       <r>   65.0245    0.0000 </r>
       <r>   66.0930    0.0000 </r>
       <r>   66.0943    0.0000 </r>
       <r>   66.1269    0.0000 </r>
       <r>   66.1274    0.0000 </r>
       <r>   67.8443    0.0000 </r>
       <r>   67.8448    0.0000 </r>
       <r>   68.4435    0.0000 </r>
       <r>   68.4441    0.0000 </r>
       <r>   68.5432    0.0000 </r>
       <r>   68.5439    0.0000 </r>
       <r>   69.0143    0.0000 </r>
       <r>   69.0149    0.0000 </r>
       <r>   69.0320    0.0000 </r>
       <r>   69.0326    0.0000 </r>
       <r>   69.6692    0.0000 </r>
       <r>   69.6700    0.0000 </r>
       <r>   69.6712    0.0000 </r>
       <r>   69.6720    0.0000 </r>
       <r>   69.9192    0.0000 </r>
       <r>   69.9196    0.0000 </r>
       <r>   70.4067    0.0000 </r>
       <r>   70.4077    0.0000 </r>
       <r>   71.1039    0.0000 </r>
       <r>   71.1045    0.0000 </r>
       <r>   71.3123    0.0000 </r>
       <r>   71.3135    0.0000 </r>
       <r>   72.6299    0.0000 </r>
       <r>   72.6310    0.0000 </r>
       <r>   73.0229    0.0000 </r>
       <r>   73.0232    0.0000 </r>
       <r>   73.7952    0.0000 </r>
       <r>   73.7957    0.0000 </r>
       <r>   74.0947    0.0000 </r>
       <r>   74.0954    0.0000 </r>
       <r>   74.3465    0.0000 </r>
       <r>   74.3478    0.0000 </r>
       <r>   74.7845    0.0000 </r>
       <r>   74.7857    0.0000 </r>
       <r>   75.0221    0.0000 </r>
       <r>   75.0225    0.0000 </r>
       <r>   76.2353    0.0000 </r>
       <r>   76.2366    0.0000 </r>
       <r>   76.3059    0.0000 </r>
       <r>   76.3071    0.0000 </r>
       <r>   76.5619    0.0000 </r>
       <r>   76.5623    0.0000 </r>
       <r>   76.6584    0.0000 </r>
       <r>   76.6591    0.0000 </r>
       <r>   76.7399    0.0000 </r>
       <r>   76.7403    0.0000 </r>
       <r>   77.2747    0.0000 </r>
       <r>   77.2754    0.0000 </r>
       <r>   78.0479    0.0000 </r>
       <r>   78.0483    0.0000 </r>
       <r>   78.0686    0.0000 </r>
       <r>   78.0692    0.0000 </r>
       <r>   78.5292    0.0000 </r>
       <r>   78.5296    0.0000 </r>
       <r>   79.0589    0.0000 </r>
       <r>   79.0599    0.0000 </r>
       <r>   79.5249    0.0000 </r>
       <r>   79.5266    0.0000 </r>
       <r>   79.5290    0.0000 </r>
       <r>   79.5299    0.0000 </r>
       <r>   81.0676    0.0000 </r>
       <r>   81.0682    0.0000 </r>
       <r>   81.0985    0.0000 </r>
       <r>   81.0994    0.0000 </r>
       <r>   81.5689    0.0000 </r>
       <r>   81.5696    0.0000 </r>
       <r>   81.8136    0.0000 </r>
       <r>   81.8139    0.0000 </r>
       <r>   82.6580    0.0000 </r>
       <r>   82.6583    0.0000 </r>
       <r>   82.7170    0.0000 </r>
       <r>   82.7174    0.0000 </r>
       <r>   82.9266    0.0000 </r>
       <r>   82.9275    0.0000 </r>
       <r>   84.1820    0.0000 </r>
       <r>   84.1825    0.0000 </r>
       <r>   84.2578    0.0000 </r>
       <r>   84.2580    0.0000 </r>
       <r>   84.7359    0.0000 </r>
       <r>   84.7364    0.0000 </r>
       <r>   84.7857    0.0000 </r>
       <r>   84.7862    0.0000 </r>
      </set>
      <set comment="kpoint 3">
       <r> -220.0367    1.0000 </r>
       <r> -220.0367    1.0000 </r>
       <r> -138.8349    1.0000 </r>
       <r> -138.8349    1.0000 </r>
       <r>  -90.6913    1.0000 </r>
       <r>  -90.6912    1.0000 </r>
       <r>  -90.6633    1.0000 </r>
       <r>  -90.6632    1.0000 </r>
       <r>  -33.2316    1.0000 </r>
       <r>  -33.2314    1.0000 </r>
       <r>  -33.2182    1.0000 </r>
       <r>  -33.2181    1.0000 </r>
       <r>  -26.0631    1.0000 </r>
       <r>  -26.0629    1.0000 </r>
       <r>  -26.0490    1.0000 </r>
       <r>  -26.0483    1.0000 </r>
       <r>  -26.0376    1.0000 </r>
       <r>  -26.0373    1.0000 </r>
       <r>  -21.3058    1.0000 </r>
       <r>  -21.3051    1.0000 </r>
       <r>   -3.4841    1.0000 </r>
       <r>   -3.4831    1.0000 </r>
       <r>    1.3371    1.0000 </r>
       <r>    1.3392    1.0000 </r>
       <r>    3.3773    1.0000 </r>
       <r>    3.3802    1.0000 </r>
       <r>    6.1537    0.0000 </r>
       <r>    6.1542    0.0000 </r>
       <r>   10.5025    0.0000 </r>
       <r>   10.5028    0.0000 </r>
       <r>   10.7075    0.0000 </r>
       <r>   10.7083    0.0000 </r>
       <r>   10.9925    0.0000 </r>
       <r>   10.9937    0.0000 </r>
       <r>   11.3580    0.0000 </r>
       <r>   11.3587    0.0000 </r>
       <r>   13.2127    0.0000 </r>
       <r>   13.2133    0.0000 </r>
       <r>   13.4420    0.0000 </r>
       <r>   13.4429    0.0000 </r>
       <r>   16.6378    0.0000 </r>
       <r>   16.6390    0.0000 </r>
       <r>   17.5577    0.0000 </r>
       <r>   17.5593    0.0000 </r>
       <r>   17.6708    0.0000 </r>
       <r>   17.6727    0.0000 </r>
       <r>   17.9263    0.0000 </r>
       <r>   17.9277    0.0000 </r>
       <r>   18.3317    0.0000 </r>
       <r>   18.3330    0.0000 </r>
       <r>   18.7705    0.0000 </r>
       <r>   18.7720    0.0000 </r>
       <r>   20.2349    0.0000 </r>
       <r>   20.2363    0.0000 </r>
       <r>   21.0388    0.0000 </r>
       <r>   21.0394    0.0000 </r>
       <r>   24.1792    0.0000 </r>
       <r>   24.1800    0.0000 </r>
       <r>   24.7220    0.0000 </r>
       <r>   24.7230    0.0000 </r>
       <r>   24.8150    0.0000 </r>
       <r>   24.8160    0.0000 </r>
       <r>   26.1857    0.0000 </r>
       <r>   26.1862    0.0000 </r>
       <r>   26.5324    0.0000 </r>
       <r>   26.5330    0.0000 </r>
       <r>   27.0118    0.0000 </r>
       <r>   27.0123    0.0000 </r>
       <r>   29.6125    0.0000 </r>
       <r>   29.6129    0.0000 </r>
       <r>   30.2054    0.0000 </r>
       <r>   30.2070    0.0000 </r>
       <r>   30.7824    0.0000 </r>
       <r>   30.7834    0.0000 </r>
       <r>   31.1026    0.0000 </r>
       <r>   31.1034    0.0000 </r>
       <r>   31.2340    0.0000 </r>
       <r>   31.2352    0.0000 </r>
       <r>   31.4167    0.0000 </r>
       <r>   31.4176    0.0000 </r>
       <r>   33.1772    0.0000 </r>
       <r>   33.1780    0.0000 </r>
       <r>   33.3598    0.0000 </r>
       <r>   33.3602    0.0000 </r>
       <r>   34.4331    0.0000 </r>
       <r>   34.4341    0.0000 </r>
       <r>   34.8834    0.0000 </r>
       <r>   34.8847    0.0000 </r>
       <r>   35.2755    0.0000 </r>
       <r>   35.2758    0.0000 </r>
       <r>   35.6938    0.0000 </r>
       <r>   35.6948    0.0000 </r>
       <r>   38.5320    0.0000 </r>
       <r>   38.5332    0.0000 </r>
       <r>   38.5579    0.0000 </r>
       <r>   38.5588    0.0000 </r>
       <r>   39.5153    0.0000 </r>
       <r>   39.5158    0.0000 </r>
       <r>   39.6451    0.0000 </r>
       <r>   39.6453    0.0000 </r>
       <r>   40.0365    0.0000 </r>
       <r>   40.0368    0.0000 </r>
       <r>   41.3704    0.0000 </r>
       <r>   41.3709    0.0000 </r>
       <r>   41.9240    0.0000 </r>
       <r>   41.9245    0.0000 </r>
       <r>   42.1341    0.0000 </r>
       <r>   42.1348    0.0000 </r>
       <r>   42.9074    0.0000 </r>
       <r>   42.9083    0.0000 </r>
       <r>   43.5592    0.0000 </r>
       <r>   43.5599    0.0000 </r>
       <r>   44.0697    0.0000 </r>
       <r>   44.0701    0.0000 </r>
       <r>   44.9696    0.0000 </r>
       <r>   44.9698    0.0000 </r>
       <r>   45.2995    0.0000 </r>
       <r>   45.3001    0.0000 </r>
       <r>   45.6920    0.0000 </r>
       <r>   45.6931    0.0000 </r>
       <r>   46.0135    0.0000 </r>
       <r>   46.0141    0.0000 </r>
       <r>   48.5429    0.0000 </r>
       <r>   48.5434    0.0000 </r>
       <r>   50.3223    0.0000 </r>
       <r>   50.3228    0.0000 </r>
       <r>   50.3651    0.0000 </r>
       <r>   50.3657    0.0000 </r>
       <r>   50.4857    0.0000 </r>
       <r>   50.4864    0.0000 </r>
       <r>   51.0548    0.0000 </r>
       <r>   51.0550    0.0000 </r>
       <r>   51.2800    0.0000 </r>
       <r>   51.2808    0.0000 </r>
       <r>   51.5382    0.0000 </r>
       <r>   51.5387    0.0000 </r>
       <r>   52.4780    0.0000 </r>
       <r>   52.4785    0.0000 </r>
       <r>   53.1822    0.0000 </r>
       <r>   53.1828    0.0000 </r>
       <r>   53.2568    0.0000 </r>
       <r>   53.2574    0.0000 </r>
       <r>   54.1756    0.0000 </r>
       <r>   54.1769    0.0000 </r>
       <r>   54.4157    0.0000 </r>
       <r>   54.4170    0.0000 </r>
       <r>   54.6989    0.0000 </r>
       <r>   54.6995    0.0000 </r>
       <r>   54.8473    0.0000 </r>
       <r>   54.8486    0.0000 </r>
       <r>   56.5691    0.0000 </r>
       <r>   56.5695    0.0000 </r>
       <r>   58.1263    0.0000 </r>
       <r>   58.1267    0.0000 </r>
       <r>   58.4525    0.0000 </r>
       <r>   58.4529    0.0000 </r>
       <r>   58.5627    0.0000 </r>
       <r>   58.5637    0.0000 </r>
       <r>   59.2746    0.0000 </r>
       <r>   59.2755    0.0000 </r>
       <r>   59.3614    0.0000 </r>
       <r>   59.3619    0.0000 </r>
       <r>   60.6932    0.0000 </r>
       <r>   60.6937    0.0000 </r>
       <r>   61.9633    0.0000 </r>
       <r>   61.9636    0.0000 </r>
       <r>   62.0520    0.0000 </r>
       <r>   62.0520    0.0000 </r>
       <r>   63.1990    0.0000 </r>
       <r>   63.1994    0.0000 </r>
       <r>   63.4942    0.0000 </r>
       <r>   63.4951    0.0000 </r>
       <r>   63.5237    0.0000 </r>
       <r>   63.5245    0.0000 </r>
       <r>   65.7889    0.0000 </r>
       <r>   65.7903    0.0000 </r>
       <r>   66.0656    0.0000 </r>
       <r>   66.0668    0.0000 </r>
       <r>   66.1508    0.0000 </r>
       <r>   66.1513    0.0000 </r>
       <r>   66.4384    0.0000 </r>
       <r>   66.4388    0.0000 </r>
       <r>   66.9252    0.0000 </r>
       <r>   66.9261    0.0000 </r>
       <r>   69.1322    0.0000 </r>
       <r>   69.1327    0.0000 </r>
       <r>   69.5900    0.0000 </r>
       <r>   69.5904    0.0000 </r>
       <r>   69.6998    0.0000 </r>
       <r>   69.7009    0.0000 </r>
       <r>   70.7147    0.0000 </r>
       <r>   70.7150    0.0000 </r>
       <r>   70.7662    0.0000 </r>
       <r>   70.7673    0.0000 </r>
       <r>   70.9267    0.0000 </r>
       <r>   70.9276    0.0000 </r>
       <r>   71.6799    0.0000 </r>
       <r>   71.6806    0.0000 </r>
       <r>   71.6888    0.0000 </r>
       <r>   71.6896    0.0000 </r>
       <r>   72.1284    0.0000 </r>
       <r>   72.1293    0.0000 </r>
       <r>   72.5619    0.0000 </r>
       <r>   72.5623    0.0000 </r>
       <r>   73.3012    0.0000 </r>
       <r>   73.3014    0.0000 </r>
       <r>   73.7900    0.0000 </r>
       <r>   73.7905    0.0000 </r>
       <r>   74.4876    0.0000 </r>
       <r>   74.4890    0.0000 </r>
       <r>   74.5572    0.0000 </r>
       <r>   74.5583    0.0000 </r>
       <r>   76.6191    0.0000 </r>
       <r>   76.6195    0.0000 </r>
       <r>   77.4288    0.0000 </r>
       <r>   77.4294    0.0000 </r>
       <r>   77.6418    0.0000 </r>
       <r>   77.6424    0.0000 </r>
       <r>   77.6914    0.0000 </r>
       <r>   77.6926    0.0000 </r>
       <r>   77.8111    0.0000 </r>
       <r>   77.8120    0.0000 </r>
       <r>   78.0294    0.0000 </r>
       <r>   78.0298    0.0000 </r>
       <r>   79.9290    0.0000 </r>
       <r>   79.9297    0.0000 </r>
       <r>   79.9373    0.0000 </r>
       <r>   79.9379    0.0000 </r>
       <r>   80.1615    0.0000 </r>
       <r>   80.1623    0.0000 </r>
       <r>   80.4265    0.0000 </r>
       <r>   80.4269    0.0000 </r>
       <r>   80.4295    0.0000 </r>
       <r>   80.4300    0.0000 </r>
       <r>   80.5076    0.0000 </r>
       <r>   80.5083    0.0000 </r>
       <r>   81.3497    0.0000 </r>
       <r>   81.3500    0.0000 </r>
       <r>   81.6112    0.0000 </r>
       <r>   81.6119    0.0000 </r>
       <r>   81.7996    0.0000 </r>
       <r>   81.8004    0.0000 </r>
       <r>   83.0046    0.0000 </r>
       <r>   83.0060    0.0000 </r>
       <r>   83.0376    0.0000 </r>
       <r>   83.0388    0.0000 </r>
       <r>   83.8148    0.0000 </r>
       <r>   83.8154    0.0000 </r>
       <r>   84.4830    0.0000 </r>
       <r>   84.4836    0.0000 </r>
       <r>   85.6849    0.0000 </r>
       <r>   85.6853    0.0000 </r>
       <r>   86.1374    0.0000 </r>
       <r>   86.1380    0.0000 </r>
       <r>   86.3046    0.0000 </r>
       <r>   86.3051    0.0000 </r>
      </set>
      <set comment="kpoint 4">
       <r> -220.0674    1.0000 </r>
       <r> -220.0674    1.0000 </r>
       <r> -139.3044    1.0000 </r>
       <r> -139.3044    1.0000 </r>
       <r>  -90.7496    1.0000 </r>
       <r>  -90.7495    1.0000 </r>
       <r>  -90.7426    1.0000 </r>
       <r>  -90.7425    1.0000 </r>
       <r>  -33.2610    1.0000 </r>
       <r>  -33.2609    1.0000 </r>
       <r>  -33.2563    1.0000 </r>
       <r>  -33.2561    1.0000 </r>
       <r>  -26.1059    1.0000 </r>
       <r>  -26.1054    1.0000 </r>
       <r>  -26.1016    1.0000 </r>
       <r>  -26.1010    1.0000 </r>
       <r>  -26.1006    1.0000 </r>
       <r>  -26.1000    1.0000 </r>
       <r>  -21.2855    1.0000 </r>
       <r>  -21.2848    1.0000 </r>
       <r>   -3.6702    1.0000 </r>
       <r>   -3.6692    1.0000 </r>
       <r>    1.0424    1.0000 </r>
       <r>    1.0445    1.0000 </r>
       <r>    3.2559    1.0000 </r>
       <r>    3.2588    1.0000 </r>
       <r>    6.1788    0.0000 </r>
       <r>    6.1794    0.0000 </r>
       <r>   10.2302    0.0000 </r>
       <r>   10.2306    0.0000 </r>
       <r>   10.6857    0.0000 </r>
       <r>   10.6871    0.0000 </r>
       <r>   10.7605    0.0000 </r>
       <r>   10.7612    0.0000 </r>
       <r>   12.7227    0.0000 </r>
       <r>   12.7233    0.0000 </r>
       <r>   14.5441    0.0000 </r>
       <r>   14.5444    0.0000 </r>
       <r>   14.6429    0.0000 </r>
       <r>   14.6436    0.0000 </r>
       <r>   15.6092    0.0000 </r>
       <r>   15.6097    0.0000 </r>
       <r>   16.6409    0.0000 </r>
       <r>   16.6415    0.0000 </r>
       <r>   16.8266    0.0000 </r>
       <r>   16.8283    0.0000 </r>
       <r>   18.4637    0.0000 </r>
       <r>   18.4653    0.0000 </r>
       <r>   18.7212    0.0000 </r>
       <r>   18.7233    0.0000 </r>
       <r>   18.7693    0.0000 </r>
       <r>   18.7712    0.0000 </r>
       <r>   20.2568    0.0000 </r>
       <r>   20.2582    0.0000 </r>
       <r>   23.3977    0.0000 </r>
       <r>   23.3988    0.0000 </r>
       <r>   23.4006    0.0000 </r>
       <r>   23.4013    0.0000 </r>
       <r>   24.9792    0.0000 </r>
       <r>   24.9797    0.0000 </r>
       <r>   25.0136    0.0000 </r>
       <r>   25.0142    0.0000 </r>
       <r>   25.2945    0.0000 </r>
       <r>   25.2951    0.0000 </r>
       <r>   26.5833    0.0000 </r>
       <r>   26.5840    0.0000 </r>
       <r>   26.7282    0.0000 </r>
       <r>   26.7286    0.0000 </r>
       <r>   27.8848    0.0000 </r>
       <r>   27.8853    0.0000 </r>
       <r>   29.2132    0.0000 </r>
       <r>   29.2140    0.0000 </r>
       <r>   30.2064    0.0000 </r>
       <r>   30.2074    0.0000 </r>
       <r>   30.3474    0.0000 </r>
       <r>   30.3477    0.0000 </r>
       <r>   30.8374    0.0000 </r>
       <r>   30.8389    0.0000 </r>
       <r>   31.5949    0.0000 </r>
       <r>   31.5954    0.0000 </r>
       <r>   31.7420    0.0000 </r>
       <r>   31.7429    0.0000 </r>
       <r>   32.5700    0.0000 </r>
       <r>   32.5708    0.0000 </r>
       <r>   33.3344    0.0000 </r>
       <r>   33.3355    0.0000 </r>
       <r>   33.4352    0.0000 </r>
       <r>   33.4367    0.0000 </r>
       <r>   35.3046    0.0000 </r>
       <r>   35.3049    0.0000 </r>
       <r>   35.8438    0.0000 </r>
       <r>   35.8446    0.0000 </r>
       <r>   38.6879    0.0000 </r>
       <r>   38.6890    0.0000 </r>
       <r>   38.7230    0.0000 </r>
       <r>   38.7245    0.0000 </r>
       <r>   38.8917    0.0000 </r>
       <r>   38.8919    0.0000 </r>
       <r>   39.3162    0.0000 </r>
       <r>   39.3171    0.0000 </r>
       <r>   39.6069    0.0000 </r>
       <r>   39.6072    0.0000 </r>
       <r>   41.2051    0.0000 </r>
       <r>   41.2054    0.0000 </r>
       <r>   42.0819    0.0000 </r>
       <r>   42.0820    0.0000 </r>
       <r>   43.6082    0.0000 </r>
       <r>   43.6084    0.0000 </r>
       <r>   44.6873    0.0000 </r>
       <r>   44.6879    0.0000 </r>
       <r>   45.2219    0.0000 </r>
       <r>   45.2224    0.0000 </r>
       <r>   45.3471    0.0000 </r>
       <r>   45.3478    0.0000 </r>
       <r>   45.6038    0.0000 </r>
       <r>   45.6045    0.0000 </r>
       <r>   46.5725    0.0000 </r>
       <r>   46.5730    0.0000 </r>
       <r>   48.9505    0.0000 </r>
       <r>   48.9512    0.0000 </r>
       <r>   49.0657    0.0000 </r>
       <r>   49.0664    0.0000 </r>
       <r>   49.2269    0.0000 </r>
       <r>   49.2274    0.0000 </r>
       <r>   49.8113    0.0000 </r>
       <r>   49.8124    0.0000 </r>
       <r>   50.2408    0.0000 </r>
       <r>   50.2412    0.0000 </r>
       <r>   50.4143    0.0000 </r>
       <r>   50.4145    0.0000 </r>
       <r>   51.4506    0.0000 </r>
       <r>   51.4516    0.0000 </r>
       <r>   51.6954    0.0000 </r>
       <r>   51.6962    0.0000 </r>
       <r>   51.7951    0.0000 </r>
       <r>   51.7967    0.0000 </r>
       <r>   51.9244    0.0000 </r>
       <r>   51.9250    0.0000 </r>
       <r>   51.9758    0.0000 </r>
       <r>   51.9769    0.0000 </r>
       <r>   52.1895    0.0000 </r>
       <r>   52.1910    0.0000 </r>
       <r>   55.6493    0.0000 </r>
       <r>   55.6498    0.0000 </r>
       <r>   55.9793    0.0000 </r>
       <r>   55.9803    0.0000 </r>
       <r>   56.1497    0.0000 </r>
       <r>   56.1498    0.0000 </r>
       <r>   56.2387    0.0000 </r>
       <r>   56.2390    0.0000 </r>
       <r>   56.6482    0.0000 </r>
       <r>   56.6484    0.0000 </r>
       <r>   56.8609    0.0000 </r>
       <r>   56.8612    0.0000 </r>
       <r>   56.8891    0.0000 </r>
       <r>   56.8894    0.0000 </r>
       <r>   58.2073    0.0000 </r>
       <r>   58.2080    0.0000 </r>
       <r>   58.4340    0.0000 </r>
       <r>   58.4353    0.0000 </r>
       <r>   59.1164    0.0000 </r>
       <r>   59.1174    0.0000 </r>
       <r>   59.9452    0.0000 </r>
       <r>   59.9463    0.0000 </r>
       <r>   59.9819    0.0000 </r>
       <r>   59.9827    0.0000 </r>
       <r>   61.3950    0.0000 </r>
       <r>   61.3955    0.0000 </r>
       <r>   61.9196    0.0000 </r>
       <r>   61.9202    0.0000 </r>
       <r>   62.0007    0.0000 </r>
       <r>   62.0016    0.0000 </r>
       <r>   65.1686    0.0000 </r>
       <r>   65.1697    0.0000 </r>
       <r>   65.2607    0.0000 </r>
       <r>   65.2613    0.0000 </r>
       <r>   65.3035    0.0000 </r>
       <r>   65.3038    0.0000 </r>
       <r>   65.3343    0.0000 </r>
       <r>   65.3345    0.0000 </r>
       <r>   66.1285    0.0000 </r>
       <r>   66.1289    0.0000 </r>
       <r>   66.3279    0.0000 </r>
       <r>   66.3283    0.0000 </r>
       <r>   67.6141    0.0000 </r>
       <r>   67.6155    0.0000 </r>
       <r>   68.5998    0.0000 </r>
       <r>   68.6002    0.0000 </r>
       <r>   68.7558    0.0000 </r>
       <r>   68.7563    0.0000 </r>
       <r>   70.8121    0.0000 </r>
       <r>   70.8124    0.0000 </r>
       <r>   70.8151    0.0000 </r>
       <r>   70.8164    0.0000 </r>
       <r>   70.9647    0.0000 </r>
       <r>   70.9656    0.0000 </r>
       <r>   71.3240    0.0000 </r>
       <r>   71.3247    0.0000 </r>
       <r>   71.5047    0.0000 </r>
       <r>   71.5056    0.0000 </r>
       <r>   72.5707    0.0000 </r>
       <r>   72.5715    0.0000 </r>
       <r>   72.8117    0.0000 </r>
       <r>   72.8126    0.0000 </r>
       <r>   73.6805    0.0000 </r>
       <r>   73.6810    0.0000 </r>
       <r>   74.4522    0.0000 </r>
       <r>   74.4528    0.0000 </r>
       <r>   74.5879    0.0000 </r>
       <r>   74.5890    0.0000 </r>
       <r>   74.6244    0.0000 </r>
       <r>   74.6247    0.0000 </r>
       <r>   75.4287    0.0000 </r>
       <r>   75.4291    0.0000 </r>
       <r>   75.8361    0.0000 </r>
       <r>   75.8371    0.0000 </r>
       <r>   76.1137    0.0000 </r>
       <r>   76.1142    0.0000 </r>
       <r>   76.1985    0.0000 </r>
       <r>   76.1992    0.0000 </r>
       <r>   76.7932    0.0000 </r>
       <r>   76.7942    0.0000 </r>
       <r>   76.7951    0.0000 </r>
       <r>   76.7961    0.0000 </r>
       <r>   77.7168    0.0000 </r>
       <r>   77.7177    0.0000 </r>
       <r>   77.7334    0.0000 </r>
       <r>   77.7342    0.0000 </r>
       <r>   80.2895    0.0000 </r>
       <r>   80.2904    0.0000 </r>
       <r>   80.3952    0.0000 </r>
       <r>   80.3957    0.0000 </r>
       <r>   80.4821    0.0000 </r>
       <r>   80.4826    0.0000 </r>
       <r>   81.0136    0.0000 </r>
       <r>   81.0145    0.0000 </r>
       <r>   81.6421    0.0000 </r>
       <r>   81.6431    0.0000 </r>
       <r>   81.7742    0.0000 </r>
       <r>   81.7748    0.0000 </r>
       <r>   83.9956    0.0000 </r>
       <r>   83.9965    0.0000 </r>
       <r>   84.2212    0.0000 </r>
       <r>   84.2214    0.0000 </r>
       <r>   84.2421    0.0000 </r>
       <r>   84.2422    0.0000 </r>
       <r>   84.5550    0.0000 </r>
       <r>   84.5555    0.0000 </r>
       <r>   84.7262    0.0000 </r>
       <r>   84.7263    0.0000 </r>
       <r>   84.7268    0.0000 </r>
       <r>   84.7269    0.0000 </r>
       <r>   85.9244    0.0000 </r>
       <r>   85.9247    0.0000 </r>
       <r>   85.9824    0.0000 </r>
       <r>   85.9827    0.0000 </r>
      </set>
      <set comment="kpoint 5">
       <r> -220.0367    1.0000 </r>
       <r> -220.0367    1.0000 </r>
       <r> -138.8349    1.0000 </r>
       <r> -138.8349    1.0000 </r>
       <r>  -90.6913    1.0000 </r>
       <r>  -90.6912    1.0000 </r>
       <r>  -90.6633    1.0000 </r>
       <r>  -90.6632    1.0000 </r>
       <r>  -33.2316    1.0000 </r>
       <r>  -33.2314    1.0000 </r>
       <r>  -33.2182    1.0000 </r>
       <r>  -33.2181    1.0000 </r>
       <r>  -26.0631    1.0000 </r>
       <r>  -26.0629    1.0000 </r>
       <r>  -26.0490    1.0000 </r>
       <r>  -26.0483    1.0000 </r>
       <r>  -26.0376    1.0000 </r>
       <r>  -26.0373    1.0000 </r>
       <r>  -21.3058    1.0000 </r>
       <r>  -21.3051    1.0000 </r>
       <r>   -3.4841    1.0000 </r>
       <r>   -3.4831    1.0000 </r>
       <r>    1.3371    1.0000 </r>
       <r>    1.3392    1.0000 </r>
       <r>    3.3773    1.0000 </r>
       <r>    3.3802    1.0000 </r>
       <r>    6.1537    0.0000 </r>
       <r>    6.1542    0.0000 </r>
       <r>   10.5025    0.0000 </r>
       <r>   10.5028    0.0000 </r>
       <r>   10.7075    0.0000 </r>
       <r>   10.7083    0.0000 </r>
       <r>   10.9925    0.0000 </r>
       <r>   10.9937    0.0000 </r>
       <r>   11.3580    0.0000 </r>
       <r>   11.3587    0.0000 </r>
       <r>   13.2127    0.0000 </r>
       <r>   13.2133    0.0000 </r>
       <r>   13.4420    0.0000 </r>
       <r>   13.4429    0.0000 </r>
       <r>   16.6378    0.0000 </r>
       <r>   16.6390    0.0000 </r>
       <r>   17.5577    0.0000 </r>
       <r>   17.5593    0.0000 </r>
       <r>   17.6708    0.0000 </r>
       <r>   17.6727    0.0000 </r>
       <r>   17.9263    0.0000 </r>
       <r>   17.9277    0.0000 </r>
       <r>   18.3317    0.0000 </r>
       <r>   18.3330    0.0000 </r>
       <r>   18.7705    0.0000 </r>
       <r>   18.7720    0.0000 </r>
[...]
       <r>     4.3945     0.0000     0.0000 </r>
       <r>     5.5204     0.0000     0.0000 </r>
       <r>     6.6464     0.0000     0.0000 </r>
       <r>     7.7723     0.0000     0.0000 </r>
       <r>     8.8983     0.0000     0.0000 </r>
       <r>    10.0242     0.0000     0.0000 </r>
       <r>    11.1502     0.0000     0.0000 </r>
       <r>    12.2761     0.0000     0.0000 </r>
       <r>    13.4021     0.0000     0.0000 </r>
       <r>    14.5280     0.0000     0.0000 </r>
       <r>    15.6539     0.0000     0.0000 </r>
       <r>    16.7799     0.0000     0.0000 </r>
       <r>    17.9058     0.0000     0.0000 </r>
       <r>    19.0318     0.0000     0.0000 </r>
       <r>    20.1577     0.0000     0.0000 </r>
       <r>    21.2837     0.0000     0.0000 </r>
       <r>    22.4096     0.0000     0.0000 </r>
       <r>    23.5356     0.0000     0.0000 </r>
       <r>    24.6615     0.0000     0.0000 </r>
       <r>    25.7875     0.0000     0.0000 </r>
       <r>    26.9134     0.0000     0.0000 </r>
       <r>    28.0394     0.0000     0.0000 </r>
       <r>    29.1653     0.0000     0.0000 </r>
       <r>    30.2913     0.0000     0.0000 </r>
       <r>    31.4172     0.0000     0.0000 </r>
       <r>    32.5432     0.0000     0.0000 </r>
       <r>    33.6691     0.0000     0.0000 </r>
       <r>    34.7950     0.0000     0.0000 </r>
       <r>    35.9210     0.0000     0.0000 </r>
       <r>    37.0469     0.0000     0.0000 </r>
       <r>    38.1729     0.0000     0.0000 </r>
       <r>    39.2988     0.0000     0.0000 </r>
       <r>    40.4248     0.0000     0.0000 </r>
       <r>    41.5507     0.0000     0.0000 </r>
       <r>    42.6767     0.0000     0.0000 </r>
       <r>    43.8026     0.0000     0.0000 </r>
       <r>    44.9286     0.0000     0.0000 </r>
       <r>    46.0545     0.0000     0.0000 </r>
       <r>    47.1805     0.0000     0.0000 </r>
       <r>    48.3064     0.0000     0.0000 </r>
       <r>    49.4324     0.0000     0.0000 </r>
       <r>    50.5583     0.0000     0.0000 </r>
       <r>    51.6842     0.0000     0.0000 </r>
       <r>    52.8102     0.0000     0.0000 </r>
       <r>    53.9361     0.0000     0.0000 </r>
       <r>    55.0621     0.0000     0.0000 </r>
       <r>    56.1880     0.0000     0.0000 </r>
       <r>    57.3140     0.0000     0.0000 </r>
       <r>    58.4399     0.0000     0.0000 </r>
       <r>    59.5659     0.0000     0.0000 </r>
       <r>    60.6918     0.0000     0.0000 </r>
       <r>    61.8178     0.0000     0.0000 </r>
       <r>    62.9437     0.0000     0.0000 </r>
       <r>    64.0697     0.0000     0.0000 </r>
       <r>    65.1956     0.0000     0.0000 </r>
       <r>    66.3216     0.0000     0.0000 </r>
       <r>    67.4475     0.0000     0.0000 </r>
       <r>    68.5735     0.0000     0.0000 </r>
       <r>    69.6994     0.0000     0.0000 </r>
       <r>    70.8253     0.0000     0.0000 </r>
       <r>    71.9513     0.0000     0.0000 </r>
       <r>    73.0772     0.0000     0.0000 </r>
       <r>    74.2032     0.0000     0.0000 </r>
       <r>    75.3291     0.0000     0.0000 </r>
       <r>    76.4551     0.0000     0.0000 </r>
       <r>    77.5810     0.0000     0.0000 </r>
       <r>    78.7070     0.0000     0.0000 </r>
       <r>    79.8329     0.0000     0.0000 </r>
       <r>    80.9589     0.0000     0.0000 </r>
       <r>    82.0848     0.0000     0.0000 </r>
       <r>    83.2108     0.0000     0.0000 </r>
       <r>    84.3367     0.0000     0.0000 </r>
       <r>    85.4627     0.0000     0.0000 </r>
       <r>    86.5886     0.0000     0.0000 </r>
       <r>    87.7145     0.0000     0.0000 </r>
       <r>    88.8405     0.0000     0.0000 </r>
       <r>    89.9664     0.0000     0.0000 </r>
       <r>    91.0924     0.0000     0.0000 </r>
       <r>    92.2183     0.0000     0.0000 </r>
       <r>    93.3443     0.0000     0.0000 </r>
       <r>    94.4702     0.0000     0.0000 </r>
       <r>    95.5962     0.0000     0.0000 </r>
       <r>    96.7221     0.0000     0.0000 </r>
       <r>    97.8481     0.0000     0.0000 </r>
       <r>    98.9740     0.0000     0.0000 </r>
       <r>   100.1000     0.0000     0.0000 </r>
       <r>   101.2259     0.0000     0.0000 </r>
       <r>   102.3519     0.0000     0.0000 </r>
      </set>
      <set comment="spin 4">
       <r>  -235.4322     0.0000     0.0000 </r>
       <r>  -234.3063     0.0000     0.0000 </r>
       <r>  -233.1803     0.0000     0.0000 </r>
       <r>  -232.0544     0.0000     0.0000 </r>
       <r>  -230.9284     0.0000     0.0000 </r>
       <r>  -229.8025     0.0000     0.0000 </r>
       <r>  -228.6765     0.0000     0.0000 </r>
       <r>  -227.5506     0.0000     0.0000 </r>
       <r>  -226.4246     0.0000     0.0000 </r>
       <r>  -225.2987     0.0000     0.0000 </r>
       <r>  -224.1727     0.0000     0.0000 </r>
       <r>  -223.0468     0.0000     0.0000 </r>
       <r>  -221.9208     0.0000     0.0000 </r>
       <r>  -220.7949     0.0000     0.0000 </r>
       <r>  -219.6690     0.0000     0.0000 </r>
       <r>  -218.5430     0.0000     0.0000 </r>
       <r>  -217.4171     0.0000     0.0000 </r>
       <r>  -216.2911     0.0000     0.0000 </r>
       <r>  -215.1652     0.0000     0.0000 </r>
       <r>  -214.0392     0.0000     0.0000 </r>
       <r>  -212.9133     0.0000     0.0000 </r>
       <r>  -211.7873     0.0000     0.0000 </r>
       <r>  -210.6614     0.0000     0.0000 </r>
       <r>  -209.5354     0.0000     0.0000 </r>
       <r>  -208.4095     0.0000     0.0000 </r>
       <r>  -207.2835     0.0000     0.0000 </r>
       <r>  -206.1576     0.0000     0.0000 </r>
       <r>  -205.0316     0.0000     0.0000 </r>
       <r>  -203.9057     0.0000     0.0000 </r>
       <r>  -202.7798     0.0000     0.0000 </r>
       <r>  -201.6538     0.0000     0.0000 </r>
       <r>  -200.5279     0.0000     0.0000 </r>
       <r>  -199.4019     0.0000     0.0000 </r>
       <r>  -198.2760     0.0000     0.0000 </r>
       <r>  -197.1500     0.0000     0.0000 </r>
       <r>  -196.0241     0.0000     0.0000 </r>
       <r>  -194.8981     0.0000     0.0000 </r>
       <r>  -193.7722     0.0000     0.0000 </r>
       <r>  -192.6462     0.0000     0.0000 </r>
       <r>  -191.5203     0.0000     0.0000 </r>
       <r>  -190.3943     0.0000     0.0000 </r>
       <r>  -189.2684     0.0000     0.0000 </r>
       <r>  -188.1424     0.0000     0.0000 </r>
       <r>  -187.0165     0.0000     0.0000 </r>
       <r>  -185.8905     0.0000     0.0000 </r>
       <r>  -184.7646     0.0000     0.0000 </r>
       <r>  -183.6387     0.0000     0.0000 </r>
       <r>  -182.5127     0.0000     0.0000 </r>
       <r>  -181.3868     0.0000     0.0000 </r>
       <r>  -180.2608     0.0000     0.0000 </r>
       <r>  -179.1349     0.0000     0.0000 </r>
       <r>  -178.0089     0.0000     0.0000 </r>
       <r>  -176.8830     0.0000     0.0000 </r>
       <r>  -175.7570     0.0000     0.0000 </r>
       <r>  -174.6311     0.0000     0.0000 </r>
       <r>  -173.5051     0.0000     0.0000 </r>
       <r>  -172.3792     0.0000     0.0000 </r>
       <r>  -171.2532     0.0000     0.0000 </r>
       <r>  -170.1273     0.0000     0.0000 </r>
       <r>  -169.0013     0.0000     0.0000 </r>
       <r>  -167.8754     0.0000     0.0000 </r>
       <r>  -166.7495     0.0000     0.0000 </r>
       <r>  -165.6235     0.0000     0.0000 </r>
       <r>  -164.4976     0.0000     0.0000 </r>
       <r>  -163.3716     0.0000     0.0000 </r>
       <r>  -162.2457     0.0000     0.0000 </r>
       <r>  -161.1197     0.0000     0.0000 </r>
       <r>  -159.9938     0.0000     0.0000 </r>
       <r>  -158.8678     0.0000     0.0000 </r>
       <r>  -157.7419     0.0000     0.0000 </r>
       <r>  -156.6159     0.0000     0.0000 </r>
       <r>  -155.4900     0.0000     0.0000 </r>
       <r>  -154.3640     0.0000     0.0000 </r>
       <r>  -153.2381     0.0000     0.0000 </r>
       <r>  -152.1121     0.0000     0.0000 </r>
       <r>  -150.9862     0.0000     0.0000 </r>
       <r>  -149.8602     0.0000     0.0000 </r>
       <r>  -148.7343     0.0000     0.0000 </r>
       <r>  -147.6084     0.0000     0.0000 </r>
       <r>  -146.4824     0.0000     0.0000 </r>
       <r>  -145.3565     0.0000     0.0000 </r>
       <r>  -144.2305     0.0000     0.0000 </r>
       <r>  -143.1046     0.0000     0.0000 </r>
       <r>  -141.9786     0.0000     0.0000 </r>
       <r>  -140.8527     0.0000     0.0000 </r>
       <r>  -139.7267     0.0000     0.0000 </r>
       <r>  -138.6008     0.0000     0.0000 </r>
       <r>  -137.4748     0.0000     0.0000 </r>
       <r>  -136.3489     0.0000     0.0000 </r>
       <r>  -135.2229     0.0000     0.0000 </r>
       <r>  -134.0970     0.0000     0.0000 </r>
       <r>  -132.9710     0.0000     0.0000 </r>
       <r>  -131.8451     0.0000     0.0000 </r>
       <r>  -130.7192     0.0000     0.0000 </r>
       <r>  -129.5932     0.0000     0.0000 </r>
       <r>  -128.4673     0.0000     0.0000 </r>
       <r>  -127.3413     0.0000     0.0000 </r>
       <r>  -126.2154     0.0000     0.0000 </r>
       <r>  -125.0894     0.0000     0.0000 </r>
       <r>  -123.9635     0.0000     0.0000 </r>
       <r>  -122.8375     0.0000     0.0000 </r>
       <r>  -121.7116     0.0000     0.0000 </r>
       <r>  -120.5856     0.0000     0.0000 </r>
       <r>  -119.4597     0.0000     0.0000 </r>
       <r>  -118.3337     0.0000     0.0000 </r>
       <r>  -117.2078     0.0000     0.0000 </r>
       <r>  -116.0818     0.0000     0.0000 </r>
       <r>  -114.9559     0.0000     0.0000 </r>
       <r>  -113.8299     0.0000     0.0000 </r>
       <r>  -112.7040     0.0000     0.0000 </r>
       <r>  -111.5781     0.0000     0.0000 </r>
       <r>  -110.4521     0.0000     0.0000 </r>
       <r>  -109.3262     0.0000     0.0000 </r>
       <r>  -108.2002     0.0000     0.0000 </r>
       <r>  -107.0743     0.0000     0.0000 </r>
       <r>  -105.9483     0.0000     0.0000 </r>
       <r>  -104.8224     0.0000     0.0000 </r>
       <r>  -103.6964     0.0000     0.0000 </r>
       <r>  -102.5705     0.0000     0.0000 </r>
       <r>  -101.4445     0.0000     0.0000 </r>
       <r>  -100.3186     0.0000     0.0000 </r>
       <r>   -99.1926     0.0000     0.0000 </r>
       <r>   -98.0667     0.0000     0.0000 </r>
       <r>   -96.9407     0.0000     0.0000 </r>
       <r>   -95.8148     0.0000     0.0000 </r>
       <r>   -94.6888     0.0000     0.0000 </r>
       <r>   -93.5629     0.0000     0.0000 </r>
       <r>   -92.4370     0.0000     0.0000 </r>
       <r>   -91.3110     0.0000     0.0000 </r>
       <r>   -90.1851     0.0000     0.0000 </r>
       <r>   -89.0591     0.0000     0.0000 </r>
       <r>   -87.9332     0.0000     0.0000 </r>
       <r>   -86.8072     0.0000     0.0000 </r>
       <r>   -85.6813     0.0000     0.0000 </r>
       <r>   -84.5553     0.0000     0.0000 </r>
       <r>   -83.4294     0.0000     0.0000 </r>
       <r>   -82.3034     0.0000     0.0000 </r>
       <r>   -81.1775     0.0000     0.0000 </r>
       <r>   -80.0515     0.0000     0.0000 </r>
       <r>   -78.9256     0.0000     0.0000 </r>
       <r>   -77.7996     0.0000     0.0000 </r>
       <r>   -76.6737     0.0000     0.0000 </r>
       <r>   -75.5478     0.0000     0.0000 </r>
       <r>   -74.4218     0.0000     0.0000 </r>
       <r>   -73.2959     0.0000     0.0000 </r>
       <r>   -72.1699     0.0000     0.0000 </r>
       <r>   -71.0440     0.0000     0.0000 </r>
       <r>   -69.9180     0.0000     0.0000 </r>
       <r>   -68.7921     0.0000     0.0000 </r>
       <r>   -67.6661     0.0000     0.0000 </r>
       <r>   -66.5402     0.0000     0.0000 </r>
       <r>   -65.4142     0.0000     0.0000 </r>
       <r>   -64.2883     0.0000     0.0000 </r>
       <r>   -63.1623     0.0000     0.0000 </r>
       <r>   -62.0364     0.0000     0.0000 </r>
       <r>   -60.9104     0.0000     0.0000 </r>
       <r>   -59.7845     0.0000     0.0000 </r>
       <r>   -58.6585     0.0000     0.0000 </r>
       <r>   -57.5326     0.0000     0.0000 </r>
       <r>   -56.4067     0.0000     0.0000 </r>
       <r>   -55.2807     0.0000     0.0000 </r>
       <r>   -54.1548     0.0000     0.0000 </r>
       <r>   -53.0288     0.0000     0.0000 </r>
       <r>   -51.9029     0.0000     0.0000 </r>
       <r>   -50.7769     0.0000     0.0000 </r>
       <r>   -49.6510     0.0000     0.0000 </r>
       <r>   -48.5250     0.0000     0.0000 </r>
       <r>   -47.3991     0.0000     0.0000 </r>
       <r>   -46.2731     0.0000     0.0000 </r>
       <r>   -45.1472     0.0000     0.0000 </r>
       <r>   -44.0212     0.0000     0.0000 </r>
       <r>   -42.8953     0.0000     0.0000 </r>
       <r>   -41.7693     0.0000     0.0000 </r>
       <r>   -40.6434     0.0000     0.0000 </r>
       <r>   -39.5175     0.0000     0.0000 </r>
       <r>   -38.3915     0.0000     0.0000 </r>
       <r>   -37.2656     0.0000     0.0000 </r>
       <r>   -36.1396     0.0000     0.0000 </r>
       <r>   -35.0137     0.0000     0.0000 </r>
       <r>   -33.8877     0.0000     0.0000 </r>
       <r>   -32.7618     0.0000     0.0000 </r>
       <r>   -31.6358     0.0000     0.0000 </r>
       <r>   -30.5099     0.0000     0.0000 </r>
       <r>   -29.3839     0.0000     0.0000 </r>
       <r>   -28.2580     0.0000     0.0000 </r>
       <r>   -27.1320     0.0000     0.0000 </r>
       <r>   -26.0061     0.0000     0.0000 </r>
       <r>   -24.8801     0.0000     0.0000 </r>
       <r>   -23.7542     0.0000     0.0000 </r>
       <r>   -22.6282     0.0000     0.0000 </r>
       <r>   -21.5023     0.0000     0.0000 </r>
       <r>   -20.3764     0.0000     0.0000 </r>
       <r>   -19.2504     0.0000     0.0000 </r>
       <r>   -18.1245     0.0000     0.0000 </r>
       <r>   -16.9985     0.0000     0.0000 </r>
       <r>   -15.8726     0.0000     0.0000 </r>
       <r>   -14.7466     0.0000     0.0000 </r>
       <r>   -13.6207     0.0000     0.0000 </r>
       <r>   -12.4947     0.0000     0.0000 </r>
       <r>   -11.3688     0.0000     0.0000 </r>
       <r>   -10.2428     0.0000     0.0000 </r>
       <r>    -9.1169     0.0000     0.0000 </r>
       <r>    -7.9909     0.0000     0.0000 </r>
       <r>    -6.8650     0.0000     0.0000 </r>
       <r>    -5.7390     0.0000     0.0000 </r>
       <r>    -4.6131     0.0000     0.0000 </r>
       <r>    -3.4872     0.0000     0.0000 </r>
       <r>    -2.3612     0.0000     0.0000 </r>
       <r>    -1.2353     0.0000     0.0000 </r>
       <r>    -0.1093     0.0000     0.0000 </r>
       <r>     1.0166     0.0000     0.0000 </r>
       <r>     2.1426     0.0000     0.0000 </r>
       <r>     3.2685     0.0000     0.0000 </r>
       <r>     4.3945     0.0000     0.0000 </r>
       <r>     5.5204     0.0000     0.0000 </r>
       <r>     6.6464     0.0000     0.0000 </r>
       <r>     7.7723     0.0000     0.0000 </r>
       <r>     8.8983     0.0000     0.0000 </r>
       <r>    10.0242     0.0000     0.0000 </r>
       <r>    11.1502     0.0000     0.0000 </r>
       <r>    12.2761     0.0000     0.0000 </r>
       <r>    13.4021     0.0000     0.0000 </r>
       <r>    14.5280     0.0000     0.0000 </r>
       <r>    15.6539     0.0000     0.0000 </r>
       <r>    16.7799     0.0000     0.0000 </r>
       <r>    17.9058     0.0000     0.0000 </r>
       <r>    19.0318     0.0000     0.0000 </r>
       <r>    20.1577     0.0000     0.0000 </r>
       <r>    21.2837     0.0000     0.0000 </r>
       <r>    22.4096     0.0000     0.0000 </r>
       <r>    23.5356     0.0000     0.0000 </r>
       <r>    24.6615     0.0000     0.0000 </r>
       <r>    25.7875     0.0000     0.0000 </r>
       <r>    26.9134     0.0000     0.0000 </r>
       <r>    28.0394     0.0000     0.0000 </r>
       <r>    29.1653     0.0000     0.0000 </r>
       <r>    30.2913     0.0000     0.0000 </r>
       <r>    31.4172     0.0000     0.0000 </r>
       <r>    32.5432     0.0000     0.0000 </r>
       <r>    33.6691     0.0000     0.0000 </r>
       <r>    34.7950     0.0000     0.0000 </r>
       <r>    35.9210     0.0000     0.0000 </r>
       <r>    37.0469     0.0000     0.0000 </r>
       <r>    38.1729     0.0000     0.0000 </r>
       <r>    39.2988     0.0000     0.0000 </r>
       <r>    40.4248     0.0000     0.0000 </r>
       <r>    41.5507     0.0000     0.0000 </r>
       <r>    42.6767     0.0000     0.0000 </r>
       <r>    43.8026     0.0000     0.0000 </r>
       <r>    44.9286     0.0000     0.0000 </r>
       <r>    46.0545     0.0000     0.0000 </r>
       <r>    47.1805     0.0000     0.0000 </r>
       <r>    48.3064     0.0000     0.0000 </r>
       <r>    49.4324     0.0000     0.0000 </r>
       <r>    50.5583     0.0000     0.0000 </r>
       <r>    51.6842     0.0000     0.0000 </r>
       <r>    52.8102     0.0000     0.0000 </r>
       <r>    53.9361     0.0000     0.0000 </r>
       <r>    55.0621     0.0000     0.0000 </r>
       <r>    56.1880     0.0000     0.0000 </r>
       <r>    57.3140     0.0000     0.0000 </r>
       <r>    58.4399     0.0000     0.0000 </r>
       <r>    59.5659     0.0000     0.0000 </r>
       <r>    60.6918     0.0000     0.0000 </r>
       <r>    61.8178     0.0000     0.0000 </r>
       <r>    62.9437     0.0000     0.0000 </r>
       <r>    64.0697     0.0000     0.0000 </r>
       <r>    65.1956     0.0000     0.0000 </r>
       <r>    66.3216     0.0000     0.0000 </r>
       <r>    67.4475     0.0000     0.0000 </r>
       <r>    68.5735     0.0000     0.0000 </r>
       <r>    69.6994     0.0000     0.0000 </r>
       <r>    70.8253     0.0000     0.0000 </r>
       <r>    71.9513     0.0000     0.0000 </r>
       <r>    73.0772     0.0000     0.0000 </r>
       <r>    74.2032     0.0000     0.0000 </r>
       <r>    75.3291     0.0000     0.0000 </r>
       <r>    76.4551     0.0000     0.0000 </r>
       <r>    77.5810     0.0000     0.0000 </r>
       <r>    78.7070     0.0000     0.0000 </r>
       <r>    79.8329     0.0000     0.0000 </r>
       <r>    80.9589     0.0000     0.0000 </r>
       <r>    82.0848     0.0000     0.0000 </r>
       <r>    83.2108     0.0000     0.0000 </r>
       <r>    84.3367     0.0000     0.0000 </r>
       <r>    85.4627     0.0000     0.0000 </r>
       <r>    86.5886     0.0000     0.0000 </r>
       <r>    87.7145     0.0000     0.0000 </r>
       <r>    88.8405     0.0000     0.0000 </r>
       <r>    89.9664     0.0000     0.0000 </r>
       <r>    91.0924     0.0000     0.0000 </r>
       <r>    92.2183     0.0000     0.0000 </r>
       <r>    93.3443     0.0000     0.0000 </r>
       <r>    94.4702     0.0000     0.0000 </r>
       <r>    95.5962     0.0000     0.0000 </r>
       <r>    96.7221     0.0000     0.0000 </r>
       <r>    97.8481     0.0000     0.0000 </r>
       <r>    98.9740     0.0000     0.0000 </r>
       <r>   100.1000     0.0000     0.0000 </r>
       <r>   101.2259     0.0000     0.0000 </r>
       <r>   102.3519     0.0000     0.0000 </r>
      </set>
     </set>
    </array>
   </total>
  </dos>
 </calculation>
 <structure name="finalpos" >
  <crystal>
   <varray name="basis" >
    <v>       4.39635018       0.00000000       0.00000000 </v>
    <v>       2.19817509       3.80735094      -0.00000000 </v>
    <v>       2.19817509       1.26911698       3.58960489 </v>
   </varray>
   <i name="volume">     60.08441465 </i>
   <varray name="rec_basis" >
    <v>       0.22746141      -0.13132490      -0.09286073 </v>
    <v>       0.00000000       0.26264981      -0.09286073 </v>
    <v>      -0.00000000       0.00000000       0.27858219 </v>
   </varray>
  </crystal>
  <varray name="positions" >
   <v>       0.00000000       0.00000000       0.00000000 </v>
  </varray>
  <varray name="velocities" >
   <v>       0.00000000       0.00000000       0.00000000 </v>
  </varray>
 </structure>
</modeling>
