   1   1   0   0
  0.5764366E+02  0.4335996E-09  0.4335996E-09  0.4335996E-09  0.1000000E-15
  1.000000000000000E-004
  CAR 
 Og_FCC                                  
     58.27106021    -19.67062651  301     -3.17296949      1.00000000
    -19.671  0.0000E+00  0.0000E+00
    -19.411  0.0000E+00  0.0000E+00
    -19.151  0.0000E+00  0.0000E+00
    -18.891  0.0000E+00  0.0000E+00
    -18.631  0.0000E+00  0.0000E+00
    -18.372  0.0000E+00  0.0000E+00
    -18.112  0.0000E+00  0.0000E+00
    -17.852  0.0000E+00  0.0000E+00
    -17.592  0.0000E+00  0.0000E+00
    -17.332  0.0000E+00  0.0000E+00
    -17.073  0.0000E+00  0.0000E+00
    -16.813  0.0000E+00  0.0000E+00
    -16.553  0.0000E+00  0.0000E+00
    -16.293  0.0000E+00  0.0000E+00
    -16.033  0.0000E+00  0.8746E-01
    -15.774  0.0000E+00  0.2000E+01
    -15.514  0.0000E+00  0.2000E+01
    -15.254  0.0000E+00  0.2000E+01
    -14.994  0.0000E+00  0.2000E+01
    -14.734  0.0000E+00  0.2000E+01
    -14.475  0.0000E+00  0.2000E+01
    -14.215  0.0000E+00  0.2000E+01
    -13.955  0.0000E+00  0.2000E+01
    -13.695  0.0000E+00  0.2000E+01
    -13.435  0.0000E+00  0.2000E+01
    -13.175  0.0000E+00  0.2000E+01
    -12.916  0.0000E+00  0.2000E+01
    -12.656  0.0000E+00  0.2000E+01
    -12.396  0.0000E+00  0.2000E+01
    -12.136  0.0000E+00  0.2000E+01
    -11.876  0.0000E+00  0.2000E+01
    -11.617  0.0000E+00  0.2000E+01
    -11.357  0.0000E+00  0.2000E+01
    -11.097  0.0000E+00  0.2000E+01
    -10.837  0.0000E+00  0.2000E+01
    -10.577  0.0000E+00  0.2000E+01
    -10.318  0.0000E+00  0.2000E+01
    -10.058  0.0000E+00  0.2000E+01
     -9.798  0.0000E+00  0.2000E+01
     -9.538  0.0000E+00  0.2000E+01
     -9.278  0.0000E+00  0.2000E+01
     -9.019  0.0000E+00  0.2000E+01
     -8.759  0.0000E+00  0.2000E+01
     -8.499  0.0000E+00  0.2000E+01
     -8.239  0.0000E+00  0.2000E+01
     -7.979  0.0000E+00  0.2000E+01
     -7.720  0.0000E+00  0.2000E+01
     -7.460  0.0000E+00  0.2000E+01
     -7.200  0.0000E+00  0.2000E+01
     -6.940  0.0000E+00  0.2000E+01
     -6.680  0.0000E+00  0.2000E+01
     -6.421  0.0000E+00  0.2000E+01
     -6.161  0.0000E+00  0.2000E+01
     -5.901  0.0000E+00  0.2000E+01
     -5.641  0.0000E+00  0.2000E+01
     -5.381  0.0000E+00  0.3341E+01
     -5.122  0.0000E+00  0.3703E+01
     -4.862  0.0000E+00  0.3913E+01
     -4.602  0.2017E-01  0.3999E+01
     -4.342  0.0000E+00  0.4875E+01
     -4.082  0.0000E+00  0.5621E+01
     -3.822  0.1351E-01  0.6371E+01
     -3.563  0.1347E+00  0.7417E+01
     -3.303  0.0000E+00  0.7942E+01
     -3.043  0.0000E+00  0.8000E+01
     -2.783  0.0000E+00  0.8000E+01
     -2.523  0.0000E+00  0.8000E+01
     -2.264  0.0000E+00  0.8000E+01
     -2.004  0.0000E+00  0.8000E+01
     -1.744  0.0000E+00  0.8000E+01
     -1.484  0.0000E+00  0.8000E+01
     -1.224  0.0000E+00  0.8000E+01
     -0.965  0.0000E+00  0.8000E+01
     -0.705  0.0000E+00  0.8000E+01
     -0.445  0.0000E+00  0.8000E+01
     -0.185  0.0000E+00  0.8000E+01
      0.075  0.0000E+00  0.8000E+01
      0.334  0.0000E+00  0.8000E+01
      0.594  0.0000E+00  0.8000E+01
      0.854  0.0000E+00  0.8000E+01
      1.114  0.0000E+00  0.8000E+01
      1.374  0.0000E+00  0.8000E+01
      1.633  0.0000E+00  0.8000E+01
      1.893  0.0000E+00  0.8000E+01
      2.153  0.0000E+00  0.8000E+01
      2.413  0.0000E+00  0.8000E+01
      2.673  0.0000E+00  0.8006E+01
      2.932  0.0000E+00  0.8006E+01
      3.192  0.0000E+00  0.8052E+01
      3.452  0.0000E+00  0.8087E+01
      3.712  0.0000E+00  0.8087E+01
      3.972  0.0000E+00  0.8309E+01
      4.231  0.0000E+00  0.8531E+01
      4.491  0.2756E-13  0.8950E+01
      4.751  0.0000E+00  0.9545E+01
      5.011  0.0000E+00  0.9755E+01
      5.271  0.0000E+00  0.1042E+02
      5.531  0.0000E+00  0.1070E+02
      5.790  0.5386E+00  0.1119E+02
      6.050  0.0000E+00  0.1161E+02
      6.310  0.0000E+00  0.1199E+02
      6.570  0.0000E+00  0.1258E+02
      6.830  0.0000E+00  0.1309E+02
      7.089  0.5386E+00  0.1368E+02
      7.349  0.0000E+00  0.1429E+02
      7.609  0.0000E+00  0.1457E+02
      7.869  0.0000E+00  0.1495E+02
      8.129  0.0000E+00  0.1530E+02
      8.388  0.0000E+00  0.1565E+02
      8.648  0.0000E+00  0.1586E+02
      8.908  0.0000E+00  0.1655E+02
      9.168  0.0000E+00  0.1666E+02
      9.428  0.0000E+00  0.1672E+02
      9.687  0.0000E+00  0.1690E+02
      9.947  0.0000E+00  0.1756E+02
     10.207  0.1347E+00  0.1787E+02
     10.467  0.1949E-01  0.1798E+02
     10.727  0.0000E+00  0.1892E+02
     10.986  0.0000E+00  0.1920E+02
     11.246  0.4052E-08  0.1997E+02
     11.506  0.0000E+00  0.2065E+02
     11.766  0.0000E+00  0.2093E+02
     12.026  0.0000E+00  0.2094E+02
     12.285  0.0000E+00  0.2122E+02
     12.545  0.0000E+00  0.2147E+02
     12.805  0.0000E+00  0.2185E+02
     13.065  0.0000E+00  0.2303E+02
     13.325  0.0000E+00  0.2366E+02
     13.584  0.8080E+00  0.2445E+02
     13.844  0.0000E+00  0.2518E+02
     14.104  0.0000E+00  0.2546E+02
     14.364  0.0000E+00  0.2574E+02
     14.624  0.0000E+00  0.2620E+02
     14.884  0.0000E+00  0.2651E+02
     15.143  0.0000E+00  0.2696E+02
     15.403  0.0000E+00  0.2738E+02
     15.663  0.0000E+00  0.2815E+02
     15.923  0.0000E+00  0.2854E+02
     16.183  0.0000E+00  0.2937E+02
     16.442  0.0000E+00  0.3050E+02
     16.702  0.4370E-04  0.3111E+02
     16.962  0.0000E+00  0.3167E+02
     17.222  0.1033E+00  0.3250E+02
     17.482  0.2679E+00  0.3361E+02
     17.741  0.0000E+00  0.3445E+02
     18.001  0.0000E+00  0.3480E+02
     18.261  0.1795E+00  0.3520E+02
     18.521  0.0000E+00  0.3553E+02
     18.781  0.0000E+00  0.3634E+02
     19.040  0.0000E+00  0.3634E+02
     19.300  0.0000E+00  0.3697E+02
     19.560  0.0000E+00  0.3804E+02
     19.820  0.0000E+00  0.3889E+02
     20.080  0.0000E+00  0.3945E+02
     20.339  0.1077E+01  0.4023E+02
     20.599  0.0000E+00  0.4041E+02
     20.859  0.0000E+00  0.4146E+02
     21.119  0.1795E+00  0.4232E+02
     21.379  0.5386E+00  0.4311E+02
     21.638  0.0000E+00  0.4328E+02
     21.898  0.0000E+00  0.4410E+02
     22.158  0.0000E+00  0.4499E+02
     22.418  0.0000E+00  0.4617E+02
     22.678  0.0000E+00  0.4659E+02
     22.937  0.0000E+00  0.4726E+02
     23.197  0.0000E+00  0.4771E+02
     23.457  0.0000E+00  0.4786E+02
     23.717  0.0000E+00  0.4866E+02
     23.977  0.0000E+00  0.4949E+02
     24.237  0.0000E+00  0.4957E+02
     24.496  0.1929E-04  0.5017E+02
     24.756  0.0000E+00  0.5119E+02
     25.016  0.0000E+00  0.5178E+02
     25.276  0.0000E+00  0.5229E+02
     25.536  0.1424E+00  0.5234E+02
     25.795  0.9864E-02  0.5332E+02
     26.055  0.0000E+00  0.5378E+02
     26.315  0.3141E+00  0.5478E+02
     26.575  0.1015E-07  0.5573E+02
     26.835  0.0000E+00  0.5705E+02
     27.094  0.0000E+00  0.5818E+02
     27.354  0.0000E+00  0.5886E+02
     27.614  0.0000E+00  0.5928E+02
     27.874  0.0000E+00  0.5937E+02
     28.134  0.0000E+00  0.5937E+02
     28.393  0.0000E+00  0.5984E+02
     28.653  0.0000E+00  0.6127E+02
     28.913  0.0000E+00  0.6141E+02
     29.173  0.0000E+00  0.6187E+02
     29.433  0.0000E+00  0.6273E+02
     29.692  0.0000E+00  0.6287E+02
     29.952  0.0000E+00  0.6378E+02
     30.212  0.0000E+00  0.6448E+02
     30.472  0.0000E+00  0.6539E+02
     30.732  0.0000E+00  0.6601E+02
     30.991  0.0000E+00  0.6675E+02
     31.251  0.0000E+00  0.6741E+02
     31.511  0.0000E+00  0.6755E+02
     31.771  0.7182E+00  0.6897E+02
     32.031  0.0000E+00  0.7000E+02
     32.290  0.0000E+00  0.7024E+02
     32.550  0.0000E+00  0.7099E+02
     32.810  0.0000E+00  0.7136E+02
     33.070  0.0000E+00  0.7232E+02
     33.330  0.0000E+00  0.7260E+02
     33.590  0.5386E+00  0.7340E+02
     33.849  0.0000E+00  0.7480E+02
     34.109  0.0000E+00  0.7487E+02
     34.369  0.0000E+00  0.7557E+02
     34.629  0.0000E+00  0.7665E+02
     34.889  0.1795E+00  0.7712E+02
     35.148  0.1378E-11  0.7764E+02
     35.408  0.0000E+00  0.7816E+02
     35.668  0.0000E+00  0.7830E+02
     35.928  0.0000E+00  0.7894E+02
     36.188  0.0000E+00  0.7941E+02
     36.447  0.0000E+00  0.7990E+02
     36.707  0.0000E+00  0.8024E+02
     36.967  0.0000E+00  0.8121E+02
     37.227  0.0000E+00  0.8237E+02
     37.487  0.5386E+00  0.8320E+02
     37.746  0.2693E+00  0.8406E+02
     38.006  0.5386E+00  0.8487E+02
     38.266  0.0000E+00  0.8560E+02
     38.526  0.4549E-11  0.8621E+02
     38.786  0.0000E+00  0.8741E+02
     39.045  0.6298E+00  0.8806E+02
     39.305  0.0000E+00  0.8878E+02
     39.565  0.7014E-13  0.8958E+02
     39.825  0.0000E+00  0.9062E+02
     40.085  0.0000E+00  0.9086E+02
     40.344  0.0000E+00  0.9121E+02
     40.604  0.4983E-16  0.9205E+02
     40.864  0.2244E-01  0.9257E+02
     41.124  0.0000E+00  0.9292E+02
     41.384  0.0000E+00  0.9362E+02
     41.644  0.0000E+00  0.9486E+02
     41.903  0.0000E+00  0.9507E+02
     42.163  0.0000E+00  0.9647E+02
     42.423  0.2693E+00  0.9760E+02
     42.683  0.0000E+00  0.9812E+02
     42.943  0.0000E+00  0.9882E+02
     43.202  0.0000E+00  0.9948E+02
     43.462  0.0000E+00  0.9998E+02
     43.722  0.5800E-06  0.1008E+03
     43.982  0.0000E+00  0.1015E+03
     44.242  0.0000E+00  0.1024E+03
     44.501  0.0000E+00  0.1030E+03
     44.761  0.0000E+00  0.1036E+03
     45.021  0.2357E-02  0.1044E+03
     45.281  0.0000E+00  0.1050E+03
     45.541  0.5386E+00  0.1060E+03
     45.800  0.0000E+00  0.1067E+03
     46.060  0.0000E+00  0.1072E+03
     46.320  0.0000E+00  0.1077E+03
     46.580  0.0000E+00  0.1080E+03
     46.840  0.2693E+00  0.1088E+03
     47.099  0.1347E+00  0.1094E+03
     47.359  0.0000E+00  0.1097E+03
     47.619  0.5275E+00  0.1108E+03
     47.879  0.0000E+00  0.1114E+03
     48.139  0.5386E+00  0.1122E+03
     48.398  0.0000E+00  0.1134E+03
     48.658  0.0000E+00  0.1139E+03
     48.918  0.0000E+00  0.1156E+03
     49.178  0.5242E+00  0.1165E+03
     49.438  0.0000E+00  0.1167E+03
     49.697  0.0000E+00  0.1172E+03
     49.957  0.0000E+00  0.1181E+03
     50.217  0.0000E+00  0.1187E+03
     50.477  0.0000E+00  0.1198E+03
     50.737  0.0000E+00  0.1207E+03
     50.997  0.0000E+00  0.1215E+03
     51.256  0.0000E+00  0.1221E+03
     51.516  0.0000E+00  0.1229E+03
     51.776  0.0000E+00  0.1234E+03
     52.036  0.2812E-06  0.1239E+03
     52.296  0.5386E+00  0.1255E+03
     52.555  0.0000E+00  0.1259E+03
     52.815  0.0000E+00  0.1264E+03
     53.075  0.0000E+00  0.1267E+03
     53.335  0.0000E+00  0.1270E+03
     53.595  0.0000E+00  0.1272E+03
     53.854  0.3873E-03  0.1276E+03
     54.114  0.0000E+00  0.1278E+03
     54.374  0.0000E+00  0.1280E+03
     54.634  0.0000E+00  0.1280E+03
     54.894  0.0000E+00  0.1280E+03
     55.153  0.0000E+00  0.1280E+03
     55.413  0.0000E+00  0.1280E+03
     55.673  0.0000E+00  0.1280E+03
     55.933  0.0000E+00  0.1280E+03
     56.193  0.0000E+00  0.1280E+03
     56.452  0.0000E+00  0.1280E+03
     56.712  0.0000E+00  0.1280E+03
     56.972  0.0000E+00  0.1280E+03
     57.232  0.0000E+00  0.1280E+03
     57.492  0.0000E+00  0.1280E+03
     57.751  0.0000E+00  0.1280E+03
     58.011  0.0000E+00  0.1280E+03
     58.271  0.0000E+00  0.1280E+03
