<?xml version="1.0" encoding="ISO-8859-1"?>
<modeling>
 <generator>
  <i name="program" type="string">vasp </i>
  <i name="version" type="string">5.4.4.18Apr17-6-g9f103f2a35  </i>
  <i name="subversion" type="string">(build Nov 03 2018 10:20:46) complex            parallel </i>
  <i name="platform" type="string">LinuxIFC </i>
  <i name="date" type="string">2018 12 06 </i>
  <i name="time" type="string">15:45:25 </i>
 </generator>
 <incar>
  <i type="string" name="SYSTEM">   Og_FCC</i>
  <i type="string" name="PREC">accurate</i>
  <i type="string" name="ALGO">   EXACT</i>
  <i type="logical" name="ADDGRID"> T  </i>
  <i type="logical" name="LSORBIT"> T  </i>
  <i type="int" name="ISPIN">     1</i>
  <i type="int" name="MAXMIX">    50</i>
  <i type="int" name="NELM">    50</i>
  <i type="int" name="NELMDL">    -5</i>
  <i type="int" name="NELMIN">     2</i>
  <i type="int" name="IBRION">    -1</i>
  <i type="int" name="NFREE">     5</i>
  <i name="EDIFF">      0.00000001</i>
  <i name="EDIFFG">      0.00001000</i>
  <i type="int" name="NSW">     1</i>
  <i type="int" name="ISIF">     3</i>
  <i type="int" name="ISYM">     0</i>
  <i name="SYMPREC">      0.00000010</i>
  <i name="ENCUT">    300.00000000</i>
  <i type="int" name="NBANDS">   128</i>
  <i name="POTIM">      0.10000000</i>
  <i type="logical" name="LREAL"> F  </i>
  <i type="int" name="ISMEAR">     0</i>
  <i name="SIGMA">      0.00100000</i>
  <i type="int" name="NWRITE">     2</i>
  <i type="logical" name="LWAVE"> T  </i>
  <i type="logical" name="LCHARG"> F  </i>
  <i type="logical" name="LVTOT"> F  </i>
  <i type="logical" name="LOPTICS"> T  </i>
  <i type="logical" name="GGA_COMPAT"> F  </i>
  <v type="int" name="KPOINT_BSE">    -1     0     0     0</v>
  <i type="int" name="NELM">    50</i>
  <i type="string" name="GGA"> PE</i>
 </incar>
 <structure name="primitive_cell" >
  <crystal>
   <varray name="basis" >
    <v>       4.33599578       0.00000000       0.00000000 </v>
    <v>       2.16799789       3.75508250      -0.00000000 </v>
    <v>       2.16799789       1.25169417       3.54032573 </v>
   </varray>
   <i name="volume">     57.64366099 </i>
   <varray name="rec_basis" >
    <v>       0.23062753      -0.13315287      -0.09415330 </v>
    <v>       0.00000000       0.26630573      -0.09415330 </v>
    <v>      -0.00000000       0.00000000       0.28245989 </v>
   </varray>
  </crystal>
  <varray name="positions" >
   <v>       0.00000000       0.00000000       0.00000000 </v>
  </varray>
 </structure>
 <varray name="primitive_index" >
  <v type="int" >        1 </v>
 </varray>
 <kpoints>
  <generation param="Gamma">
   <v type="int" name="divisions">       7        7        7 </v>
   <v name="usershift">      0.00000000       0.00000000       0.00000000 </v>
   <v name="genvec1">      0.14285714       0.00000000       0.00000000 </v>
   <v name="genvec2">      0.00000000       0.14285714       0.00000000 </v>
   <v name="genvec3">      0.00000000      -0.00000000       0.14285714 </v>
   <v name="shift">      0.00000000       0.00000000       0.00000000 </v>
  </generation>
  <varray name="kpointlist" >
   <v>       0.00000000       0.00000000       0.00000000 </v>
   <v>       0.14285714      -0.00000000      -0.00000000 </v>
   <v>       0.28571429      -0.00000000      -0.00000000 </v>
   <v>       0.42857143       0.00000000      -0.00000000 </v>
   <v>      -0.42857143      -0.00000000       0.00000000 </v>
   <v>      -0.28571429       0.00000000       0.00000000 </v>
   <v>      -0.14285714      -0.00000000       0.00000000 </v>
   <v>       0.00000000       0.14285714       0.00000000 </v>
   <v>       0.14285714       0.14285714      -0.00000000 </v>
   <v>       0.28571429       0.14285714      -0.00000000 </v>
   <v>       0.42857143       0.14285714      -0.00000000 </v>
   <v>      -0.42857143       0.14285714       0.00000000 </v>
   <v>      -0.28571429       0.14285714       0.00000000 </v>
   <v>      -0.14285714       0.14285714      -0.00000000 </v>
   <v>       0.00000000       0.28571429       0.00000000 </v>
   <v>       0.14285714       0.28571429      -0.00000000 </v>
   <v>       0.28571429       0.28571429      -0.00000000 </v>
   <v>       0.42857143       0.28571429      -0.00000000 </v>
   <v>      -0.42857143       0.28571429       0.00000000 </v>
   <v>      -0.28571429       0.28571429       0.00000000 </v>
   <v>      -0.14285714       0.28571429      -0.00000000 </v>
   <v>      -0.00000000       0.42857143       0.00000000 </v>
   <v>       0.14285714       0.42857143      -0.00000000 </v>
   <v>       0.28571429       0.42857143      -0.00000000 </v>
   <v>       0.42857143       0.42857143       0.00000000 </v>
   <v>      -0.42857143       0.42857143       0.00000000 </v>
   <v>      -0.28571429       0.42857143       0.00000000 </v>
   <v>      -0.14285714       0.42857143      -0.00000000 </v>
   <v>       0.00000000      -0.42857143       0.00000000 </v>
   <v>       0.14285714      -0.42857143       0.00000000 </v>
   <v>       0.28571429      -0.42857143      -0.00000000 </v>
   <v>       0.42857143      -0.42857143      -0.00000000 </v>
   <v>      -0.42857143      -0.42857143       0.00000000 </v>
   <v>      -0.28571429      -0.42857143       0.00000000 </v>
   <v>      -0.14285714      -0.42857143       0.00000000 </v>
   <v>      -0.00000000      -0.28571429       0.00000000 </v>
   <v>       0.14285714      -0.28571429      -0.00000000 </v>
   <v>       0.28571429      -0.28571429      -0.00000000 </v>
   <v>       0.42857143      -0.28571429      -0.00000000 </v>
   <v>      -0.42857143      -0.28571429       0.00000000 </v>
   <v>      -0.28571429      -0.28571429       0.00000000 </v>
   <v>      -0.14285714      -0.28571429       0.00000000 </v>
   <v>       0.00000000      -0.14285714      -0.00000000 </v>
   <v>       0.14285714      -0.14285714      -0.00000000 </v>
   <v>       0.28571429      -0.14285714      -0.00000000 </v>
   <v>       0.42857143      -0.14285714      -0.00000000 </v>
   <v>      -0.42857143      -0.14285714       0.00000000 </v>
   <v>      -0.28571429      -0.14285714       0.00000000 </v>
   <v>      -0.14285714      -0.14285714      -0.00000000 </v>
   <v>       0.00000000       0.00000000       0.14285714 </v>
   <v>       0.14285714      -0.00000000       0.14285714 </v>
   <v>       0.28571429      -0.00000000       0.14285714 </v>
   <v>       0.42857143       0.00000000       0.14285714 </v>
   <v>      -0.42857143      -0.00000000       0.14285714 </v>
   <v>      -0.28571429       0.00000000       0.14285714 </v>
   <v>      -0.14285714      -0.00000000       0.14285714 </v>
   <v>       0.00000000       0.14285714       0.14285714 </v>
   <v>       0.14285714       0.14285714       0.14285714 </v>
   <v>       0.28571429       0.14285714       0.14285714 </v>
   <v>       0.42857143       0.14285714       0.14285714 </v>
   <v>      -0.42857143       0.14285714       0.14285714 </v>
   <v>      -0.28571429       0.14285714       0.14285714 </v>
   <v>      -0.14285714       0.14285714       0.14285714 </v>
   <v>       0.00000000       0.28571429       0.14285714 </v>
   <v>       0.14285714       0.28571429       0.14285714 </v>
   <v>       0.28571429       0.28571429       0.14285714 </v>
   <v>       0.42857143       0.28571429       0.14285714 </v>
   <v>      -0.42857143       0.28571429       0.14285714 </v>
   <v>      -0.28571429       0.28571429       0.14285714 </v>
   <v>      -0.14285714       0.28571429       0.14285714 </v>
   <v>      -0.00000000       0.42857143       0.14285714 </v>
   <v>       0.14285714       0.42857143       0.14285714 </v>
   <v>       0.28571429       0.42857143       0.14285714 </v>
   <v>       0.42857143       0.42857143       0.14285714 </v>
   <v>      -0.42857143       0.42857143       0.14285714 </v>
   <v>      -0.28571429       0.42857143       0.14285714 </v>
   <v>      -0.14285714       0.42857143       0.14285714 </v>
   <v>       0.00000000      -0.42857143       0.14285714 </v>
   <v>       0.14285714      -0.42857143       0.14285714 </v>
   <v>       0.28571429      -0.42857143       0.14285714 </v>
   <v>       0.42857143      -0.42857143       0.14285714 </v>
   <v>      -0.42857143      -0.42857143       0.14285714 </v>
   <v>      -0.28571429      -0.42857143       0.14285714 </v>
   <v>      -0.14285714      -0.42857143       0.14285714 </v>
   <v>       0.00000000      -0.28571429       0.14285714 </v>
   <v>       0.14285714      -0.28571429       0.14285714 </v>
   <v>       0.28571429      -0.28571429       0.14285714 </v>
   <v>       0.42857143      -0.28571429       0.14285714 </v>
   <v>      -0.42857143      -0.28571429       0.14285714 </v>
   <v>      -0.28571429      -0.28571429       0.14285714 </v>
   <v>      -0.14285714      -0.28571429       0.14285714 </v>
   <v>       0.00000000      -0.14285714       0.14285714 </v>
   <v>       0.14285714      -0.14285714       0.14285714 </v>
   <v>       0.28571429      -0.14285714       0.14285714 </v>
   <v>       0.42857143      -0.14285714       0.14285714 </v>
   <v>      -0.42857143      -0.14285714       0.14285714 </v>
   <v>      -0.28571429      -0.14285714       0.14285714 </v>
   <v>      -0.14285714      -0.14285714       0.14285714 </v>
   <v>       0.00000000       0.00000000       0.28571429 </v>
   <v>       0.14285714      -0.00000000       0.28571429 </v>
   <v>       0.28571429      -0.00000000       0.28571429 </v>
   <v>       0.42857143      -0.00000000       0.28571429 </v>
   <v>      -0.42857143      -0.00000000       0.28571429 </v>
   <v>      -0.28571429       0.00000000       0.28571429 </v>
   <v>      -0.14285714       0.00000000       0.28571429 </v>
   <v>      -0.00000000       0.14285714       0.28571429 </v>
   <v>       0.14285714       0.14285714       0.28571429 </v>
   <v>       0.28571429       0.14285714       0.28571429 </v>
   <v>       0.42857143       0.14285714       0.28571429 </v>
   <v>      -0.42857143       0.14285714       0.28571429 </v>
   <v>      -0.28571429       0.14285714       0.28571429 </v>
   <v>      -0.14285714       0.14285714       0.28571429 </v>
   <v>       0.00000000       0.28571429       0.28571429 </v>
   <v>       0.14285714       0.28571429       0.28571429 </v>
   <v>       0.28571429       0.28571429       0.28571429 </v>
   <v>       0.42857143       0.28571429       0.28571429 </v>
   <v>      -0.42857143       0.28571429       0.28571429 </v>
   <v>      -0.28571429       0.28571429       0.28571429 </v>
   <v>      -0.14285714       0.28571429       0.28571429 </v>
   <v>      -0.00000000       0.42857143       0.28571429 </v>
   <v>       0.14285714       0.42857143       0.28571429 </v>
   <v>       0.28571429       0.42857143       0.28571429 </v>
   <v>       0.42857143       0.42857143       0.28571429 </v>
   <v>      -0.42857143       0.42857143       0.28571429 </v>
   <v>      -0.28571429       0.42857143       0.28571429 </v>
   <v>      -0.14285714       0.42857143       0.28571429 </v>
   <v>       0.00000000      -0.42857143       0.28571429 </v>
   <v>       0.14285714      -0.42857143       0.28571429 </v>
   <v>       0.28571429      -0.42857143       0.28571429 </v>
   <v>       0.42857143      -0.42857143       0.28571429 </v>
   <v>      -0.42857143      -0.42857143       0.28571429 </v>
   <v>      -0.28571429      -0.42857143       0.28571429 </v>
   <v>      -0.14285714      -0.42857143       0.28571429 </v>
   <v>       0.00000000      -0.28571429       0.28571429 </v>
   <v>       0.14285714      -0.28571429       0.28571429 </v>
   <v>       0.28571429      -0.28571429       0.28571429 </v>
   <v>       0.42857143      -0.28571429       0.28571429 </v>
   <v>      -0.42857143      -0.28571429       0.28571429 </v>
   <v>      -0.28571429      -0.28571429       0.28571429 </v>
   <v>      -0.14285714      -0.28571429       0.28571429 </v>
   <v>      -0.00000000      -0.14285714       0.28571429 </v>
   <v>       0.14285714      -0.14285714       0.28571429 </v>
   <v>       0.28571429      -0.14285714       0.28571429 </v>
   <v>       0.42857143      -0.14285714       0.28571429 </v>
   <v>      -0.42857143      -0.14285714       0.28571429 </v>
   <v>      -0.28571429      -0.14285714       0.28571429 </v>
   <v>      -0.14285714      -0.14285714       0.28571429 </v>
   <v>       0.00000000       0.00000000       0.42857143 </v>
   <v>       0.14285714      -0.00000000       0.42857143 </v>
   <v>       0.28571429      -0.00000000       0.42857143 </v>
   <v>       0.42857143       0.00000000       0.42857143 </v>
   <v>      -0.42857143       0.00000000       0.42857143 </v>
   <v>      -0.28571429       0.00000000       0.42857143 </v>
   <v>      -0.14285714       0.00000000       0.42857143 </v>
   <v>       0.00000000       0.14285714       0.42857143 </v>
   <v>       0.14285714       0.14285714       0.42857143 </v>
   <v>       0.28571429       0.14285714       0.42857143 </v>
   <v>       0.42857143       0.14285714       0.42857143 </v>
   <v>      -0.42857143       0.14285714       0.42857143 </v>
   <v>      -0.28571429       0.14285714       0.42857143 </v>
   <v>      -0.14285714       0.14285714       0.42857143 </v>
   <v>       0.00000000       0.28571429       0.42857143 </v>
   <v>       0.14285714       0.28571429       0.42857143 </v>
   <v>       0.28571429       0.28571429       0.42857143 </v>
   <v>       0.42857143       0.28571429       0.42857143 </v>
   <v>      -0.42857143       0.28571429       0.42857143 </v>
   <v>      -0.28571429       0.28571429       0.42857143 </v>
   <v>      -0.14285714       0.28571429       0.42857143 </v>
   <v>       0.00000000       0.42857143       0.42857143 </v>
   <v>       0.14285714       0.42857143       0.42857143 </v>
   <v>       0.28571429       0.42857143       0.42857143 </v>
   <v>       0.42857143       0.42857143       0.42857143 </v>
   <v>      -0.42857143       0.42857143       0.42857143 </v>
   <v>      -0.28571429       0.42857143       0.42857143 </v>
   <v>      -0.14285714       0.42857143       0.42857143 </v>
   <v>       0.00000000      -0.42857143       0.42857143 </v>
   <v>       0.14285714      -0.42857143       0.42857143 </v>
   <v>       0.28571429      -0.42857143       0.42857143 </v>
   <v>       0.42857143      -0.42857143       0.42857143 </v>
   <v>      -0.42857143      -0.42857143       0.42857143 </v>
   <v>      -0.28571429      -0.42857143       0.42857143 </v>
   <v>      -0.14285714      -0.42857143       0.42857143 </v>
   <v>       0.00000000      -0.28571429       0.42857143 </v>
   <v>       0.14285714      -0.28571429       0.42857143 </v>
   <v>       0.28571429      -0.28571429       0.42857143 </v>
   <v>       0.42857143      -0.28571429       0.42857143 </v>
   <v>      -0.42857143      -0.28571429       0.42857143 </v>
   <v>      -0.28571429      -0.28571429       0.42857143 </v>
   <v>      -0.14285714      -0.28571429       0.42857143 </v>
   <v>       0.00000000      -0.14285714       0.42857143 </v>
   <v>       0.14285714      -0.14285714       0.42857143 </v>
   <v>       0.28571429      -0.14285714       0.42857143 </v>
   <v>       0.42857143      -0.14285714       0.42857143 </v>
   <v>      -0.42857143      -0.14285714       0.42857143 </v>
   <v>      -0.28571429      -0.14285714       0.42857143 </v>
   <v>      -0.14285714      -0.14285714       0.42857143 </v>
   <v>       0.00000000       0.00000000      -0.42857143 </v>
   <v>       0.14285714      -0.00000000      -0.42857143 </v>
   <v>       0.28571429      -0.00000000      -0.42857143 </v>
   <v>       0.42857143      -0.00000000      -0.42857143 </v>
   <v>      -0.42857143      -0.00000000      -0.42857143 </v>
   <v>      -0.28571429       0.00000000      -0.42857143 </v>
   <v>      -0.14285714      -0.00000000      -0.42857143 </v>
   <v>       0.00000000       0.14285714      -0.42857143 </v>
   <v>       0.14285714       0.14285714      -0.42857143 </v>
   <v>       0.28571429       0.14285714      -0.42857143 </v>
   <v>       0.42857143       0.14285714      -0.42857143 </v>
   <v>      -0.42857143       0.14285714      -0.42857143 </v>
   <v>      -0.28571429       0.14285714      -0.42857143 </v>
   <v>      -0.14285714       0.14285714      -0.42857143 </v>
   <v>       0.00000000       0.28571429      -0.42857143 </v>
   <v>       0.14285714       0.28571429      -0.42857143 </v>
   <v>       0.28571429       0.28571429      -0.42857143 </v>
   <v>       0.42857143       0.28571429      -0.42857143 </v>
   <v>      -0.42857143       0.28571429      -0.42857143 </v>
   <v>      -0.28571429       0.28571429      -0.42857143 </v>
   <v>      -0.14285714       0.28571429      -0.42857143 </v>
   <v>      -0.00000000       0.42857143      -0.42857143 </v>
   <v>       0.14285714       0.42857143      -0.42857143 </v>
   <v>       0.28571429       0.42857143      -0.42857143 </v>
   <v>       0.42857143       0.42857143      -0.42857143 </v>
   <v>      -0.42857143       0.42857143      -0.42857143 </v>
   <v>      -0.28571429       0.42857143      -0.42857143 </v>
   <v>      -0.14285714       0.42857143      -0.42857143 </v>
   <v>       0.00000000      -0.42857143      -0.42857143 </v>
   <v>       0.14285714      -0.42857143      -0.42857143 </v>
   <v>       0.28571429      -0.42857143      -0.42857143 </v>
   <v>       0.42857143      -0.42857143      -0.42857143 </v>
   <v>      -0.42857143      -0.42857143      -0.42857143 </v>
   <v>      -0.28571429      -0.42857143      -0.42857143 </v>
   <v>      -0.14285714      -0.42857143      -0.42857143 </v>
   <v>       0.00000000      -0.28571429      -0.42857143 </v>
   <v>       0.14285714      -0.28571429      -0.42857143 </v>
   <v>       0.28571429      -0.28571429      -0.42857143 </v>
   <v>       0.42857143      -0.28571429      -0.42857143 </v>
   <v>      -0.42857143      -0.28571429      -0.42857143 </v>
   <v>      -0.28571429      -0.28571429      -0.42857143 </v>
   <v>      -0.14285714      -0.28571429      -0.42857143 </v>
   <v>       0.00000000      -0.14285714      -0.42857143 </v>
   <v>       0.14285714      -0.14285714      -0.42857143 </v>
   <v>       0.28571429      -0.14285714      -0.42857143 </v>
   <v>       0.42857143      -0.14285714      -0.42857143 </v>
   <v>      -0.42857143      -0.14285714      -0.42857143 </v>
   <v>      -0.28571429      -0.14285714      -0.42857143 </v>
   <v>      -0.14285714      -0.14285714      -0.42857143 </v>
   <v>       0.00000000       0.00000000      -0.28571429 </v>
   <v>       0.14285714      -0.00000000      -0.28571429 </v>
   <v>       0.28571429      -0.00000000      -0.28571429 </v>
   <v>       0.42857143       0.00000000      -0.28571429 </v>
   <v>      -0.42857143       0.00000000      -0.28571429 </v>
   <v>      -0.28571429       0.00000000      -0.28571429 </v>
   <v>      -0.14285714      -0.00000000      -0.28571429 </v>
   <v>       0.00000000       0.14285714      -0.28571429 </v>
   <v>       0.14285714       0.14285714      -0.28571429 </v>
   <v>       0.28571429       0.14285714      -0.28571429 </v>
   <v>       0.42857143       0.14285714      -0.28571429 </v>
   <v>      -0.42857143       0.14285714      -0.28571429 </v>
   <v>      -0.28571429       0.14285714      -0.28571429 </v>
   <v>      -0.14285714       0.14285714      -0.28571429 </v>
   <v>       0.00000000       0.28571429      -0.28571429 </v>
   <v>       0.14285714       0.28571429      -0.28571429 </v>
   <v>       0.28571429       0.28571429      -0.28571429 </v>
   <v>       0.42857143       0.28571429      -0.28571429 </v>
   <v>      -0.42857143       0.28571429      -0.28571429 </v>
   <v>      -0.28571429       0.28571429      -0.28571429 </v>
   <v>      -0.14285714       0.28571429      -0.28571429 </v>
   <v>       0.00000000       0.42857143      -0.28571429 </v>
   <v>       0.14285714       0.42857143      -0.28571429 </v>
   <v>       0.28571429       0.42857143      -0.28571429 </v>
   <v>       0.42857143       0.42857143      -0.28571429 </v>
   <v>      -0.42857143       0.42857143      -0.28571429 </v>
   <v>      -0.28571429       0.42857143      -0.28571429 </v>
   <v>      -0.14285714       0.42857143      -0.28571429 </v>
   <v>       0.00000000      -0.42857143      -0.28571429 </v>
   <v>       0.14285714      -0.42857143      -0.28571429 </v>
   <v>       0.28571429      -0.42857143      -0.28571429 </v>
   <v>       0.42857143      -0.42857143      -0.28571429 </v>
   <v>      -0.42857143      -0.42857143      -0.28571429 </v>
   <v>      -0.28571429      -0.42857143      -0.28571429 </v>
   <v>      -0.14285714      -0.42857143      -0.28571429 </v>
   <v>      -0.00000000      -0.28571429      -0.28571429 </v>
   <v>       0.14285714      -0.28571429      -0.28571429 </v>
   <v>       0.28571429      -0.28571429      -0.28571429 </v>
   <v>       0.42857143      -0.28571429      -0.28571429 </v>
   <v>      -0.42857143      -0.28571429      -0.28571429 </v>
   <v>      -0.28571429      -0.28571429      -0.28571429 </v>
   <v>      -0.14285714      -0.28571429      -0.28571429 </v>
   <v>       0.00000000      -0.14285714      -0.28571429 </v>
   <v>       0.14285714      -0.14285714      -0.28571429 </v>
   <v>       0.28571429      -0.14285714      -0.28571429 </v>
   <v>       0.42857143      -0.14285714      -0.28571429 </v>
   <v>      -0.42857143      -0.14285714      -0.28571429 </v>
   <v>      -0.28571429      -0.14285714      -0.28571429 </v>
   <v>      -0.14285714      -0.14285714      -0.28571429 </v>
   <v>       0.00000000      -0.00000000      -0.14285714 </v>
   <v>       0.14285714      -0.00000000      -0.14285714 </v>
   <v>       0.28571429      -0.00000000      -0.14285714 </v>
   <v>       0.42857143       0.00000000      -0.14285714 </v>
   <v>      -0.42857143      -0.00000000      -0.14285714 </v>
   <v>      -0.28571429       0.00000000      -0.14285714 </v>
   <v>      -0.14285714       0.00000000      -0.14285714 </v>
   <v>      -0.00000000       0.14285714      -0.14285714 </v>
   <v>       0.14285714       0.14285714      -0.14285714 </v>
   <v>       0.28571429       0.14285714      -0.14285714 </v>
   <v>       0.42857143       0.14285714      -0.14285714 </v>
   <v>      -0.42857143       0.14285714      -0.14285714 </v>
   <v>      -0.28571429       0.14285714      -0.14285714 </v>
   <v>      -0.14285714       0.14285714      -0.14285714 </v>
   <v>       0.00000000       0.28571429      -0.14285714 </v>
   <v>       0.14285714       0.28571429      -0.14285714 </v>
   <v>       0.28571429       0.28571429      -0.14285714 </v>
   <v>       0.42857143       0.28571429      -0.14285714 </v>
   <v>      -0.42857143       0.28571429      -0.14285714 </v>
   <v>      -0.28571429       0.28571429      -0.14285714 </v>
   <v>      -0.14285714       0.28571429      -0.14285714 </v>
   <v>      -0.00000000       0.42857143      -0.14285714 </v>
   <v>       0.14285714       0.42857143      -0.14285714 </v>
   <v>       0.28571429       0.42857143      -0.14285714 </v>
   <v>       0.42857143       0.42857143      -0.14285714 </v>
   <v>      -0.42857143       0.42857143      -0.14285714 </v>
   <v>      -0.28571429       0.42857143      -0.14285714 </v>
   <v>      -0.14285714       0.42857143      -0.14285714 </v>
   <v>      -0.00000000      -0.42857143      -0.14285714 </v>
   <v>       0.14285714      -0.42857143      -0.14285714 </v>
   <v>       0.28571429      -0.42857143      -0.14285714 </v>
   <v>       0.42857143      -0.42857143      -0.14285714 </v>
   <v>      -0.42857143      -0.42857143      -0.14285714 </v>
   <v>      -0.28571429      -0.42857143      -0.14285714 </v>
   <v>      -0.14285714      -0.42857143      -0.14285714 </v>
   <v>      -0.00000000      -0.28571429      -0.14285714 </v>
   <v>       0.14285714      -0.28571429      -0.14285714 </v>
   <v>       0.28571429      -0.28571429      -0.14285714 </v>
   <v>       0.42857143      -0.28571429      -0.14285714 </v>
   <v>      -0.42857143      -0.28571429      -0.14285714 </v>
   <v>      -0.28571429      -0.28571429      -0.14285714 </v>
   <v>      -0.14285714      -0.28571429      -0.14285714 </v>
   <v>       0.00000000      -0.14285714      -0.14285714 </v>
   <v>       0.14285714      -0.14285714      -0.14285714 </v>
   <v>       0.28571429      -0.14285714      -0.14285714 </v>
   <v>       0.42857143      -0.14285714      -0.14285714 </v>
   <v>      -0.42857143      -0.14285714      -0.14285714 </v>
   <v>      -0.28571429      -0.14285714      -0.14285714 </v>
   <v>      -0.14285714      -0.14285714      -0.14285714 </v>
  </varray>
  <varray name="weights" >
   <v>       0.00291545 </v>
   <v>       0.00291545 </v>
   <v>       0.00291545 </v>
   <v>       0.00291545 </v>
   <v>       0.00291545 </v>
   <v>       0.00291545 </v>
   <v>       0.00291545 </v>
   <v>       0.00291545 </v>
   <v>       0.00291545 </v>
   <v>       0.00291545 </v>
   <v>       0.00291545 </v>
   <v>       0.00291545 </v>
   <v>       0.00291545 </v>
   <v>       0.00291545 </v>
   <v>       0.00291545 </v>
   <v>       0.00291545 </v>
   <v>       0.00291545 </v>
   <v>       0.00291545 </v>
   <v>       0.00291545 </v>
   <v>       0.00291545 </v>
   <v>       0.00291545 </v>
   <v>       0.00291545 </v>
   <v>       0.00291545 </v>
   <v>       0.00291545 </v>
   <v>       0.00291545 </v>
   <v>       0.00291545 </v>
   <v>       0.00291545 </v>
   <v>       0.00291545 </v>
   <v>       0.00291545 </v>
   <v>       0.00291545 </v>
   <v>       0.00291545 </v>
   <v>       0.00291545 </v>
   <v>       0.00291545 </v>
   <v>       0.00291545 </v>
   <v>       0.00291545 </v>
   <v>       0.00291545 </v>
   <v>       0.00291545 </v>
   <v>       0.00291545 </v>
   <v>       0.00291545 </v>
   <v>       0.00291545 </v>
   <v>       0.00291545 </v>
   <v>       0.00291545 </v>
   <v>       0.00291545 </v>
   <v>       0.00291545 </v>
   <v>       0.00291545 </v>
   <v>       0.00291545 </v>
   <v>       0.00291545 </v>
   <v>       0.00291545 </v>
   <v>       0.00291545 </v>
   <v>       0.00291545 </v>
   <v>       0.00291545 </v>
   <v>       0.00291545 </v>
   <v>       0.00291545 </v>
   <v>       0.00291545 </v>
   <v>       0.00291545 </v>
   <v>       0.00291545 </v>
   <v>       0.00291545 </v>
   <v>       0.00291545 </v>
   <v>       0.00291545 </v>
   <v>       0.00291545 </v>
   <v>       0.00291545 </v>
   <v>       0.00291545 </v>
   <v>       0.00291545 </v>
   <v>       0.00291545 </v>
   <v>       0.00291545 </v>
   <v>       0.00291545 </v>
   <v>       0.00291545 </v>
   <v>       0.00291545 </v>
   <v>       0.00291545 </v>
   <v>       0.00291545 </v>
   <v>       0.00291545 </v>
   <v>       0.00291545 </v>
   <v>       0.00291545 </v>
   <v>       0.00291545 </v>
   <v>       0.00291545 </v>
   <v>       0.00291545 </v>
   <v>       0.00291545 </v>
   <v>       0.00291545 </v>
   <v>       0.00291545 </v>
   <v>       0.00291545 </v>
   <v>       0.00291545 </v>
   <v>       0.00291545 </v>
   <v>       0.00291545 </v>
   <v>       0.00291545 </v>
   <v>       0.00291545 </v>
   <v>       0.00291545 </v>
   <v>       0.00291545 </v>
   <v>       0.00291545 </v>
   <v>       0.00291545 </v>
   <v>       0.00291545 </v>
   <v>       0.00291545 </v>
   <v>       0.00291545 </v>
   <v>       0.00291545 </v>
   <v>       0.00291545 </v>
   <v>       0.00291545 </v>
   <v>       0.00291545 </v>
   <v>       0.00291545 </v>
   <v>       0.00291545 </v>
   <v>       0.00291545 </v>
   <v>       0.00291545 </v>
   <v>       0.00291545 </v>
   <v>       0.00291545 </v>
   <v>       0.00291545 </v>
   <v>       0.00291545 </v>
   <v>       0.00291545 </v>
   <v>       0.00291545 </v>
   <v>       0.00291545 </v>
   <v>       0.00291545 </v>
   <v>       0.00291545 </v>
   <v>       0.00291545 </v>
   <v>       0.00291545 </v>
   <v>       0.00291545 </v>
   <v>       0.00291545 </v>
   <v>       0.00291545 </v>
   <v>       0.00291545 </v>
   <v>       0.00291545 </v>
   <v>       0.00291545 </v>
   <v>       0.00291545 </v>
   <v>       0.00291545 </v>
   <v>       0.00291545 </v>
   <v>       0.00291545 </v>
   <v>       0.00291545 </v>
   <v>       0.00291545 </v>
   <v>       0.00291545 </v>
   <v>       0.00291545 </v>
   <v>       0.00291545 </v>
   <v>       0.00291545 </v>
   <v>       0.00291545 </v>
   <v>       0.00291545 </v>
   <v>       0.00291545 </v>
   <v>       0.00291545 </v>
   <v>       0.00291545 </v>
   <v>       0.00291545 </v>
   <v>       0.00291545 </v>
   <v>       0.00291545 </v>
   <v>       0.00291545 </v>
   <v>       0.00291545 </v>
   <v>       0.00291545 </v>
   <v>       0.00291545 </v>
   <v>       0.00291545 </v>
   <v>       0.00291545 </v>
   <v>       0.00291545 </v>
   <v>       0.00291545 </v>
   <v>       0.00291545 </v>
   <v>       0.00291545 </v>
   <v>       0.00291545 </v>
   <v>       0.00291545 </v>
   <v>       0.00291545 </v>
   <v>       0.00291545 </v>
   <v>       0.00291545 </v>
   <v>       0.00291545 </v>
   <v>       0.00291545 </v>
   <v>       0.00291545 </v>
   <v>       0.00291545 </v>
   <v>       0.00291545 </v>
   <v>       0.00291545 </v>
   <v>       0.00291545 </v>
   <v>       0.00291545 </v>
   <v>       0.00291545 </v>
   <v>       0.00291545 </v>
   <v>       0.00291545 </v>
   <v>       0.00291545 </v>
   <v>       0.00291545 </v>
   <v>       0.00291545 </v>
   <v>       0.00291545 </v>
   <v>       0.00291545 </v>
   <v>       0.00291545 </v>
   <v>       0.00291545 </v>
   <v>       0.00291545 </v>
   <v>       0.00291545 </v>
   <v>       0.00291545 </v>
   <v>       0.00291545 </v>
   <v>       0.00291545 </v>
   <v>       0.00291545 </v>
   <v>       0.00291545 </v>
   <v>       0.00291545 </v>
   <v>       0.00291545 </v>
   <v>       0.00291545 </v>
   <v>       0.00291545 </v>
   <v>       0.00291545 </v>
   <v>       0.00291545 </v>
   <v>       0.00291545 </v>
   <v>       0.00291545 </v>
   <v>       0.00291545 </v>
   <v>       0.00291545 </v>
   <v>       0.00291545 </v>
   <v>       0.00291545 </v>
   <v>       0.00291545 </v>
   <v>       0.00291545 </v>
   <v>       0.00291545 </v>
   <v>       0.00291545 </v>
   <v>       0.00291545 </v>
   <v>       0.00291545 </v>
   <v>       0.00291545 </v>
   <v>       0.00291545 </v>
   <v>       0.00291545 </v>
   <v>       0.00291545 </v>
   <v>       0.00291545 </v>
   <v>       0.00291545 </v>
   <v>       0.00291545 </v>
   <v>       0.00291545 </v>
   <v>       0.00291545 </v>
   <v>       0.00291545 </v>
   <v>       0.00291545 </v>
   <v>       0.00291545 </v>
   <v>       0.00291545 </v>
   <v>       0.00291545 </v>
   <v>       0.00291545 </v>
   <v>       0.00291545 </v>
   <v>       0.00291545 </v>
   <v>       0.00291545 </v>
   <v>       0.00291545 </v>
   <v>       0.00291545 </v>
   <v>       0.00291545 </v>
   <v>       0.00291545 </v>
   <v>       0.00291545 </v>
   <v>       0.00291545 </v>
   <v>       0.00291545 </v>
   <v>       0.00291545 </v>
   <v>       0.00291545 </v>
   <v>       0.00291545 </v>
   <v>       0.00291545 </v>
   <v>       0.00291545 </v>
   <v>       0.00291545 </v>
   <v>       0.00291545 </v>
   <v>       0.00291545 </v>
   <v>       0.00291545 </v>
   <v>       0.00291545 </v>
   <v>       0.00291545 </v>
   <v>       0.00291545 </v>
   <v>       0.00291545 </v>
   <v>       0.00291545 </v>
   <v>       0.00291545 </v>
   <v>       0.00291545 </v>
   <v>       0.00291545 </v>
   <v>       0.00291545 </v>
   <v>       0.00291545 </v>
   <v>       0.00291545 </v>
   <v>       0.00291545 </v>
   <v>       0.00291545 </v>
   <v>       0.00291545 </v>
   <v>       0.00291545 </v>
   <v>       0.00291545 </v>
   <v>       0.00291545 </v>
   <v>       0.00291545 </v>
   <v>       0.00291545 </v>
   <v>       0.00291545 </v>
   <v>       0.00291545 </v>
   <v>       0.00291545 </v>
   <v>       0.00291545 </v>
   <v>       0.00291545 </v>
   <v>       0.00291545 </v>
   <v>       0.00291545 </v>
   <v>       0.00291545 </v>
   <v>       0.00291545 </v>
   <v>       0.00291545 </v>
   <v>       0.00291545 </v>
   <v>       0.00291545 </v>
   <v>       0.00291545 </v>
   <v>       0.00291545 </v>
   <v>       0.00291545 </v>
   <v>       0.00291545 </v>
   <v>       0.00291545 </v>
   <v>       0.00291545 </v>
   <v>       0.00291545 </v>
   <v>       0.00291545 </v>
   <v>       0.00291545 </v>
   <v>       0.00291545 </v>
   <v>       0.00291545 </v>
   <v>       0.00291545 </v>
   <v>       0.00291545 </v>
   <v>       0.00291545 </v>
   <v>       0.00291545 </v>
   <v>       0.00291545 </v>
   <v>       0.00291545 </v>
   <v>       0.00291545 </v>
   <v>       0.00291545 </v>
   <v>       0.00291545 </v>
   <v>       0.00291545 </v>
   <v>       0.00291545 </v>
   <v>       0.00291545 </v>
   <v>       0.00291545 </v>
   <v>       0.00291545 </v>
   <v>       0.00291545 </v>
   <v>       0.00291545 </v>
   <v>       0.00291545 </v>
   <v>       0.00291545 </v>
   <v>       0.00291545 </v>
   <v>       0.00291545 </v>
   <v>       0.00291545 </v>
   <v>       0.00291545 </v>
   <v>       0.00291545 </v>
   <v>       0.00291545 </v>
   <v>       0.00291545 </v>
   <v>       0.00291545 </v>
   <v>       0.00291545 </v>
   <v>       0.00291545 </v>
   <v>       0.00291545 </v>
   <v>       0.00291545 </v>
   <v>       0.00291545 </v>
   <v>       0.00291545 </v>
   <v>       0.00291545 </v>
   <v>       0.00291545 </v>
   <v>       0.00291545 </v>
   <v>       0.00291545 </v>
   <v>       0.00291545 </v>
   <v>       0.00291545 </v>
   <v>       0.00291545 </v>
   <v>       0.00291545 </v>
   <v>       0.00291545 </v>
   <v>       0.00291545 </v>
   <v>       0.00291545 </v>
   <v>       0.00291545 </v>
   <v>       0.00291545 </v>
   <v>       0.00291545 </v>
   <v>       0.00291545 </v>
   <v>       0.00291545 </v>
   <v>       0.00291545 </v>
   <v>       0.00291545 </v>
   <v>       0.00291545 </v>
   <v>       0.00291545 </v>
   <v>       0.00291545 </v>
   <v>       0.00291545 </v>
   <v>       0.00291545 </v>
   <v>       0.00291545 </v>
   <v>       0.00291545 </v>
   <v>       0.00291545 </v>
   <v>       0.00291545 </v>
   <v>       0.00291545 </v>
   <v>       0.00291545 </v>
   <v>       0.00291545 </v>
   <v>       0.00291545 </v>
   <v>       0.00291545 </v>
   <v>       0.00291545 </v>
   <v>       0.00291545 </v>
   <v>       0.00291545 </v>
   <v>       0.00291545 </v>
   <v>       0.00291545 </v>
   <v>       0.00291545 </v>
   <v>       0.00291545 </v>
   <v>       0.00291545 </v>
   <v>       0.00291545 </v>
   <v>       0.00291545 </v>
  </varray>
 </kpoints>
 <parameters>
  <separator name="general" >
   <i type="string" name="SYSTEM">Og_FCC</i>
   <i type="logical" name="LCOMPAT"> F  </i>
  </separator>
  <separator name="electronic" >
   <i type="string" name="PREC">accura</i>
   <i name="ENMAX">    300.00000000</i>
   <i name="ENAUG">    605.90000000</i>
   <i name="EDIFF">      0.00000001</i>
   <i type="int" name="IALGO">    90</i>
   <i type="int" name="IWAVPR">    10</i>
   <i type="int" name="NBANDS">   128</i>
   <i name="NELECT">      8.00000000</i>
   <i type="int" name="TURBO">     0</i>
   <i type="int" name="IRESTART">     0</i>
   <i type="int" name="NREBOOT">     0</i>
   <i type="int" name="NMIN">     0</i>
   <i name="EREF">      0.00000000</i>
   <separator name="electronic smearing" >
    <i type="int" name="ISMEAR">     0</i>
    <i name="SIGMA">      0.00100000</i>
    <i name="KSPACING">      0.50000000</i>
    <i type="logical" name="KGAMMA"> T  </i>
   </separator>
   <separator name="electronic projectors" >
    <i type="logical" name="LREAL"> F  </i>
    <v name="ROPT">      0.00000000</v>
    <i type="int" name="LMAXPAW">  -100</i>
    <i type="int" name="LMAXMIX">     2</i>
    <i type="logical" name="NLSPLINE"> F  </i>
   </separator>
   <separator name="electronic startup" >
    <i type="int" name="ISTART">     1</i>
    <i type="int" name="ICHARG">     0</i>
    <i type="int" name="INIWAV">     1</i>
   </separator>
   <separator name="electronic spin" >
    <i type="int" name="ISPIN">     1</i>
    <i type="logical" name="LNONCOLLINEAR"> T  </i>
    <v name="MAGMOM">      1.00000000      1.00000000      1.00000000</v>
    <i name="NUPDOWN">     -1.00000000</i>
    <i type="logical" name="LSORBIT"> T  </i>
    <v name="SAXIS">      0.00000000      0.00000000      1.00000000</v>
    <i type="logical" name="LSPIRAL"> F  </i>
    <v name="QSPIRAL">      0.00000000      0.00000000      0.00000000</v>
    <i type="logical" name="LZEROZ"> F  </i>
   </separator>
   <separator name="electronic exchange-correlation" >
    <i type="logical" name="LASPH"> F  </i>
    <i type="logical" name="LMETAGGA"> F  </i>
   </separator>
   <separator name="electronic convergence" >
    <i type="int" name="NELM">    50</i>
    <i type="int" name="NELMDL">    -5</i>
    <i type="int" name="NELMIN">     2</i>
    <i name="ENINI">    300.00000000</i>
    <separator name="electronic convergence detail" >
     <i type="logical" name="LDIAG"> T  </i>
     <i type="logical" name="LSUBROT"> F  </i>
     <i name="WEIMIN">      0.00000000</i>
     <i name="EBREAK">      0.00000000</i>
     <i name="DEPER">      0.30000000</i>
     <i type="int" name="NRMM">     4</i>
     <i name="TIME">      0.40000000</i>
    </separator>
   </separator>
   <separator name="electronic mixer" >
    <i name="AMIX">      0.40000000</i>
    <i name="BMIX">      1.00000000</i>
    <i name="AMIN">      0.10000000</i>
    <i name="AMIX_MAG">      1.60000000</i>
    <i name="BMIX_MAG">      1.00000000</i>
    <separator name="electronic mixer details" >
     <i type="int" name="IMIX">     4</i>
     <i type="logical" name="MIXFIRST"> F  </i>
     <i type="int" name="MAXMIX">    50</i>
     <i name="WC">    100.00000000</i>
     <i type="int" name="INIMIX">     1</i>
     <i type="int" name="MIXPRE">     1</i>
     <i type="int" name="MREMOVE">     5</i>
    </separator>
   </separator>
   <separator name="electronic dipolcorrection" >
    <i type="logical" name="LDIPOL"> F  </i>
    <i type="logical" name="LMONO"> F  </i>
    <i type="int" name="IDIPOL">     0</i>
    <i name="EPSILON">      1.00000000</i>
    <v name="DIPOL">   -100.00000000   -100.00000000   -100.00000000</v>
    <i name="EFIELD">      0.00000000</i>
   </separator>
  </separator>
  <separator name="grids" >
   <i type="int" name="NGX">    24</i>
   <i type="int" name="NGY">    24</i>
   <i type="int" name="NGZ">    24</i>
   <i type="int" name="NGXF">    48</i>
   <i type="int" name="NGYF">    48</i>
   <i type="int" name="NGZF">    48</i>
   <i type="logical" name="ADDGRID"> T  </i>
  </separator>
  <separator name="ionic" >
   <i type="int" name="NSW">     1</i>
   <i type="int" name="IBRION">    -1</i>
   <i type="int" name="MDALGO">     0</i>
   <i type="int" name="ISIF">     3</i>
   <i name="PSTRESS">      0.00000000</i>
   <i name="EDIFFG">      0.00001000</i>
   <i type="int" name="NFREE">     5</i>
   <i name="POTIM">      0.10000000</i>
   <i name="SMASS">     -3.00000000</i>
   <i name="SCALEE">      1.00000000</i>
  </separator>
  <separator name="ionic md" >
   <i name="TEBEG">      0.00010000</i>
   <i name="TEEND">      0.00010000</i>
   <i type="int" name="NBLOCK">     1</i>
   <i type="int" name="KBLOCK">     1</i>
   <i type="int" name="NPACO">   256</i>
   <i name="APACO">     16.00000000</i>
  </separator>
  <separator name="symmetry" >
   <i type="int" name="ISYM">     0</i>
   <i name="SYMPREC">      0.00000010</i>
  </separator>
  <separator name="dos" >
   <i type="int" name="LORBIT">     0</i>
   <v name="RWIGS">     -1.00000000</v>
   <i type="int" name="NEDOS">   301</i>
   <i name="EMIN">     10.00000000</i>
   <i name="EMAX">    -10.00000000</i>
   <i name="EFERMI">      0.00000000</i>
  </separator>
  <separator name="writing" >
   <i type="int" name="NWRITE">     2</i>
   <i type="logical" name="LWAVE"> T  </i>
   <i type="logical" name="LDOWNSAMPLE"> F  </i>
   <i type="logical" name="LCHARG"> F  </i>
   <i type="logical" name="LPARD"> F  </i>
   <i type="logical" name="LVTOT"> F  </i>
   <i type="logical" name="LVHAR"> F  </i>
   <i type="logical" name="LELF"> F  </i>
   <i type="logical" name="LOPTICS"> T  </i>
   <v name="STM">      0.00000000      0.00000000      0.00000000      0.00000000      0.00000000      0.00000000      0.00000000</v>
  </separator>
  <separator name="performance" >
   <i type="int" name="NPAR">     4</i>
   <i type="int" name="NSIM">     4</i>
   <i type="int" name="NBLK">    -1</i>
   <i type="logical" name="LPLANE"> T  </i>
   <i type="logical" name="LSCALAPACK"> T  </i>
   <i type="logical" name="LSCAAWARE"> T  </i>
   <i type="logical" name="LSCALU"> F  </i>
   <i type="logical" name="LASYNC"> F  </i>
   <i type="logical" name="LORBITALREAL"> F  </i>
  </separator>
  <separator name="miscellaneous" >
   <i type="int" name="IDIOT">     3</i>
   <i type="int" name="ISPECIAL">     0</i>
   <i type="logical" name="LMUSIC"> F  </i>
   <v name="POMASS">    131.29400000</v>
   <v name="DARWINR">      0.00000000</v>
   <v name="DARWINV">      1.00000000</v>
   <i type="logical" name="LCORR"> T  </i>
  </separator>
  <i type="logical" name="GGA_COMPAT"> F  </i>
  <i type="logical" name="LBERRY"> F  </i>
  <i type="int" name="ICORELEVEL">     0</i>
  <i type="logical" name="LDAU"> F  </i>
  <i type="int" name="I_CONSTRAINED_M">     0</i>
  <separator name="electronic exchange-correlation" >
   <i type="string" name="GGA">PE</i>
   <i type="int" name="VOSKOWN">     0</i>
   <i type="logical" name="LHFCALC"> F  </i>
   <i type="string" name="PRECFOCK"></i>
   <i type="logical" name="LSYMGRAD"> F  </i>
   <i type="logical" name="LHFONE"> F  </i>
   <i type="logical" name="LRHFCALC"> F  </i>
   <i type="logical" name="LTHOMAS"> F  </i>
   <i type="logical" name="LMODELHF"> F  </i>
   <i name="ENCUT4O">     -1.00000000</i>
   <i type="int" name="EXXOEP">     0</i>
   <i type="int" name="FOURORBIT">     0</i>
   <i name="AEXX">      0.00000000</i>
   <i name="HFALPHA">      0.00000000</i>
   <i name="MCALPHA">      0.00000000</i>
   <i name="ALDAX">      1.00000000</i>
   <i name="AGGAX">      1.00000000</i>
   <i name="ALDAC">      1.00000000</i>
   <i name="AGGAC">      1.00000000</i>
   <i type="int" name="NKREDX">     1</i>
   <i type="int" name="NKREDY">     1</i>
   <i type="int" name="NKREDZ">     1</i>
   <i type="logical" name="SHIFTRED"> F  </i>
   <i type="logical" name="ODDONLY"> F  </i>
   <i type="logical" name="EVENONLY"> F  </i>
   <i type="int" name="LMAXFOCK">     0</i>
   <i type="int" name="NMAXFOCKAE">     0</i>
   <i type="logical" name="LFOCKAEDFT"> F  </i>
   <i name="HFSCREEN">      0.00000000</i>
   <i name="HFSCREENC">      0.00000000</i>
   <i type="int" name="NBANDSGWLOW">     0</i>
  </separator>
  <separator name="vdW DFT" >
   <i type="logical" name="LUSE_VDW"> F  </i>
   <i name="Zab_VDW">     -0.84910000</i>
   <i name="PARAM1">      0.12340000</i>
   <i name="PARAM2">      1.00000000</i>
   <i name="PARAM3">      0.00000000</i>
  </separator>
  <separator name="model GW" >
   <i type="int" name="MODEL_GW">     0</i>
   <i name="MODEL_EPS0">     34.58619660</i>
   <i name="MODEL_ALPHA">      1.00000000</i>
  </separator>
  <separator name="linear response parameters" >
   <i type="logical" name="LEPSILON"> F  </i>
   <i type="logical" name="LRPA"> F  </i>
   <i type="logical" name="LNABLA"> F  </i>
   <i type="logical" name="LVEL"> F  </i>
   <i type="int" name="KINTER">     0</i>
   <i name="CSHIFT">      0.10000000</i>
   <i name="OMEGAMAX">     -1.00000000</i>
   <i name="DEG_THRESHOLD">      0.00200000</i>
   <i name="RTIME">     -0.10000000</i>
   <i name="WPLASMAI">      0.00000000</i>
   <v name="DFIELD">      0.00000000      0.00000000      0.00000000</v>
   <v name="WPLASMA">      0.00000000      0.00000000      0.00000000      0.00000000      0.00000000      0.00000000      0.00000000      0.00000000      0.00000000</v>
  </separator>
  <separator name="orbital magnetization" >
   <i type="logical" name="NUCIND"> F  </i>
   <v name="MAGPOS">      0.00000000      0.00000000      0.00000000</v>
   <i type="logical" name="LNICSALL"> T  </i>
   <i type="logical" name="ORBITALMAG"> F  </i>
   <i type="logical" name="LMAGBLOCH"> F  </i>
   <i type="logical" name="LCHIMAG"> F  </i>
   <i type="logical" name="LGAUGE"> T  </i>
   <i type="int" name="MAGATOM">     0</i>
   <v name="MAGDIPOL">      0.00000000      0.00000000      0.00000000</v>
   <v name="AVECCONST">      0.00000000      0.00000000      0.00000000</v>
  </separator>
  <separator name="response functions" >
   <i type="logical" name="LADDER"> F  </i>
   <i type="logical" name="LRPAFORCE"> F  </i>
   <i type="logical" name="LFXC"> F  </i>
   <i type="logical" name="LHARTREE"> T  </i>
   <i type="int" name="IBSE">     0</i>
   <v type="int" name="KPOINT">    -1     0     0     0</v>
   <i type="logical" name="LTCTE"> F  </i>
   <i type="logical" name="LTETE"> F  </i>
   <i type="logical" name="LTRIPLET"> F  </i>
   <i type="logical" name="LFXCEPS"> F  </i>
   <i type="logical" name="LFXHEG"> F  </i>
   <i type="int" name="NATURALO">     2</i>
   <i type="logical" name="L2ORDER"> F  </i>
   <i type="logical" name="LMP2LT"> F  </i>
   <i type="logical" name="LUSEW"> F  </i>
   <i name="ENCUTGW">     -2.00000000</i>
   <i name="ENCUTGWSOFT">     -2.00000000</i>
   <i name="ENCUTLF">     -1.00000000</i>
   <i type="int" name="LMAXMP2">    -1</i>
   <i name="SCISSOR">      0.00000000</i>
   <i type="int" name="NOMEGA">     0</i>
   <i type="int" name="NOMEGAR">     0</i>
   <i type="int" name="NBANDSGW">    -1</i>
   <i type="int" name="NBANDSO">    -1</i>
   <i type="int" name="NBANDSV">    -1</i>
   <i type="int" name="NELM">    50</i>
   <i type="int" name="NELMHF">     1</i>
   <i type="int" name="DIM">     3</i>
   <i type="int" name="ANTIRES">     0</i>
   <i name="OMEGAMAX">    -30.00000000</i>
   <i name="OMEGAMIN">    -30.00000000</i>
   <i name="OMEGATL">   -200.00000000</i>
   <i type="int" name="OMEGAGRID">   140</i>
   <i name="CSHIFT">     -0.10000000</i>
   <i type="logical" name="SELFENERGY"> F  </i>
   <i type="logical" name="LSPECTRAL"> F  </i>
   <i type="logical" name="LSPECTRALGW"> F  </i>
   <i type="logical" name="LSINGLES"> F  </i>
   <i type="logical" name="LFERMIGW"> F  </i>
   <i type="logical" name="ODDONLYGW"> F  </i>
   <i type="logical" name="EVENONLYGW"> F  </i>
   <i type="int" name="NKREDLFX">     1</i>
   <i type="int" name="NKREDLFY">     1</i>
   <i type="int" name="NKREDLFZ">     1</i>
   <i type="int" name="MAXMEM">  2800</i>
   <i type="int" name="TELESCOPE">     0</i>
   <i type="int" name="TAUPAR">     1</i>
   <i type="int" name="OMEGAPAR">    -1</i>
   <i name="LAMBDA">      1.00000000</i>
  </separator>
  <separator name="External order field" >
   <i name="OFIELD_KAPPA">      0.00000000</i>
   <v name="OFIELD_K">      0.00000000      0.00000000      0.00000000</v>
   <i name="OFIELD_Q6_NEAR">      0.00000000</i>
   <i name="OFIELD_Q6_FAR">      0.00000000</i>
   <i name="OFIELD_A">      0.00000000</i>
  </separator>
 </parameters>
 <atominfo>
  <atoms>       1 </atoms>
  <types>       1 </types>
  <array name="atoms" >
   <dimension dim="1">ion</dimension>
   <field type="string">element</field>
   <field type="int">atomtype</field>
   <set>
    <rc><c>Xe</c><c>   1</c></rc>
   </set>
  </array>
  <array name="atomtypes" >
   <dimension dim="1">type</dimension>
   <field type="int">atomspertype</field>
   <field type="string">element</field>
   <field>mass</field>
   <field>valence</field>
   <field type="string">pseudopotential</field>
   <set>
    <rc><c>   1</c><c>Xe</c><c>    131.29400000</c><c>      8.00000000</c><c>  PAW_PBE Xe_GW 08Jan2009               </c></rc>
   </set>
  </array>
 </atominfo>
 <structure name="initialpos" >
  <crystal>
   <varray name="basis" >
    <v>       4.33599578       0.00000000       0.00000000 </v>
    <v>       2.16799789       3.75508250      -0.00000000 </v>
    <v>       2.16799789       1.25169417       3.54032573 </v>
   </varray>
   <i name="volume">     57.64366099 </i>
   <varray name="rec_basis" >
    <v>       0.23062753      -0.13315287      -0.09415330 </v>
    <v>       0.00000000       0.26630573      -0.09415330 </v>
    <v>      -0.00000000       0.00000000       0.28245989 </v>
   </varray>
  </crystal>
  <varray name="positions" >
   <v>       0.00000000       0.00000000       0.00000000 </v>
  </varray>
  <varray name="velocities" >
   <v>       0.00000000       0.00000000       0.00000000 </v>
  </varray>
 </structure>
 <calculation>
  <scstep>
   <time name="diag">  276.56  276.48</time>
   <time name="total">  276.61  276.54</time>
   <energy>
    <i name="alphaZ">     22.61767795 </i>
    <i name="ewald">   -344.53113738 </i>
    <i name="hartreedc">    -64.62080373 </i>
    <i name="XCdc">    -72.80521378 </i>
    <i name="pawpsdc">    432.51663150 </i>
    <i name="pawaedc">   -344.40712094 </i>
    <i name="eentropy">      0.00000000 </i>
    <i name="bandstr">    -58.40853917 </i>
    <i name="atom">    429.50278051 </i>
    <i name="e_fr_energy">     -0.13572506 </i>
    <i name="e_wo_entrp">     -0.13572506 </i>
    <i name="e_0_energy">     -0.13572506 </i>
   </energy>
  </scstep>
  <scstep>
   <time name="diag">  275.80  275.72</time>
   <time name="total">  275.80  275.72</time>
   <energy>
    <i name="e_fr_energy">     -0.13572506 </i>
    <i name="e_wo_entrp">     -0.13572506 </i>
    <i name="e_0_energy">     -0.13572506 </i>
   </energy>
  </scstep>
  <scstep>
   <time name="diag">  277.62  277.77</time>
   <time name="total">  277.63  277.78</time>
   <energy>
    <i name="e_fr_energy">     -0.13572506 </i>
    <i name="e_wo_entrp">     -0.13572506 </i>
    <i name="e_0_energy">     -0.13572506 </i>
   </energy>
  </scstep>
  <scstep>
   <time name="diag">  279.48  279.48</time>
   <time name="total">  279.49  279.49</time>
   <energy>
    <i name="e_fr_energy">     -0.13572506 </i>
    <i name="e_wo_entrp">     -0.13572506 </i>
    <i name="e_0_energy">     -0.13572506 </i>
   </energy>
  </scstep>
  <scstep>
   <time name="diag">  277.54  277.44</time>
   <time name="total">  277.68  277.58</time>
   <energy>
    <i name="e_fr_energy">     -0.13572506 </i>
    <i name="e_wo_entrp">     -0.13572506 </i>
    <i name="e_0_energy">     -0.13572506 </i>
   </energy>
  </scstep>
  <scstep>
   <time name="diag">  277.75  277.69</time>
   <time name="total">  277.80  277.75</time>
   <energy>
    <i name="alphaZ">     22.61767795 </i>
    <i name="ewald">   -344.53113738 </i>
    <i name="hartreedc">    -64.62083400 </i>
    <i name="XCdc">    -72.80521210 </i>
    <i name="pawpsdc">    432.51662315 </i>
    <i name="pawaedc">   -344.40711448 </i>
    <i name="eentropy">      0.00000000 </i>
    <i name="bandstr">    -58.40850870 </i>
    <i name="atom">    429.50278051 </i>
    <i name="e_fr_energy">     -0.13572506 </i>
    <i name="e_wo_entrp">     -0.13572506 </i>
    <i name="e_0_energy">     -0.13572506 </i>
   </energy>
  </scstep>
  <structure>
   <crystal>
    <varray name="basis" >
     <v>       4.33599578       0.00000000       0.00000000 </v>
     <v>       2.16799789       3.75508250      -0.00000000 </v>
     <v>       2.16799789       1.25169417       3.54032573 </v>
    </varray>
    <i name="volume">     57.64366099 </i>
    <varray name="rec_basis" >
     <v>       0.23062753      -0.13315287      -0.09415330 </v>
     <v>       0.00000000       0.26630573      -0.09415330 </v>
     <v>      -0.00000000       0.00000000       0.28245989 </v>
    </varray>
   </crystal>
   <varray name="positions" >
    <v>       0.00000000       0.00000000       0.00000000 </v>
   </varray>
  </structure>
  <varray name="forces" >
   <v>      -0.00000000       0.00000000      -0.00000000 </v>
  </varray>
  <varray name="stress" >
   <v>       1.87060803       0.00001244       0.00000529 </v>
   <v>       0.00001240       1.87059042       0.00000593 </v>
   <v>       0.00000525       0.00000588       1.87059600 </v>
  </varray>
  <energy>
   <i name="e_fr_energy">     -0.32105922 </i>
   <i name="e_wo_entrp">     -0.32105922 </i>
   <i name="e_0_energy">      0.00000000 </i>
  </energy>
  <time name="totalsc"> 1671.54 1671.86</time>
  <eigenvalues>
   <array>
    <dimension dim="1">band</dimension>
    <dimension dim="2">kpoint</dimension>
    <dimension dim="3">spin</dimension>
    <field>eigene</field>
    <field>occ</field>
    <set>
     <set comment="spin 1">
      <set comment="kpoint 1">
       <r>  -16.1278    1.0000 </r>
       <r>  -16.1278    1.0000 </r>
       <r>   -4.6028    1.0000 </r>
       <r>   -4.6028    1.0000 </r>
       <r>   -3.2473    1.0000 </r>
       <r>   -3.2473    1.0000 </r>
       <r>   -3.2473    1.0000 </r>
       <r>   -3.2473    1.0000 </r>
       <r>    2.5523    0.0000 </r>
       <r>    2.5523    0.0000 </r>
       <r>    7.0011    0.0000 </r>
       <r>    7.0011    0.0000 </r>
       <r>    7.0011    0.0000 </r>
       <r>    7.0011    0.0000 </r>
       <r>    7.0586    0.0000 </r>
       <r>    7.0586    0.0000 </r>
       <r>    9.2741    0.0000 </r>
       <r>    9.2741    0.0000 </r>
       <r>    9.2741    0.0000 </r>
       <r>    9.2741    0.0000 </r>
       <r>    9.7336    0.0000 </r>
       <r>    9.7336    0.0000 </r>
       <r>   11.8743    0.0000 </r>
       <r>   11.8743    0.0000 </r>
       <r>   11.9138    0.0000 </r>
       <r>   11.9138    0.0000 </r>
       <r>   11.9138    0.0000 </r>
       <r>   11.9138    0.0000 </r>
       <r>   14.5150    0.0000 </r>
       <r>   14.5150    0.0000 </r>
       <r>   19.2053    0.0000 </r>
       <r>   19.2053    0.0000 </r>
       <r>   19.2169    0.0000 </r>
       <r>   19.2169    0.0000 </r>
       <r>   19.2169    0.0000 </r>
       <r>   19.2169    0.0000 </r>
       <r>   21.8748    0.0000 </r>
       <r>   21.8748    0.0000 </r>
       <r>   22.2881    0.0000 </r>
       <r>   22.2881    0.0000 </r>
       <r>   22.2881    0.0000 </r>
       <r>   22.2881    0.0000 </r>
       <r>   23.2735    0.0000 </r>
       <r>   23.2735    0.0000 </r>
       <r>   23.8960    0.0000 </r>
       <r>   23.8960    0.0000 </r>
       <r>   23.8960    0.0000 </r>
       <r>   23.8960    0.0000 </r>
       <r>   24.0353    0.0000 </r>
       <r>   24.0353    0.0000 </r>
       <r>   24.9496    0.0000 </r>
       <r>   24.9496    0.0000 </r>
       <r>   25.3908    0.0000 </r>
       <r>   25.3908    0.0000 </r>
       <r>   25.3908    0.0000 </r>
       <r>   25.3908    0.0000 </r>
       <r>   25.7959    0.0000 </r>
       <r>   25.7959    0.0000 </r>
       <r>   25.7959    0.0000 </r>
       <r>   25.7959    0.0000 </r>
       <r>   29.0410    0.0000 </r>
       <r>   29.0410    0.0000 </r>
       <r>   33.4297    0.0000 </r>
       <r>   33.4297    0.0000 </r>
       <r>   33.4420    0.0000 </r>
       <r>   33.4420    0.0000 </r>
       <r>   33.4420    0.0000 </r>
       <r>   33.4420    0.0000 </r>
       <r>   34.9439    0.0000 </r>
       <r>   34.9439    0.0000 </r>
       <r>   34.9439    0.0000 </r>
       <r>   34.9439    0.0000 </r>
       <r>   37.0367    0.0000 </r>
       <r>   37.0367    0.0000 </r>
       <r>   37.0367    0.0000 </r>
       <r>   37.0367    0.0000 </r>
       <r>   37.1117    0.0000 </r>
       <r>   37.1117    0.0000 </r>
       <r>   37.1433    0.0000 </r>
       <r>   37.1433    0.0000 </r>
       <r>   37.6249    0.0000 </r>
       <r>   37.6249    0.0000 </r>
       <r>   37.6249    0.0000 </r>
       <r>   37.6249    0.0000 </r>
       <r>   38.2239    0.0000 </r>
       <r>   38.2239    0.0000 </r>
       <r>   38.2239    0.0000 </r>
       <r>   38.2239    0.0000 </r>
       <r>   38.2239    0.0000 </r>
       <r>   38.2239    0.0000 </r>
       <r>   40.8556    0.0000 </r>
       <r>   40.8556    0.0000 </r>
       <r>   40.8556    0.0000 </r>
       <r>   40.8556    0.0000 </r>
       <r>   40.8583    0.0000 </r>
       <r>   40.8583    0.0000 </r>
       <r>   41.6150    0.0000 </r>
       <r>   41.6150    0.0000 </r>
       <r>   41.6150    0.0000 </r>
       <r>   41.6150    0.0000 </r>
       <r>   41.8096    0.0000 </r>
       <r>   41.8096    0.0000 </r>
       <r>   42.8905    0.0000 </r>
       <r>   42.8905    0.0000 </r>
       <r>   42.8905    0.0000 </r>
       <r>   42.8905    0.0000 </r>
       <r>   42.9093    0.0000 </r>
       <r>   42.9093    0.0000 </r>
       <r>   43.0103    0.0000 </r>
       <r>   43.0103    0.0000 </r>
       <r>   43.0232    0.0000 </r>
       <r>   43.0232    0.0000 </r>
       <r>   43.0232    0.0000 </r>
       <r>   43.0232    0.0000 </r>
       <r>   44.0313    0.0000 </r>
       <r>   44.0313    0.0000 </r>
       <r>   44.5148    0.0000 </r>
       <r>   44.5148    0.0000 </r>
       <r>   45.0552    0.0000 </r>
       <r>   45.0552    0.0000 </r>
       <r>   45.0552    0.0000 </r>
       <r>   45.0552    0.0000 </r>
       <r>   45.0595    0.0000 </r>
       <r>   45.0595    0.0000 </r>
       <r>   46.0712    0.0000 </r>
       <r>   46.0712    0.0000 </r>
       <r>   46.0712    0.0000 </r>
       <r>   46.0712    0.0000 </r>
      </set>
      <set comment="kpoint 2">
       <r>  -16.0860    1.0000 </r>
       <r>  -16.0860    1.0000 </r>
       <r>   -4.7536    1.0000 </r>
       <r>   -4.7536    1.0000 </r>
       <r>   -3.5335    1.0000 </r>
       <r>   -3.5335    1.0000 </r>
       <r>   -3.2911    1.0000 </r>
       <r>   -3.2911    1.0000 </r>
       <r>    3.1045    0.0000 </r>
       <r>    3.1045    0.0000 </r>
       <r>    6.4991    0.0000 </r>
       <r>    6.4991    0.0000 </r>
       <r>    7.1820    0.0000 </r>
       <r>    7.1820    0.0000 </r>
       <r>    7.2343    0.0000 </r>
       <r>    7.2343    0.0000 </r>
       <r>    8.8102    0.0000 </r>
       <r>    8.8102    0.0000 </r>
       <r>    8.8351    0.0000 </r>
       <r>    8.8351    0.0000 </r>
       <r>   10.5504    0.0000 </r>
       <r>   10.5504    0.0000 </r>
       <r>   11.4496    0.0000 </r>
       <r>   11.4496    0.0000 </r>
       <r>   12.9906    0.0000 </r>
       <r>   12.9906    0.0000 </r>
       <r>   13.0116    0.0000 </r>
       <r>   13.0116    0.0000 </r>
       <r>   15.9519    0.0000 </r>
       <r>   15.9519    0.0000 </r>
       <r>   18.2560    0.0000 </r>
       <r>   18.2560    0.0000 </r>
       <r>   18.2880    0.0000 </r>
       <r>   18.2880    0.0000 </r>
       <r>   19.2362    0.0000 </r>
       <r>   19.2362    0.0000 </r>
       <r>   19.7954    0.0000 </r>
       <r>   19.7954    0.0000 </r>
       <r>   21.4655    0.0000 </r>
       <r>   21.4655    0.0000 </r>
       <r>   21.7205    0.0000 </r>
       <r>   21.7205    0.0000 </r>
       <r>   23.0436    0.0000 </r>
       <r>   23.0436    0.0000 </r>
       <r>   23.7545    0.0000 </r>
       <r>   23.7545    0.0000 </r>
       <r>   23.7975    0.0000 </r>
       <r>   23.7975    0.0000 </r>
       <r>   23.8027    0.0000 </r>
       <r>   23.8027    0.0000 </r>
       <r>   24.9006    0.0000 </r>
       <r>   24.9006    0.0000 </r>
       <r>   24.9330    0.0000 </r>
       <r>   24.9330    0.0000 </r>
       <r>   26.3111    0.0000 </r>
       <r>   26.3111    0.0000 </r>
       <r>   27.0726    0.0000 </r>
       <r>   27.0726    0.0000 </r>
       <r>   27.2735    0.0000 </r>
       <r>   27.2735    0.0000 </r>
       <r>   30.5680    0.0000 </r>
       <r>   30.5680    0.0000 </r>
       <r>   32.5862    0.0000 </r>
       <r>   32.5862    0.0000 </r>
       <r>   32.6461    0.0000 </r>
       <r>   32.6461    0.0000 </r>
       <r>   33.0481    0.0000 </r>
       <r>   33.0481    0.0000 </r>
       <r>   33.4723    0.0000 </r>
       <r>   33.4723    0.0000 </r>
       <r>   34.4334    0.0000 </r>
       <r>   34.4334    0.0000 </r>
       <r>   34.4751    0.0000 </r>
       <r>   34.4751    0.0000 </r>
       <r>   35.9122    0.0000 </r>
       <r>   35.9122    0.0000 </r>
       <r>   35.9373    0.0000 </r>
       <r>   35.9373    0.0000 </r>
       <r>   37.2018    0.0000 </r>
       <r>   37.2018    0.0000 </r>
       <r>   37.2163    0.0000 </r>
       <r>   37.2163    0.0000 </r>
       <r>   37.6999    0.0000 </r>
       <r>   37.6999    0.0000 </r>
       <r>   38.3066    0.0000 </r>
       <r>   38.3066    0.0000 </r>
       <r>   38.3546    0.0000 </r>
       <r>   38.3546    0.0000 </r>
       <r>   38.3772    0.0000 </r>
       <r>   38.3772    0.0000 </r>
       <r>   38.6997    0.0000 </r>
       <r>   38.6997    0.0000 </r>
       <r>   39.5891    0.0000 </r>
       <r>   39.5891    0.0000 </r>
       <r>   39.7641    0.0000 </r>
       <r>   39.7641    0.0000 </r>
       <r>   40.8238    0.0000 </r>
       <r>   40.8238    0.0000 </r>
       <r>   42.3915    0.0000 </r>
       <r>   42.3915    0.0000 </r>
       <r>   42.3966    0.0000 </r>
       <r>   42.3966    0.0000 </r>
       <r>   42.7752    0.0000 </r>
       <r>   42.7752    0.0000 </r>
       <r>   43.8893    0.0000 </r>
       <r>   43.8893    0.0000 </r>
       <r>   43.9042    0.0000 </r>
       <r>   43.9042    0.0000 </r>
       <r>   44.0956    0.0000 </r>
       <r>   44.0956    0.0000 </r>
       <r>   44.3307    0.0000 </r>
       <r>   44.3307    0.0000 </r>
       <r>   44.9711    0.0000 </r>
       <r>   44.9711    0.0000 </r>
       <r>   45.0858    0.0000 </r>
       <r>   45.0858    0.0000 </r>
       <r>   45.1124    0.0000 </r>
       <r>   45.1124    0.0000 </r>
       <r>   46.6260    0.0000 </r>
       <r>   46.6260    0.0000 </r>
       <r>   46.6324    0.0000 </r>
       <r>   46.6324    0.0000 </r>
       <r>   46.9137    0.0000 </r>
       <r>   46.9137    0.0000 </r>
       <r>   47.7931    0.0000 </r>
       <r>   47.7931    0.0000 </r>
       <r>   47.7968    0.0000 </r>
       <r>   47.7968    0.0000 </r>
      </set>
      <set comment="kpoint 3">
       <r>  -15.9878    1.0000 </r>
       <r>  -15.9878    1.0000 </r>
       <r>   -5.1813    1.0000 </r>
       <r>   -5.1813    1.0000 </r>
       <r>   -3.9309    1.0000 </r>
       <r>   -3.9309    1.0000 </r>
       <r>   -3.3857    1.0000 </r>
       <r>   -3.3857    1.0000 </r>
       <r>    3.9094    0.0000 </r>
       <r>    3.9094    0.0000 </r>
       <r>    6.4260    0.0000 </r>
       <r>    6.4260    0.0000 </r>
       <r>    7.0650    0.0000 </r>
       <r>    7.0650    0.0000 </r>
       <r>    7.1305    0.0000 </r>
       <r>    7.1305    0.0000 </r>
       <r>    9.1588    0.0000 </r>
       <r>    9.1588    0.0000 </r>
       <r>    9.2122    0.0000 </r>
       <r>    9.2122    0.0000 </r>
       <r>    9.8926    0.0000 </r>
       <r>    9.8926    0.0000 </r>
       <r>   13.6324    0.0000 </r>
       <r>   13.6324    0.0000 </r>
       <r>   15.0908    0.0000 </r>
       <r>   15.0908    0.0000 </r>
       <r>   15.1009    0.0000 </r>
       <r>   15.1009    0.0000 </r>
       <r>   15.8978    0.0000 </r>
       <r>   15.8978    0.0000 </r>
       <r>   16.0119    0.0000 </r>
       <r>   16.0119    0.0000 </r>
       <r>   16.4056    0.0000 </r>
       <r>   16.4056    0.0000 </r>
       <r>   18.6395    0.0000 </r>
       <r>   18.6395    0.0000 </r>
       <r>   19.3358    0.0000 </r>
       <r>   19.3358    0.0000 </r>
       <r>   21.2287    0.0000 </r>
       <r>   21.2287    0.0000 </r>
       <r>   21.4437    0.0000 </r>
       <r>   21.4437    0.0000 </r>
       <r>   22.3429    0.0000 </r>
       <r>   22.3429    0.0000 </r>
       <r>   23.0911    0.0000 </r>
       <r>   23.0911    0.0000 </r>
       <r>   23.1585    0.0000 </r>
       <r>   23.1585    0.0000 </r>
       <r>   23.8595    0.0000 </r>
       <r>   23.8595    0.0000 </r>
       <r>   25.1161    0.0000 </r>
       <r>   25.1161    0.0000 </r>
       <r>   25.2004    0.0000 </r>
       <r>   25.2004    0.0000 </r>
       <r>   26.4986    0.0000 </r>
       <r>   26.4986    0.0000 </r>
       <r>   27.6658    0.0000 </r>
       <r>   27.6658    0.0000 </r>
       <r>   27.8546    0.0000 </r>
       <r>   27.8546    0.0000 </r>
       <r>   29.4053    0.0000 </r>
       <r>   29.4053    0.0000 </r>
       <r>   30.7566    0.0000 </r>
       <r>   30.7566    0.0000 </r>
       <r>   30.7998    0.0000 </r>
       <r>   30.7998    0.0000 </r>
       <r>   32.4058    0.0000 </r>
       <r>   32.4058    0.0000 </r>
       <r>   33.3625    0.0000 </r>
       <r>   33.3625    0.0000 </r>
       <r>   33.3801    0.0000 </r>
       <r>   33.3801    0.0000 </r>
       <r>   33.4462    0.0000 </r>
       <r>   33.4462    0.0000 </r>
       <r>   34.4273    0.0000 </r>
       <r>   34.4273    0.0000 </r>
       <r>   35.2611    0.0000 </r>
       <r>   35.2611    0.0000 </r>
       <r>   35.3164    0.0000 </r>
       <r>   35.3164    0.0000 </r>
       <r>   37.1154    0.0000 </r>
       <r>   37.1154    0.0000 </r>
       <r>   37.3078    0.0000 </r>
       <r>   37.3078    0.0000 </r>
       <r>   37.3278    0.0000 </r>
       <r>   37.3278    0.0000 </r>
       <r>   37.9337    0.0000 </r>
       <r>   37.9337    0.0000 </r>
       <r>   38.0328    0.0000 </r>
       <r>   38.0328    0.0000 </r>
       <r>   38.3582    0.0000 </r>
       <r>   38.3582    0.0000 </r>
       <r>   40.6100    0.0000 </r>
       <r>   40.6100    0.0000 </r>
       <r>   40.6955    0.0000 </r>
       <r>   40.6955    0.0000 </r>
       <r>   40.7112    0.0000 </r>
       <r>   40.7112    0.0000 </r>
       <r>   42.5914    0.0000 </r>
       <r>   42.5914    0.0000 </r>
       <r>   43.1690    0.0000 </r>
       <r>   43.1690    0.0000 </r>
       <r>   43.2196    0.0000 </r>
       <r>   43.2196    0.0000 </r>
       <r>   44.8441    0.0000 </r>
       <r>   44.8441    0.0000 </r>
       <r>   46.4221    0.0000 </r>
       <r>   46.4221    0.0000 </r>
       <r>   46.4659    0.0000 </r>
       <r>   46.4659    0.0000 </r>
       <r>   47.5399    0.0000 </r>
       <r>   47.5399    0.0000 </r>
       <r>   47.5888    0.0000 </r>
       <r>   47.5888    0.0000 </r>
       <r>   47.6220    0.0000 </r>
       <r>   47.6220    0.0000 </r>
       <r>   48.0604    0.0000 </r>
       <r>   48.0604    0.0000 </r>
       <r>   50.5120    0.0000 </r>
       <r>   50.5120    0.0000 </r>
       <r>   50.6278    0.0000 </r>
       <r>   50.6278    0.0000 </r>
       <r>   50.6419    0.0000 </r>
       <r>   50.6419    0.0000 </r>
       <r>   51.1741    0.0000 </r>
       <r>   51.1741    0.0000 </r>
       <r>   51.6512    0.0000 </r>
       <r>   51.6512    0.0000 </r>
      </set>
      <set comment="kpoint 4">
       <r>  -15.9057    1.0000 </r>
       <r>  -15.9057    1.0000 </r>
       <r>   -5.5682    1.0000 </r>
       <r>   -5.5682    1.0000 </r>
       <r>   -4.1113    1.0000 </r>
       <r>   -4.1113    1.0000 </r>
       <r>   -3.4581    1.0000 </r>
       <r>   -3.4581    1.0000 </r>
       <r>    4.0082    0.0000 </r>
       <r>    4.0082    0.0000 </r>
       <r>    6.7263    0.0000 </r>
       <r>    6.7263    0.0000 </r>
       <r>    6.7860    0.0000 </r>
       <r>    6.7860    0.0000 </r>
       <r>    7.2731    0.0000 </r>
       <r>    7.2731    0.0000 </r>
       <r>    9.7556    0.0000 </r>
       <r>    9.7556    0.0000 </r>
       <r>   10.6437    0.0000 </r>
       <r>   10.6437    0.0000 </r>
       <r>   10.6980    0.0000 </r>
       <r>   10.6980    0.0000 </r>
       <r>   13.4002    0.0000 </r>
       <r>   13.4002    0.0000 </r>
       <r>   13.5093    0.0000 </r>
       <r>   13.5093    0.0000 </r>
       <r>   13.6760    0.0000 </r>
       <r>   13.6760    0.0000 </r>
       <r>   16.5410    0.0000 </r>
       <r>   16.5410    0.0000 </r>
       <r>   17.3267    0.0000 </r>
       <r>   17.3267    0.0000 </r>
       <r>   17.3447    0.0000 </r>
       <r>   17.3447    0.0000 </r>
       <r>   19.4092    0.0000 </r>
       <r>   19.4092    0.0000 </r>
       <r>   20.2529    0.0000 </r>
       <r>   20.2529    0.0000 </r>
       <r>   21.0936    0.0000 </r>
       <r>   21.0936    0.0000 </r>
       <r>   21.1120    0.0000 </r>
       <r>   21.1120    0.0000 </r>
       <r>   21.3049    0.0000 </r>
       <r>   21.3049    0.0000 </r>
       <r>   21.9375    0.0000 </r>
       <r>   21.9375    0.0000 </r>
       <r>   22.2145    0.0000 </r>
       <r>   22.2145    0.0000 </r>
       <r>   24.4800    0.0000 </r>
       <r>   24.4800    0.0000 </r>
       <r>   25.5350    0.0000 </r>
       <r>   25.5350    0.0000 </r>
       <r>   25.7072    0.0000 </r>
       <r>   25.7072    0.0000 </r>
       <r>   25.7291    0.0000 </r>
       <r>   25.7291    0.0000 </r>
       <r>   26.7226    0.0000 </r>
       <r>   26.7226    0.0000 </r>
       <r>   26.7275    0.0000 </r>
       <r>   26.7275    0.0000 </r>
       <r>   28.3798    0.0000 </r>
       <r>   28.3798    0.0000 </r>
       <r>   29.4049    0.0000 </r>
       <r>   29.4049    0.0000 </r>
       <r>   30.7164    0.0000 </r>
       <r>   30.7164    0.0000 </r>
       <r>   30.7867    0.0000 </r>
       <r>   30.7867    0.0000 </r>
       <r>   31.6898    0.0000 </r>
       <r>   31.6898    0.0000 </r>
       <r>   31.7647    0.0000 </r>
       <r>   31.7647    0.0000 </r>
       <r>   31.9062    0.0000 </r>
       <r>   31.9062    0.0000 </r>
       <r>   34.8855    0.0000 </r>
       <r>   34.8855    0.0000 </r>
       <r>   34.9117    0.0000 </r>
       <r>   34.9117    0.0000 </r>
       <r>   34.9580    0.0000 </r>
       <r>   34.9580    0.0000 </r>
       <r>   36.7839    0.0000 </r>
       <r>   36.7839    0.0000 </r>
       <r>   36.9330    0.0000 </r>
       <r>   36.9330    0.0000 </r>
       <r>   36.9796    0.0000 </r>
       <r>   36.9796    0.0000 </r>
       <r>   39.3472    0.0000 </r>
       <r>   39.3472    0.0000 </r>
       <r>   39.5175    0.0000 </r>
       <r>   39.5175    0.0000 </r>
       <r>   39.5179    0.0000 </r>
       <r>   39.5179    0.0000 </r>
       <r>   42.2110    0.0000 </r>
       <r>   42.2110    0.0000 </r>
       <r>   42.2627    0.0000 </r>
       <r>   42.2627    0.0000 </r>
       <r>   42.4843    0.0000 </r>
       <r>   42.4843    0.0000 </r>
       <r>   42.7962    0.0000 </r>
       <r>   42.7962    0.0000 </r>
       <r>   45.0628    0.0000 </r>
       <r>   45.0628    0.0000 </r>
       <r>   45.0801    0.0000 </r>
       <r>   45.0801    0.0000 </r>
       <r>   45.4184    0.0000 </r>
       <r>   45.4184    0.0000 </r>
       <r>   47.8666    0.0000 </r>
       <r>   47.8666    0.0000 </r>
       <r>   47.9673    0.0000 </r>
       <r>   47.9673    0.0000 </r>
       <r>   48.8240    0.0000 </r>
       <r>   48.8240    0.0000 </r>
       <r>   49.0075    0.0000 </r>
       <r>   49.0075    0.0000 </r>
       <r>   49.0102    0.0000 </r>
       <r>   49.0102    0.0000 </r>
       <r>   50.3917    0.0000 </r>
       <r>   50.3917    0.0000 </r>
       <r>   51.5495    0.0000 </r>
       <r>   51.5495    0.0000 </r>
       <r>   51.5924    0.0000 </r>
       <r>   51.5924    0.0000 </r>
       <r>   51.6357    0.0000 </r>
       <r>   51.6357    0.0000 </r>
       <r>   51.7427    0.0000 </r>
       <r>   51.7427    0.0000 </r>
       <r>   51.7623    0.0000 </r>
       <r>   51.7623    0.0000 </r>
      </set>
      <set comment="kpoint 5">
       <r>  -15.9057    1.0000 </r>
       <r>  -15.9057    1.0000 </r>
       <r>   -5.5682    1.0000 </r>
       <r>   -5.5682    1.0000 </r>
       <r>   -4.1113    1.0000 </r>
       <r>   -4.1113    1.0000 </r>
       <r>   -3.4581    1.0000 </r>
       <r>   -3.4581    1.0000 </r>
       <r>    4.0082    0.0000 </r>
       <r>    4.0082    0.0000 </r>
       <r>    6.7263    0.0000 </r>
       <r>    6.7263    0.0000 </r>
       <r>    6.7860    0.0000 </r>
       <r>    6.7860    0.0000 </r>
       <r>    7.2731    0.0000 </r>
       <r>    7.2731    0.0000 </r>
       <r>    9.7556    0.0000 </r>
       <r>    9.7556    0.0000 </r>
       <r>   10.6437    0.0000 </r>
       <r>   10.6437    0.0000 </r>
       <r>   10.6980    0.0000 </r>
       <r>   10.6980    0.0000 </r>
       <r>   13.4002    0.0000 </r>
       <r>   13.4002    0.0000 </r>
       <r>   13.5093    0.0000 </r>
       <r>   13.5093    0.0000 </r>
       <r>   13.6760    0.0000 </r>
       <r>   13.6760    0.0000 </r>
       <r>   16.5410    0.0000 </r>
       <r>   16.5410    0.0000 </r>
       <r>   17.3267    0.0000 </r>
       <r>   17.3267    0.0000 </r>
       <r>   17.3447    0.0000 </r>
       <r>   17.3447    0.0000 </r>
       <r>   19.4092    0.0000 </r>
       <r>   19.4092    0.0000 </r>
       <r>   20.2529    0.0000 </r>
       <r>   20.2529    0.0000 </r>
       <r>   21.0936    0.0000 </r>
       <r>   21.0936    0.0000 </r>
       <r>   21.1120    0.0000 </r>
       <r>   21.1120    0.0000 </r>
       <r>   21.3049    0.0000 </r>
       <r>   21.3049    0.0000 </r>
       <r>   21.9375    0.0000 </r>
       <r>   21.9375    0.0000 </r>
       <r>   22.2145    0.0000 </r>
       <r>   22.2145    0.0000 </r>
       <r>   24.4800    0.0000 </r>
       <r>   24.4800    0.0000 </r>
       <r>   25.5350    0.0000 </r>
       <r>   25.5350    0.0000 </r>
       <r>   25.7072    0.0000 </r>
       <r>   25.7072    0.0000 </r>
       <r>   25.7291    0.0000 </r>
       <r>   25.7291    0.0000 </r>
       <r>   26.7226    0.0000 </r>
       <r>   26.7226    0.0000 </r>
       <r>   26.7275    0.0000 </r>
       <r>   26.7275    0.0000 </r>
       <r>   28.3798    0.0000 </r>
       <r>   28.3798    0.0000 </r>
       <r>   29.4049    0.0000 </r>
       <r>   29.4049    0.0000 </r>
       <r>   30.7164    0.0000 </r>
       <r>   30.7164    0.0000 </r>
       <r>   30.7867    0.0000 </r>
       <r>   30.7867    0.0000 </r>
       <r>   31.6898    0.0000 </r>
       <r>   31.6898    0.0000 </r>
       <r>   31.7647    0.0000 </r>
       <r>   31.7647    0.0000 </r>
       <r>   31.9062    0.0000 </r>
       <r>   31.9062    0.0000 </r>
       <r>   34.8855    0.0000 </r>
       <r>   34.8855    0.0000 </r>
       <r>   34.9117    0.0000 </r>
       <r>   34.9117    0.0000 </r>
       <r>   34.9580    0.0000 </r>
       <r>   34.9580    0.0000 </r>
       <r>   36.7839    0.0000 </r>
       <r>   36.7839    0.0000 </r>
       <r>   36.9330    0.0000 </r>
       <r>   36.9330    0.0000 </r>
       <r>   36.9796    0.0000 </r>
       <r>   36.9796    0.0000 </r>
       <r>   39.3472    0.0000 </r>
       <r>   39.3472    0.0000 </r>
       <r>   39.5175    0.0000 </r>
       <r>   39.5175    0.0000 </r>
       <r>   39.5179    0.0000 </r>
       <r>   39.5179    0.0000 </r>
       <r>   42.2110    0.0000 </r>
       <r>   42.2110    0.0000 </r>
       <r>   42.2627    0.0000 </r>
       <r>   42.2627    0.0000 </r>
       <r>   42.4843    0.0000 </r>
       <r>   42.4843    0.0000 </r>
       <r>   42.7962    0.0000 </r>
       <r>   42.7962    0.0000 </r>
       <r>   45.0628    0.0000 </r>
       <r>   45.0628    0.0000 </r>
       <r>   45.0801    0.0000 </r>
       <r>   45.0801    0.0000 </r>
       <r>   45.4184    0.0000 </r>
       <r>   45.4184    0.0000 </r>
       <r>   47.8666    0.0000 </r>
       <r>   47.8666    0.0000 </r>
       <r>   47.9673    0.0000 </r>
       <r>   47.9673    0.0000 </r>
       <r>   48.8240    0.0000 </r>
       <r>   48.8240    0.0000 </r>
       <r>   49.0075    0.0000 </r>
       <r>   49.0075    0.0000 </r>
       <r>   49.0102    0.0000 </r>
       <r>   49.0102    0.0000 </r>
       <r>   50.3917    0.0000 </r>
       <r>   50.3917    0.0000 </r>
       <r>   51.5495    0.0000 </r>
       <r>   51.5495    0.0000 </r>
       <r>   51.5924    0.0000 </r>
       <r>   51.5924    0.0000 </r>
       <r>   51.6357    0.0000 </r>
       <r>   51.6357    0.0000 </r>
       <r>   51.7427    0.0000 </r>
       <r>   51.7427    0.0000 </r>
       <r>   51.7623    0.0000 </r>
       <r>   51.7623    0.0000 </r>
      </set>
      <set comment="kpoint 6">
       <r>  -15.9878    1.0000 </r>
       <r>  -15.9878    1.0000 </r>
       <r>   -5.1813    1.0000 </r>
       <r>   -5.1813    1.0000 </r>
       <r>   -3.9309    1.0000 </r>
       <r>   -3.9309    1.0000 </r>
       <r>   -3.3857    1.0000 </r>
       <r>   -3.3857    1.0000 </r>
       <r>    3.9094    0.0000 </r>
       <r>    3.9094    0.0000 </r>
       <r>    6.4260    0.0000 </r>
       <r>    6.4260    0.0000 </r>
       <r>    7.0650    0.0000 </r>
       <r>    7.0650    0.0000 </r>
       <r>    7.1305    0.0000 </r>
       <r>    7.1305    0.0000 </r>
       <r>    9.1588    0.0000 </r>
       <r>    9.1588    0.0000 </r>
       <r>    9.2122    0.0000 </r>
       <r>    9.2122    0.0000 </r>
       <r>    9.8926    0.0000 </r>
       <r>    9.8926    0.0000 </r>
       <r>   13.6324    0.0000 </r>
       <r>   13.6324    0.0000 </r>
       <r>   15.0908    0.0000 </r>
       <r>   15.0908    0.0000 </r>
       <r>   15.1009    0.0000 </r>
       <r>   15.1009    0.0000 </r>
       <r>   15.8978    0.0000 </r>
       <r>   15.8978    0.0000 </r>
       <r>   16.0119    0.0000 </r>
       <r>   16.0119    0.0000 </r>
       <r>   16.4056    0.0000 </r>
       <r>   16.4056    0.0000 </r>
       <r>   18.6395    0.0000 </r>
       <r>   18.6395    0.0000 </r>
       <r>   19.3358    0.0000 </r>
       <r>   19.3358    0.0000 </r>
       <r>   21.2287    0.0000 </r>
       <r>   21.2287    0.0000 </r>
       <r>   21.4437    0.0000 </r>
       <r>   21.4437    0.0000 </r>
       <r>   22.3429    0.0000 </r>
       <r>   22.3429    0.0000 </r>
       <r>   23.0911    0.0000 </r>
       <r>   23.0911    0.0000 </r>
       <r>   23.1585    0.0000 </r>
       <r>   23.1585    0.0000 </r>
       <r>   23.8595    0.0000 </r>
       <r>   23.8595    0.0000 </r>
       <r>   25.1161    0.0000 </r>
       <r>   25.1161    0.0000 </r>
       <r>   25.2004    0.0000 </r>
       <r>   25.2004    0.0000 </r>
       <r>   26.4986    0.0000 </r>
       <r>   26.4986    0.0000 </r>
       <r>   27.6658    0.0000 </r>
       <r>   27.6658    0.0000 </r>
       <r>   27.8546    0.0000 </r>
       <r>   27.8546    0.0000 </r>
       <r>   29.4053    0.0000 </r>
       <r>   29.4053    0.0000 </r>
       <r>   30.7566    0.0000 </r>
       <r>   30.7566    0.0000 </r>
       <r>   30.7998    0.0000 </r>
       <r>   30.7998    0.0000 </r>
       <r>   32.4058    0.0000 </r>
       <r>   32.4058    0.0000 </r>
       <r>   33.3625    0.0000 </r>
       <r>   33.3625    0.0000 </r>
       <r>   33.3801    0.0000 </r>
       <r>   33.3801    0.0000 </r>
       <r>   33.4462    0.0000 </r>
       <r>   33.4462    0.0000 </r>
       <r>   34.4273    0.0000 </r>
       <r>   34.4273    0.0000 </r>
       <r>   35.2611    0.0000 </r>
       <r>   35.2611    0.0000 </r>
       <r>   35.3164    0.0000 </r>
       <r>   35.3164    0.0000 </r>
       <r>   37.1154    0.0000 </r>
       <r>   37.1154    0.0000 </r>
       <r>   37.3078    0.0000 </r>
       <r>   37.3078    0.0000 </r>
       <r>   37.3278    0.0000 </r>
       <r>   37.3278    0.0000 </r>
       <r>   37.9337    0.0000 </r>
       <r>   37.9337    0.0000 </r>
       <r>   38.0328    0.0000 </r>
       <r>   38.0328    0.0000 </r>
       <r>   38.3582    0.0000 </r>
       <r>   38.3582    0.0000 </r>
       <r>   40.6100    0.0000 </r>
       <r>   40.6100    0.0000 </r>
       <r>   40.6955    0.0000 </r>
       <r>   40.6955    0.0000 </r>
       <r>   40.7112    0.0000 </r>
       <r>   40.7112    0.0000 </r>
       <r>   42.5914    0.0000 </r>
       <r>   42.5914    0.0000 </r>
       <r>   43.1690    0.0000 </r>
       <r>   43.1690    0.0000 </r>
       <r>   43.2196    0.0000 </r>
       <r>   43.2196    0.0000 </r>
       <r>   44.8441    0.0000 </r>
       <r>   44.8441    0.0000 </r>
       <r>   46.4221    0.0000 </r>
       <r>   46.4221    0.0000 </r>
       <r>   46.4659    0.0000 </r>
       <r>   46.4659    0.0000 </r>
[...]
       <r>    35.6680     0.0000     0.0000 </r>
       <r>    35.9278     0.0000     0.0000 </r>
       <r>    36.1876     0.0000     0.0000 </r>
       <r>    36.4474     0.0000     0.0000 </r>
       <r>    36.7072     0.0000     0.0000 </r>
       <r>    36.9670     0.0000     0.0000 </r>
       <r>    37.2268     0.0000     0.0000 </r>
       <r>    37.4866     0.0000     0.0000 </r>
       <r>    37.7464     0.0000     0.0000 </r>
       <r>    38.0062     0.0000     0.0000 </r>
       <r>    38.2660     0.0000     0.0000 </r>
       <r>    38.5258     0.0000     0.0000 </r>
       <r>    38.7856     0.0000     0.0000 </r>
       <r>    39.0454     0.0000     0.0000 </r>
       <r>    39.3052     0.0000     0.0000 </r>
       <r>    39.5651     0.0000     0.0000 </r>
       <r>    39.8249     0.0000     0.0000 </r>
       <r>    40.0847     0.0000     0.0000 </r>
       <r>    40.3445     0.0000     0.0000 </r>
       <r>    40.6043     0.0000     0.0000 </r>
       <r>    40.8641     0.0000     0.0000 </r>
       <r>    41.1239     0.0000     0.0000 </r>
       <r>    41.3837     0.0000     0.0000 </r>
       <r>    41.6435     0.0000     0.0000 </r>
       <r>    41.9033     0.0000     0.0000 </r>
       <r>    42.1631     0.0000     0.0000 </r>
       <r>    42.4229     0.0000     0.0000 </r>
       <r>    42.6827     0.0000     0.0000 </r>
       <r>    42.9425     0.0000     0.0000 </r>
       <r>    43.2023     0.0000     0.0000 </r>
       <r>    43.4621     0.0000     0.0000 </r>
       <r>    43.7219     0.0000     0.0000 </r>
       <r>    43.9818     0.0000     0.0000 </r>
       <r>    44.2416     0.0000     0.0000 </r>
       <r>    44.5014     0.0000     0.0000 </r>
       <r>    44.7612     0.0000     0.0000 </r>
       <r>    45.0210     0.0000     0.0000 </r>
       <r>    45.2808     0.0000     0.0000 </r>
       <r>    45.5406     0.0000     0.0000 </r>
       <r>    45.8004     0.0000     0.0000 </r>
       <r>    46.0602     0.0000     0.0000 </r>
       <r>    46.3200     0.0000     0.0000 </r>
       <r>    46.5798     0.0000     0.0000 </r>
       <r>    46.8396     0.0000     0.0000 </r>
       <r>    47.0994     0.0000     0.0000 </r>
       <r>    47.3592     0.0000     0.0000 </r>
       <r>    47.6190     0.0000     0.0000 </r>
       <r>    47.8788     0.0000     0.0000 </r>
       <r>    48.1386     0.0000     0.0000 </r>
       <r>    48.3984     0.0000     0.0000 </r>
       <r>    48.6583     0.0000     0.0000 </r>
       <r>    48.9181     0.0000     0.0000 </r>
       <r>    49.1779     0.0000     0.0000 </r>
       <r>    49.4377     0.0000     0.0000 </r>
       <r>    49.6975     0.0000     0.0000 </r>
       <r>    49.9573     0.0000     0.0000 </r>
       <r>    50.2171     0.0000     0.0000 </r>
       <r>    50.4769     0.0000     0.0000 </r>
       <r>    50.7367     0.0000     0.0000 </r>
       <r>    50.9965     0.0000     0.0000 </r>
       <r>    51.2563     0.0000     0.0000 </r>
       <r>    51.5161     0.0000     0.0000 </r>
       <r>    51.7759     0.0000     0.0000 </r>
       <r>    52.0357     0.0000     0.0000 </r>
       <r>    52.2955     0.0000     0.0000 </r>
       <r>    52.5553     0.0000     0.0000 </r>
       <r>    52.8151     0.0000     0.0000 </r>
       <r>    53.0749     0.0000     0.0000 </r>
       <r>    53.3348     0.0000     0.0000 </r>
       <r>    53.5946     0.0000     0.0000 </r>
       <r>    53.8544     0.0000     0.0000 </r>
       <r>    54.1142     0.0000     0.0000 </r>
       <r>    54.3740     0.0000     0.0000 </r>
       <r>    54.6338     0.0000     0.0000 </r>
       <r>    54.8936     0.0000     0.0000 </r>
       <r>    55.1534     0.0000     0.0000 </r>
       <r>    55.4132     0.0000     0.0000 </r>
       <r>    55.6730     0.0000     0.0000 </r>
       <r>    55.9328     0.0000     0.0000 </r>
       <r>    56.1926     0.0000     0.0000 </r>
       <r>    56.4524     0.0000     0.0000 </r>
       <r>    56.7122     0.0000     0.0000 </r>
       <r>    56.9720     0.0000     0.0000 </r>
       <r>    57.2318     0.0000     0.0000 </r>
       <r>    57.4916     0.0000     0.0000 </r>
       <r>    57.7514     0.0000     0.0000 </r>
       <r>    58.0113     0.0000     0.0000 </r>
       <r>    58.2711     0.0000     0.0000 </r>
      </set>
      <set comment="spin 4">
       <r>   -19.6706     0.0000     0.0000 </r>
       <r>   -19.4108     0.0000     0.0000 </r>
       <r>   -19.1510     0.0000     0.0000 </r>
       <r>   -18.8912     0.0000     0.0000 </r>
       <r>   -18.6314     0.0000     0.0000 </r>
       <r>   -18.3716     0.0000     0.0000 </r>
       <r>   -18.1118     0.0000     0.0000 </r>
       <r>   -17.8520     0.0000     0.0000 </r>
       <r>   -17.5922     0.0000     0.0000 </r>
       <r>   -17.3324     0.0000     0.0000 </r>
       <r>   -17.0726     0.0000     0.0000 </r>
       <r>   -16.8128     0.0000     0.0000 </r>
       <r>   -16.5530     0.0000     0.0000 </r>
       <r>   -16.2932     0.0000     0.0000 </r>
       <r>   -16.0333     0.0000     0.0000 </r>
       <r>   -15.7735     0.0000     0.0000 </r>
       <r>   -15.5137     0.0000     0.0000 </r>
       <r>   -15.2539     0.0000     0.0000 </r>
       <r>   -14.9941     0.0000     0.0000 </r>
       <r>   -14.7343     0.0000     0.0000 </r>
       <r>   -14.4745     0.0000     0.0000 </r>
       <r>   -14.2147     0.0000     0.0000 </r>
       <r>   -13.9549     0.0000     0.0000 </r>
       <r>   -13.6951     0.0000     0.0000 </r>
       <r>   -13.4353     0.0000     0.0000 </r>
       <r>   -13.1755     0.0000     0.0000 </r>
       <r>   -12.9157     0.0000     0.0000 </r>
       <r>   -12.6559     0.0000     0.0000 </r>
       <r>   -12.3961     0.0000     0.0000 </r>
       <r>   -12.1363     0.0000     0.0000 </r>
       <r>   -11.8765     0.0000     0.0000 </r>
       <r>   -11.6167     0.0000     0.0000 </r>
       <r>   -11.3568     0.0000     0.0000 </r>
       <r>   -11.0970     0.0000     0.0000 </r>
       <r>   -10.8372     0.0000     0.0000 </r>
       <r>   -10.5774     0.0000     0.0000 </r>
       <r>   -10.3176     0.0000     0.0000 </r>
       <r>   -10.0578     0.0000     0.0000 </r>
       <r>    -9.7980     0.0000     0.0000 </r>
       <r>    -9.5382     0.0000     0.0000 </r>
       <r>    -9.2784     0.0000     0.0000 </r>
       <r>    -9.0186     0.0000     0.0000 </r>
       <r>    -8.7588     0.0000     0.0000 </r>
       <r>    -8.4990     0.0000     0.0000 </r>
       <r>    -8.2392     0.0000     0.0000 </r>
       <r>    -7.9794     0.0000     0.0000 </r>
       <r>    -7.7196     0.0000     0.0000 </r>
       <r>    -7.4598     0.0000     0.0000 </r>
       <r>    -7.2000     0.0000     0.0000 </r>
       <r>    -6.9402     0.0000     0.0000 </r>
       <r>    -6.6803     0.0000     0.0000 </r>
       <r>    -6.4205     0.0000     0.0000 </r>
       <r>    -6.1607     0.0000     0.0000 </r>
       <r>    -5.9009     0.0000     0.0000 </r>
       <r>    -5.6411     0.0000     0.0000 </r>
       <r>    -5.3813     0.0000     0.0000 </r>
       <r>    -5.1215     0.0000     0.0000 </r>
       <r>    -4.8617     0.0000     0.0000 </r>
       <r>    -4.6019     0.0000     0.0000 </r>
       <r>    -4.3421     0.0000     0.0000 </r>
       <r>    -4.0823     0.0000     0.0000 </r>
       <r>    -3.8225     0.0000     0.0000 </r>
       <r>    -3.5627     0.0000     0.0000 </r>
       <r>    -3.3029     0.0000     0.0000 </r>
       <r>    -3.0431     0.0000     0.0000 </r>
       <r>    -2.7833     0.0000     0.0000 </r>
       <r>    -2.5235     0.0000     0.0000 </r>
       <r>    -2.2636     0.0000     0.0000 </r>
       <r>    -2.0038     0.0000     0.0000 </r>
       <r>    -1.7440     0.0000     0.0000 </r>
       <r>    -1.4842     0.0000     0.0000 </r>
       <r>    -1.2244     0.0000     0.0000 </r>
       <r>    -0.9646     0.0000     0.0000 </r>
       <r>    -0.7048     0.0000     0.0000 </r>
       <r>    -0.4450     0.0000     0.0000 </r>
       <r>    -0.1852     0.0000     0.0000 </r>
       <r>     0.0746     0.0000     0.0000 </r>
       <r>     0.3344     0.0000     0.0000 </r>
       <r>     0.5942     0.0000     0.0000 </r>
       <r>     0.8540     0.0000     0.0000 </r>
       <r>     1.1138     0.0000     0.0000 </r>
       <r>     1.3736     0.0000     0.0000 </r>
       <r>     1.6334     0.0000     0.0000 </r>
       <r>     1.8932     0.0000     0.0000 </r>
       <r>     2.1530     0.0000     0.0000 </r>
       <r>     2.4129     0.0000     0.0000 </r>
       <r>     2.6727     0.0000     0.0000 </r>
       <r>     2.9325     0.0000     0.0000 </r>
       <r>     3.1923     0.0000     0.0000 </r>
       <r>     3.4521     0.0000     0.0000 </r>
       <r>     3.7119     0.0000     0.0000 </r>
       <r>     3.9717     0.0000     0.0000 </r>
       <r>     4.2315     0.0000     0.0000 </r>
       <r>     4.4913     0.0000     0.0000 </r>
       <r>     4.7511     0.0000     0.0000 </r>
       <r>     5.0109     0.0000     0.0000 </r>
       <r>     5.2707     0.0000     0.0000 </r>
       <r>     5.5305     0.0000     0.0000 </r>
       <r>     5.7903     0.0000     0.0000 </r>
       <r>     6.0501     0.0000     0.0000 </r>
       <r>     6.3099     0.0000     0.0000 </r>
       <r>     6.5697     0.0000     0.0000 </r>
       <r>     6.8295     0.0000     0.0000 </r>
       <r>     7.0894     0.0000     0.0000 </r>
       <r>     7.3492     0.0000     0.0000 </r>
       <r>     7.6090     0.0000     0.0000 </r>
       <r>     7.8688     0.0000     0.0000 </r>
       <r>     8.1286     0.0000     0.0000 </r>
       <r>     8.3884     0.0000     0.0000 </r>
       <r>     8.6482     0.0000     0.0000 </r>
       <r>     8.9080     0.0000     0.0000 </r>
       <r>     9.1678     0.0000     0.0000 </r>
       <r>     9.4276     0.0000     0.0000 </r>
       <r>     9.6874     0.0000     0.0000 </r>
       <r>     9.9472     0.0000     0.0000 </r>
       <r>    10.2070     0.0000     0.0000 </r>
       <r>    10.4668     0.0000     0.0000 </r>
       <r>    10.7266     0.0000     0.0000 </r>
       <r>    10.9864     0.0000     0.0000 </r>
       <r>    11.2462     0.0000     0.0000 </r>
       <r>    11.5060     0.0000     0.0000 </r>
       <r>    11.7659     0.0000     0.0000 </r>
       <r>    12.0257     0.0000     0.0000 </r>
       <r>    12.2855     0.0000     0.0000 </r>
       <r>    12.5453     0.0000     0.0000 </r>
       <r>    12.8051     0.0000     0.0000 </r>
       <r>    13.0649     0.0000     0.0000 </r>
       <r>    13.3247     0.0000     0.0000 </r>
       <r>    13.5845     0.0000     0.0000 </r>
       <r>    13.8443     0.0000     0.0000 </r>
       <r>    14.1041     0.0000     0.0000 </r>
       <r>    14.3639     0.0000     0.0000 </r>
       <r>    14.6237     0.0000     0.0000 </r>
       <r>    14.8835     0.0000     0.0000 </r>
       <r>    15.1433     0.0000     0.0000 </r>
       <r>    15.4031     0.0000     0.0000 </r>
       <r>    15.6629     0.0000     0.0000 </r>
       <r>    15.9227     0.0000     0.0000 </r>
       <r>    16.1825     0.0000     0.0000 </r>
       <r>    16.4424     0.0000     0.0000 </r>
       <r>    16.7022     0.0000     0.0000 </r>
       <r>    16.9620     0.0000     0.0000 </r>
       <r>    17.2218     0.0000     0.0000 </r>
       <r>    17.4816     0.0000     0.0000 </r>
       <r>    17.7414     0.0000     0.0000 </r>
       <r>    18.0012     0.0000     0.0000 </r>
       <r>    18.2610     0.0000     0.0000 </r>
       <r>    18.5208     0.0000     0.0000 </r>
       <r>    18.7806     0.0000     0.0000 </r>
       <r>    19.0404     0.0000     0.0000 </r>
       <r>    19.3002     0.0000     0.0000 </r>
       <r>    19.5600     0.0000     0.0000 </r>
       <r>    19.8198     0.0000     0.0000 </r>
       <r>    20.0796     0.0000     0.0000 </r>
       <r>    20.3394     0.0000     0.0000 </r>
       <r>    20.5992     0.0000     0.0000 </r>
       <r>    20.8591     0.0000     0.0000 </r>
       <r>    21.1189     0.0000     0.0000 </r>
       <r>    21.3787     0.0000     0.0000 </r>
       <r>    21.6385     0.0000     0.0000 </r>
       <r>    21.8983     0.0000     0.0000 </r>
       <r>    22.1581     0.0000     0.0000 </r>
       <r>    22.4179     0.0000     0.0000 </r>
       <r>    22.6777     0.0000     0.0000 </r>
       <r>    22.9375     0.0000     0.0000 </r>
       <r>    23.1973     0.0000     0.0000 </r>
       <r>    23.4571     0.0000     0.0000 </r>
       <r>    23.7169     0.0000     0.0000 </r>
       <r>    23.9767     0.0000     0.0000 </r>
       <r>    24.2365     0.0000     0.0000 </r>
       <r>    24.4963     0.0000     0.0000 </r>
       <r>    24.7561     0.0000     0.0000 </r>
       <r>    25.0159     0.0000     0.0000 </r>
       <r>    25.2757     0.0000     0.0000 </r>
       <r>    25.5356     0.0000     0.0000 </r>
       <r>    25.7954     0.0000     0.0000 </r>
       <r>    26.0552     0.0000     0.0000 </r>
       <r>    26.3150     0.0000     0.0000 </r>
       <r>    26.5748     0.0000     0.0000 </r>
       <r>    26.8346     0.0000     0.0000 </r>
       <r>    27.0944     0.0000     0.0000 </r>
       <r>    27.3542     0.0000     0.0000 </r>
       <r>    27.6140     0.0000     0.0000 </r>
       <r>    27.8738     0.0000     0.0000 </r>
       <r>    28.1336     0.0000     0.0000 </r>
       <r>    28.3934     0.0000     0.0000 </r>
       <r>    28.6532     0.0000     0.0000 </r>
       <r>    28.9130     0.0000     0.0000 </r>
       <r>    29.1728     0.0000     0.0000 </r>
       <r>    29.4326     0.0000     0.0000 </r>
       <r>    29.6924     0.0000     0.0000 </r>
       <r>    29.9522     0.0000     0.0000 </r>
       <r>    30.2121     0.0000     0.0000 </r>
       <r>    30.4719     0.0000     0.0000 </r>
       <r>    30.7317     0.0000     0.0000 </r>
       <r>    30.9915     0.0000     0.0000 </r>
       <r>    31.2513     0.0000     0.0000 </r>
       <r>    31.5111     0.0000     0.0000 </r>
       <r>    31.7709     0.0000     0.0000 </r>
       <r>    32.0307     0.0000     0.0000 </r>
       <r>    32.2905     0.0000     0.0000 </r>
       <r>    32.5503     0.0000     0.0000 </r>
       <r>    32.8101     0.0000     0.0000 </r>
       <r>    33.0699     0.0000     0.0000 </r>
       <r>    33.3297     0.0000     0.0000 </r>
       <r>    33.5895     0.0000     0.0000 </r>
       <r>    33.8493     0.0000     0.0000 </r>
       <r>    34.1091     0.0000     0.0000 </r>
       <r>    34.3689     0.0000     0.0000 </r>
       <r>    34.6287     0.0000     0.0000 </r>
       <r>    34.8886     0.0000     0.0000 </r>
       <r>    35.1484     0.0000     0.0000 </r>
       <r>    35.4082     0.0000     0.0000 </r>
       <r>    35.6680     0.0000     0.0000 </r>
       <r>    35.9278     0.0000     0.0000 </r>
       <r>    36.1876     0.0000     0.0000 </r>
       <r>    36.4474     0.0000     0.0000 </r>
       <r>    36.7072     0.0000     0.0000 </r>
       <r>    36.9670     0.0000     0.0000 </r>
       <r>    37.2268     0.0000     0.0000 </r>
       <r>    37.4866     0.0000     0.0000 </r>
       <r>    37.7464     0.0000     0.0000 </r>
       <r>    38.0062     0.0000     0.0000 </r>
       <r>    38.2660     0.0000     0.0000 </r>
       <r>    38.5258     0.0000     0.0000 </r>
       <r>    38.7856     0.0000     0.0000 </r>
       <r>    39.0454     0.0000     0.0000 </r>
       <r>    39.3052     0.0000     0.0000 </r>
       <r>    39.5651     0.0000     0.0000 </r>
       <r>    39.8249     0.0000     0.0000 </r>
       <r>    40.0847     0.0000     0.0000 </r>
       <r>    40.3445     0.0000     0.0000 </r>
       <r>    40.6043     0.0000     0.0000 </r>
       <r>    40.8641     0.0000     0.0000 </r>
       <r>    41.1239     0.0000     0.0000 </r>
       <r>    41.3837     0.0000     0.0000 </r>
       <r>    41.6435     0.0000     0.0000 </r>
       <r>    41.9033     0.0000     0.0000 </r>
       <r>    42.1631     0.0000     0.0000 </r>
       <r>    42.4229     0.0000     0.0000 </r>
       <r>    42.6827     0.0000     0.0000 </r>
       <r>    42.9425     0.0000     0.0000 </r>
       <r>    43.2023     0.0000     0.0000 </r>
       <r>    43.4621     0.0000     0.0000 </r>
       <r>    43.7219     0.0000     0.0000 </r>
       <r>    43.9818     0.0000     0.0000 </r>
       <r>    44.2416     0.0000     0.0000 </r>
       <r>    44.5014     0.0000     0.0000 </r>
       <r>    44.7612     0.0000     0.0000 </r>
       <r>    45.0210     0.0000     0.0000 </r>
       <r>    45.2808     0.0000     0.0000 </r>
       <r>    45.5406     0.0000     0.0000 </r>
       <r>    45.8004     0.0000     0.0000 </r>
       <r>    46.0602     0.0000     0.0000 </r>
       <r>    46.3200     0.0000     0.0000 </r>
       <r>    46.5798     0.0000     0.0000 </r>
       <r>    46.8396     0.0000     0.0000 </r>
       <r>    47.0994     0.0000     0.0000 </r>
       <r>    47.3592     0.0000     0.0000 </r>
       <r>    47.6190     0.0000     0.0000 </r>
       <r>    47.8788     0.0000     0.0000 </r>
       <r>    48.1386     0.0000     0.0000 </r>
       <r>    48.3984     0.0000     0.0000 </r>
       <r>    48.6583     0.0000     0.0000 </r>
       <r>    48.9181     0.0000     0.0000 </r>
       <r>    49.1779     0.0000     0.0000 </r>
       <r>    49.4377     0.0000     0.0000 </r>
       <r>    49.6975     0.0000     0.0000 </r>
       <r>    49.9573     0.0000     0.0000 </r>
       <r>    50.2171     0.0000     0.0000 </r>
       <r>    50.4769     0.0000     0.0000 </r>
       <r>    50.7367     0.0000     0.0000 </r>
       <r>    50.9965     0.0000     0.0000 </r>
       <r>    51.2563     0.0000     0.0000 </r>
       <r>    51.5161     0.0000     0.0000 </r>
       <r>    51.7759     0.0000     0.0000 </r>
       <r>    52.0357     0.0000     0.0000 </r>
       <r>    52.2955     0.0000     0.0000 </r>
       <r>    52.5553     0.0000     0.0000 </r>
       <r>    52.8151     0.0000     0.0000 </r>
       <r>    53.0749     0.0000     0.0000 </r>
       <r>    53.3348     0.0000     0.0000 </r>
       <r>    53.5946     0.0000     0.0000 </r>
       <r>    53.8544     0.0000     0.0000 </r>
       <r>    54.1142     0.0000     0.0000 </r>
       <r>    54.3740     0.0000     0.0000 </r>
       <r>    54.6338     0.0000     0.0000 </r>
       <r>    54.8936     0.0000     0.0000 </r>
       <r>    55.1534     0.0000     0.0000 </r>
       <r>    55.4132     0.0000     0.0000 </r>
       <r>    55.6730     0.0000     0.0000 </r>
       <r>    55.9328     0.0000     0.0000 </r>
       <r>    56.1926     0.0000     0.0000 </r>
       <r>    56.4524     0.0000     0.0000 </r>
       <r>    56.7122     0.0000     0.0000 </r>
       <r>    56.9720     0.0000     0.0000 </r>
       <r>    57.2318     0.0000     0.0000 </r>
       <r>    57.4916     0.0000     0.0000 </r>
       <r>    57.7514     0.0000     0.0000 </r>
       <r>    58.0113     0.0000     0.0000 </r>
       <r>    58.2711     0.0000     0.0000 </r>
      </set>
     </set>
    </array>
   </total>
  </dos>
 </calculation>
 <structure name="finalpos" >
  <crystal>
   <varray name="basis" >
    <v>       4.33599578       0.00000000       0.00000000 </v>
    <v>       2.16799789       3.75508250      -0.00000000 </v>
    <v>       2.16799789       1.25169417       3.54032573 </v>
   </varray>
   <i name="volume">     57.64366099 </i>
   <varray name="rec_basis" >
    <v>       0.23062753      -0.13315287      -0.09415330 </v>
    <v>       0.00000000       0.26630573      -0.09415330 </v>
    <v>      -0.00000000       0.00000000       0.28245989 </v>
   </varray>
  </crystal>
  <varray name="positions" >
   <v>       0.00000000       0.00000000       0.00000000 </v>
  </varray>
  <varray name="velocities" >
   <v>       0.00000000       0.00000000       0.00000000 </v>
  </varray>
 </structure>
</modeling>
