   1   1   0   0
  0.6532254E+02  0.4520565E-09  0.4520565E-09  0.4520565E-09  0.1000000E-15
  1.000000000000000E-004
  CAR 
 Og_FCC                                  
     90.09509559    -47.89511669  301     -2.24335479      1.00000000
    -47.895  0.0000E+00  0.0000E+00
    -47.435  0.0000E+00  0.0000E+00
    -46.975  0.0000E+00  0.0000E+00
    -46.515  0.0000E+00  0.0000E+00
    -46.055  0.0000E+00  0.0000E+00
    -45.595  0.0000E+00  0.0000E+00
    -45.135  0.0000E+00  0.0000E+00
    -44.675  0.0000E+00  0.0000E+00
    -44.215  0.0000E+00  0.0000E+00
    -43.755  0.0000E+00  0.0000E+00
    -43.295  0.0000E+00  0.0000E+00
    -42.835  0.0000E+00  0.0000E+00
    -42.376  0.0000E+00  0.0000E+00
    -41.916  0.0000E+00  0.0000E+00
    -41.456  0.0000E+00  0.1000E+02
    -40.996  0.0000E+00  0.1000E+02
    -40.536  0.0000E+00  0.1000E+02
    -40.076  0.0000E+00  0.1000E+02
    -39.616  0.0000E+00  0.1000E+02
    -39.156  0.0000E+00  0.1000E+02
    -38.696  0.0000E+00  0.1000E+02
    -38.236  0.0000E+00  0.1000E+02
    -37.776  0.0000E+00  0.1000E+02
    -37.316  0.0000E+00  0.1000E+02
    -36.856  0.0000E+00  0.1000E+02
    -36.396  0.0000E+00  0.1000E+02
    -35.936  0.0000E+00  0.1000E+02
    -35.476  0.0000E+00  0.1000E+02
    -35.016  0.0000E+00  0.1000E+02
    -34.556  0.0000E+00  0.1000E+02
    -34.096  0.0000E+00  0.1000E+02
    -33.636  0.0000E+00  0.1000E+02
    -33.176  0.0000E+00  0.1000E+02
    -32.716  0.0000E+00  0.1000E+02
    -32.256  0.0000E+00  0.1000E+02
    -31.796  0.0000E+00  0.1000E+02
    -31.336  0.0000E+00  0.1000E+02
    -30.876  0.0000E+00  0.1000E+02
    -30.416  0.0000E+00  0.1000E+02
    -29.956  0.0000E+00  0.1000E+02
    -29.496  0.0000E+00  0.1000E+02
    -29.036  0.0000E+00  0.1000E+02
    -28.576  0.0000E+00  0.1000E+02
    -28.117  0.0000E+00  0.1000E+02
    -27.657  0.0000E+00  0.1000E+02
    -27.197  0.0000E+00  0.1000E+02
    -26.737  0.0000E+00  0.1000E+02
    -26.277  0.0000E+00  0.1000E+02
    -25.817  0.0000E+00  0.1000E+02
    -25.357  0.0000E+00  0.1000E+02
    -24.897  0.0000E+00  0.1000E+02
    -24.437  0.0000E+00  0.1000E+02
    -23.977  0.0000E+00  0.1000E+02
    -23.517  0.0000E+00  0.1000E+02
    -23.057  0.0000E+00  0.1000E+02
    -22.597  0.0000E+00  0.1000E+02
    -22.137  0.0000E+00  0.1000E+02
    -21.677  0.0000E+00  0.1000E+02
    -21.217  0.0000E+00  0.1000E+02
    -20.757  0.0000E+00  0.1000E+02
    -20.297  0.0000E+00  0.1000E+02
    -19.837  0.0000E+00  0.1000E+02
    -19.377  0.0000E+00  0.1000E+02
    -18.917  0.0000E+00  0.1000E+02
    -18.457  0.0000E+00  0.1000E+02
    -17.997  0.0000E+00  0.1000E+02
    -17.537  0.0000E+00  0.1000E+02
    -17.077  0.0000E+00  0.1200E+02
    -16.617  0.0000E+00  0.1200E+02
    -16.157  0.0000E+00  0.1200E+02
    -15.697  0.0000E+00  0.1200E+02
    -15.237  0.0000E+00  0.1200E+02
    -14.777  0.0000E+00  0.1200E+02
    -14.317  0.0000E+00  0.1200E+02
    -13.858  0.0000E+00  0.1200E+02
    -13.398  0.0000E+00  0.1200E+02
    -12.938  0.0000E+00  0.1200E+02
    -12.478  0.0000E+00  0.1200E+02
    -12.018  0.0000E+00  0.1200E+02
    -11.558  0.0000E+00  0.1200E+02
    -11.098  0.0000E+00  0.1200E+02
    -10.638  0.0000E+00  0.1200E+02
    -10.178  0.0000E+00  0.1200E+02
     -9.718  0.0000E+00  0.1200E+02
     -9.258  0.0000E+00  0.1200E+02
     -8.798  0.0000E+00  0.1200E+02
     -8.338  0.0000E+00  0.1200E+02
     -7.878  0.0000E+00  0.1200E+02
     -7.418  0.0000E+00  0.1200E+02
     -6.958  0.0000E+00  0.1200E+02
     -6.498  0.0000E+00  0.1200E+02
     -6.038  0.0000E+00  0.1200E+02
     -5.578  0.0000E+00  0.1200E+02
     -5.118  0.0000E+00  0.1200E+02
     -4.658  0.0000E+00  0.1200E+02
     -4.198  0.0000E+00  0.1200E+02
     -3.738  0.0000E+00  0.1336E+02
     -3.278  0.0000E+00  0.1431E+02
     -2.818  0.2177E+00  0.1615E+02
     -2.358  0.0000E+00  0.1800E+02
     -1.898  0.0000E+00  0.1800E+02
     -1.438  0.0000E+00  0.1800E+02
     -0.978  0.0000E+00  0.1800E+02
     -0.518  0.0000E+00  0.1800E+02
     -0.059  0.0000E+00  0.1800E+02
      0.401  0.0000E+00  0.1800E+02
      0.861  0.0000E+00  0.1800E+02
      1.321  0.0000E+00  0.1800E+02
      1.781  0.0000E+00  0.1800E+02
      2.241  0.0000E+00  0.1800E+02
      2.701  0.0000E+00  0.1801E+02
      3.161  0.0000E+00  0.1801E+02
      3.621  0.0000E+00  0.1814E+02
      4.081  0.0000E+00  0.1814E+02
      4.541  0.0000E+00  0.1867E+02
      5.001  0.0000E+00  0.1944E+02
      5.461  0.0000E+00  0.1981E+02
      5.921  0.0000E+00  0.2031E+02
      6.381  0.0000E+00  0.2131E+02
      6.841  0.0000E+00  0.2203E+02
      7.301  0.0000E+00  0.2262E+02
      7.761  0.0000E+00  0.2359E+02
      8.221  0.0000E+00  0.2461E+02
      8.681  0.0000E+00  0.2550E+02
      9.141  0.0000E+00  0.2583E+02
      9.601  0.0000E+00  0.2665E+02
     10.061  0.0000E+00  0.2748E+02
     10.521  0.0000E+00  0.2843E+02
     10.981  0.0000E+00  0.2865E+02
     11.441  0.0000E+00  0.2967E+02
     11.901  0.0000E+00  0.3058E+02
     12.361  0.0000E+00  0.3143E+02
     12.821  0.0000E+00  0.3248E+02
     13.281  0.4831E+00  0.3419E+02
     13.741  0.0000E+00  0.3467E+02
     14.200  0.0000E+00  0.3547E+02
     14.660  0.0000E+00  0.3586E+02
     15.120  0.0000E+00  0.3690E+02
     15.580  0.0000E+00  0.3945E+02
     16.040  0.4831E+00  0.4169E+02
     16.500  0.0000E+00  0.4284E+02
     16.960  0.0000E+00  0.4414E+02
     17.420  0.0000E+00  0.4448E+02
     17.880  0.0000E+00  0.4548E+02
     18.340  0.0000E+00  0.4603E+02
     18.800  0.0000E+00  0.4766E+02
     19.260  0.0000E+00  0.4873E+02
     19.720  0.0000E+00  0.4982E+02
     20.180  0.0000E+00  0.5091E+02
     20.640  0.0000E+00  0.5191E+02
     21.100  0.3221E+00  0.5376E+02
     21.560  0.0000E+00  0.5511E+02
     22.020  0.2224E+00  0.5665E+02
     22.480  0.0000E+00  0.5755E+02
     22.940  0.8274E-05  0.5799E+02
     23.400  0.0000E+00  0.5867E+02
     23.860  0.0000E+00  0.5971E+02
     24.320  0.4831E+00  0.6131E+02
     24.780  0.4159E-03  0.6209E+02
     25.240  0.0000E+00  0.6340E+02
     25.700  0.1610E+00  0.6458E+02
     26.160  0.0000E+00  0.6598E+02
     26.620  0.0000E+00  0.6729E+02
     27.080  0.0000E+00  0.6927E+02
     27.540  0.3538E-06  0.7071E+02
     28.000  0.0000E+00  0.7180E+02
     28.459  0.0000E+00  0.7241E+02
     28.919  0.0000E+00  0.7296E+02
     29.379  0.0000E+00  0.7435E+02
     29.839  0.0000E+00  0.7509E+02
     30.299  0.0000E+00  0.7714E+02
     30.759  0.0000E+00  0.7861E+02
     31.219  0.2416E+00  0.8024E+02
     31.679  0.2416E+00  0.8159E+02
     32.139  0.7561E-01  0.8297E+02
     32.599  0.0000E+00  0.8371E+02
     33.059  0.0000E+00  0.8544E+02
     33.519  0.4831E+00  0.8658E+02
     33.979  0.0000E+00  0.8789E+02
     34.439  0.0000E+00  0.8885E+02
     34.899  0.0000E+00  0.8944E+02
     35.359  0.2944E-01  0.9078E+02
     35.819  0.0000E+00  0.9233E+02
     36.279  0.7375E-16  0.9381E+02
     36.739  0.0000E+00  0.9552E+02
     37.199  0.0000E+00  0.9674E+02
     37.659  0.0000E+00  0.9804E+02
     38.119  0.0000E+00  0.9874E+02
     38.579  0.0000E+00  0.1008E+03
     39.039  0.0000E+00  0.1020E+03
     39.499  0.0000E+00  0.1032E+03
     39.959  0.0000E+00  0.1049E+03
     40.419  0.0000E+00  0.1066E+03
     40.879  0.0000E+00  0.1084E+03
     41.339  0.0000E+00  0.1088E+03
     41.799  0.0000E+00  0.1106E+03
     42.258  0.2412E+00  0.1120E+03
     42.718  0.0000E+00  0.1139E+03
     43.178  0.0000E+00  0.1150E+03
     43.638  0.0000E+00  0.1168E+03
     44.098  0.0000E+00  0.1185E+03
     44.558  0.0000E+00  0.1196E+03
     45.018  0.3221E+00  0.1208E+03
     45.478  0.6705E-15  0.1216E+03
     45.938  0.0000E+00  0.1230E+03
     46.398  0.0000E+00  0.1243E+03
     46.858  0.0000E+00  0.1267E+03
     47.318  0.0000E+00  0.1278E+03
     47.778  0.4831E+00  0.1298E+03
     48.238  0.0000E+00  0.1312E+03
     48.698  0.0000E+00  0.1325E+03
     49.158  0.0000E+00  0.1342E+03
     49.618  0.2416E+00  0.1359E+03
     50.078  0.0000E+00  0.1371E+03
     50.538  0.1505E+00  0.1382E+03
     50.998  0.0000E+00  0.1405E+03
     51.458  0.0000E+00  0.1419E+03
     51.918  0.7078E-01  0.1427E+03
     52.378  0.0000E+00  0.1445E+03
     52.838  0.4831E+00  0.1460E+03
     53.298  0.0000E+00  0.1473E+03
     53.758  0.0000E+00  0.1485E+03
     54.218  0.3358E-06  0.1504E+03
     54.678  0.0000E+00  0.1523E+03
     55.138  0.0000E+00  0.1544E+03
     55.598  0.3505E-13  0.1558E+03
     56.058  0.4831E+00  0.1573E+03
     56.517  0.0000E+00  0.1591E+03
     56.977  0.1175E+00  0.1597E+03
     57.437  0.0000E+00  0.1622E+03
     57.897  0.0000E+00  0.1651E+03
     58.357  0.5351E-07  0.1665E+03
     58.817  0.0000E+00  0.1686E+03
     59.277  0.0000E+00  0.1696E+03
     59.737  0.0000E+00  0.1706E+03
     60.197  0.1252E+00  0.1726E+03
     60.657  0.0000E+00  0.1737E+03
     61.117  0.0000E+00  0.1758E+03
     61.577  0.4688E+00  0.1773E+03
     62.037  0.0000E+00  0.1794E+03
     62.497  0.0000E+00  0.1805E+03
     62.957  0.0000E+00  0.1826E+03
     63.417  0.0000E+00  0.1844E+03
     63.877  0.0000E+00  0.1862E+03
     64.337  0.0000E+00  0.1875E+03
     64.797  0.0000E+00  0.1889E+03
     65.257  0.0000E+00  0.1906E+03
     65.717  0.0000E+00  0.1922E+03
     66.177  0.4831E+00  0.1937E+03
     66.637  0.0000E+00  0.1958E+03
     67.097  0.0000E+00  0.1969E+03
     67.557  0.9387E-16  0.1993E+03
     68.017  0.0000E+00  0.2017E+03
     68.477  0.0000E+00  0.2030E+03
     68.937  0.0000E+00  0.2050E+03
     69.397  0.0000E+00  0.2067E+03
     69.857  0.0000E+00  0.2085E+03
     70.316  0.0000E+00  0.2104E+03
     70.776  0.3720E-05  0.2120E+03
     71.236  0.0000E+00  0.2139E+03
     71.696  0.0000E+00  0.2151E+03
     72.156  0.3724E-01  0.2171E+03
     72.616  0.0000E+00  0.2192E+03
     73.076  0.0000E+00  0.2210E+03
     73.536  0.0000E+00  0.2224E+03
     73.996  0.0000E+00  0.2245E+03
     74.456  0.0000E+00  0.2262E+03
     74.916  0.0000E+00  0.2284E+03
     75.376  0.4816E+00  0.2304E+03
     75.836  0.2846E+00  0.2321E+03
     76.296  0.1894E+00  0.2334E+03
     76.756  0.1073E-15  0.2353E+03
     77.216  0.0000E+00  0.2370E+03
     77.676  0.0000E+00  0.2390E+03
     78.136  0.1010E-01  0.2409E+03
     78.596  0.0000E+00  0.2429E+03
     79.056  0.0000E+00  0.2446E+03
     79.516  0.1105E-04  0.2473E+03
     79.976  0.0000E+00  0.2486E+03
     80.436  0.0000E+00  0.2500E+03
     80.896  0.1882E-11  0.2519E+03
     81.356  0.0000E+00  0.2536E+03
     81.816  0.0000E+00  0.2550E+03
     82.276  0.0000E+00  0.2554E+03
     82.736  0.0000E+00  0.2558E+03
     83.196  0.0000E+00  0.2558E+03
     83.656  0.0000E+00  0.2559E+03
     84.116  0.0000E+00  0.2560E+03
     84.575  0.0000E+00  0.2560E+03
     85.035  0.0000E+00  0.2560E+03
     85.495  0.0000E+00  0.2560E+03
     85.955  0.0000E+00  0.2560E+03
     86.415  0.0000E+00  0.2560E+03
     86.875  0.0000E+00  0.2560E+03
     87.335  0.0000E+00  0.2560E+03
     87.795  0.0000E+00  0.2560E+03
     88.255  0.0000E+00  0.2560E+03
     88.715  0.0000E+00  0.2560E+03
     89.175  0.0000E+00  0.2560E+03
     89.635  0.0000E+00  0.2560E+03
     90.095  0.0000E+00  0.2560E+03
