<?xml version="1.0" encoding="ISO-8859-1"?>
<modeling>
 <generator>
  <i name="program" type="string">vasp </i>
  <i name="version" type="string">5.4.4.18Apr17-6-g9f103f2a35  </i>
  <i name="subversion" type="string">(build Jul 09 2018 16:43:14) complex            parallel </i>
  <i name="platform" type="string">LinuxIFC </i>
  <i name="date" type="string">2018 11 22 </i>
  <i name="time" type="string">03:42:37 </i>
 </generator>
 <incar>
  <i type="string" name="SYSTEM">   Og_FCC</i>
  <i type="string" name="PREC">accurate</i>
  <i type="string" name="ALGO">   EXACT</i>
  <i type="logical" name="ADDGRID"> T  </i>
  <i type="logical" name="LSORBIT"> F  </i>
  <i type="int" name="ISPIN">     1</i>
  <i type="int" name="MAXMIX">    50</i>
  <i type="int" name="NELM">    50</i>
  <i type="int" name="NELMDL">    -5</i>
  <i type="int" name="NELMIN">     2</i>
  <i type="int" name="IBRION">    -1</i>
  <i type="int" name="NFREE">     5</i>
  <i name="EDIFF">      0.00000001</i>
  <i name="EDIFFG">      0.00001000</i>
  <i type="int" name="NSW">     1</i>
  <i type="int" name="ISIF">     3</i>
  <i type="int" name="ISYM">     0</i>
  <i name="SYMPREC">      0.00000010</i>
  <i name="ENCUT">    300.00000000</i>
  <i type="int" name="NBANDS">   128</i>
  <i name="POTIM">      0.10000000</i>
  <i type="logical" name="LREAL"> F  </i>
  <i type="int" name="ISMEAR">     0</i>
  <i name="SIGMA">      0.00100000</i>
  <i type="int" name="NWRITE">     2</i>
  <i type="logical" name="LWAVE"> T  </i>
  <i type="logical" name="LCHARG"> F  </i>
  <i type="logical" name="LVTOT"> F  </i>
  <i type="logical" name="LOPTICS"> T  </i>
  <i type="logical" name="GGA_COMPAT"> F  </i>
  <v type="int" name="KPOINT_BSE">    -1     0     0     0</v>
  <i type="int" name="NELM">    50</i>
  <i type="string" name="GGA"> PE</i>
 </incar>
 <structure name="primitive_cell" >
  <crystal>
   <varray name="basis" >
    <v>       4.52056477       0.00000000       0.00000000 </v>
    <v>       2.26028238       3.91492393      -0.00000000 </v>
    <v>       2.26028238       1.30497464       3.69102568 </v>
   </varray>
   <i name="volume">     65.32254404 </i>
   <varray name="rec_basis" >
    <v>       0.22121130      -0.12771640      -0.09030913 </v>
    <v>       0.00000000       0.25543280      -0.09030913 </v>
    <v>      -0.00000000       0.00000000       0.27092740 </v>
   </varray>
  </crystal>
  <varray name="positions" >
   <v>       0.00000000       0.00000000       0.00000000 </v>
  </varray>
 </structure>
 <varray name="primitive_index" >
  <v type="int" >        1 </v>
 </varray>
 <kpoints>
  <generation param="Gamma">
   <v type="int" name="divisions">       6        6        6 </v>
   <v name="usershift">      0.00000000       0.00000000       0.00000000 </v>
   <v name="genvec1">      0.16666667      -0.00000000      -0.00000000 </v>
   <v name="genvec2">      0.00000000       0.16666667       0.00000000 </v>
   <v name="genvec3">      0.00000000       0.00000000       0.16666667 </v>
   <v name="shift">      0.00000000       0.00000000       0.00000000 </v>
  </generation>
  <varray name="kpointlist" >
   <v>       0.00000000       0.00000000       0.00000000 </v>
   <v>       0.16666667       0.00000000       0.00000000 </v>
   <v>       0.33333333       0.00000000       0.00000000 </v>
   <v>       0.50000000       0.00000000       0.00000000 </v>
   <v>       0.00000000       0.16666667       0.00000000 </v>
   <v>       0.16666667       0.16666667       0.00000000 </v>
   <v>       0.33333333       0.16666667       0.00000000 </v>
   <v>       0.50000000       0.16666667       0.00000000 </v>
   <v>      -0.33333333       0.16666667       0.00000000 </v>
   <v>      -0.16666667       0.16666667       0.00000000 </v>
   <v>       0.00000000       0.33333333       0.00000000 </v>
   <v>       0.16666667       0.33333333       0.00000000 </v>
   <v>       0.33333333       0.33333333       0.00000000 </v>
   <v>       0.50000000       0.33333333       0.00000000 </v>
   <v>      -0.33333333       0.33333333      -0.00000000 </v>
   <v>      -0.16666667       0.33333333      -0.00000000 </v>
   <v>       0.00000000       0.50000000       0.00000000 </v>
   <v>       0.16666667       0.50000000       0.00000000 </v>
   <v>       0.33333333       0.50000000       0.00000000 </v>
   <v>       0.50000000       0.50000000      -0.00000000 </v>
   <v>      -0.00000000      -0.00000000       0.16666667 </v>
   <v>       0.16666667       0.00000000       0.16666667 </v>
   <v>       0.33333333       0.00000000       0.16666667 </v>
   <v>       0.50000000       0.00000000       0.16666667 </v>
   <v>      -0.33333333      -0.00000000       0.16666667 </v>
   <v>      -0.16666667      -0.00000000       0.16666667 </v>
   <v>       0.00000000       0.16666667       0.16666667 </v>
   <v>       0.16666667       0.16666667       0.16666667 </v>
   <v>       0.33333333       0.16666667       0.16666667 </v>
   <v>       0.50000000       0.16666667       0.16666667 </v>
   <v>      -0.33333333       0.16666667       0.16666667 </v>
   <v>      -0.16666667       0.16666667       0.16666667 </v>
   <v>       0.00000000       0.33333333       0.16666667 </v>
   <v>       0.16666667       0.33333333       0.16666667 </v>
   <v>       0.33333333       0.33333333       0.16666667 </v>
   <v>       0.50000000       0.33333333       0.16666667 </v>
   <v>      -0.33333333       0.33333333       0.16666667 </v>
   <v>      -0.16666667       0.33333333       0.16666667 </v>
   <v>       0.00000000       0.50000000       0.16666667 </v>
   <v>       0.16666667       0.50000000       0.16666667 </v>
   <v>       0.33333333       0.50000000       0.16666667 </v>
   <v>       0.50000000       0.50000000       0.16666667 </v>
   <v>      -0.33333333       0.50000000       0.16666667 </v>
   <v>      -0.16666667       0.50000000       0.16666667 </v>
   <v>      -0.00000000      -0.33333333       0.16666667 </v>
   <v>       0.16666667      -0.33333333       0.16666667 </v>
   <v>       0.33333333      -0.33333333       0.16666667 </v>
   <v>       0.50000000      -0.33333333       0.16666667 </v>
   <v>      -0.33333333      -0.33333333       0.16666667 </v>
   <v>      -0.16666667      -0.33333333       0.16666667 </v>
   <v>      -0.00000000      -0.16666667       0.16666667 </v>
   <v>       0.16666667      -0.16666667       0.16666667 </v>
   <v>       0.33333333      -0.16666667       0.16666667 </v>
   <v>       0.50000000      -0.16666667       0.16666667 </v>
   <v>      -0.33333333      -0.16666667       0.16666667 </v>
   <v>      -0.16666667      -0.16666667       0.16666667 </v>
   <v>       0.00000000      -0.00000000       0.33333333 </v>
   <v>       0.16666667       0.00000000       0.33333333 </v>
   <v>       0.33333333       0.00000000       0.33333333 </v>
   <v>       0.50000000       0.00000000       0.33333333 </v>
   <v>      -0.33333333      -0.00000000       0.33333333 </v>
   <v>      -0.16666667      -0.00000000       0.33333333 </v>
   <v>       0.00000000       0.16666667       0.33333333 </v>
   <v>       0.16666667       0.16666667       0.33333333 </v>
   <v>       0.33333333       0.16666667       0.33333333 </v>
   <v>       0.50000000       0.16666667       0.33333333 </v>
   <v>      -0.33333333       0.16666667       0.33333333 </v>
   <v>      -0.16666667       0.16666667       0.33333333 </v>
   <v>      -0.00000000       0.33333333       0.33333333 </v>
   <v>       0.16666667       0.33333333       0.33333333 </v>
   <v>       0.33333333       0.33333333       0.33333333 </v>
   <v>       0.50000000       0.33333333       0.33333333 </v>
   <v>      -0.33333333       0.33333333       0.33333333 </v>
   <v>      -0.16666667       0.33333333       0.33333333 </v>
   <v>       0.00000000       0.50000000       0.33333333 </v>
   <v>       0.16666667       0.50000000       0.33333333 </v>
   <v>       0.33333333       0.50000000       0.33333333 </v>
   <v>       0.50000000       0.50000000       0.33333333 </v>
   <v>      -0.33333333       0.50000000       0.33333333 </v>
   <v>      -0.16666667       0.50000000       0.33333333 </v>
   <v>      -0.00000000      -0.33333333       0.33333333 </v>
   <v>       0.16666667      -0.33333333       0.33333333 </v>
   <v>       0.33333333      -0.33333333       0.33333333 </v>
   <v>       0.50000000      -0.33333333       0.33333333 </v>
   <v>      -0.33333333      -0.33333333       0.33333333 </v>
   <v>      -0.16666667      -0.33333333       0.33333333 </v>
   <v>      -0.00000000      -0.16666667       0.33333333 </v>
   <v>       0.16666667      -0.16666667       0.33333333 </v>
   <v>       0.33333333      -0.16666667       0.33333333 </v>
   <v>       0.50000000      -0.16666667       0.33333333 </v>
   <v>      -0.33333333      -0.16666667       0.33333333 </v>
   <v>      -0.16666667      -0.16666667       0.33333333 </v>
   <v>      -0.00000000      -0.00000000       0.50000000 </v>
   <v>       0.16666667       0.00000000       0.50000000 </v>
   <v>       0.33333333       0.00000000       0.50000000 </v>
   <v>       0.50000000       0.00000000       0.50000000 </v>
   <v>      -0.00000000       0.16666667       0.50000000 </v>
   <v>       0.16666667       0.16666667       0.50000000 </v>
   <v>       0.33333333       0.16666667       0.50000000 </v>
   <v>       0.50000000       0.16666667       0.50000000 </v>
   <v>      -0.33333333       0.16666667       0.50000000 </v>
   <v>      -0.16666667       0.16666667       0.50000000 </v>
   <v>      -0.00000000       0.33333333       0.50000000 </v>
   <v>       0.16666667       0.33333333       0.50000000 </v>
   <v>       0.33333333       0.33333333       0.50000000 </v>
   <v>       0.50000000       0.33333333       0.50000000 </v>
   <v>      -0.33333333       0.33333333       0.50000000 </v>
   <v>      -0.16666667       0.33333333       0.50000000 </v>
   <v>       0.00000000       0.50000000       0.50000000 </v>
   <v>       0.16666667       0.50000000       0.50000000 </v>
   <v>       0.33333333       0.50000000       0.50000000 </v>
   <v>       0.50000000       0.50000000       0.50000000 </v>
  </varray>
  <varray name="weights" >
   <v>       0.00462963 </v>
   <v>       0.00925926 </v>
   <v>       0.00925926 </v>
   <v>       0.00462963 </v>
   <v>       0.00925926 </v>
   <v>       0.00925926 </v>
   <v>       0.00925926 </v>
   <v>       0.00925926 </v>
   <v>       0.00925926 </v>
   <v>       0.00925926 </v>
   <v>       0.00925926 </v>
   <v>       0.00925926 </v>
   <v>       0.00925926 </v>
   <v>       0.00925926 </v>
   <v>       0.00925926 </v>
   <v>       0.00925926 </v>
   <v>       0.00462963 </v>
   <v>       0.00925926 </v>
   <v>       0.00925926 </v>
   <v>       0.00462963 </v>
   <v>       0.00925926 </v>
   <v>       0.00925926 </v>
   <v>       0.00925926 </v>
   <v>       0.00925926 </v>
   <v>       0.00925926 </v>
   <v>       0.00925926 </v>
   <v>       0.00925926 </v>
   <v>       0.00925926 </v>
   <v>       0.00925926 </v>
   <v>       0.00925926 </v>
   <v>       0.00925926 </v>
   <v>       0.00925926 </v>
   <v>       0.00925926 </v>
   <v>       0.00925926 </v>
   <v>       0.00925926 </v>
   <v>       0.00925926 </v>
   <v>       0.00925926 </v>
   <v>       0.00925926 </v>
   <v>       0.00925926 </v>
   <v>       0.00925926 </v>
   <v>       0.00925926 </v>
   <v>       0.00925926 </v>
   <v>       0.00925926 </v>
   <v>       0.00925926 </v>
   <v>       0.00925926 </v>
   <v>       0.00925926 </v>
   <v>       0.00925926 </v>
   <v>       0.00925926 </v>
   <v>       0.00925926 </v>
   <v>       0.00925926 </v>
   <v>       0.00925926 </v>
   <v>       0.00925926 </v>
   <v>       0.00925926 </v>
   <v>       0.00925926 </v>
   <v>       0.00925926 </v>
   <v>       0.00925926 </v>
   <v>       0.00925926 </v>
   <v>       0.00925926 </v>
   <v>       0.00925926 </v>
   <v>       0.00925926 </v>
   <v>       0.00925926 </v>
   <v>       0.00925926 </v>
   <v>       0.00925926 </v>
   <v>       0.00925926 </v>
   <v>       0.00925926 </v>
   <v>       0.00925926 </v>
   <v>       0.00925926 </v>
   <v>       0.00925926 </v>
   <v>       0.00925926 </v>
   <v>       0.00925926 </v>
   <v>       0.00925926 </v>
   <v>       0.00925926 </v>
   <v>       0.00925926 </v>
   <v>       0.00925926 </v>
   <v>       0.00925926 </v>
   <v>       0.00925926 </v>
   <v>       0.00925926 </v>
   <v>       0.00925926 </v>
   <v>       0.00925926 </v>
   <v>       0.00925926 </v>
   <v>       0.00925926 </v>
   <v>       0.00925926 </v>
   <v>       0.00925926 </v>
   <v>       0.00925926 </v>
   <v>       0.00925926 </v>
   <v>       0.00925926 </v>
   <v>       0.00925926 </v>
   <v>       0.00925926 </v>
   <v>       0.00925926 </v>
   <v>       0.00925926 </v>
   <v>       0.00925926 </v>
   <v>       0.00925926 </v>
   <v>       0.00462963 </v>
   <v>       0.00925926 </v>
   <v>       0.00925926 </v>
   <v>       0.00462963 </v>
   <v>       0.00925926 </v>
   <v>       0.00925926 </v>
   <v>       0.00925926 </v>
   <v>       0.00925926 </v>
   <v>       0.00925926 </v>
   <v>       0.00925926 </v>
   <v>       0.00925926 </v>
   <v>       0.00925926 </v>
   <v>       0.00925926 </v>
   <v>       0.00925926 </v>
   <v>       0.00925926 </v>
   <v>       0.00925926 </v>
   <v>       0.00462963 </v>
   <v>       0.00925926 </v>
   <v>       0.00925926 </v>
   <v>       0.00462963 </v>
  </varray>
 </kpoints>
 <parameters>
  <separator name="general" >
   <i type="string" name="SYSTEM">Og_FCC</i>
   <i type="logical" name="LCOMPAT"> F  </i>
  </separator>
  <separator name="electronic" >
   <i type="string" name="PREC">accura</i>
   <i name="ENMAX">    300.00000000</i>
   <i name="ENAUG">    715.60700000</i>
   <i name="EDIFF">      0.00000001</i>
   <i type="int" name="IALGO">    90</i>
   <i type="int" name="IWAVPR">    10</i>
   <i type="int" name="NBANDS">   128</i>
   <i name="NELECT">     18.00000000</i>
   <i type="int" name="TURBO">     0</i>
   <i type="int" name="IRESTART">     0</i>
   <i type="int" name="NREBOOT">     0</i>
   <i type="int" name="NMIN">     0</i>
   <i name="EREF">      0.00000000</i>
   <separator name="electronic smearing" >
    <i type="int" name="ISMEAR">     0</i>
    <i name="SIGMA">      0.00100000</i>
    <i name="KSPACING">      0.50000000</i>
    <i type="logical" name="KGAMMA"> T  </i>
   </separator>
   <separator name="electronic projectors" >
    <i type="logical" name="LREAL"> F  </i>
    <v name="ROPT">      0.00000000</v>
    <i type="int" name="LMAXPAW">  -100</i>
    <i type="int" name="LMAXMIX">     2</i>
    <i type="logical" name="NLSPLINE"> F  </i>
   </separator>
   <separator name="electronic startup" >
    <i type="int" name="ISTART">     1</i>
    <i type="int" name="ICHARG">     0</i>
    <i type="int" name="INIWAV">     1</i>
   </separator>
   <separator name="electronic spin" >
    <i type="int" name="ISPIN">     1</i>
    <i type="logical" name="LNONCOLLINEAR"> F  </i>
    <v name="MAGMOM">      1.00000000</v>
    <i name="NUPDOWN">     -1.00000000</i>
    <i type="logical" name="LSORBIT"> F  </i>
    <v name="SAXIS">      0.00000000      0.00000000      1.00000000</v>
    <i type="logical" name="LSPIRAL"> F  </i>
    <v name="QSPIRAL">      0.00000000      0.00000000      0.00000000</v>
    <i type="logical" name="LZEROZ"> F  </i>
   </separator>
   <separator name="electronic exchange-correlation" >
    <i type="logical" name="LASPH"> F  </i>
    <i type="logical" name="LMETAGGA"> F  </i>
   </separator>
   <separator name="electronic convergence" >
    <i type="int" name="NELM">    50</i>
    <i type="int" name="NELMDL">    -5</i>
    <i type="int" name="NELMIN">     2</i>
    <i name="ENINI">    300.00000000</i>
    <separator name="electronic convergence detail" >
     <i type="logical" name="LDIAG"> T  </i>
     <i type="logical" name="LSUBROT"> F  </i>
     <i name="WEIMIN">      0.00000000</i>
     <i name="EBREAK">      0.00000000</i>
     <i name="DEPER">      0.30000000</i>
     <i type="int" name="NRMM">     4</i>
     <i name="TIME">      0.40000000</i>
    </separator>
   </separator>
   <separator name="electronic mixer" >
    <i name="AMIX">      0.40000000</i>
    <i name="BMIX">      1.00000000</i>
    <i name="AMIN">      0.10000000</i>
    <i name="AMIX_MAG">      1.60000000</i>
    <i name="BMIX_MAG">      1.00000000</i>
    <separator name="electronic mixer details" >
     <i type="int" name="IMIX">     4</i>
     <i type="logical" name="MIXFIRST"> F  </i>
     <i type="int" name="MAXMIX">    50</i>
     <i name="WC">    100.00000000</i>
     <i type="int" name="INIMIX">     1</i>
     <i type="int" name="MIXPRE">     1</i>
     <i type="int" name="MREMOVE">     5</i>
    </separator>
   </separator>
   <separator name="electronic dipolcorrection" >
    <i type="logical" name="LDIPOL"> F  </i>
    <i type="logical" name="LMONO"> F  </i>
    <i type="int" name="IDIPOL">     0</i>
    <i name="EPSILON">      1.00000000</i>
    <v name="DIPOL">   -100.00000000   -100.00000000   -100.00000000</v>
    <i name="EFIELD">      0.00000000</i>
   </separator>
  </separator>
  <separator name="grids" >
   <i type="int" name="NGX">    28</i>
   <i type="int" name="NGY">    28</i>
   <i type="int" name="NGZ">    28</i>
   <i type="int" name="NGXF">    56</i>
   <i type="int" name="NGYF">    56</i>
   <i type="int" name="NGZF">    56</i>
   <i type="logical" name="ADDGRID"> T  </i>
  </separator>
  <separator name="ionic" >
   <i type="int" name="NSW">     1</i>
   <i type="int" name="IBRION">    -1</i>
   <i type="int" name="MDALGO">     0</i>
   <i type="int" name="ISIF">     3</i>
   <i name="PSTRESS">      0.00000000</i>
   <i name="EDIFFG">      0.00001000</i>
   <i type="int" name="NFREE">     5</i>
   <i name="POTIM">      0.10000000</i>
   <i name="SMASS">     -3.00000000</i>
   <i name="SCALEE">      1.00000000</i>
  </separator>
  <separator name="ionic md" >
   <i name="TEBEG">      0.00010000</i>
   <i name="TEEND">      0.00010000</i>
   <i type="int" name="NBLOCK">     1</i>
   <i type="int" name="KBLOCK">     1</i>
   <i type="int" name="NPACO">   256</i>
   <i name="APACO">     16.00000000</i>
  </separator>
  <separator name="symmetry" >
   <i type="int" name="ISYM">     0</i>
   <i name="SYMPREC">      0.00000010</i>
  </separator>
  <separator name="dos" >
   <i type="int" name="LORBIT">     0</i>
   <v name="RWIGS">     -1.00000000</v>
   <i type="int" name="NEDOS">   301</i>
   <i name="EMIN">     10.00000000</i>
   <i name="EMAX">    -10.00000000</i>
   <i name="EFERMI">      0.00000000</i>
  </separator>
  <separator name="writing" >
   <i type="int" name="NWRITE">     2</i>
   <i type="logical" name="LWAVE"> T  </i>
   <i type="logical" name="LDOWNSAMPLE"> F  </i>
   <i type="logical" name="LCHARG"> F  </i>
   <i type="logical" name="LPARD"> F  </i>
   <i type="logical" name="LVTOT"> F  </i>
   <i type="logical" name="LVHAR"> F  </i>
   <i type="logical" name="LELF"> F  </i>
   <i type="logical" name="LOPTICS"> T  </i>
   <v name="STM">      0.00000000      0.00000000      0.00000000      0.00000000      0.00000000      0.00000000      0.00000000</v>
  </separator>
  <separator name="performance" >
   <i type="int" name="NPAR">     2</i>
   <i type="int" name="NSIM">     4</i>
   <i type="int" name="NBLK">    -1</i>
   <i type="logical" name="LPLANE"> T  </i>
   <i type="logical" name="LSCALAPACK"> T  </i>
   <i type="logical" name="LSCAAWARE"> T  </i>
   <i type="logical" name="LSCALU"> F  </i>
   <i type="logical" name="LASYNC"> F  </i>
   <i type="logical" name="LORBITALREAL"> F  </i>
  </separator>
  <separator name="miscellaneous" >
   <i type="int" name="IDIOT">     3</i>
   <i type="int" name="ISPECIAL">     0</i>
   <i type="logical" name="LMUSIC"> F  </i>
   <v name="POMASS">    220.17000000</v>
   <v name="DARWINR">      0.00000000</v>
   <v name="DARWINV">      1.00000000</v>
   <i type="logical" name="LCORR"> T  </i>
  </separator>
  <i type="logical" name="GGA_COMPAT"> F  </i>
  <i type="logical" name="LBERRY"> F  </i>
  <i type="int" name="ICORELEVEL">     0</i>
  <i type="logical" name="LDAU"> F  </i>
  <i type="int" name="I_CONSTRAINED_M">     0</i>
  <separator name="electronic exchange-correlation" >
   <i type="string" name="GGA">PE</i>
   <i type="int" name="VOSKOWN">     0</i>
   <i type="logical" name="LHFCALC"> F  </i>
   <i type="string" name="PRECFOCK"></i>
   <i type="logical" name="LSYMGRAD"> F  </i>
   <i type="logical" name="LHFONE"> F  </i>
   <i type="logical" name="LRHFCALC"> F  </i>
   <i type="logical" name="LTHOMAS"> F  </i>
   <i type="logical" name="LMODELHF"> F  </i>
   <i name="ENCUT4O">     -1.00000000</i>
   <i type="int" name="EXXOEP">     0</i>
   <i type="int" name="FOURORBIT">     0</i>
   <i name="AEXX">      0.00000000</i>
   <i name="HFALPHA">      0.00000000</i>
   <i name="MCALPHA">      0.00000000</i>
   <i name="ALDAX">      1.00000000</i>
   <i name="AGGAX">      1.00000000</i>
   <i name="ALDAC">      1.00000000</i>
   <i name="AGGAC">      1.00000000</i>
   <i type="int" name="NKREDX">     1</i>
   <i type="int" name="NKREDY">     1</i>
   <i type="int" name="NKREDZ">     1</i>
   <i type="logical" name="SHIFTRED"> F  </i>
   <i type="logical" name="ODDONLY"> F  </i>
   <i type="logical" name="EVENONLY"> F  </i>
   <i type="int" name="LMAXFOCK">     0</i>
   <i type="int" name="NMAXFOCKAE">     0</i>
   <i type="logical" name="LFOCKAEDFT"> F  </i>
   <i name="HFSCREEN">      0.00000000</i>
   <i name="HFSCREENC">      0.00000000</i>
   <i type="int" name="NBANDSGWLOW">     0</i>
  </separator>
  <separator name="vdW DFT" >
   <i type="logical" name="LUSE_VDW"> F  </i>
   <i name="Zab_VDW">     -0.84910000</i>
   <i name="PARAM1">      0.12340000</i>
   <i name="PARAM2">      1.00000000</i>
   <i name="PARAM3">      0.00000000</i>
  </separator>
  <separator name="model GW" >
   <i type="int" name="MODEL_GW">     0</i>
   <i name="MODEL_EPS0">     39.19352642</i>
   <i name="MODEL_ALPHA">      1.00000000</i>
  </separator>
  <separator name="linear response parameters" >
   <i type="logical" name="LEPSILON"> F  </i>
   <i type="logical" name="LRPA"> F  </i>
   <i type="logical" name="LNABLA"> F  </i>
   <i type="logical" name="LVEL"> F  </i>
   <i type="int" name="KINTER">     0</i>
   <i name="CSHIFT">      0.10000000</i>
   <i name="OMEGAMAX">     -1.00000000</i>
   <i name="DEG_THRESHOLD">      0.00200000</i>
   <i name="RTIME">     -0.10000000</i>
   <i name="WPLASMAI">      0.00000000</i>
   <v name="DFIELD">      0.00000000      0.00000000      0.00000000</v>
   <v name="WPLASMA">      0.00000000      0.00000000      0.00000000      0.00000000      0.00000000      0.00000000      0.00000000      0.00000000      0.00000000</v>
  </separator>
  <separator name="orbital magnetization" >
   <i type="logical" name="NUCIND"> F  </i>
   <v name="MAGPOS">      0.00000000      0.00000000      0.00000000</v>
   <i type="logical" name="LNICSALL"> T  </i>
   <i type="logical" name="ORBITALMAG"> F  </i>
   <i type="logical" name="LMAGBLOCH"> F  </i>
   <i type="logical" name="LCHIMAG"> F  </i>
   <i type="logical" name="LGAUGE"> T  </i>
   <i type="int" name="MAGATOM">     0</i>
   <v name="MAGDIPOL">      0.00000000      0.00000000      0.00000000</v>
   <v name="AVECCONST">      0.00000000      0.00000000      0.00000000</v>
  </separator>
  <separator name="response functions" >
   <i type="logical" name="LADDER"> F  </i>
   <i type="logical" name="LRPAFORCE"> F  </i>
   <i type="logical" name="LFXC"> F  </i>
   <i type="logical" name="LHARTREE"> T  </i>
   <i type="int" name="IBSE">     0</i>
   <v type="int" name="KPOINT">    -1     0     0     0</v>
   <i type="logical" name="LTCTE"> F  </i>
   <i type="logical" name="LTETE"> F  </i>
   <i type="logical" name="LTRIPLET"> F  </i>
   <i type="logical" name="LFXCEPS"> F  </i>
   <i type="logical" name="LFXHEG"> F  </i>
   <i type="int" name="NATURALO">     2</i>
   <i type="logical" name="L2ORDER"> F  </i>
   <i type="logical" name="LMP2LT"> F  </i>
   <i type="logical" name="LUSEW"> F  </i>
   <i name="ENCUTGW">     -2.00000000</i>
   <i name="ENCUTGWSOFT">     -2.00000000</i>
   <i name="ENCUTLF">     -1.00000000</i>
   <i type="int" name="LMAXMP2">    -1</i>
   <i name="SCISSOR">      0.00000000</i>
   <i type="int" name="NOMEGA">     0</i>
   <i type="int" name="NOMEGAR">     0</i>
   <i type="int" name="NBANDSGW">    -1</i>
   <i type="int" name="NBANDSO">    -1</i>
   <i type="int" name="NBANDSV">    -1</i>
   <i type="int" name="NELM">    50</i>
   <i type="int" name="NELMHF">     1</i>
   <i type="int" name="DIM">     3</i>
   <i type="int" name="ANTIRES">     0</i>
   <i name="OMEGAMAX">    -30.00000000</i>
   <i name="OMEGAMIN">    -30.00000000</i>
   <i name="OMEGATL">   -200.00000000</i>
   <i type="int" name="OMEGAGRID">   140</i>
   <i name="CSHIFT">     -0.10000000</i>
   <i type="logical" name="SELFENERGY"> F  </i>
   <i type="logical" name="LSPECTRAL"> F  </i>
   <i type="logical" name="LSPECTRALGW"> F  </i>
   <i type="logical" name="LSINGLES"> F  </i>
   <i type="logical" name="LFERMIGW"> F  </i>
   <i type="logical" name="ODDONLYGW"> F  </i>
   <i type="logical" name="EVENONLYGW"> F  </i>
   <i type="int" name="NKREDLFX">     1</i>
   <i type="int" name="NKREDLFY">     1</i>
   <i type="int" name="NKREDLFZ">     1</i>
   <i type="int" name="MAXMEM">  2800</i>
   <i type="int" name="TELESCOPE">     0</i>
   <i type="int" name="TAUPAR">     1</i>
   <i type="int" name="OMEGAPAR">    -1</i>
   <i name="LAMBDA">      1.00000000</i>
  </separator>
  <separator name="External order field" >
   <i name="OFIELD_KAPPA">      0.00000000</i>
   <v name="OFIELD_K">      0.00000000      0.00000000      0.00000000</v>
   <i name="OFIELD_Q6_NEAR">      0.00000000</i>
   <i name="OFIELD_Q6_FAR">      0.00000000</i>
   <i name="OFIELD_A">      0.00000000</i>
  </separator>
 </parameters>
 <atominfo>
  <atoms>       1 </atoms>
  <types>       1 </types>
  <array name="atoms" >
   <dimension dim="1">ion</dimension>
   <field type="string">element</field>
   <field type="int">atomtype</field>
   <set>
    <rc><c>Rn</c><c>   1</c></rc>
   </set>
  </array>
  <array name="atomtypes" >
   <dimension dim="1">type</dimension>
   <field type="int">atomspertype</field>
   <field type="string">element</field>
   <field>mass</field>
   <field>valence</field>
   <field type="string">pseudopotential</field>
   <set>
    <rc><c>   1</c><c>Rn</c><c>    220.17000000</c><c>     18.00000000</c><c>  PAW_PBE Rn_d_GW 14Apr2014             </c></rc>
   </set>
  </array>
 </atominfo>
 <structure name="initialpos" >
  <crystal>
   <varray name="basis" >
    <v>       4.52056477       0.00000000       0.00000000 </v>
    <v>       2.26028238       3.91492393      -0.00000000 </v>
    <v>       2.26028238       1.30497464       3.69102568 </v>
   </varray>
   <i name="volume">     65.32254404 </i>
   <varray name="rec_basis" >
    <v>       0.22121130      -0.12771640      -0.09030913 </v>
    <v>       0.00000000       0.25543280      -0.09030913 </v>
    <v>      -0.00000000       0.00000000       0.27092740 </v>
   </varray>
  </crystal>
  <varray name="positions" >
   <v>       0.00000000       0.00000000       0.00000000 </v>
  </varray>
  <varray name="velocities" >
   <v>       0.00000000       0.00000000       0.00000000 </v>
  </varray>
 </structure>
 <calculation>
  <scstep>
   <time name="diag">   24.65   24.65</time>
   <time name="total">   24.70   24.70</time>
   <energy>
    <i name="alphaZ">     64.91123397 </i>
    <i name="ewald">  -1672.97583954 </i>
    <i name="hartreedc">  -1019.26982177 </i>
    <i name="XCdc">     36.80159607 </i>
    <i name="pawpsdc">   2514.99399686 </i>
    <i name="pawaedc">  -2485.24851806 </i>
    <i name="eentropy">      0.00000000 </i>
    <i name="bandstr">   -469.84826072 </i>
    <i name="atom">   3030.62410580 </i>
    <i name="e_fr_energy">     -0.01150738 </i>
    <i name="e_wo_entrp">     -0.01150738 </i>
    <i name="e_0_energy">     -0.01150738 </i>
   </energy>
  </scstep>
  <scstep>
   <time name="diag">   24.79   24.79</time>
   <time name="total">   24.80   24.80</time>
   <energy>
    <i name="e_fr_energy">     -0.01150738 </i>
    <i name="e_wo_entrp">     -0.01150738 </i>
    <i name="e_0_energy">     -0.01150738 </i>
   </energy>
  </scstep>
  <scstep>
   <time name="diag">   24.80   24.80</time>
   <time name="total">   24.81   24.81</time>
   <energy>
    <i name="e_fr_energy">     -0.01150738 </i>
    <i name="e_wo_entrp">     -0.01150738 </i>
    <i name="e_0_energy">     -0.01150738 </i>
   </energy>
  </scstep>
  <scstep>
   <time name="diag">   24.74   24.74</time>
   <time name="total">   24.75   24.75</time>
   <energy>
    <i name="e_fr_energy">     -0.01150738 </i>
    <i name="e_wo_entrp">     -0.01150738 </i>
    <i name="e_0_energy">     -0.01150738 </i>
   </energy>
  </scstep>
  <scstep>
   <time name="diag">   24.69   24.69</time>
   <time name="total">   24.74   24.74</time>
   <energy>
    <i name="e_fr_energy">     -0.01150738 </i>
    <i name="e_wo_entrp">     -0.01150738 </i>
    <i name="e_0_energy">     -0.01150738 </i>
   </energy>
  </scstep>
  <scstep>
   <time name="diag">   24.68   24.68</time>
   <time name="total">   24.72   24.72</time>
   <energy>
    <i name="alphaZ">     64.91123397 </i>
    <i name="ewald">  -1672.97583954 </i>
    <i name="hartreedc">  -1019.26978113 </i>
    <i name="XCdc">     36.80159485 </i>
    <i name="pawpsdc">   2514.99385211 </i>
    <i name="pawaedc">  -2485.24836434 </i>
    <i name="eentropy">      0.00000000 </i>
    <i name="bandstr">   -469.84830911 </i>
    <i name="atom">   3030.62410580 </i>
    <i name="e_fr_energy">     -0.01150738 </i>
    <i name="e_wo_entrp">     -0.01150738 </i>
    <i name="e_0_energy">     -0.01150738 </i>
   </energy>
  </scstep>
  <structure>
   <crystal>
    <varray name="basis" >
     <v>       4.52056477       0.00000000       0.00000000 </v>
     <v>       2.26028238       3.91492393      -0.00000000 </v>
     <v>       2.26028238       1.30497464       3.69102568 </v>
    </varray>
    <i name="volume">     65.32254404 </i>
    <varray name="rec_basis" >
     <v>       0.22121130      -0.12771640      -0.09030913 </v>
     <v>       0.00000000       0.25543280      -0.09030913 </v>
     <v>      -0.00000000       0.00000000       0.27092740 </v>
    </varray>
   </crystal>
   <varray name="positions" >
    <v>       0.00000000       0.00000000       0.00000000 </v>
   </varray>
  </structure>
  <varray name="forces" >
   <v>      -0.00000001       0.00000002       0.00000001 </v>
  </varray>
  <varray name="stress" >
   <v>      -1.53933306       0.00025634       0.00017080 </v>
   <v>       0.00025674      -1.53964153       0.00012808 </v>
   <v>       0.00017143       0.00012849      -1.53950776 </v>
  </varray>
  <energy>
   <i name="e_fr_energy">     -0.21632412 </i>
   <i name="e_wo_entrp">     -0.21632412 </i>
   <i name="e_0_energy">      0.00000000 </i>
  </energy>
  <time name="totalsc">  150.87  150.94</time>
  <eigenvalues>
   <array>
    <dimension dim="1">band</dimension>
    <dimension dim="2">kpoint</dimension>
    <dimension dim="3">spin</dimension>
    <field>eigene</field>
    <field>occ</field>
    <set>
     <set comment="spin 1">
      <set comment="kpoint 1">
       <r>  -41.6223    1.0000 </r>
       <r>  -41.6223    1.0000 </r>
       <r>  -41.6223    1.0000 </r>
       <r>  -41.6219    1.0000 </r>
       <r>  -41.6219    1.0000 </r>
       <r>  -17.4214    1.0000 </r>
       <r>   -2.4207    1.0000 </r>
       <r>   -2.4207    1.0000 </r>
       <r>   -2.4207    1.0000 </r>
       <r>    2.4558    0.0000 </r>
       <r>    7.6868    0.0000 </r>
       <r>    7.6868    0.0000 </r>
       <r>    7.6868    0.0000 </r>
       <r>    9.4803    0.0000 </r>
       <r>   10.0443    0.0000 </r>
       <r>   10.0443    0.0000 </r>
       <r>   11.4842    0.0000 </r>
       <r>   11.4842    0.0000 </r>
       <r>   11.4842    0.0000 </r>
       <r>   14.0330    0.0000 </r>
       <r>   18.2246    0.0000 </r>
       <r>   18.2246    0.0000 </r>
       <r>   18.2246    0.0000 </r>
       <r>   21.7429    0.0000 </r>
       <r>   21.7429    0.0000 </r>
       <r>   21.7429    0.0000 </r>
       <r>   22.9767    0.0000 </r>
       <r>   24.3395    0.0000 </r>
       <r>   24.3395    0.0000 </r>
       <r>   24.3395    0.0000 </r>
       <r>   24.9241    0.0000 </r>
       <r>   24.9241    0.0000 </r>
       <r>   24.9241    0.0000 </r>
       <r>   25.1604    0.0000 </r>
       <r>   25.1604    0.0000 </r>
       <r>   26.7819    0.0000 </r>
       <r>   32.7909    0.0000 </r>
       <r>   32.7909    0.0000 </r>
       <r>   32.7909    0.0000 </r>
       <r>   34.5550    0.0000 </r>
       <r>   34.5550    0.0000 </r>
       <r>   35.3298    0.0000 </r>
       <r>   35.3298    0.0000 </r>
       <r>   35.3298    0.0000 </r>
       <r>   35.7049    0.0000 </r>
       <r>   35.7049    0.0000 </r>
       <r>   35.7049    0.0000 </r>
       <r>   35.7959    0.0000 </r>
       <r>   35.7959    0.0000 </r>
       <r>   35.7959    0.0000 </r>
       <r>   38.1660    0.0000 </r>
       <r>   38.1660    0.0000 </r>
       <r>   38.1660    0.0000 </r>
       <r>   38.5599    0.0000 </r>
       <r>   38.8668    0.0000 </r>
       <r>   38.8668    0.0000 </r>
       <r>   40.8555    0.0000 </r>
       <r>   40.8555    0.0000 </r>
       <r>   40.8555    0.0000 </r>
       <r>   41.1194    0.0000 </r>
       <r>   41.8800    0.0000 </r>
       <r>   42.1766    0.0000 </r>
       <r>   42.1766    0.0000 </r>
       <r>   42.1766    0.0000 </r>
       <r>   42.3914    0.0000 </r>
       <r>   42.3914    0.0000 </r>
       <r>   42.3914    0.0000 </r>
       <r>   45.4622    0.0000 </r>
       <r>   45.4622    0.0000 </r>
       <r>   45.4622    0.0000 </r>
       <r>   47.9770    0.0000 </r>
       <r>   54.3710    0.0000 </r>
       <r>   54.5508    0.0000 </r>
       <r>   54.5508    0.0000 </r>
       <r>   57.7414    0.0000 </r>
       <r>   57.7414    0.0000 </r>
       <r>   57.7414    0.0000 </r>
       <r>   60.6239    0.0000 </r>
       <r>   60.6239    0.0000 </r>
       <r>   62.1235    0.0000 </r>
       <r>   62.1235    0.0000 </r>
       <r>   62.1235    0.0000 </r>
       <r>   65.0096    0.0000 </r>
       <r>   65.0096    0.0000 </r>
       <r>   65.0096    0.0000 </r>
       <r>   65.1156    0.0000 </r>
       <r>   65.1156    0.0000 </r>
       <r>   65.1156    0.0000 </r>
       <r>   66.5474    0.0000 </r>
       <r>   66.5474    0.0000 </r>
       <r>   67.0146    0.0000 </r>
       <r>   67.0146    0.0000 </r>
       <r>   67.0146    0.0000 </r>
       <r>   67.4710    0.0000 </r>
       <r>   67.4710    0.0000 </r>
       <r>   67.4710    0.0000 </r>
       <r>   67.5623    0.0000 </r>
       <r>   67.5623    0.0000 </r>
       <r>   67.5623    0.0000 </r>
       <r>   68.1120    0.0000 </r>
       <r>   68.1120    0.0000 </r>
       <r>   68.1120    0.0000 </r>
       <r>   68.6969    0.0000 </r>
       <r>   69.6567    0.0000 </r>
       <r>   70.4102    0.0000 </r>
       <r>   70.4102    0.0000 </r>
       <r>   71.0054    0.0000 </r>
       <r>   71.0054    0.0000 </r>
       <r>   71.0054    0.0000 </r>
       <r>   71.3065    0.0000 </r>
       <r>   71.3065    0.0000 </r>
       <r>   71.3065    0.0000 </r>
       <r>   71.3624    0.0000 </r>
       <r>   71.3624    0.0000 </r>
       <r>   71.3624    0.0000 </r>
       <r>   71.8245    0.0000 </r>
       <r>   72.1553    0.0000 </r>
       <r>   72.1554    0.0000 </r>
       <r>   74.4303    0.0000 </r>
       <r>   74.4303    0.0000 </r>
       <r>   74.4303    0.0000 </r>
       <r>   74.7518    0.0000 </r>
       <r>   75.2865    0.0000 </r>
       <r>   75.2865    0.0000 </r>
       <r>   75.2865    0.0000 </r>
       <r>   81.7347    0.0000 </r>
       <r>   81.7347    0.0000 </r>
       <r>   81.7347    0.0000 </r>
      </set>
      <set comment="kpoint 2">
       <r>  -41.6224    1.0000 </r>
       <r>  -41.6224    1.0000 </r>
       <r>  -41.6224    1.0000 </r>
       <r>  -41.6220    1.0000 </r>
       <r>  -41.6220    1.0000 </r>
       <r>  -17.3907    1.0000 </r>
       <r>   -2.9760    1.0000 </r>
       <r>   -2.4761    1.0000 </r>
       <r>   -2.4761    1.0000 </r>
       <r>    3.2415    0.0000 </r>
       <r>    6.9868    0.0000 </r>
       <r>    7.8876    0.0000 </r>
       <r>    7.8876    0.0000 </r>
       <r>    9.3623    0.0000 </r>
       <r>    9.3623    0.0000 </r>
       <r>   10.2419    0.0000 </r>
       <r>   11.4046    0.0000 </r>
       <r>   13.0015    0.0000 </r>
       <r>   13.0015    0.0000 </r>
       <r>   15.7046    0.0000 </r>
       <r>   17.2779    0.0000 </r>
       <r>   17.2779    0.0000 </r>
       <r>   18.2837    0.0000 </r>
       <r>   18.9927    0.0000 </r>
       <r>   21.0965    0.0000 </r>
       <r>   21.0965    0.0000 </r>
       <r>   22.6020    0.0000 </r>
       <r>   23.5266    0.0000 </r>
       <r>   23.5969    0.0000 </r>
       <r>   23.5969    0.0000 </r>
       <r>   24.9956    0.0000 </r>
       <r>   24.9956    0.0000 </r>
       <r>   25.8407    0.0000 </r>
       <r>   26.7221    0.0000 </r>
       <r>   26.7222    0.0000 </r>
       <r>   29.6389    0.0000 </r>
       <r>   31.5356    0.0000 </r>
       <r>   31.6092    0.0000 </r>
       <r>   31.7159    0.0000 </r>
       <r>   31.7159    0.0000 </r>
       <r>   32.7220    0.0000 </r>
       <r>   32.7220    0.0000 </r>
       <r>   34.7019    0.0000 </r>
       <r>   34.7019    0.0000 </r>
       <r>   35.2768    0.0000 </r>
       <r>   35.4768    0.0000 </r>
       <r>   35.4768    0.0000 </r>
       <r>   36.1630    0.0000 </r>
       <r>   36.1630    0.0000 </r>
       <r>   36.4529    0.0000 </r>
       <r>   36.5965    0.0000 </r>
       <r>   38.3722    0.0000 </r>
       <r>   38.4663    0.0000 </r>
       <r>   38.4663    0.0000 </r>
       <r>   39.8766    0.0000 </r>
       <r>   40.0669    0.0000 </r>
       <r>   40.0669    0.0000 </r>
       <r>   42.0101    0.0000 </r>
       <r>   42.0101    0.0000 </r>
       <r>   42.7647    0.0000 </r>
       <r>   43.2034    0.0000 </r>
       <r>   43.4837    0.0000 </r>
       <r>   43.7890    0.0000 </r>
       <r>   43.7890    0.0000 </r>
       <r>   45.0130    0.0000 </r>
       <r>   45.0130    0.0000 </r>
       <r>   45.4638    0.0000 </r>
       <r>   46.1057    0.0000 </r>
       <r>   46.1057    0.0000 </r>
       <r>   47.3901    0.0000 </r>
       <r>   49.7063    0.0000 </r>
       <r>   52.0986    0.0000 </r>
       <r>   52.0986    0.0000 </r>
       <r>   52.9434    0.0000 </r>
       <r>   57.2680    0.0000 </r>
       <r>   57.2680    0.0000 </r>
       <r>   58.4653    0.0000 </r>
       <r>   58.9668    0.0000 </r>
       <r>   58.9668    0.0000 </r>
       <r>   59.6540    0.0000 </r>
       <r>   61.1474    0.0000 </r>
       <r>   61.5684    0.0000 </r>
       <r>   61.6863    0.0000 </r>
       <r>   61.6863    0.0000 </r>
       <r>   62.3322    0.0000 </r>
       <r>   62.3322    0.0000 </r>
       <r>   63.4358    0.0000 </r>
       <r>   63.4358    0.0000 </r>
       <r>   64.2120    0.0000 </r>
       <r>   64.6229    0.0000 </r>
       <r>   64.6229    0.0000 </r>
       <r>   65.5620    0.0000 </r>
       <r>   65.5620    0.0000 </r>
       <r>   66.2823    0.0000 </r>
       <r>   66.4652    0.0000 </r>
       <r>   66.4652    0.0000 </r>
       <r>   67.6319    0.0000 </r>
       <r>   67.8211    0.0000 </r>
       <r>   67.8211    0.0000 </r>
       <r>   67.8949    0.0000 </r>
       <r>   69.2138    0.0000 </r>
       <r>   69.2138    0.0000 </r>
       <r>   69.4293    0.0000 </r>
       <r>   69.4807    0.0000 </r>
       <r>   69.4807    0.0000 </r>
       <r>   70.1447    0.0000 </r>
       <r>   70.7930    0.0000 </r>
       <r>   72.6285    0.0000 </r>
       <r>   72.6285    0.0000 </r>
       <r>   72.7242    0.0000 </r>
       <r>   72.7242    0.0000 </r>
       <r>   73.3556    0.0000 </r>
       <r>   73.8260    0.0000 </r>
       <r>   73.8260    0.0000 </r>
       <r>   74.4129    0.0000 </r>
       <r>   74.7186    0.0000 </r>
       <r>   74.8114    0.0000 </r>
       <r>   74.8114    0.0000 </r>
       <r>   76.1759    0.0000 </r>
       <r>   76.4077    0.0000 </r>
       <r>   76.4077    0.0000 </r>
       <r>   76.6623    0.0000 </r>
       <r>   78.1010    0.0000 </r>
       <r>   78.1010    0.0000 </r>
       <r>   79.0971    0.0000 </r>
       <r>   79.4061    0.0000 </r>
       <r>   79.4061    0.0000 </r>
       <r>   79.9064    0.0000 </r>
      </set>
      <set comment="kpoint 3">
       <r>  -41.6222    1.0000 </r>
       <r>  -41.6222    1.0000 </r>
       <r>  -41.6220    1.0000 </r>
       <r>  -41.6215    1.0000 </r>
       <r>  -41.6215    1.0000 </r>
       <r>  -17.3249    1.0000 </r>
       <r>   -3.8079    1.0000 </r>
       <r>   -2.5821    1.0000 </r>
       <r>   -2.5821    1.0000 </r>
       <r>    4.1635    0.0000 </r>
       <r>    7.2172    0.0000 </r>
       <r>    7.5964    0.0000 </r>
       <r>    7.5964    0.0000 </r>
       <r>    9.5091    0.0000 </r>
       <r>   10.1555    0.0000 </r>
       <r>   10.1555    0.0000 </r>
       <r>   14.1683    0.0000 </r>
       <r>   14.8084    0.0000 </r>
       <r>   14.8084    0.0000 </r>
       <r>   15.1268    0.0000 </r>
       <r>   15.3832    0.0000 </r>
       <r>   15.3832    0.0000 </r>
       <r>   18.4088    0.0000 </r>
       <r>   18.6256    0.0000 </r>
       <r>   20.8981    0.0000 </r>
       <r>   20.8981    0.0000 </r>
       <r>   21.4933    0.0000 </r>
       <r>   22.5261    0.0000 </r>
       <r>   22.5261    0.0000 </r>
       <r>   23.5095    0.0000 </r>
       <r>   25.3180    0.0000 </r>
       <r>   25.3180    0.0000 </r>
       <r>   25.6942    0.0000 </r>
       <r>   26.7938    0.0000 </r>
       <r>   26.7938    0.0000 </r>
       <r>   27.3831    0.0000 </r>
       <r>   30.0783    0.0000 </r>
       <r>   30.1469    0.0000 </r>
       <r>   30.1469    0.0000 </r>
       <r>   30.2522    0.0000 </r>
       <r>   31.2823    0.0000 </r>
       <r>   31.2823    0.0000 </r>
       <r>   34.2856    0.0000 </r>
       <r>   34.3541    0.0000 </r>
       <r>   34.3541    0.0000 </r>
       <r>   35.0458    0.0000 </r>
       <r>   35.0458    0.0000 </r>
       <r>   37.0084    0.0000 </r>
       <r>   37.0084    0.0000 </r>
       <r>   37.1490    0.0000 </r>
       <r>   37.5081    0.0000 </r>
       <r>   38.4304    0.0000 </r>
       <r>   39.7149    0.0000 </r>
       <r>   39.7149    0.0000 </r>
       <r>   40.4836    0.0000 </r>
       <r>   41.4709    0.0000 </r>
       <r>   41.4709    0.0000 </r>
       <r>   43.5593    0.0000 </r>
       <r>   45.3674    0.0000 </r>
       <r>   45.3674    0.0000 </r>
       <r>   45.7929    0.0000 </r>
       <r>   45.8166    0.0000 </r>
       <r>   45.8166    0.0000 </r>
       <r>   46.5134    0.0000 </r>
       <r>   47.7622    0.0000 </r>
       <r>   48.1529    0.0000 </r>
       <r>   48.1529    0.0000 </r>
       <r>   49.1765    0.0000 </r>
       <r>   49.1765    0.0000 </r>
       <r>   49.8780    0.0000 </r>
       <r>   50.1381    0.0000 </r>
       <r>   50.1381    0.0000 </r>
       <r>   51.9605    0.0000 </r>
       <r>   52.1927    0.0000 </r>
       <r>   52.5306    0.0000 </r>
       <r>   52.5306    0.0000 </r>
       <r>   55.4362    0.0000 </r>
       <r>   55.8274    0.0000 </r>
       <r>   56.3130    0.0000 </r>
       <r>   56.3130    0.0000 </r>
       <r>   57.7433    0.0000 </r>
       <r>   57.7433    0.0000 </r>
       <r>   58.2135    0.0000 </r>
       <r>   58.7881    0.0000 </r>
       <r>   58.9264    0.0000 </r>
       <r>   58.9264    0.0000 </r>
       <r>   61.2612    0.0000 </r>
       <r>   61.2612    0.0000 </r>
       <r>   64.5754    0.0000 </r>
       <r>   64.9011    0.0000 </r>
       <r>   64.9011    0.0000 </r>
       <r>   65.7605    0.0000 </r>
       <r>   65.7605    0.0000 </r>
       <r>   66.3350    0.0000 </r>
       <r>   66.3350    0.0000 </r>
       <r>   66.7003    0.0000 </r>
       <r>   67.1207    0.0000 </r>
       <r>   67.1207    0.0000 </r>
       <r>   67.3272    0.0000 </r>
       <r>   67.5102    0.0000 </r>
       <r>   67.5731    0.0000 </r>
       <r>   67.5731    0.0000 </r>
       <r>   67.9682    0.0000 </r>
       <r>   70.1432    0.0000 </r>
       <r>   70.1432    0.0000 </r>
       <r>   70.2917    0.0000 </r>
       <r>   70.8155    0.0000 </r>
       <r>   71.7563    0.0000 </r>
       <r>   71.7563    0.0000 </r>
       <r>   72.6765    0.0000 </r>
       <r>   74.1031    0.0000 </r>
       <r>   74.9679    0.0000 </r>
       <r>   75.0589    0.0000 </r>
       <r>   75.0589    0.0000 </r>
       <r>   75.5605    0.0000 </r>
       <r>   75.5605    0.0000 </r>
       <r>   76.0772    0.0000 </r>
       <r>   76.5352    0.0000 </r>
       <r>   76.5352    0.0000 </r>
       <r>   77.8515    0.0000 </r>
       <r>   77.8515    0.0000 </r>
       <r>   79.1664    0.0000 </r>
       <r>   79.1664    0.0000 </r>
       <r>   79.2140    0.0000 </r>
       <r>   79.9881    0.0000 </r>
       <r>   80.3046    0.0000 </r>
       <r>   81.1203    0.0000 </r>
       <r>   81.2091    0.0000 </r>
      </set>
      <set comment="kpoint 4">
       <r>  -41.6223    1.0000 </r>
       <r>  -41.6223    1.0000 </r>
       <r>  -41.6219    1.0000 </r>
       <r>  -41.6214    1.0000 </r>
       <r>  -41.6214    1.0000 </r>
       <r>  -17.2919    1.0000 </r>
       <r>   -4.1488    1.0000 </r>
       <r>   -2.6329    1.0000 </r>
       <r>   -2.6329    1.0000 </r>
       <r>    4.2687    0.0000 </r>
       <r>    7.3472    0.0000 </r>
       <r>    7.3472    0.0000 </r>
       <r>    7.8917    0.0000 </r>
       <r>    9.7527    0.0000 </r>
       <r>   12.1056    0.0000 </r>
       <r>   12.1056    0.0000 </r>
       <r>   12.3463    0.0000 </r>
       <r>   12.3463    0.0000 </r>
       <r>   12.8828    0.0000 </r>
       <r>   16.4584    0.0000 </r>
       <r>   16.8541    0.0000 </r>
       <r>   16.8541    0.0000 </r>
       <r>   18.4741    0.0000 </r>
       <r>   19.5622    0.0000 </r>
       <r>   20.8818    0.0000 </r>
       <r>   20.8818    0.0000 </r>
       <r>   20.8856    0.0000 </r>
       <r>   21.5725    0.0000 </r>
       <r>   21.5725    0.0000 </r>
       <r>   23.8826    0.0000 </r>
       <r>   24.4745    0.0000 </r>
       <r>   25.5590    0.0000 </r>
       <r>   25.5590    0.0000 </r>
       <r>   26.1428    0.0000 </r>
       <r>   26.1428    0.0000 </r>
       <r>   26.8989    0.0000 </r>
       <r>   27.4929    0.0000 </r>
       <r>   29.6692    0.0000 </r>
       <r>   29.6692    0.0000 </r>
       <r>   29.7391    0.0000 </r>
       <r>   30.9537    0.0000 </r>
       <r>   30.9537    0.0000 </r>
       <r>   34.0794    0.0000 </r>
       <r>   34.0794    0.0000 </r>
       <r>   34.5972    0.0000 </r>
       <r>   34.9066    0.0000 </r>
       <r>   34.9066    0.0000 </r>
       <r>   37.3885    0.0000 </r>
       <r>   37.5500    0.0000 </r>
       <r>   37.5500    0.0000 </r>
       <r>   37.8054    0.0000 </r>
       <r>   41.1761    0.0000 </r>
       <r>   41.1761    0.0000 </r>
       <r>   41.5341    0.0000 </r>
       <r>   42.0487    0.0000 </r>
       <r>   42.7898    0.0000 </r>
       <r>   43.5542    0.0000 </r>
       <r>   43.5542    0.0000 </r>
       <r>   44.7612    0.0000 </r>
       <r>   44.7612    0.0000 </r>
       <r>   45.0513    0.0000 </r>
       <r>   46.7285    0.0000 </r>
       <r>   46.7285    0.0000 </r>
       <r>   48.3132    0.0000 </r>
       <r>   48.3132    0.0000 </r>
       <r>   48.7716    0.0000 </r>
       <r>   48.9510    0.0000 </r>
       <r>   49.1375    0.0000 </r>
       <r>   50.0999    0.0000 </r>
       <r>   50.0999    0.0000 </r>
       <r>   51.2879    0.0000 </r>
       <r>   51.7263    0.0000 </r>
       <r>   51.7263    0.0000 </r>
       <r>   52.5991    0.0000 </r>
       <r>   52.6969    0.0000 </r>
       <r>   52.7353    0.0000 </r>
       <r>   52.7353    0.0000 </r>
       <r>   53.9302    0.0000 </r>
       <r>   53.9302    0.0000 </r>
       <r>   54.3898    0.0000 </r>
       <r>   56.3546    0.0000 </r>
       <r>   56.3546    0.0000 </r>
       <r>   57.2919    0.0000 </r>
       <r>   57.2919    0.0000 </r>
       <r>   59.1613    0.0000 </r>
       <r>   59.6634    0.0000 </r>
       <r>   59.6634    0.0000 </r>
       <r>   60.9865    0.0000 </r>
       <r>   60.9865    0.0000 </r>
       <r>   61.2047    0.0000 </r>
       <r>   64.6918    0.0000 </r>
       <r>   65.5600    0.0000 </r>
       <r>   65.5600    0.0000 </r>
       <r>   65.6577    0.0000 </r>
       <r>   65.6577    0.0000 </r>
       <r>   66.3969    0.0000 </r>
       <r>   66.5175    0.0000 </r>
       <r>   66.5952    0.0000 </r>
       <r>   68.0715    0.0000 </r>
       <r>   68.0715    0.0000 </r>
       <r>   68.8153    0.0000 </r>
       <r>   68.9790    0.0000 </r>
       <r>   69.1591    0.0000 </r>
       <r>   70.1380    0.0000 </r>
       <r>   70.1380    0.0000 </r>
       <r>   70.6420    0.0000 </r>
       <r>   71.5190    0.0000 </r>
       <r>   71.5190    0.0000 </r>
       <r>   72.2410    0.0000 </r>
       <r>   72.2410    0.0000 </r>
       <r>   73.5823    0.0000 </r>
       <r>   73.5823    0.0000 </r>
       <r>   73.8940    0.0000 </r>
       <r>   74.1015    0.0000 </r>
       <r>   74.1015    0.0000 </r>
       <r>   76.0518    0.0000 </r>
       <r>   76.4558    0.0000 </r>
       <r>   76.5002    0.0000 </r>
       <r>   77.0762    0.0000 </r>
       <r>   77.0762    0.0000 </r>
       <r>   78.8686    0.0000 </r>
       <r>   78.8686    0.0000 </r>
       <r>   79.2707    0.0000 </r>
       <r>   79.6067    0.0000 </r>
       <r>   79.6067    0.0000 </r>
       <r>   80.0099    0.0000 </r>
       <r>   80.3804    0.0000 </r>
       <r>   80.3804    0.0000 </r>
      </set>
      <set comment="kpoint 5">
       <r>  -41.6224    1.0000 </r>
       <r>  -41.6224    1.0000 </r>
       <r>  -41.6224    1.0000 </r>
       <r>  -41.6220    1.0000 </r>
       <r>  -41.6220    1.0000 </r>
       <r>  -17.3907    1.0000 </r>
       <r>   -2.9760    1.0000 </r>
       <r>   -2.4761    1.0000 </r>
       <r>   -2.4761    1.0000 </r>
       <r>    3.2415    0.0000 </r>
       <r>    6.9868    0.0000 </r>
       <r>    7.8876    0.0000 </r>
       <r>    7.8876    0.0000 </r>
       <r>    9.3623    0.0000 </r>
       <r>    9.3623    0.0000 </r>
       <r>   10.2419    0.0000 </r>
       <r>   11.4046    0.0000 </r>
       <r>   13.0015    0.0000 </r>
       <r>   13.0015    0.0000 </r>
       <r>   15.7046    0.0000 </r>
       <r>   17.2779    0.0000 </r>
       <r>   17.2779    0.0000 </r>
       <r>   18.2837    0.0000 </r>
       <r>   18.9927    0.0000 </r>
       <r>   21.0965    0.0000 </r>
       <r>   21.0965    0.0000 </r>
       <r>   22.6020    0.0000 </r>
       <r>   23.5266    0.0000 </r>
       <r>   23.5969    0.0000 </r>
       <r>   23.5969    0.0000 </r>
       <r>   24.9956    0.0000 </r>
       <r>   24.9956    0.0000 </r>
       <r>   25.8407    0.0000 </r>
       <r>   26.7221    0.0000 </r>
       <r>   26.7222    0.0000 </r>
       <r>   29.6389    0.0000 </r>
       <r>   31.5356    0.0000 </r>
       <r>   31.6092    0.0000 </r>
       <r>   31.7159    0.0000 </r>
       <r>   31.7159    0.0000 </r>
       <r>   32.7220    0.0000 </r>
       <r>   32.7220    0.0000 </r>
       <r>   34.7019    0.0000 </r>
       <r>   34.7019    0.0000 </r>
       <r>   35.2768    0.0000 </r>
       <r>   35.4768    0.0000 </r>
       <r>   35.4768    0.0000 </r>
       <r>   36.1630    0.0000 </r>
       <r>   36.1630    0.0000 </r>
       <r>   36.4529    0.0000 </r>
       <r>   36.5965    0.0000 </r>
       <r>   38.3722    0.0000 </r>
       <r>   38.4663    0.0000 </r>
       <r>   38.4663    0.0000 </r>
       <r>   39.8766    0.0000 </r>
       <r>   40.0669    0.0000 </r>
       <r>   40.0669    0.0000 </r>
       <r>   42.0101    0.0000 </r>
       <r>   42.0101    0.0000 </r>
       <r>   42.7647    0.0000 </r>
       <r>   43.2034    0.0000 </r>
       <r>   43.4837    0.0000 </r>
       <r>   43.7890    0.0000 </r>
       <r>   43.7890    0.0000 </r>
       <r>   45.0130    0.0000 </r>
       <r>   45.0130    0.0000 </r>
       <r>   45.4638    0.0000 </r>
       <r>   46.1057    0.0000 </r>
       <r>   46.1057    0.0000 </r>
       <r>   47.3901    0.0000 </r>
       <r>   49.7063    0.0000 </r>
       <r>   52.0986    0.0000 </r>
       <r>   52.0986    0.0000 </r>
       <r>   52.9434    0.0000 </r>
       <r>   57.2680    0.0000 </r>
       <r>   57.2680    0.0000 </r>
       <r>   58.4653    0.0000 </r>
       <r>   58.9668    0.0000 </r>
       <r>   58.9668    0.0000 </r>
       <r>   59.6540    0.0000 </r>
       <r>   61.1474    0.0000 </r>
       <r>   61.5684    0.0000 </r>
       <r>   61.6863    0.0000 </r>
       <r>   61.6863    0.0000 </r>
       <r>   62.3322    0.0000 </r>
       <r>   62.3322    0.0000 </r>
       <r>   63.4358    0.0000 </r>
       <r>   63.4358    0.0000 </r>
       <r>   64.2120    0.0000 </r>
       <r>   64.6229    0.0000 </r>
       <r>   64.6229    0.0000 </r>
       <r>   65.5620    0.0000 </r>
       <r>   65.5620    0.0000 </r>
       <r>   66.2822    0.0000 </r>
       <r>   66.4652    0.0000 </r>
       <r>   66.4652    0.0000 </r>
       <r>   67.6319    0.0000 </r>
       <r>   67.8211    0.0000 </r>
       <r>   67.8211    0.0000 </r>
       <r>   67.8949    0.0000 </r>
       <r>   69.2138    0.0000 </r>
       <r>   69.2138    0.0000 </r>
       <r>   69.4293    0.0000 </r>
       <r>   69.4807    0.0000 </r>
       <r>   69.4807    0.0000 </r>
       <r>   70.1447    0.0000 </r>
       <r>   70.7930    0.0000 </r>
       <r>   72.6285    0.0000 </r>
       <r>   72.6285    0.0000 </r>
       <r>   72.7242    0.0000 </r>
       <r>   72.7242    0.0000 </r>
       <r>   73.3556    0.0000 </r>
       <r>   73.8260    0.0000 </r>
       <r>   73.8260    0.0000 </r>
       <r>   74.4129    0.0000 </r>
       <r>   74.7186    0.0000 </r>
       <r>   74.8114    0.0000 </r>
       <r>   74.8114    0.0000 </r>
       <r>   76.1759    0.0000 </r>
       <r>   76.4077    0.0000 </r>
       <r>   76.4077    0.0000 </r>
       <r>   76.6623    0.0000 </r>
       <r>   78.1010    0.0000 </r>
       <r>   78.1010    0.0000 </r>
       <r>   79.0971    0.0000 </r>
       <r>   79.4061    0.0000 </r>
       <r>   79.4061    0.0000 </r>
       <r>   79.9064    0.0000 </r>
      </set>
      <set comment="kpoint 6">
       <r>  -41.6226    1.0000 </r>
       <r>  -41.6222    1.0000 </r>
       <r>  -41.6222    1.0000 </r>
       <r>  -41.6221    1.0000 </r>
       <r>  -41.6219    1.0000 </r>
       <r>  -17.3801    1.0000 </r>
       <r>   -2.9682    1.0000 </r>
       <r>   -2.5879    1.0000 </r>
       <r>   -2.5879    1.0000 </r>
       <r>    3.5254    0.0000 </r>
       <r>    6.5443    0.0000 </r>
       <r>    7.9907    0.0000 </r>
       <r>    8.2348    0.0000 </r>
       <r>    8.2348    0.0000 </r>
       <r>   10.3554    0.0000 </r>
       <r>   11.3020    0.0000 </r>
       <r>   12.1609    0.0000 </r>
       <r>   12.1609    0.0000 </r>
       <r>   12.5503    0.0000 </r>
       <r>   16.4646    0.0000 </r>
       <r>   17.1673    0.0000 </r>
       <r>   17.4957    0.0000 </r>
       <r>   17.4957    0.0000 </r>
       <r>   19.2200    0.0000 </r>
       <r>   20.4408    0.0000 </r>
       <r>   20.4408    0.0000 </r>
       <r>   22.5087    0.0000 </r>
       <r>   23.1095    0.0000 </r>
       <r>   23.1095    0.0000 </r>
       <r>   23.4821    0.0000 </r>
       <r>   24.7367    0.0000 </r>
       <r>   25.6667    0.0000 </r>
       <r>   25.9993    0.0000 </r>
       <r>   27.7090    0.0000 </r>
       <r>   27.7090    0.0000 </r>
       <r>   29.1481    0.0000 </r>
       <r>   30.5489    0.0000 </r>
       <r>   30.5489    0.0000 </r>
       <r>   31.8331    0.0000 </r>
       <r>   32.4594    0.0000 </r>
       <r>   32.7141    0.0000 </r>
       <r>   32.7141    0.0000 </r>
       <r>   33.0677    0.0000 </r>
       <r>   34.4736    0.0000 </r>
       <r>   35.1655    0.0000 </r>
       <r>   35.7467    0.0000 </r>
       <r>   36.1875    0.0000 </r>
       <r>   36.1875    0.0000 </r>
       <r>   36.2846    0.0000 </r>
       <r>   37.5827    0.0000 </r>
       <r>   37.7087    0.0000 </r>
       <r>   37.7087    0.0000 </r>
       <r>   38.6018    0.0000 </r>
       <r>   38.9983    0.0000 </r>
       <r>   38.9983    0.0000 </r>
       <r>   39.3404    0.0000 </r>
       <r>   39.3404    0.0000 </r>
       <r>   40.5286    0.0000 </r>
       <r>   42.1311    0.0000 </r>
       <r>   43.0708    0.0000 </r>
       <r>   43.3135    0.0000 </r>
       <r>   43.8425    0.0000 </r>
       <r>   43.8425    0.0000 </r>
       <r>   44.8040    0.0000 </r>
       <r>   45.9057    0.0000 </r>
       <r>   46.1699    0.0000 </r>
       <r>   46.1699    0.0000 </r>
       <r>   47.2369    0.0000 </r>
       <r>   47.7135    0.0000 </r>
       <r>   47.7135    0.0000 </r>
       <r>   49.2309    0.0000 </r>
       <r>   50.1220    0.0000 </r>
       <r>   54.8627    0.0000 </r>
       <r>   55.1262    0.0000 </r>
       <r>   57.0047    0.0000 </r>
       <r>   57.0047    0.0000 </r>
       <r>   57.6206    0.0000 </r>
       <r>   58.1915    0.0000 </r>
       <r>   58.1915    0.0000 </r>
       <r>   58.2016    0.0000 </r>
       <r>   59.5212    0.0000 </r>
       <r>   60.1211    0.0000 </r>
       <r>   60.1211    0.0000 </r>
       <r>   60.4145    0.0000 </r>
       <r>   62.0003    0.0000 </r>
       <r>   62.1185    0.0000 </r>
       <r>   62.1185    0.0000 </r>
       <r>   62.6297    0.0000 </r>
       <r>   63.7218    0.0000 </r>
       <r>   64.0441    0.0000 </r>
       <r>   64.8602    0.0000 </r>
       <r>   64.8602    0.0000 </r>
       <r>   65.6330    0.0000 </r>
       <r>   65.8775    0.0000 </r>
       <r>   65.8775    0.0000 </r>
       <r>   66.3896    0.0000 </r>
       <r>   66.6785    0.0000 </r>
       <r>   67.1960    0.0000 </r>
       <r>   68.9760    0.0000 </r>
       <r>   69.1193    0.0000 </r>
       <r>   69.1193    0.0000 </r>
       <r>   69.2079    0.0000 </r>
       <r>   70.1770    0.0000 </r>
       <r>   71.0415    0.0000 </r>
       <r>   71.0415    0.0000 </r>
       <r>   71.5566    0.0000 </r>
       <r>   71.9961    0.0000 </r>
       <r>   72.6608    0.0000 </r>
       <r>   72.6608    0.0000 </r>
       <r>   73.5617    0.0000 </r>
       <r>   73.7985    0.0000 </r>
       <r>   73.9776    0.0000 </r>
       <r>   73.9776    0.0000 </r>
       <r>   74.2079    0.0000 </r>
       <r>   74.2079    0.0000 </r>
       <r>   74.2668    0.0000 </r>
       <r>   75.3108    0.0000 </r>
       <r>   75.3108    0.0000 </r>
       <r>   75.8063    0.0000 </r>
       <r>   76.6345    0.0000 </r>
       <r>   76.6380    0.0000 </r>
       <r>   77.1577    0.0000 </r>
       <r>   77.6175    0.0000 </r>
       <r>   78.2465    0.0000 </r>
       <r>   78.2599    0.0000 </r>
       <r>   78.2599    0.0000 </r>
       <r>   79.7070    0.0000 </r>
       <r>   79.7070    0.0000 </r>
      </set>
      <set comment="kpoint 7">
       <r>  -41.6224    1.0000 </r>
       <r>  -41.6221    1.0000 </r>
       <r>  -41.6221    1.0000 </r>
       <r>  -41.6217    1.0000 </r>
       <r>  -41.6215    1.0000 </r>
       <r>  -17.3255    1.0000 </r>
       <r>   -3.5819    1.0000 </r>
       <r>   -2.7384    1.0000 </r>
       <r>   -2.7178    1.0000 </r>
       <r>    4.5227    0.0000 </r>
       <r>    6.2931    0.0000 </r>
       <r>    6.9799    0.0000 </r>
       <r>    8.3696    0.0000 </r>
       <r>    9.4026    0.0000 </r>
       <r>   10.8750    0.0000 </r>
       <r>   11.2358    0.0000 </r>
       <r>   13.5171    0.0000 </r>
       <r>   13.8981    0.0000 </r>
       <r>   14.7154    0.0000 </r>
       <r>   14.7854    0.0000 </r>
       <r>   15.1553    0.0000 </r>
       <r>   17.5652    0.0000 </r>
       <r>   18.1205    0.0000 </r>
       <r>   18.4356    0.0000 </r>
       <r>   19.4837    0.0000 </r>
       <r>   20.2751    0.0000 </r>
       <r>   21.5854    0.0000 </r>
       <r>   22.2143    0.0000 </r>
       <r>   22.4327    0.0000 </r>
       <r>   23.2124    0.0000 </r>
       <r>   24.7714    0.0000 </r>
       <r>   26.0464    0.0000 </r>
       <r>   26.0980    0.0000 </r>
       <r>   27.0656    0.0000 </r>
       <r>   27.3637    0.0000 </r>
       <r>   28.9963    0.0000 </r>
       <r>   29.4128    0.0000 </r>
       <r>   29.9729    0.0000 </r>
       <r>   30.3990    0.0000 </r>
       <r>   30.9506    0.0000 </r>
       <r>   31.6876    0.0000 </r>
       <r>   32.4673    0.0000 </r>
       <r>   32.8214    0.0000 </r>
       <r>   33.8929    0.0000 </r>
       <r>   33.9257    0.0000 </r>
       <r>   35.7226    0.0000 </r>
       <r>   35.9769    0.0000 </r>
       <r>   36.4626    0.0000 </r>
       <r>   37.4802    0.0000 </r>
       <r>   37.6221    0.0000 </r>
       <r>   38.0814    0.0000 </r>
       <r>   38.2865    0.0000 </r>
       <r>   39.0714    0.0000 </r>
       <r>   39.2446    0.0000 </r>
       <r>   39.9944    0.0000 </r>
       <r>   40.1874    0.0000 </r>
       <r>   41.7399    0.0000 </r>
       <r>   42.5156    0.0000 </r>
       <r>   42.5490    0.0000 </r>
       <r>   43.3551    0.0000 </r>
       <r>   44.7579    0.0000 </r>
       <r>   45.9610    0.0000 </r>
       <r>   46.0884    0.0000 </r>
       <r>   47.2217    0.0000 </r>
       <r>   47.4662    0.0000 </r>
       <r>   48.7276    0.0000 </r>
       <r>   48.7598    0.0000 </r>
       <r>   48.9032    0.0000 </r>
       <r>   50.6294    0.0000 </r>
       <r>   50.6794    0.0000 </r>
       <r>   51.3793    0.0000 </r>
       <r>   52.1100    0.0000 </r>
       <r>   52.9921    0.0000 </r>
       <r>   53.0776    0.0000 </r>
       <r>   53.3877    0.0000 </r>
       <r>   54.1174    0.0000 </r>
       <r>   54.8324    0.0000 </r>
       <r>   55.4543    0.0000 </r>
       <r>   55.6326    0.0000 </r>
       <r>   56.2774    0.0000 </r>
       <r>   57.0746    0.0000 </r>
       <r>   57.9168    0.0000 </r>
       <r>   58.5173    0.0000 </r>
       <r>   59.2493    0.0000 </r>
       <r>   59.6494    0.0000 </r>
       <r>   60.1579    0.0000 </r>
       <r>   60.7901    0.0000 </r>
       <r>   61.2328    0.0000 </r>
       <r>   61.9660    0.0000 </r>
       <r>   61.9996    0.0000 </r>
       <r>   62.6903    0.0000 </r>
       <r>   63.7014    0.0000 </r>
       <r>   64.4382    0.0000 </r>
       <r>   64.5281    0.0000 </r>
       <r>   65.7579    0.0000 </r>
       <r>   66.1737    0.0000 </r>
       <r>   66.5661    0.0000 </r>
       <r>   68.0994    0.0000 </r>
       <r>   68.1099    0.0000 </r>
       <r>   68.8164    0.0000 </r>
       <r>   69.1981    0.0000 </r>
       <r>   69.4977    0.0000 </r>
       <r>   70.3552    0.0000 </r>
       <r>   70.7968    0.0000 </r>
       <r>   71.2450    0.0000 </r>
       <r>   71.7102    0.0000 </r>
       <r>   71.9556    0.0000 </r>
       <r>   72.1219    0.0000 </r>
       <r>   72.7657    0.0000 </r>
       <r>   73.1464    0.0000 </r>
       <r>   73.8107    0.0000 </r>
       <r>   74.1161    0.0000 </r>
       <r>   74.7049    0.0000 </r>
       <r>   74.7211    0.0000 </r>
       <r>   75.1683    0.0000 </r>
       <r>   75.4567    0.0000 </r>
       <r>   75.5909    0.0000 </r>
       <r>   76.7618    0.0000 </r>
       <r>   76.9662    0.0000 </r>
       <r>   77.4204    0.0000 </r>
       <r>   77.5168    0.0000 </r>
       <r>   78.2774    0.0000 </r>
       <r>   78.4322    0.0000 </r>
       <r>   78.9784    0.0000 </r>
       <r>   79.3728    0.0000 </r>
       <r>   79.5658    0.0000 </r>
       <r>   80.2497    0.0000 </r>
       <r>   80.8633    0.0000 </r>
      </set>
      <set comment="kpoint 8">
       <r>  -41.6223    1.0000 </r>
       <r>  -41.6221    1.0000 </r>
       <r>  -41.6219    1.0000 </r>
       <r>  -41.6215    1.0000 </r>
       <r>  -41.6213    1.0000 </r>
       <r>  -17.2812    1.0000 </r>
       <r>   -3.9937    1.0000 </r>
       <r>   -2.9406    1.0000 </r>
       <r>   -2.7407    1.0000 </r>
       <r>    4.8992    0.0000 </r>
       <r>    6.3369    0.0000 </r>
       <r>    7.6219    0.0000 </r>
       <r>    7.9417    0.0000 </r>
       <r>   10.3075    0.0000 </r>
       <r>   11.2869    0.0000 </r>
       <r>   12.0140    0.0000 </r>
       <r>   12.7149    0.0000 </r>
       <r>   12.7684    0.0000 </r>
       <r>   15.5652    0.0000 </r>
       <r>   16.1674    0.0000 </r>
       <r>   16.1757    0.0000 </r>
       <r>   16.5853    0.0000 </r>
       <r>   17.7571    0.0000 </r>
       <r>   19.3684    0.0000 </r>
       <r>   19.5787    0.0000 </r>
       <r>   20.1574    0.0000 </r>
       <r>   20.4451    0.0000 </r>
       <r>   21.8268    0.0000 </r>
       <r>   21.8348    0.0000 </r>
       <r>   24.0339    0.0000 </r>
       <r>   24.3170    0.0000 </r>
       <r>   24.7168    0.0000 </r>
       <r>   25.0243    0.0000 </r>
       <r>   26.3424    0.0000 </r>
       <r>   26.6431    0.0000 </r>
       <r>   27.1236    0.0000 </r>
       <r>   28.2464    0.0000 </r>
       <r>   29.2924    0.0000 </r>
       <r>   30.0839    0.0000 </r>
       <r>   30.1073    0.0000 </r>
       <r>   31.5182    0.0000 </r>
       <r>   31.8652    0.0000 </r>
       <r>   32.7429    0.0000 </r>
       <r>   33.6064    0.0000 </r>
       <r>   34.2622    0.0000 </r>
       <r>   35.7264    0.0000 </r>
       <r>   36.1230    0.0000 </r>
       <r>   36.2326    0.0000 </r>
       <r>   38.2554    0.0000 </r>
       <r>   38.7510    0.0000 </r>
       <r>   39.5298    0.0000 </r>
       <r>   39.6701    0.0000 </r>
       <r>   40.6035    0.0000 </r>
       <r>   40.6069    0.0000 </r>
       <r>   41.4521    0.0000 </r>
       <r>   42.1449    0.0000 </r>
       <r>   42.7703    0.0000 </r>
       <r>   43.4899    0.0000 </r>
       <r>   44.6708    0.0000 </r>
       <r>   44.8265    0.0000 </r>
       <r>   45.7109    0.0000 </r>
       <r>   46.8247    0.0000 </r>
       <r>   46.9989    0.0000 </r>
       <r>   47.8252    0.0000 </r>
       <r>   47.8385    0.0000 </r>
       <r>   48.7245    0.0000 </r>
       <r>   49.0589    0.0000 </r>
       <r>   49.3785    0.0000 </r>
       <r>   49.4725    0.0000 </r>
       <r>   50.4538    0.0000 </r>
       <r>   50.9477    0.0000 </r>
       <r>   51.1692    0.0000 </r>
       <r>   52.6266    0.0000 </r>
       <r>   53.0246    0.0000 </r>
       <r>   53.5836    0.0000 </r>
       <r>   54.1367    0.0000 </r>
       <r>   54.4165    0.0000 </r>
       <r>   54.7724    0.0000 </r>
       <r>   54.9554    0.0000 </r>
       <r>   56.0529    0.0000 </r>
       <r>   56.2076    0.0000 </r>
       <r>   57.5800    0.0000 </r>
       <r>   57.7435    0.0000 </r>
       <r>   58.2204    0.0000 </r>
       <r>   58.5026    0.0000 </r>
       <r>   58.7739    0.0000 </r>
       <r>   59.8277    0.0000 </r>
       <r>   60.0042    0.0000 </r>
       <r>   60.7354    0.0000 </r>
       <r>   61.5758    0.0000 </r>
       <r>   62.7431    0.0000 </r>
       <r>   62.8805    0.0000 </r>
       <r>   63.4977    0.0000 </r>
       <r>   63.6091    0.0000 </r>
       <r>   63.7816    0.0000 </r>
       <r>   65.5501    0.0000 </r>
       <r>   66.5480    0.0000 </r>
       <r>   66.8569    0.0000 </r>
       <r>   67.3432    0.0000 </r>
       <r>   68.1016    0.0000 </r>
       <r>   68.6596    0.0000 </r>
       <r>   68.6981    0.0000 </r>
       <r>   69.3037    0.0000 </r>
       <r>   69.3168    0.0000 </r>
       <r>   69.8123    0.0000 </r>
       <r>   70.1205    0.0000 </r>
       <r>   71.1102    0.0000 </r>
       <r>   72.3927    0.0000 </r>
       <r>   72.7844    0.0000 </r>
       <r>   73.1482    0.0000 </r>
       <r>   73.7155    0.0000 </r>
       <r>   73.8555    0.0000 </r>
       <r>   74.1658    0.0000 </r>
       <r>   74.3500    0.0000 </r>
       <r>   74.6927    0.0000 </r>
       <r>   75.8104    0.0000 </r>
       <r>   75.8359    0.0000 </r>
       <r>   76.8513    0.0000 </r>
       <r>   77.7510    0.0000 </r>
       <r>   77.7747    0.0000 </r>
       <r>   78.3410    0.0000 </r>
       <r>   78.6785    0.0000 </r>
       <r>   78.8340    0.0000 </r>
       <r>   79.1688    0.0000 </r>
       <r>   79.3311    0.0000 </r>
       <r>   80.1353    0.0000 </r>
       <r>   80.7052    0.0000 </r>
       <r>   81.2106    0.0000 </r>
      </set>
      <set comment="kpoint 9">
       <r>  -41.6223    1.0000 </r>
       <r>  -41.6221    1.0000 </r>
       <r>  -41.6219    1.0000 </r>
       <r>  -41.6216    1.0000 </r>
       <r>  -41.6214    1.0000 </r>
       <r>  -17.2923    1.0000 </r>
       <r>   -3.8878    1.0000 </r>
       <r>   -3.0045    1.0000 </r>
       <r>   -2.6367    1.0000 </r>
       <r>    4.9709    0.0000 </r>
       <r>    6.5002    0.0000 </r>
       <r>    7.3094    0.0000 </r>
       <r>    7.8535    0.0000 </r>
       <r>    9.8066    0.0000 </r>
       <r>   11.0411    0.0000 </r>
       <r>   11.5100    0.0000 </r>
       <r>   12.7426    0.0000 </r>
       <r>   14.3766    0.0000 </r>
       <r>   15.1765    0.0000 </r>
       <r>   15.3980    0.0000 </r>
       <r>   16.0363    0.0000 </r>
       <r>   16.8170    0.0000 </r>
       <r>   17.7327    0.0000 </r>
       <r>   19.0610    0.0000 </r>
       <r>   19.9498    0.0000 </r>
       <r>   20.8659    0.0000 </r>
       <r>   20.9625    0.0000 </r>
       <r>   21.3149    0.0000 </r>
       <r>   22.2013    0.0000 </r>
       <r>   23.4748    0.0000 </r>
       <r>   23.9744    0.0000 </r>
       <r>   24.1960    0.0000 </r>
       <r>   25.5806    0.0000 </r>
       <r>   26.3403    0.0000 </r>
       <r>   27.2728    0.0000 </r>
       <r>   27.9388    0.0000 </r>
       <r>   29.0338    0.0000 </r>
       <r>   29.2116    0.0000 </r>
       <r>   30.1759    0.0000 </r>
       <r>   30.4165    0.0000 </r>
       <r>   31.5420    0.0000 </r>
       <r>   31.7929    0.0000 </r>
       <r>   33.0317    0.0000 </r>
       <r>   33.2348    0.0000 </r>
       <r>   34.2250    0.0000 </r>
       <r>   35.2050    0.0000 </r>
       <r>   35.9438    0.0000 </r>
       <r>   36.4684    0.0000 </r>
       <r>   37.1683    0.0000 </r>
       <r>   38.1775    0.0000 </r>
       <r>   38.7416    0.0000 </r>
       <r>   39.2124    0.0000 </r>
       <r>   41.1108    0.0000 </r>
       <r>   41.5643    0.0000 </r>
       <r>   42.3141    0.0000 </r>
       <r>   42.4069    0.0000 </r>
       <r>   42.6630    0.0000 </r>
       <r>   43.2026    0.0000 </r>
       <r>   43.9201    0.0000 </r>
       <r>   44.4490    0.0000 </r>
       <r>   45.2732    0.0000 </r>
       <r>   46.2332    0.0000 </r>
       <r>   46.6154    0.0000 </r>
       <r>   46.7656    0.0000 </r>
       <r>   47.6561    0.0000 </r>
       <r>   48.4641    0.0000 </r>
       <r>   48.5592    0.0000 </r>
       <r>   49.4678    0.0000 </r>
       <r>   49.7755    0.0000 </r>
       <r>   50.6546    0.0000 </r>
       <r>   50.9127    0.0000 </r>
       <r>   51.4366    0.0000 </r>
       <r>   52.0981    0.0000 </r>
       <r>   52.8537    0.0000 </r>
       <r>   53.7223    0.0000 </r>
       <r>   54.5455    0.0000 </r>
       <r>   54.6197    0.0000 </r>
       <r>   54.9094    0.0000 </r>
       <r>   55.3320    0.0000 </r>
       <r>   55.9995    0.0000 </r>
       <r>   57.0394    0.0000 </r>
       <r>   57.4275    0.0000 </r>
       <r>   57.8490    0.0000 </r>
       <r>   58.3158    0.0000 </r>
       <r>   58.3766    0.0000 </r>
       <r>   60.1183    0.0000 </r>
       <r>   60.2252    0.0000 </r>
       <r>   60.7554    0.0000 </r>
       <r>   60.9760    0.0000 </r>
       <r>   61.6809    0.0000 </r>
       <r>   62.3881    0.0000 </r>
       <r>   63.0690    0.0000 </r>
       <r>   63.3511    0.0000 </r>
       <r>   64.2623    0.0000 </r>
       <r>   64.8662    0.0000 </r>
       <r>   65.3996    0.0000 </r>
       <r>   65.7841    0.0000 </r>
       <r>   66.5697    0.0000 </r>
       <r>   67.3333    0.0000 </r>
       <r>   67.5976    0.0000 </r>
       <r>   67.9010    0.0000 </r>
       <r>   68.6583    0.0000 </r>
       <r>   69.5447    0.0000 </r>
       <r>   69.7339    0.0000 </r>
       <r>   70.2088    0.0000 </r>
       <r>   70.8635    0.0000 </r>
       <r>   71.7352    0.0000 </r>
       <r>   72.2592    0.0000 </r>
       <r>   72.3764    0.0000 </r>
       <r>   73.5975    0.0000 </r>
       <r>   73.8665    0.0000 </r>
       <r>   74.3148    0.0000 </r>
       <r>   74.4674    0.0000 </r>
       <r>   74.4964    0.0000 </r>
       <r>   75.6657    0.0000 </r>
       <r>   76.4220    0.0000 </r>
       <r>   76.4947    0.0000 </r>
       <r>   76.8324    0.0000 </r>
       <r>   77.5450    0.0000 </r>
       <r>   77.8775    0.0000 </r>
       <r>   78.6252    0.0000 </r>
       <r>   78.7656    0.0000 </r>
       <r>   79.0412    0.0000 </r>
       <r>   79.4082    0.0000 </r>
       <r>   80.0504    0.0000 </r>
       <r>   80.5717    0.0000 </r>
       <r>   81.0804    0.0000 </r>
       <r>   81.5700    0.0000 </r>
      </set>
      <set comment="kpoint 10">
       <r>  -41.6222    1.0000 </r>
       <r>  -41.6221    1.0000 </r>
       <r>  -41.6221    1.0000 </r>
       <r>  -41.6220    1.0000 </r>
       <r>  -41.6215    1.0000 </r>
       <r>  -17.3470    1.0000 </r>
       <r>   -3.4028    1.0000 </r>
       <r>   -2.7912    1.0000 </r>
       <r>   -2.5022    1.0000 </r>
       <r>    4.2127    0.0000 </r>
       <r>    6.6070    0.0000 </r>
       <r>    7.3260    0.0000 </r>
       <r>    8.3199    0.0000 </r>
       <r>    8.3765    0.0000 </r>
       <r>   10.4569    0.0000 </r>
       <r>   11.6574    0.0000 </r>
       <r>   11.8557    0.0000 </r>
       <r>   13.4854    0.0000 </r>
       <r>   14.6280    0.0000 </r>
       <r>   15.0292    0.0000 </r>
       <r>   17.3813    0.0000 </r>
       <r>   17.5803    0.0000 </r>
       <r>   17.6432    0.0000 </r>
       <r>   18.5507    0.0000 </r>
       <r>   18.9400    0.0000 </r>
       <r>   20.7469    0.0000 </r>
       <r>   22.0189    0.0000 </r>
       <r>   22.7776    0.0000 </r>
       <r>   23.0165    0.0000 </r>
       <r>   23.3257    0.0000 </r>
       <r>   24.4676    0.0000 </r>
       <r>   25.6280    0.0000 </r>
       <r>   25.8657    0.0000 </r>
       <r>   27.0292    0.0000 </r>
       <r>   28.0923    0.0000 </r>
       <r>   29.2390    0.0000 </r>
       <r>   29.4615    0.0000 </r>
       <r>   30.8209    0.0000 </r>
       <r>   31.0147    0.0000 </r>
       <r>   31.8360    0.0000 </r>
       <r>   32.4028    0.0000 </r>
       <r>   32.5377    0.0000 </r>
       <r>   33.1099    0.0000 </r>
       <r>   33.3142    0.0000 </r>
       <r>   33.5472    0.0000 </r>
       <r>   35.1979    0.0000 </r>
       <r>   35.2431    0.0000 </r>
       <r>   36.1446    0.0000 </r>
       <r>   36.6293    0.0000 </r>
       <r>   36.7924    0.0000 </r>
       <r>   37.2337    0.0000 </r>
       <r>   37.7122    0.0000 </r>
       <r>   39.6355    0.0000 </r>
       <r>   40.1391    0.0000 </r>
       <r>   40.4261    0.0000 </r>
       <r>   41.7854    0.0000 </r>
       <r>   42.0176    0.0000 </r>
       <r>   42.1648    0.0000 </r>
       <r>   43.2301    0.0000 </r>
       <r>   44.0162    0.0000 </r>
       <r>   44.2677    0.0000 </r>
       <r>   44.4118    0.0000 </r>
       <r>   44.4648    0.0000 </r>
       <r>   45.0358    0.0000 </r>
       <r>   46.5468    0.0000 </r>
       <r>   46.5756    0.0000 </r>
       <r>   48.0285    0.0000 </r>
       <r>   48.5638    0.0000 </r>
       <r>   48.7432    0.0000 </r>
       <r>   49.4193    0.0000 </r>
       <r>   49.5356    0.0000 </r>
       <r>   52.3168    0.0000 </r>
       <r>   52.3175    0.0000 </r>
       <r>   53.9596    0.0000 </r>
       <r>   54.2210    0.0000 </r>
       <r>   55.5090    0.0000 </r>
       <r>   55.5847    0.0000 </r>
       <r>   57.1785    0.0000 </r>
       <r>   57.1887    0.0000 </r>
       <r>   57.7542    0.0000 </r>
       <r>   57.8446    0.0000 </r>
       <r>   57.8893    0.0000 </r>
       <r>   59.3163    0.0000 </r>
       <r>   59.8354    0.0000 </r>
       <r>   60.5831    0.0000 </r>
       <r>   61.0019    0.0000 </r>
       <r>   61.1631    0.0000 </r>
       <r>   62.8407    0.0000 </r>
       <r>   62.8996    0.0000 </r>
       <r>   63.0507    0.0000 </r>
       <r>   63.9324    0.0000 </r>
       <r>   64.7394    0.0000 </r>
       <r>   65.2089    0.0000 </r>
       <r>   65.9011    0.0000 </r>
       <r>   66.1221    0.0000 </r>
       <r>   66.3128    0.0000 </r>
       <r>   67.1109    0.0000 </r>
       <r>   67.1481    0.0000 </r>
       <r>   67.6510    0.0000 </r>
       <r>   67.9148    0.0000 </r>
       <r>   68.6518    0.0000 </r>
       <r>   68.7632    0.0000 </r>
       <r>   68.8684    0.0000 </r>
       <r>   69.6758    0.0000 </r>
       <r>   70.7030    0.0000 </r>
       <r>   71.5753    0.0000 </r>
       <r>   71.7753    0.0000 </r>
       <r>   71.9447    0.0000 </r>
       <r>   73.0368    0.0000 </r>
       <r>   73.2898    0.0000 </r>
       <r>   73.7694    0.0000 </r>
       <r>   74.3327    0.0000 </r>
       <r>   74.4687    0.0000 </r>
       <r>   74.8681    0.0000 </r>
       <r>   75.1529    0.0000 </r>
       <r>   75.9190    0.0000 </r>
       <r>   76.7859    0.0000 </r>
       <r>   76.9377    0.0000 </r>
       <r>   77.1147    0.0000 </r>
       <r>   77.2435    0.0000 </r>
       <r>   77.8619    0.0000 </r>
       <r>   78.4158    0.0000 </r>
       <r>   79.0772    0.0000 </r>
       <r>   79.5336    0.0000 </r>
       <r>   79.6589    0.0000 </r>
       <r>   79.7735    0.0000 </r>
       <r>   80.8250    0.0000 </r>
       <r>   81.1088    0.0000 </r>
      </set>
      <set comment="kpoint 11">
       <r>  -41.6222    1.0000 </r>
       <r>  -41.6222    1.0000 </r>
       <r>  -41.6220    1.0000 </r>
       <r>  -41.6215    1.0000 </r>
       <r>  -41.6215    1.0000 </r>
       <r>  -17.3249    1.0000 </r>
       <r>   -3.8079    1.0000 </r>
       <r>   -2.5821    1.0000 </r>
       <r>   -2.5821    1.0000 </r>
       <r>    4.1635    0.0000 </r>
       <r>    7.2172    0.0000 </r>
       <r>    7.5964    0.0000 </r>
       <r>    7.5964    0.0000 </r>
       <r>    9.5091    0.0000 </r>
       <r>   10.1555    0.0000 </r>
       <r>   10.1555    0.0000 </r>
       <r>   14.1683    0.0000 </r>
       <r>   14.8084    0.0000 </r>
       <r>   14.8084    0.0000 </r>
       <r>   15.1268    0.0000 </r>
       <r>   15.3832    0.0000 </r>
       <r>   15.3832    0.0000 </r>
       <r>   18.4088    0.0000 </r>
       <r>   18.6256    0.0000 </r>
       <r>   20.8981    0.0000 </r>
       <r>   20.8981    0.0000 </r>
       <r>   21.4933    0.0000 </r>
       <r>   22.5261    0.0000 </r>
       <r>   22.5261    0.0000 </r>
       <r>   23.5095    0.0000 </r>
       <r>   25.3180    0.0000 </r>
       <r>   25.3180    0.0000 </r>
       <r>   25.6942    0.0000 </r>
       <r>   26.7938    0.0000 </r>
       <r>   26.7938    0.0000 </r>
       <r>   27.3831    0.0000 </r>
       <r>   30.0783    0.0000 </r>
       <r>   30.1469    0.0000 </r>
       <r>   30.1469    0.0000 </r>
       <r>   30.2522    0.0000 </r>
       <r>   31.2823    0.0000 </r>
       <r>   31.2823    0.0000 </r>
       <r>   34.2856    0.0000 </r>
       <r>   34.3541    0.0000 </r>
       <r>   34.3541    0.0000 </r>
       <r>   35.0458    0.0000 </r>
       <r>   35.0458    0.0000 </r>
       <r>   37.0084    0.0000 </r>
       <r>   37.0084    0.0000 </r>
       <r>   37.1490    0.0000 </r>
       <r>   37.5081    0.0000 </r>
       <r>   38.4304    0.0000 </r>
       <r>   39.7149    0.0000 </r>
       <r>   39.7149    0.0000 </r>
       <r>   40.4836    0.0000 </r>
       <r>   41.4709    0.0000 </r>
[...]
     <r>     2.3262     0.0000     0.0000     0.0000     0.0000     0.0000     0.0000 </r>
     <r>     2.3362     0.0000     0.0000     0.0000     0.0000     0.0000     0.0000 </r>
     <r>     2.3462     0.0000     0.0000     0.0000     0.0000     0.0000     0.0000 </r>
     <r>     2.3562     0.0000     0.0000     0.0000     0.0000     0.0000     0.0000 </r>
     <r>     2.3663     0.0000     0.0000     0.0000     0.0000     0.0000     0.0000 </r>
     <r>     2.3763     0.0000     0.0000     0.0000     0.0000     0.0000     0.0000 </r>
     <r>     2.3863     0.0000     0.0000     0.0000     0.0000     0.0000     0.0000 </r>
     <r>     2.3963     0.0000     0.0000     0.0000     0.0000     0.0000     0.0000 </r>
     <r>     2.4063     0.0000     0.0000     0.0000     0.0000     0.0000     0.0000 </r>
     <r>     2.4163     0.0000     0.0000     0.0000     0.0000     0.0000     0.0000 </r>
     <r>     2.4263     0.0000     0.0000     0.0000     0.0000     0.0000     0.0000 </r>
     <r>     2.4363     0.0000     0.0000     0.0000     0.0000     0.0000     0.0000 </r>
     <r>     2.4463     0.0000     0.0000     0.0000     0.0000     0.0000     0.0000 </r>
     <r>     2.4563     0.0000     0.0000     0.0000    -0.0000    -0.0000     0.0000 </r>
     <r>     2.4664     0.0000     0.0000     0.0000     0.0000     0.0000     0.0000 </r>
     <r>     2.4764     0.0000     0.0000     0.0000     0.0000     0.0000     0.0000 </r>
     <r>     2.4864     0.0000     0.0000     0.0000     0.0000     0.0000     0.0000 </r>
     <r>     2.4964     0.0000     0.0000     0.0000     0.0000     0.0000     0.0000 </r>
     <r>     2.5064     0.0000     0.0000     0.0000     0.0000     0.0000     0.0000 </r>
     <r>     2.5164     0.0000     0.0000     0.0000     0.0000     0.0000     0.0000 </r>
     <r>     2.5264     0.0000     0.0000     0.0000     0.0000     0.0000     0.0000 </r>
     <r>     2.5364     0.0000     0.0000     0.0000     0.0000     0.0000     0.0000 </r>
     <r>     2.5464     0.0000     0.0000     0.0000     0.0000     0.0000     0.0000 </r>
     <r>     2.5564     0.0000     0.0000     0.0000     0.0000     0.0000     0.0000 </r>
     <r>     2.5665     0.0000     0.0000     0.0000     0.0000     0.0000     0.0000 </r>
     <r>     2.5765     0.0000     0.0000     0.0000     0.0000     0.0000     0.0000 </r>
     <r>     2.5865     0.0000     0.0000     0.0000     0.0000     0.0000     0.0000 </r>
     <r>     2.5965     0.0000     0.0000     0.0000     0.0000     0.0000     0.0000 </r>
     <r>     2.6065     0.0000     0.0000     0.0000     0.0000     0.0000     0.0000 </r>
     <r>     2.6165     0.0000     0.0000     0.0000     0.0000     0.0000     0.0000 </r>
     <r>     2.6265     0.0000     0.0000     0.0000     0.0000     0.0000     0.0000 </r>
     <r>     2.6365     0.0000     0.0000     0.0000     0.0000     0.0000     0.0000 </r>
     <r>     2.6465     0.0000     0.0000     0.0000     0.0000     0.0000     0.0000 </r>
     <r>     2.6565     0.0000     0.0000     0.0000     0.0000     0.0000     0.0000 </r>
     <r>     2.6666     0.0000     0.0000     0.0000     0.0000     0.0000     0.0000 </r>
     <r>     2.6766     0.0000     0.0000     0.0000     0.0000     0.0000     0.0000 </r>
     <r>     2.6866     0.0000     0.0000     0.0000     0.0000     0.0000     0.0000 </r>
     <r>     2.6966     0.0000     0.0000     0.0000     0.0000     0.0000     0.0000 </r>
     <r>     2.7066     0.0000     0.0000     0.0000     0.0000     0.0000     0.0000 </r>
     <r>     2.7166     0.0000     0.0000     0.0000     0.0000     0.0000     0.0000 </r>
     <r>     2.7266     0.0000     0.0000     0.0000     0.0000     0.0000     0.0000 </r>
     <r>     2.7366     0.0000     0.0000     0.0000     0.0000     0.0000     0.0000 </r>
     <r>     2.7466     0.0000     0.0000     0.0000     0.0000     0.0000     0.0000 </r>
     <r>     2.7566     0.0000     0.0000     0.0000     0.0000     0.0000     0.0000 </r>
    </set>
   </array>
  </conductivity>
  <dos>
   <i name="efermi">     -2.24335479 </i>
   <total>
    <array>
     <dimension dim="1">gridpoints</dimension>
     <dimension dim="2">spin</dimension>
     <field>energy</field>
     <field>total</field>
     <field>integrated</field>
     <set>
      <set comment="spin 1">
       <r>   -47.8951     0.0000     0.0000 </r>
       <r>   -47.4351     0.0000     0.0000 </r>
       <r>   -46.9752     0.0000     0.0000 </r>
       <r>   -46.5152     0.0000     0.0000 </r>
       <r>   -46.0552     0.0000     0.0000 </r>
       <r>   -45.5953     0.0000     0.0000 </r>
       <r>   -45.1353     0.0000     0.0000 </r>
       <r>   -44.6753     0.0000     0.0000 </r>
       <r>   -44.2154     0.0000     0.0000 </r>
       <r>   -43.7554     0.0000     0.0000 </r>
       <r>   -43.2954     0.0000     0.0000 </r>
       <r>   -42.8355     0.0000     0.0000 </r>
       <r>   -42.3755     0.0000     0.0000 </r>
       <r>   -41.9155     0.0000     0.0000 </r>
       <r>   -41.4556     0.0000    10.0000 </r>
       <r>   -40.9956     0.0000    10.0000 </r>
       <r>   -40.5356     0.0000    10.0000 </r>
       <r>   -40.0757     0.0000    10.0000 </r>
       <r>   -39.6157     0.0000    10.0000 </r>
       <r>   -39.1557     0.0000    10.0000 </r>
       <r>   -38.6958     0.0000    10.0000 </r>
       <r>   -38.2358     0.0000    10.0000 </r>
       <r>   -37.7758     0.0000    10.0000 </r>
       <r>   -37.3159     0.0000    10.0000 </r>
       <r>   -36.8559     0.0000    10.0000 </r>
       <r>   -36.3959     0.0000    10.0000 </r>
       <r>   -35.9360     0.0000    10.0000 </r>
       <r>   -35.4760     0.0000    10.0000 </r>
       <r>   -35.0160     0.0000    10.0000 </r>
       <r>   -34.5561     0.0000    10.0000 </r>
       <r>   -34.0961     0.0000    10.0000 </r>
       <r>   -33.6361     0.0000    10.0000 </r>
       <r>   -33.1762     0.0000    10.0000 </r>
       <r>   -32.7162     0.0000    10.0000 </r>
       <r>   -32.2562     0.0000    10.0000 </r>
       <r>   -31.7963     0.0000    10.0000 </r>
       <r>   -31.3363     0.0000    10.0000 </r>
       <r>   -30.8763     0.0000    10.0000 </r>
       <r>   -30.4164     0.0000    10.0000 </r>
       <r>   -29.9564     0.0000    10.0000 </r>
       <r>   -29.4964     0.0000    10.0000 </r>
       <r>   -29.0365     0.0000    10.0000 </r>
       <r>   -28.5765     0.0000    10.0000 </r>
       <r>   -28.1165     0.0000    10.0000 </r>
       <r>   -27.6566     0.0000    10.0000 </r>
       <r>   -27.1966     0.0000    10.0000 </r>
       <r>   -26.7366     0.0000    10.0000 </r>
       <r>   -26.2767     0.0000    10.0000 </r>
       <r>   -25.8167     0.0000    10.0000 </r>
       <r>   -25.3567     0.0000    10.0000 </r>
       <r>   -24.8967     0.0000    10.0000 </r>
       <r>   -24.4368     0.0000    10.0000 </r>
       <r>   -23.9768     0.0000    10.0000 </r>
       <r>   -23.5168     0.0000    10.0000 </r>
       <r>   -23.0569     0.0000    10.0000 </r>
       <r>   -22.5969     0.0000    10.0000 </r>
       <r>   -22.1369     0.0000    10.0000 </r>
       <r>   -21.6770     0.0000    10.0000 </r>
       <r>   -21.2170     0.0000    10.0000 </r>
       <r>   -20.7570     0.0000    10.0000 </r>
       <r>   -20.2971     0.0000    10.0000 </r>
       <r>   -19.8371     0.0000    10.0000 </r>
       <r>   -19.3771     0.0000    10.0000 </r>
       <r>   -18.9172     0.0000    10.0000 </r>
       <r>   -18.4572     0.0000    10.0000 </r>
       <r>   -17.9972     0.0000    10.0000 </r>
       <r>   -17.5373     0.0000    10.0000 </r>
       <r>   -17.0773     0.0000    12.0000 </r>
       <r>   -16.6173     0.0000    12.0000 </r>
       <r>   -16.1574     0.0000    12.0000 </r>
       <r>   -15.6974     0.0000    12.0000 </r>
       <r>   -15.2374     0.0000    12.0000 </r>
       <r>   -14.7775     0.0000    12.0000 </r>
       <r>   -14.3175     0.0000    12.0000 </r>
       <r>   -13.8575     0.0000    12.0000 </r>
       <r>   -13.3976     0.0000    12.0000 </r>
       <r>   -12.9376     0.0000    12.0000 </r>
       <r>   -12.4776     0.0000    12.0000 </r>
       <r>   -12.0177     0.0000    12.0000 </r>
       <r>   -11.5577     0.0000    12.0000 </r>
       <r>   -11.0977     0.0000    12.0000 </r>
       <r>   -10.6378     0.0000    12.0000 </r>
       <r>   -10.1778     0.0000    12.0000 </r>
       <r>    -9.7178     0.0000    12.0000 </r>
       <r>    -9.2579     0.0000    12.0000 </r>
       <r>    -8.7979     0.0000    12.0000 </r>
       <r>    -8.3379     0.0000    12.0000 </r>
       <r>    -7.8780     0.0000    12.0000 </r>
       <r>    -7.4180     0.0000    12.0000 </r>
       <r>    -6.9580     0.0000    12.0000 </r>
       <r>    -6.4981     0.0000    12.0000 </r>
       <r>    -6.0381     0.0000    12.0000 </r>
       <r>    -5.5781     0.0000    12.0000 </r>
       <r>    -5.1182     0.0000    12.0000 </r>
       <r>    -4.6582     0.0000    12.0000 </r>
       <r>    -4.1982     0.0000    12.0000 </r>
       <r>    -3.7382     0.0000    13.3611 </r>
       <r>    -3.2783     0.0000    14.3056 </r>
       <r>    -2.8183     0.2177    16.1464 </r>
       <r>    -2.3583     0.0000    18.0000 </r>
       <r>    -1.8984     0.0000    18.0000 </r>
       <r>    -1.4384     0.0000    18.0000 </r>
       <r>    -0.9784     0.0000    18.0000 </r>
       <r>    -0.5185     0.0000    18.0000 </r>
       <r>    -0.0585     0.0000    18.0000 </r>
       <r>     0.4015     0.0000    18.0000 </r>
       <r>     0.8614     0.0000    18.0000 </r>
       <r>     1.3214     0.0000    18.0000 </r>
       <r>     1.7814     0.0000    18.0000 </r>
       <r>     2.2413     0.0000    18.0000 </r>
       <r>     2.7013     0.0000    18.0093 </r>
       <r>     3.1613     0.0000    18.0093 </r>
       <r>     3.6212     0.0000    18.1389 </r>
       <r>     4.0812     0.0000    18.1389 </r>
       <r>     4.5412     0.0000    18.6667 </r>
       <r>     5.0011     0.0000    19.4444 </r>
       <r>     5.4611     0.0000    19.8056 </r>
       <r>     5.9211     0.0000    20.3056 </r>
       <r>     6.3810     0.0000    21.3056 </r>
       <r>     6.8410     0.0000    22.0278 </r>
       <r>     7.3010     0.0000    22.6204 </r>
       <r>     7.7609     0.0000    23.5926 </r>
       <r>     8.2209     0.0000    24.6111 </r>
       <r>     8.6809     0.0000    25.5000 </r>
       <r>     9.1408     0.0000    25.8333 </r>
       <r>     9.6008     0.0000    26.6481 </r>
       <r>    10.0608     0.0000    27.4815 </r>
       <r>    10.5207     0.0000    28.4259 </r>
       <r>    10.9807     0.0000    28.6481 </r>
       <r>    11.4407     0.0000    29.6667 </r>
       <r>    11.9006     0.0000    30.5833 </r>
       <r>    12.3606     0.0000    31.4259 </r>
       <r>    12.8206     0.0000    32.4815 </r>
       <r>    13.2805     0.4831    34.1944 </r>
       <r>    13.7405     0.0000    34.6667 </r>
       <r>    14.2005     0.0000    35.4722 </r>
       <r>    14.6604     0.0000    35.8611 </r>
       <r>    15.1204     0.0000    36.8981 </r>
       <r>    15.5804     0.0000    39.4537 </r>
       <r>    16.0403     0.4831    41.6944 </r>
       <r>    16.5003     0.0000    42.8426 </r>
       <r>    16.9603     0.0000    44.1389 </r>
       <r>    17.4203     0.0000    44.4815 </r>
       <r>    17.8802     0.0000    45.4815 </r>
       <r>    18.3402     0.0000    46.0278 </r>
       <r>    18.8002     0.0000    47.6574 </r>
       <r>    19.2601     0.0000    48.7315 </r>
       <r>    19.7201     0.0000    49.8241 </r>
       <r>    20.1801     0.0000    50.9074 </r>
       <r>    20.6400     0.0000    51.9074 </r>
       <r>    21.1000     0.3221    53.7593 </r>
       <r>    21.5600     0.0000    55.1111 </r>
       <r>    22.0199     0.2224    56.6486 </r>
       <r>    22.4799     0.0000    57.5463 </r>
       <r>    22.9399     0.0000    57.9907 </r>
       <r>    23.3998     0.0000    58.6667 </r>
       <r>    23.8598     0.0000    59.7130 </r>
       <r>    24.3198     0.4831    61.3055 </r>
       <r>    24.7797     0.0004    62.0928 </r>
       <r>    25.2397     0.0000    63.3981 </r>
       <r>    25.6997     0.1610    64.5833 </r>
       <r>    26.1596     0.0000    65.9815 </r>
       <r>    26.6196     0.0000    67.2870 </r>
       <r>    27.0796     0.0000    69.2685 </r>
       <r>    27.5395     0.0000    70.7130 </r>
       <r>    27.9995     0.0000    71.7963 </r>
       <r>    28.4595     0.0000    72.4074 </r>
       <r>    28.9194     0.0000    72.9630 </r>
       <r>    29.3794     0.0000    74.3519 </r>
       <r>    29.8394     0.0000    75.0926 </r>
       <r>    30.2993     0.0000    77.1389 </r>
       <r>    30.7593     0.0000    78.6111 </r>
       <r>    31.2193     0.2416    80.2407 </r>
       <r>    31.6792     0.2416    81.5926 </r>
       <r>    32.1392     0.0756    82.9700 </r>
       <r>    32.5992     0.0000    83.7130 </r>
       <r>    33.0591     0.0000    85.4444 </r>
       <r>    33.5191     0.4831    86.5833 </r>
       <r>    33.9791     0.0000    87.8889 </r>
       <r>    34.4390     0.0000    88.8519 </r>
       <r>    34.8990     0.0000    89.4444 </r>
       <r>    35.3590     0.0294    90.7821 </r>
       <r>    35.8189     0.0000    92.3333 </r>
       <r>    36.2789     0.0000    93.8148 </r>
       <r>    36.7389     0.0000    95.5185 </r>
       <r>    37.1988     0.0000    96.7407 </r>
       <r>    37.6588     0.0000    98.0370 </r>
       <r>    38.1188     0.0000    98.7407 </r>
       <r>    38.5787     0.0000   100.7963 </r>
       <r>    39.0387     0.0000   102.0370 </r>
       <r>    39.4987     0.0000   103.2037 </r>
       <r>    39.9587     0.0000   104.8704 </r>
       <r>    40.4186     0.0000   106.5741 </r>
       <r>    40.8786     0.0000   108.3981 </r>
       <r>    41.3386     0.0000   108.8426 </r>
       <r>    41.7985     0.0000   110.5833 </r>
       <r>    42.2585     0.2412   112.0276 </r>
       <r>    42.7185     0.0000   113.9444 </r>
       <r>    43.1784     0.0000   115.0000 </r>
       <r>    43.6384     0.0000   116.8241 </r>
       <r>    44.0984     0.0000   118.4722 </r>
       <r>    44.5583     0.0000   119.5833 </r>
       <r>    45.0183     0.3221   120.8056 </r>
       <r>    45.4783     0.0000   121.6481 </r>
       <r>    45.9382     0.0000   122.9537 </r>
       <r>    46.3982     0.0000   124.2963 </r>
       <r>    46.8582     0.0000   126.6667 </r>
       <r>    47.3181     0.0000   127.8333 </r>
       <r>    47.7781     0.4831   129.7593 </r>
       <r>    48.2381     0.0000   131.1667 </r>
       <r>    48.6980     0.0000   132.5185 </r>
       <r>    49.1580     0.0000   134.1852 </r>
       <r>    49.6180     0.2416   135.9444 </r>
       <r>    50.0779     0.0000   137.0926 </r>
       <r>    50.5379     0.1505   138.2174 </r>
       <r>    50.9979     0.0000   140.5370 </r>
       <r>    51.4578     0.0000   141.9074 </r>
       <r>    51.9178     0.0708   142.6807 </r>
       <r>    52.3778     0.0000   144.4722 </r>
       <r>    52.8377     0.4831   146.0463 </r>
       <r>    53.2977     0.0000   147.2593 </r>
       <r>    53.7577     0.0000   148.4815 </r>
       <r>    54.2176     0.0000   150.4444 </r>
       <r>    54.6776     0.0000   152.2870 </r>
       <r>    55.1376     0.0000   154.4259 </r>
       <r>    55.5975     0.0000   155.7500 </r>
       <r>    56.0575     0.4831   157.2685 </r>
       <r>    56.5175     0.0000   159.0741 </r>
       <r>    56.9774     0.1175   159.7392 </r>
       <r>    57.4374     0.0000   162.1852 </r>
       <r>    57.8974     0.0000   165.0833 </r>
       <r>    58.3573     0.0000   166.4907 </r>
       <r>    58.8173     0.0000   168.5833 </r>
       <r>    59.2773     0.0000   169.6111 </r>
       <r>    59.7372     0.0000   170.5926 </r>
       <r>    60.1972     0.1252   172.5946 </r>
       <r>    60.6572     0.0000   173.6667 </r>
       <r>    61.1172     0.0000   175.7685 </r>
       <r>    61.5771     0.4688   177.2619 </r>
       <r>    62.0371     0.0000   179.3889 </r>
       <r>    62.4971     0.0000   180.4815 </r>
       <r>    62.9570     0.0000   182.6481 </r>
       <r>    63.4170     0.0000   184.4259 </r>
       <r>    63.8770     0.0000   186.1852 </r>
       <r>    64.3369     0.0000   187.4815 </r>
       <r>    64.7969     0.0000   188.8519 </r>
       <r>    65.2569     0.0000   190.5833 </r>
       <r>    65.7168     0.0000   192.1574 </r>
       <r>    66.1768     0.4831   193.7500 </r>
       <r>    66.6368     0.0000   195.7778 </r>
       <r>    67.0967     0.0000   196.8796 </r>
       <r>    67.5567     0.0000   199.2870 </r>
       <r>    68.0167     0.0000   201.7222 </r>
       <r>    68.4766     0.0000   202.9907 </r>
       <r>    68.9366     0.0000   205.0370 </r>
       <r>    69.3966     0.0000   206.7037 </r>
       <r>    69.8565     0.0000   208.4907 </r>
       <r>    70.3165     0.0000   210.3611 </r>
       <r>    70.7765     0.0000   212.0278 </r>
       <r>    71.2364     0.0000   213.8704 </r>
       <r>    71.6964     0.0000   215.0556 </r>
       <r>    72.1564     0.0372   217.1468 </r>
       <r>    72.6163     0.0000   219.1667 </r>
       <r>    73.0763     0.0000   220.9815 </r>
       <r>    73.5363     0.0000   222.3889 </r>
       <r>    73.9962     0.0000   224.4537 </r>
       <r>    74.4562     0.0000   226.2315 </r>
       <r>    74.9162     0.0000   228.4074 </r>
       <r>    75.3761     0.4816   230.4345 </r>
       <r>    75.8361     0.2846   232.1309 </r>
       <r>    76.2961     0.1894   233.4112 </r>
       <r>    76.7560     0.0000   235.3241 </r>
       <r>    77.2160     0.0000   236.9815 </r>
       <r>    77.6760     0.0000   239.0370 </r>
       <r>    78.1359     0.0101   240.8935 </r>
       <r>    78.5959     0.0000   242.8889 </r>
       <r>    79.0559     0.0000   244.6296 </r>
       <r>    79.5158     0.0000   247.3333 </r>
       <r>    79.9758     0.0000   248.5926 </r>
       <r>    80.4358     0.0000   250.0463 </r>
       <r>    80.8957     0.0000   251.9352 </r>
       <r>    81.3557     0.0000   253.6389 </r>
       <r>    81.8157     0.0000   255.0000 </r>
       <r>    82.2757     0.0000   255.4444 </r>
       <r>    82.7356     0.0000   255.7778 </r>
       <r>    83.1956     0.0000   255.7778 </r>
       <r>    83.6556     0.0000   255.8889 </r>
       <r>    84.1155     0.0000   256.0000 </r>
       <r>    84.5755     0.0000   256.0000 </r>
       <r>    85.0355     0.0000   256.0000 </r>
       <r>    85.4954     0.0000   256.0000 </r>
       <r>    85.9554     0.0000   256.0000 </r>
       <r>    86.4154     0.0000   256.0000 </r>
       <r>    86.8753     0.0000   256.0000 </r>
       <r>    87.3353     0.0000   256.0000 </r>
       <r>    87.7953     0.0000   256.0000 </r>
       <r>    88.2552     0.0000   256.0000 </r>
       <r>    88.7152     0.0000   256.0000 </r>
       <r>    89.1752     0.0000   256.0000 </r>
       <r>    89.6351     0.0000   256.0000 </r>
       <r>    90.0951     0.0000   256.0000 </r>
      </set>
     </set>
    </array>
   </total>
  </dos>
 </calculation>
 <structure name="finalpos" >
  <crystal>
   <varray name="basis" >
    <v>       4.52056477       0.00000000       0.00000000 </v>
    <v>       2.26028238       3.91492393      -0.00000000 </v>
    <v>       2.26028238       1.30497464       3.69102568 </v>
   </varray>
   <i name="volume">     65.32254404 </i>
   <varray name="rec_basis" >
    <v>       0.22121130      -0.12771640      -0.09030913 </v>
    <v>       0.00000000       0.25543280      -0.09030913 </v>
    <v>      -0.00000000       0.00000000       0.27092740 </v>
   </varray>
  </crystal>
  <varray name="positions" >
   <v>       0.00000000       0.00000000       0.00000000 </v>
  </varray>
  <varray name="velocities" >
   <v>       0.00000000       0.00000000       0.00000000 </v>
  </varray>
 </structure>
</modeling>
