   1   1   0   0
  0.6156630E+02  0.4432200E-09  0.4432200E-09  0.4432200E-09  0.1000000E-15
  1.000000000000000E-004
  CAR 
 Xe_FCC                                  
     21.50717996    -19.00900435  301     -3.73102652      1.00000000
    -19.009  0.0000E+00  0.0000E+00
    -18.874  0.0000E+00  0.0000E+00
    -18.739  0.0000E+00  0.0000E+00
    -18.604  0.0000E+00  0.0000E+00
    -18.469  0.0000E+00  0.0000E+00
    -18.334  0.0000E+00  0.0000E+00
    -18.199  0.0000E+00  0.0000E+00
    -18.064  0.0000E+00  0.0000E+00
    -17.929  0.0000E+00  0.0000E+00
    -17.794  0.0000E+00  0.0000E+00
    -17.658  0.0000E+00  0.0000E+00
    -17.523  0.0000E+00  0.0000E+00
    -17.388  0.1406E-10  0.1899E-11
    -17.253  0.5555E-03  0.7502E-04
    -17.118  0.4702E+00  0.6358E-01
    -16.983  0.4633E+01  0.6892E+00
    -16.848  0.9511E+01  0.1974E+01
    -16.713  0.1942E+00  0.2000E+01
    -16.578  0.8926E-07  0.2000E+01
    -16.443  0.0000E+00  0.2000E+01
    -16.308  0.0000E+00  0.2000E+01
    -16.173  0.0000E+00  0.2000E+01
    -16.038  0.0000E+00  0.2000E+01
    -15.903  0.0000E+00  0.2000E+01
    -15.768  0.0000E+00  0.2000E+01
    -15.633  0.0000E+00  0.2000E+01
    -15.498  0.0000E+00  0.2000E+01
    -15.363  0.0000E+00  0.2000E+01
    -15.227  0.0000E+00  0.2000E+01
    -15.092  0.0000E+00  0.2000E+01
    -14.957  0.0000E+00  0.2000E+01
    -14.822  0.0000E+00  0.2000E+01
    -14.687  0.0000E+00  0.2000E+01
    -14.552  0.0000E+00  0.2000E+01
    -14.417  0.0000E+00  0.2000E+01
    -14.282  0.0000E+00  0.2000E+01
    -14.147  0.0000E+00  0.2000E+01
    -14.012  0.0000E+00  0.2000E+01
    -13.877  0.0000E+00  0.2000E+01
    -13.742  0.0000E+00  0.2000E+01
    -13.607  0.0000E+00  0.2000E+01
    -13.472  0.0000E+00  0.2000E+01
    -13.337  0.0000E+00  0.2000E+01
    -13.202  0.0000E+00  0.2000E+01
    -13.067  0.0000E+00  0.2000E+01
    -12.932  0.0000E+00  0.2000E+01
    -12.797  0.0000E+00  0.2000E+01
    -12.661  0.0000E+00  0.2000E+01
    -12.526  0.0000E+00  0.2000E+01
    -12.391  0.0000E+00  0.2000E+01
    -12.256  0.0000E+00  0.2000E+01
    -12.121  0.0000E+00  0.2000E+01
    -11.986  0.0000E+00  0.2000E+01
    -11.851  0.0000E+00  0.2000E+01
    -11.716  0.0000E+00  0.2000E+01
    -11.581  0.0000E+00  0.2000E+01
    -11.446  0.0000E+00  0.2000E+01
    -11.311  0.0000E+00  0.2000E+01
    -11.176  0.0000E+00  0.2000E+01
    -11.041  0.0000E+00  0.2000E+01
    -10.906  0.0000E+00  0.2000E+01
    -10.771  0.0000E+00  0.2000E+01
    -10.636  0.0000E+00  0.2000E+01
    -10.501  0.0000E+00  0.2000E+01
    -10.366  0.0000E+00  0.2000E+01
    -10.230  0.0000E+00  0.2000E+01
    -10.095  0.0000E+00  0.2000E+01
     -9.960  0.0000E+00  0.2000E+01
     -9.825  0.0000E+00  0.2000E+01
     -9.690  0.0000E+00  0.2000E+01
     -9.555  0.0000E+00  0.2000E+01
     -9.420  0.0000E+00  0.2000E+01
     -9.285  0.0000E+00  0.2000E+01
     -9.150  0.0000E+00  0.2000E+01
     -9.015  0.0000E+00  0.2000E+01
     -8.880  0.0000E+00  0.2000E+01
     -8.745  0.0000E+00  0.2000E+01
     -8.610  0.0000E+00  0.2000E+01
     -8.475  0.0000E+00  0.2000E+01
     -8.340  0.0000E+00  0.2000E+01
     -8.205  0.0000E+00  0.2000E+01
     -8.070  0.0000E+00  0.2000E+01
     -7.935  0.0000E+00  0.2000E+01
     -7.800  0.0000E+00  0.2000E+01
     -7.664  0.0000E+00  0.2000E+01
     -7.529  0.0000E+00  0.2000E+01
     -7.394  0.0000E+00  0.2000E+01
     -7.259  0.0000E+00  0.2000E+01
     -7.124  0.0000E+00  0.2000E+01
     -6.989  0.0000E+00  0.2000E+01
     -6.854  0.0000E+00  0.2000E+01
     -6.719  0.0000E+00  0.2000E+01
     -6.584  0.0000E+00  0.2000E+01
     -6.449  0.9279E-11  0.2000E+01
     -6.314  0.1010E-02  0.2000E+01
     -6.179  0.8348E+00  0.2113E+01
     -6.044  0.8177E+01  0.3217E+01
     -5.909  0.2521E+01  0.3558E+01
     -5.774  0.1749E+01  0.3794E+01
     -5.639  0.5673E+00  0.3871E+01
     -5.504  0.7369E+00  0.3970E+01
     -5.369  0.1734E+00  0.3993E+01
     -5.234  0.4936E-01  0.4000E+01
     -5.098  0.1399E+01  0.4189E+01
     -4.963  0.4894E+01  0.4850E+01
     -4.828  0.4301E+01  0.5431E+01
     -4.693  0.2521E+01  0.5771E+01
     -4.558  0.5084E+01  0.6458E+01
     -4.423  0.3051E+01  0.6870E+01
     -4.288  0.4826E+01  0.7522E+01
     -4.153  0.2456E+01  0.7853E+01
     -4.018  0.9673E+00  0.7984E+01
     -3.883  0.1182E+00  0.8000E+01
     -3.748  0.1380E-04  0.8000E+01
     -3.613  0.0000E+00  0.8000E+01
     -3.478  0.0000E+00  0.8000E+01
     -3.343  0.0000E+00  0.8000E+01
     -3.208  0.0000E+00  0.8000E+01
     -3.073  0.0000E+00  0.8000E+01
     -2.938  0.0000E+00  0.8000E+01
     -2.803  0.0000E+00  0.8000E+01
     -2.667  0.0000E+00  0.8000E+01
     -2.532  0.0000E+00  0.8000E+01
     -2.397  0.0000E+00  0.8000E+01
     -2.262  0.0000E+00  0.8000E+01
     -2.127  0.0000E+00  0.8000E+01
     -1.992  0.0000E+00  0.8000E+01
     -1.857  0.0000E+00  0.8000E+01
     -1.722  0.0000E+00  0.8000E+01
     -1.587  0.0000E+00  0.8000E+01
     -1.452  0.0000E+00  0.8000E+01
     -1.317  0.0000E+00  0.8000E+01
     -1.182  0.0000E+00  0.8000E+01
     -1.047  0.0000E+00  0.8000E+01
     -0.912  0.0000E+00  0.8000E+01
     -0.777  0.0000E+00  0.8000E+01
     -0.642  0.0000E+00  0.8000E+01
     -0.507  0.0000E+00  0.8000E+01
     -0.372  0.0000E+00  0.8000E+01
     -0.237  0.0000E+00  0.8000E+01
     -0.101  0.0000E+00  0.8000E+01
      0.034  0.0000E+00  0.8000E+01
      0.169  0.0000E+00  0.8000E+01
      0.304  0.0000E+00  0.8000E+01
      0.439  0.0000E+00  0.8000E+01
      0.574  0.0000E+00  0.8000E+01
      0.709  0.0000E+00  0.8000E+01
      0.844  0.0000E+00  0.8000E+01
      0.979  0.0000E+00  0.8000E+01
      1.114  0.0000E+00  0.8000E+01
      1.249  0.0000E+00  0.8000E+01
      1.384  0.0000E+00  0.8000E+01
      1.519  0.0000E+00  0.8000E+01
      1.654  0.0000E+00  0.8000E+01
      1.789  0.0000E+00  0.8000E+01
      1.924  0.0000E+00  0.8000E+01
      2.059  0.0000E+00  0.8000E+01
      2.194  0.1776E-12  0.8000E+01
      2.330  0.7099E-04  0.8000E+01
      2.465  0.5296E-01  0.8007E+01
      2.600  0.1585E-01  0.8009E+01
      2.735  0.1774E-06  0.8009E+01
      2.870  0.2837E-11  0.8009E+01
      3.005  0.7342E-03  0.8009E+01
      3.140  0.3870E+00  0.8062E+01
      3.275  0.1160E+00  0.8077E+01
      3.410  0.3859E+00  0.8129E+01
      3.545  0.1277E+00  0.8147E+01
      3.680  0.8470E-01  0.8158E+01
      3.815  0.5039E-03  0.8158E+01
      3.950  0.8396E+00  0.8272E+01
      4.085  0.2836E+01  0.8655E+01
      4.220  0.1654E+01  0.8878E+01
      4.355  0.8681E+00  0.8995E+01
      4.490  0.6967E+00  0.9089E+01
      4.625  0.2507E+01  0.9428E+01
      4.760  0.2546E+01  0.9772E+01
      4.896  0.1806E+01  0.1002E+02
      5.031  0.2031E+01  0.1029E+02
      5.166  0.1260E+00  0.1031E+02
      5.301  0.6215E+00  0.1039E+02
      5.436  0.6720E+00  0.1048E+02
      5.571  0.3124E+01  0.1090E+02
      5.706  0.3839E+01  0.1142E+02
      5.841  0.1586E+01  0.1164E+02
      5.976  0.1952E+01  0.1190E+02
      6.111  0.1016E+01  0.1204E+02
      6.246  0.8764E-04  0.1204E+02
      6.381  0.3478E+00  0.1208E+02
      6.516  0.3752E+01  0.1259E+02
      6.651  0.2033E+01  0.1287E+02
      6.786  0.1861E+01  0.1312E+02
      6.921  0.1783E+01  0.1336E+02
      7.056  0.1521E+01  0.1356E+02
      7.191  0.1400E+01  0.1375E+02
      7.327  0.4240E+01  0.1432E+02
      7.462  0.1929E+01  0.1459E+02
      7.597  0.4720E+00  0.1465E+02
      7.732  0.1915E+01  0.1491E+02
      7.867  0.3406E+01  0.1537E+02
      8.002  0.1381E+00  0.1539E+02
      8.137  0.1035E+01  0.1553E+02
      8.272  0.1137E+01  0.1568E+02
      8.407  0.1132E+01  0.1583E+02
      8.542  0.4798E-01  0.1584E+02
      8.677  0.2040E+00  0.1587E+02
      8.812  0.1338E+01  0.1605E+02
      8.947  0.2215E+01  0.1635E+02
      9.082  0.9918E+00  0.1648E+02
      9.217  0.1342E+01  0.1666E+02
      9.352  0.2601E+01  0.1701E+02
      9.487  0.3007E-01  0.1702E+02
      9.622  0.1634E+01  0.1724E+02
      9.757  0.1384E+01  0.1742E+02
      9.893  0.2189E+01  0.1772E+02
     10.028  0.1318E+01  0.1790E+02
     10.163  0.1875E+01  0.1815E+02
     10.298  0.1843E+01  0.1840E+02
     10.433  0.1818E+01  0.1865E+02
     10.568  0.3147E+00  0.1869E+02
     10.703  0.3037E-04  0.1869E+02
     10.838  0.4578E-06  0.1869E+02
     10.973  0.1027E+00  0.1870E+02
     11.108  0.2555E+01  0.1905E+02
     11.243  0.1775E+01  0.1929E+02
     11.378  0.3251E+01  0.1973E+02
     11.513  0.4373E+01  0.2032E+02
     11.648  0.2362E+01  0.2064E+02
     11.783  0.3267E+01  0.2108E+02
     11.918  0.6962E+00  0.2117E+02
     12.053  0.2630E+01  0.2153E+02
     12.188  0.1939E+01  0.2179E+02
     12.324  0.2091E+01  0.2207E+02
     12.459  0.4214E+01  0.2264E+02
     12.594  0.4098E+00  0.2269E+02
     12.729  0.7059E+00  0.2279E+02
     12.864  0.2306E-01  0.2279E+02
     12.999  0.2195E+01  0.2309E+02
     13.134  0.1924E+01  0.2335E+02
     13.269  0.2876E+01  0.2374E+02
     13.404  0.1321E+01  0.2392E+02
     13.539  0.1760E+00  0.2394E+02
     13.674  0.1607E+01  0.2416E+02
     13.809  0.2051E+01  0.2443E+02
     13.944  0.2040E+01  0.2471E+02
     14.079  0.2315E+01  0.2502E+02
     14.214  0.1636E+00  0.2504E+02
     14.349  0.1327E+01  0.2522E+02
     14.484  0.1505E+01  0.2543E+02
     14.619  0.5347E-01  0.2543E+02
     14.754  0.2520E+01  0.2577E+02
     14.890  0.6465E+01  0.2665E+02
     15.025  0.1599E+01  0.2686E+02
     15.160  0.1185E+01  0.2702E+02
     15.295  0.2872E+01  0.2741E+02
     15.430  0.3270E+01  0.2785E+02
     15.565  0.1874E+01  0.2811E+02
     15.700  0.3733E+01  0.2861E+02
     15.835  0.3283E+01  0.2905E+02
     15.970  0.2392E+01  0.2938E+02
     16.105  0.1166E+01  0.2953E+02
     16.240  0.1550E+01  0.2974E+02
     16.375  0.1938E+01  0.3001E+02
     16.510  0.1218E+01  0.3017E+02
     16.645  0.3816E+01  0.3069E+02
     16.780  0.2546E+00  0.3072E+02
     16.915  0.4835E+00  0.3078E+02
     17.050  0.3858E+01  0.3131E+02
     17.185  0.2792E+01  0.3168E+02
     17.321  0.5986E-02  0.3168E+02
     17.456  0.5302E-06  0.3168E+02
     17.591  0.5841E-01  0.3169E+02
     17.726  0.2168E+00  0.3172E+02
     17.861  0.3531E-03  0.3172E+02
     17.996  0.2435E+00  0.3175E+02
     18.131  0.9627E+00  0.3188E+02
     18.266  0.7640E+00  0.3199E+02
     18.401  0.2733E-01  0.3199E+02
     18.536  0.2824E-07  0.3199E+02
     18.671  0.0000E+00  0.3199E+02
     18.806  0.0000E+00  0.3199E+02
     18.941  0.0000E+00  0.3199E+02
     19.076  0.0000E+00  0.3199E+02
     19.211  0.0000E+00  0.3199E+02
     19.346  0.0000E+00  0.3199E+02
     19.481  0.8185E-08  0.3199E+02
     19.616  0.6096E-02  0.3199E+02
     19.751  0.6231E-01  0.3200E+02
     19.887  0.4691E-03  0.3200E+02
     20.022  0.1134E-10  0.3200E+02
     20.157  0.0000E+00  0.3200E+02
     20.292  0.0000E+00  0.3200E+02
     20.427  0.0000E+00  0.3200E+02
     20.562  0.0000E+00  0.3200E+02
     20.697  0.0000E+00  0.3200E+02
     20.832  0.0000E+00  0.3200E+02
     20.967  0.0000E+00  0.3200E+02
     21.102  0.0000E+00  0.3200E+02
     21.237  0.0000E+00  0.3200E+02
     21.372  0.0000E+00  0.3200E+02
     21.507  0.0000E+00  0.3200E+02
