   1   1   0   0
  0.6021489E+02  0.4399530E-09  0.4399530E-09  0.4399530E-09  0.1000000E-15
  1.000000000000000E-004
  CAR 
 Og_FCC                                  
     17.11688660    -33.32898552  301      3.19366657      1.00000000
    -33.329  0.0000E+00  0.0000E+00
    -33.161  0.0000E+00  0.0000E+00
    -32.993  0.0000E+00  0.0000E+00
    -32.825  0.0000E+00  0.0000E+00
    -32.656  0.0000E+00  0.0000E+00
    -32.488  0.0000E+00  0.0000E+00
    -32.320  0.0000E+00  0.0000E+00
    -32.152  0.0000E+00  0.0000E+00
    -31.984 -0.4512E-37 -0.7586E-38
    -31.816 -0.1615E-24 -0.2716E-25
    -31.647 -0.1931E-14 -0.3248E-15
    -31.479 -0.7112E-07 -0.1196E-07
    -31.311 -0.7627E-02 -0.1282E-02
    -31.143 -0.7529E+00 -0.1279E+00
    -30.975  0.2258E+02  0.3669E+01
    -30.807  0.2039E+01  0.4012E+01
    -30.639 -0.7078E-01  0.4000E+01
    -30.470 -0.3952E-05  0.4000E+01
    -30.302 -0.5729E-12  0.4000E+01
    -30.134  0.0000E+00  0.4000E+01
    -29.966  0.0000E+00  0.4000E+01
    -29.798  0.0000E+00  0.4000E+01
    -29.630  0.0000E+00  0.4000E+01
    -29.461  0.0000E+00  0.4000E+01
    -29.293  0.0000E+00  0.4000E+01
    -29.125  0.0000E+00  0.4000E+01
    -28.957  0.0000E+00  0.4000E+01
    -28.789  0.0000E+00  0.4000E+01
    -28.621  0.0000E+00  0.4000E+01
    -28.453  0.0000E+00  0.4000E+01
    -28.284  0.0000E+00  0.4000E+01
    -28.116  0.0000E+00  0.4000E+01
    -27.948  0.0000E+00  0.4000E+01
    -27.780  0.0000E+00  0.4000E+01
    -27.612  0.0000E+00  0.4000E+01
    -27.444  0.0000E+00  0.4000E+01
    -27.275  0.0000E+00  0.4000E+01
    -27.107  0.0000E+00  0.4000E+01
    -26.939  0.0000E+00  0.4000E+01
    -26.771  0.0000E+00  0.4000E+01
    -26.603  0.0000E+00  0.4000E+01
    -26.435  0.0000E+00  0.4000E+01
    -26.267  0.0000E+00  0.4000E+01
    -26.098  0.0000E+00  0.4000E+01
    -25.930  0.0000E+00  0.4000E+01
    -25.762  0.0000E+00  0.4000E+01
    -25.594  0.0000E+00  0.4000E+01
    -25.426  0.0000E+00  0.4000E+01
    -25.258 -0.3255E-34  0.4000E+01
    -25.089 -0.3691E-22  0.4000E+01
    -24.921 -0.1363E-12  0.4000E+01
    -24.753 -0.1633E-05  0.4000E+01
    -24.585 -0.5318E-01  0.3991E+01
    -24.417  0.7843E+00  0.4123E+01
    -24.249  0.3545E+02  0.1008E+02
    -24.081 -0.4747E+00  0.1000E+02
    -23.912 -0.2643E-01  0.1000E+02
    -23.744 -0.4634E-06  0.1000E+02
    -23.576 -0.2367E-13  0.1000E+02
    -23.408  0.0000E+00  0.1000E+02
    -23.240  0.0000E+00  0.1000E+02
    -23.072  0.0000E+00  0.1000E+02
    -22.904  0.0000E+00  0.1000E+02
    -22.735  0.0000E+00  0.1000E+02
    -22.567  0.0000E+00  0.1000E+02
    -22.399  0.0000E+00  0.1000E+02
    -22.231  0.0000E+00  0.1000E+02
    -22.063  0.0000E+00  0.1000E+02
    -21.895  0.0000E+00  0.1000E+02
    -21.726  0.0000E+00  0.1000E+02
    -21.558 -0.9185E-32  0.1000E+02
    -21.390 -0.1349E-20  0.1000E+02
    -21.222 -0.7037E-12  0.1000E+02
    -21.054 -0.1403E-05  0.1000E+02
    -20.886 -0.1146E-01  0.9998E+01
    -20.718 -0.3433E-01  0.9992E+01
    -20.549  0.1039E+02  0.1174E+02
    -20.381  0.1603E+01  0.1201E+02
    -20.213 -0.5498E-01  0.1200E+02
    -20.045 -0.7485E-05  0.1200E+02
    -19.877 -0.2844E-11  0.1200E+02
    -19.709  0.0000E+00  0.1200E+02
    -19.540  0.0000E+00  0.1200E+02
    -19.372  0.0000E+00  0.1200E+02
    -19.204  0.0000E+00  0.1200E+02
    -19.036  0.0000E+00  0.1200E+02
    -18.868  0.0000E+00  0.1200E+02
    -18.700  0.0000E+00  0.1200E+02
    -18.532  0.0000E+00  0.1200E+02
    -18.363  0.0000E+00  0.1200E+02
    -18.195  0.0000E+00  0.1200E+02
    -18.027  0.0000E+00  0.1200E+02
    -17.859  0.0000E+00  0.1200E+02
    -17.691  0.0000E+00  0.1200E+02
    -17.523  0.0000E+00  0.1200E+02
    -17.354  0.0000E+00  0.1200E+02
    -17.186  0.0000E+00  0.1200E+02
    -17.018  0.0000E+00  0.1200E+02
    -16.850  0.0000E+00  0.1200E+02
    -16.682  0.0000E+00  0.1200E+02
    -16.514  0.0000E+00  0.1200E+02
    -16.346  0.0000E+00  0.1200E+02
    -16.177  0.0000E+00  0.1200E+02
    -16.009  0.0000E+00  0.1200E+02
    -15.841  0.0000E+00  0.1200E+02
    -15.673  0.0000E+00  0.1200E+02
    -15.505  0.0000E+00  0.1200E+02
    -15.337  0.0000E+00  0.1200E+02
    -15.168  0.0000E+00  0.1200E+02
    -15.000  0.0000E+00  0.1200E+02
    -14.832  0.0000E+00  0.1200E+02
    -14.664  0.0000E+00  0.1200E+02
    -14.496  0.0000E+00  0.1200E+02
    -14.328  0.0000E+00  0.1200E+02
    -14.160  0.0000E+00  0.1200E+02
    -13.991  0.0000E+00  0.1200E+02
    -13.823  0.0000E+00  0.1200E+02
    -13.655  0.0000E+00  0.1200E+02
    -13.487  0.0000E+00  0.1200E+02
    -13.319  0.0000E+00  0.1200E+02
    -13.151  0.0000E+00  0.1200E+02
    -12.982  0.0000E+00  0.1200E+02
    -12.814  0.0000E+00  0.1200E+02
    -12.646  0.0000E+00  0.1200E+02
    -12.478  0.0000E+00  0.1200E+02
    -12.310  0.0000E+00  0.1200E+02
    -12.142  0.0000E+00  0.1200E+02
    -11.974  0.0000E+00  0.1200E+02
    -11.805  0.0000E+00  0.1200E+02
    -11.637  0.0000E+00  0.1200E+02
    -11.469  0.0000E+00  0.1200E+02
    -11.301  0.0000E+00  0.1200E+02
    -11.133  0.0000E+00  0.1200E+02
    -10.965  0.0000E+00  0.1200E+02
    -10.796  0.0000E+00  0.1200E+02
    -10.628  0.0000E+00  0.1200E+02
    -10.460  0.0000E+00  0.1200E+02
    -10.292  0.0000E+00  0.1200E+02
    -10.124  0.0000E+00  0.1200E+02
     -9.956  0.0000E+00  0.1200E+02
     -9.788  0.0000E+00  0.1200E+02
     -9.619  0.0000E+00  0.1200E+02
     -9.451  0.0000E+00  0.1200E+02
     -9.283  0.0000E+00  0.1200E+02
     -9.115  0.0000E+00  0.1200E+02
     -8.947  0.0000E+00  0.1200E+02
     -8.779  0.0000E+00  0.1200E+02
     -8.611  0.0000E+00  0.1200E+02
     -8.442  0.0000E+00  0.1200E+02
     -8.274 -0.4825E-31  0.1200E+02
     -8.106 -0.7652E-20  0.1200E+02
     -7.938 -0.4065E-11  0.1200E+02
     -7.770 -0.7391E-05  0.1200E+02
     -7.602 -0.3889E-01  0.1199E+02
     -7.433  0.1028E+01  0.1217E+02
     -7.265  0.8095E+01  0.1353E+02
     -7.097  0.2256E+01  0.1391E+02
     -6.929  0.5628E+00  0.1400E+02
     -6.761 -0.8116E-02  0.1400E+02
     -6.593 -0.4379E-03  0.1400E+02
     -6.425 -0.3014E-07  0.1400E+02
     -6.256 -0.9222E-14  0.1400E+02
     -6.088  0.0000E+00  0.1400E+02
     -5.920  0.0000E+00  0.1400E+02
     -5.752  0.0000E+00  0.1400E+02
     -5.584  0.0000E+00  0.1400E+02
     -5.416  0.0000E+00  0.1400E+02
     -5.247  0.0000E+00  0.1400E+02
     -5.079  0.0000E+00  0.1400E+02
     -4.911  0.0000E+00  0.1400E+02
     -4.743  0.0000E+00  0.1400E+02
     -4.575  0.0000E+00  0.1400E+02
     -4.407  0.0000E+00  0.1400E+02
     -4.239  0.0000E+00  0.1400E+02
     -4.070  0.0000E+00  0.1400E+02
     -3.902  0.0000E+00  0.1400E+02
     -3.734  0.0000E+00  0.1400E+02
     -3.566  0.0000E+00  0.1400E+02
     -3.398  0.0000E+00  0.1400E+02
     -3.230  0.0000E+00  0.1400E+02
     -3.061  0.0000E+00  0.1400E+02
     -2.893  0.0000E+00  0.1400E+02
     -2.725  0.0000E+00  0.1400E+02
     -2.557  0.0000E+00  0.1400E+02
     -2.389  0.0000E+00  0.1400E+02
     -2.221  0.0000E+00  0.1400E+02
     -2.053  0.0000E+00  0.1400E+02
     -1.884  0.0000E+00  0.1400E+02
     -1.716  0.0000E+00  0.1400E+02
     -1.548  0.0000E+00  0.1400E+02
     -1.380  0.0000E+00  0.1400E+02
     -1.212  0.0000E+00  0.1400E+02
     -1.044  0.0000E+00  0.1400E+02
     -0.875  0.0000E+00  0.1400E+02
     -0.707 -0.7224E-33  0.1400E+02
     -0.539 -0.2000E-21  0.1400E+02
     -0.371 -0.1817E-12  0.1400E+02
     -0.203 -0.5695E-06  0.1400E+02
     -0.035 -0.6183E-02  0.1400E+02
      0.133  0.4422E-02  0.1400E+02
      0.302  0.5410E+01  0.1491E+02
      0.470  0.3235E+01  0.1545E+02
      0.638  0.8376E+00  0.1559E+02
      0.806  0.6939E+00  0.1571E+02
      0.974  0.6663E+00  0.1582E+02
      1.142  0.4763E+00  0.1590E+02
      1.311  0.8075E+00  0.1604E+02
      1.479  0.2419E+01  0.1645E+02
      1.647  0.1198E+01  0.1665E+02
      1.815  0.1496E+01  0.1690E+02
      1.983  0.1337E+01  0.1712E+02
      2.151  0.1331E+01  0.1735E+02
      2.319  0.7415E+00  0.1747E+02
      2.488  0.1302E+01  0.1769E+02
      2.656  0.7053E+00  0.1781E+02
      2.824  0.5921E+00  0.1791E+02
      2.992  0.3822E+00  0.1797E+02
      3.160  0.1479E+00  0.1800E+02
      3.328  0.1422E-01  0.1800E+02
      3.497  0.1452E-01  0.1800E+02
      3.665 -0.5559E-03  0.1800E+02
      3.833 -0.3930E-05  0.1800E+02
      4.001 -0.4937E-10  0.1800E+02
      4.169 -0.6787E-05  0.1800E+02
      4.337 -0.4036E-02  0.1800E+02
      4.505  0.9692E-01  0.1802E+02
      4.674  0.3852E-01  0.1802E+02
      4.842  0.9656E-01  0.1804E+02
      5.010  0.3987E-03  0.1804E+02
      5.178 -0.1235E-02  0.1804E+02
      5.346  0.1928E+00  0.1807E+02
      5.514  0.1179E+00  0.1809E+02
      5.682  0.3700E+00  0.1816E+02
      5.851  0.1334E+00  0.1818E+02
      6.019  0.2010E+00  0.1821E+02
      6.187  0.6360E+00  0.1832E+02
      6.355  0.9837E+00  0.1848E+02
      6.523  0.1559E+01  0.1875E+02
      6.691  0.7924E+00  0.1888E+02
      6.860  0.6983E+00  0.1900E+02
      7.028  0.2050E+01  0.1934E+02
      7.196  0.1857E+01  0.1965E+02
      7.364  0.7830E+00  0.1979E+02
      7.532  0.1098E+01  0.1997E+02
      7.700  0.3263E+00  0.2003E+02
      7.868  0.3218E+00  0.2008E+02
      8.037  0.6215E+00  0.2018E+02
      8.205  0.5806E-01  0.2019E+02
      8.373  0.1012E+01  0.2036E+02
      8.541  0.4049E+01  0.2104E+02
      8.709  0.8291E+00  0.2118E+02
      8.877  0.1109E+01  0.2137E+02
      9.046  0.8325E+00  0.2151E+02
      9.214  0.1008E+01  0.2168E+02
      9.382  0.1833E+01  0.2199E+02
      9.550  0.2368E+01  0.2239E+02
      9.718  0.1933E+01  0.2271E+02
      9.886  0.2627E+00  0.2276E+02
     10.054  0.9050E+00  0.2291E+02
     10.223  0.1439E+01  0.2315E+02
     10.391  0.3463E+01  0.2373E+02
     10.559  0.1020E+01  0.2390E+02
     10.727  0.1005E+01  0.2407E+02
     10.895  0.9310E+00  0.2423E+02
     11.063  0.1422E+01  0.2447E+02
     11.232  0.1810E+01  0.2477E+02
     11.400  0.3349E+01  0.2534E+02
     11.568  0.7341E+00  0.2546E+02
     11.736  0.1424E+01  0.2570E+02
     11.904  0.1569E+01  0.2596E+02
     12.072  0.1059E+01  0.2614E+02
     12.240  0.8067E+00  0.2628E+02
     12.409  0.1046E+01  0.2645E+02
     12.577  0.2248E+01  0.2683E+02
     12.745  0.1080E+01  0.2701E+02
     12.913  0.1471E+01  0.2726E+02
     13.081  0.1646E+00  0.2729E+02
     13.249  0.1460E+01  0.2753E+02
     13.418  0.1306E+01  0.2775E+02
     13.586  0.2971E+00  0.2780E+02
     13.754 -0.2428E-01  0.2780E+02
     13.922  0.3642E+00  0.2786E+02
     14.090  0.1303E+00  0.2788E+02
     14.258  0.3762E+00  0.2794E+02
     14.426  0.2029E+00  0.2798E+02
     14.595  0.5793E-01  0.2799E+02
     14.763  0.6054E-01  0.2800E+02
     14.931  0.1452E-01  0.2800E+02
     15.099 -0.5262E-03  0.2800E+02
     15.267 -0.5710E-05  0.2800E+02
     15.435 -0.5657E-10  0.2800E+02
     15.604  0.0000E+00  0.2800E+02
     15.772  0.0000E+00  0.2800E+02
     15.940  0.0000E+00  0.2800E+02
     16.108  0.0000E+00  0.2800E+02
     16.276  0.0000E+00  0.2800E+02
     16.444  0.0000E+00  0.2800E+02
     16.612  0.0000E+00  0.2800E+02
     16.781  0.0000E+00  0.2800E+02
     16.949  0.0000E+00  0.2800E+02
     17.117  0.0000E+00  0.2800E+02
