    1    1    1    1
  0.5811493E+02  0.4347780E-09  0.4347780E-09  0.4347780E-09  0.1000000E-15
  1.000000000000000E-004
  CAR 
 Og_FCC                                  
     18    365     28
 
  0.0000000E+00  0.0000000E+00  0.0000000E+00  0.1371742E-02
    1      -30.519486   1.000000
    2      -30.519485   1.000000
    3      -30.519485   1.000000
    4      -30.519485   1.000000
    5      -23.831614   1.000000
    6      -23.831614   1.000000
    7      -23.827710   1.000000
    8      -23.827710   1.000000
    9      -23.827709   1.000000
   10      -23.827709   1.000000
   11      -20.252086   1.000000
   12      -20.252085   1.000000
   13       -6.937818   1.000000
   14       -6.937817   1.000000
   15        3.687814   1.002871
   16        3.687816   1.002871
   17        3.911422   0.540956
   18        3.911422   0.540955
   19        3.911422   0.540953
   20        3.911422   0.540952
   21       10.845473   0.000000
   22       10.845475   0.000000
   23       10.845476   0.000000
   24       10.845478   0.000000
   25       11.086418   0.000000
   26       11.086426   0.000000
   27       11.269066   0.000000
   28       11.269068   0.000000
 
  0.1111111E+00  0.1043312E-17 -0.6938894E-17  0.2743484E-02
    1      -30.519421   1.000000
    2      -30.519420   1.000000
    3      -30.519156   1.000000
    4      -30.519156   1.000000
    5      -23.830840   1.000000
    6      -23.830839   1.000000
    7      -23.827821   1.000000
    8      -23.827821   1.000000
    9      -23.826814   1.000000
   10      -23.826814   1.000000
   11      -20.239647   1.000000
   12      -20.239646   1.000000
   13       -6.979966   1.000000
   14       -6.979966   1.000000
   15        2.658888   1.000000
   16        2.658889   1.000000
   17        3.837143   0.987773
   18        3.837143   0.987773
   19        4.982558  -0.000000
   20        4.982560  -0.000000
   21       10.012978   0.000000
   22       10.012979   0.000000
   23       10.966834   0.000000
   24       10.966835   0.000000
   25       11.255620   0.000000
   26       11.255629   0.000000
   27       12.326278   0.000000
   28       12.634778   0.000000
 
  0.2222222E+00 -0.1179116E-16 -0.1387779E-16  0.2743484E-02
    1      -30.519226   1.000000
    2      -30.519225   1.000000
    3      -30.518297   1.000000
    4      -30.518296   1.000000
    5      -23.829676   1.000000
    6      -23.829676   1.000000
    7      -23.827321   1.000000
    8      -23.827320   1.000000
    9      -23.824546   1.000000
   10      -23.824546   1.000000
   11      -20.207694   1.000000
   12      -20.207694   1.000000
   13       -7.086894   1.000000
   14       -7.086894   1.000000
   15        1.725875   1.000000
   16        1.725876   1.000000
   17        3.661024   1.000913
   18        3.661025   1.000913
   19        5.870498  -0.000000
   20        5.870500  -0.000000
   21        9.788759   0.000000
   22        9.788759   0.000000
   23       10.941213   0.000000
   24       10.941220   0.000000
   25       11.307575   0.000000
   26       11.307721   0.000000
   27       11.748219   0.000000
   28       11.882168   0.000000
 
  0.3333333E+00 -0.2462564E-16 -0.1387779E-16  0.2743484E-02
    1      -30.518998   1.000000
    2      -30.518998   1.000000
    3      -30.517284   1.000000
    4      -30.517283   1.000000
    5      -23.829917   1.000000
    6      -23.829917   1.000000
    7      -23.825201   1.000000
    8      -23.825200   1.000000
    9      -23.821959   1.000000
   10      -23.821959   1.000000
   11      -20.170840   1.000000
   12      -20.170840   1.000000
   13       -7.209012   1.000000
   14       -7.209012   1.000000
   15        1.070250   1.000000
   16        1.070251   1.000000
   17        3.478042   1.000000
   18        3.478042   1.000000
   19        6.181748  -0.000000
   20        6.181751  -0.000000
   21       10.368343   0.000000
   22       10.368344   0.000000
   23       10.573995   0.000000
   24       10.573996   0.000000
   25       11.005058   0.000000
   26       11.005058   0.000000
   27       11.245049   0.000000
   28       11.245050   0.000000
 
  0.4444444E+00 -0.2358233E-16 -0.2775558E-16  0.2743484E-02
    1      -30.518836   1.000000
    2      -30.518836   1.000000
    3      -30.516615   1.000000
    4      -30.516614   1.000000
    5      -23.830300   1.000000
    6      -23.830299   1.000000
    7      -23.823598   1.000000
    8      -23.823597   1.000000
    9      -23.820265   1.000000
   10      -23.820265   1.000000
   11      -20.146446   1.000000
   12      -20.146445   1.000000
   13       -7.289003   1.000000
   14       -7.289003   1.000000
   15        0.734000   1.000000
   16        0.734001   1.000000
   17        3.366764   1.000000
   18        3.366764   1.000000
   19        6.190780  -0.000000
   20        6.190784  -0.000000
   21       10.318845   0.000000
   22       10.318845   0.000000
   23       10.512101   0.000000
   24       10.512104   0.000000
   25       10.723676   0.000000
   26       10.723676   0.000000
   27       11.866874   0.000000
   28       11.866875   0.000000
 
  0.0000000E+00  0.1111111E+00  0.0000000E+00  0.2743484E-02
    1      -30.519421   1.000000
    2      -30.519421   1.000000
    3      -30.519156   1.000000
    4      -30.519155   1.000000
    5      -23.830840   1.000000
    6      -23.830839   1.000000
    7      -23.827822   1.000000
    8      -23.827821   1.000000
    9      -23.826814   1.000000
   10      -23.826814   1.000000
   11      -20.239647   1.000000
   12      -20.239646   1.000000
   13       -6.979966   1.000000
   14       -6.979966   1.000000
   15        2.658888   1.000000
   16        2.658889   1.000000
   17        3.837143   0.987773
   18        3.837143   0.987773
   19        4.982559  -0.000000
   20        4.982560  -0.000000
   21       10.012978   0.000000
   22       10.012979   0.000000
   23       10.966833   0.000000
   24       10.966839   0.000000
   25       11.255620   0.000000
   26       11.255651   0.000000
   27       12.283440   0.000000
   28       12.616641   0.000000
 
  0.1111111E+00  0.1111111E+00  0.0000000E+00  0.2743484E-02
    1      -30.519308   1.000000
    2      -30.519307   1.000000
    3      -30.519131   1.000000
    4      -30.519131   1.000000
    5      -23.830701   1.000000
    6      -23.830700   1.000000
    7      -23.827306   1.000000
    8      -23.827305   1.000000
    9      -23.826952   1.000000
   10      -23.826952   1.000000
   11      -20.235495   1.000000
   12      -20.235495   1.000000
   13       -6.993485   1.000000
   14       -6.993485   1.000000
   15        2.551388   1.000000
   16        2.551389   1.000000
   17        3.659687   1.000859
   18        3.659687   1.000859
   19        5.279784  -0.000000
   20        5.279785  -0.000000
   21        9.717771   0.000000
   22        9.717772   0.000000
   23       10.988160   0.000000
   24       10.988162   0.000000
   25       11.568910   0.000000
   26       11.569026   0.000000
   27       11.626766   0.000000
   28       11.627016   0.000000
 
  0.2222222E+00  0.1111111E+00  0.1387779E-16  0.2743484E-02
    1      -30.519119   1.000000
    2      -30.519119   1.000000
    3      -30.518475   1.000000
    4      -30.518475   1.000000
    5      -23.829650   1.000000
    6      -23.829650   1.000000
    7      -23.827257   1.000000
    8      -23.827257   1.000000
    9      -23.824907   1.000000
   10      -23.824907   1.000000
   11      -20.210048   1.000000
   12      -20.210048   1.000000
   13       -7.077372   1.000000
   14       -7.077371   1.000000
   15        1.859675   1.000000
   16        1.859676   1.000000
   17        3.439608   1.000000
   18        3.439608   1.000000
   19        6.101717  -0.000000
   20        6.101719  -0.000000
   21        9.343793   0.000000
   22        9.343793   0.000000
   23       10.474059   0.000000
   24       10.474061   0.000000
   25       11.411683   0.000000
   26       11.411685   0.000000
   27       12.078989   0.000000
   28       12.079211   0.000000
 
  0.3333333E+00  0.1111111E+00  0.0000000E+00  0.2743484E-02
    1      -30.518876   1.000000
    2      -30.518875   1.000000
    3      -30.517515   1.000000
    4      -30.517515   1.000000
    5      -23.829235   1.000000
    6      -23.829235   1.000000
    7      -23.825919   1.000000
    8      -23.825918   1.000000
    9      -23.822367   1.000000
   10      -23.822367   1.000000
   11      -20.174788   1.000000
   12      -20.174788   1.000000
   13       -7.192320   1.000000
   14       -7.192320   1.000000
   15        1.215851   1.000000
   16        1.215852   1.000000
   17        3.201239   1.000000
   18        3.201239   1.000000
   19        6.602808  -0.000000
   20        6.602811  -0.000000
   21        9.637122   0.000000
   22        9.637123   0.000000
   23        9.901211   0.000000
   24        9.901213   0.000000
   25       11.293392   0.000000
   26       11.293397   0.000000
   27       12.568614   0.000000
   28       12.832805   0.000000
 
  0.4444444E+00  0.1111111E+00 -0.2775558E-16  0.2743484E-02
    1      -30.518687   1.000000
    2      -30.518687   1.000000
    3      -30.516785   1.000000
    4      -30.516784   1.000000
    5      -23.829504   1.000000
    6      -23.829504   1.000000
    7      -23.823921   1.000000
    8      -23.823921   1.000000
    9      -23.820673   1.000000
   10      -23.820673   1.000000
   11      -20.146252   1.000000
   12      -20.146252   1.000000
   13       -7.284557   1.000000
   14       -7.284557   1.000000
   15        0.814500   1.000000
   16        0.814501   1.000000
   17        3.018101   1.000000
   18        3.018101   1.000000
   19        6.701095   0.000000
   20        6.701098   0.000000
   21        9.359446   0.000000
   22        9.359447   0.000000
   23       10.666518   0.000000
   24       10.666520   0.000000
   25       11.177768   0.000000
   26       11.177770   0.000000
   27       12.296657   0.000000
   28       12.296717   0.000000
 
 -0.4444444E+00  0.1111111E+00  0.2775558E-16  0.2743484E-02
    1      -30.518624   1.000000
    2      -30.518624   1.000000
    3      -30.516574   1.000000
    4      -30.516573   1.000000
    5      -23.829581   1.000000
    6      -23.829581   1.000000
    7      -23.823192   1.000000
    8      -23.823191   1.000000
    9      -23.820360   1.000000
   10      -23.820360   1.000000
   11      -20.138095   1.000000
   12      -20.138094   1.000000
   13       -7.310744   1.000000
   14       -7.310744   1.000000
   15        0.710138   1.000000
   16        0.710138   1.000000
   17        2.965243   1.000000
   18        2.965243   1.000000
   19        6.718254   0.000000
   20        6.718257   0.000000
   21        9.288732   0.000000
   22        9.288733   0.000000
   23       10.673403   0.000000
   24       10.673406   0.000000
   25       11.541177   0.000000
   26       11.541177   0.000000
   27       12.446874   0.000000
   28       12.446879   0.000000
 
 -0.3333333E+00  0.1111111E+00  0.1387779E-16  0.2743484E-02
    1      -30.518738   1.000000
    2      -30.518738   1.000000
    3      -30.516989   1.000000
    4      -30.516989   1.000000
    5      -23.829296   1.000000
    6      -23.829296   1.000000
    7      -23.824500   1.000000
    8      -23.824500   1.000000
    9      -23.821268   1.000000
   10      -23.821268   1.000000
   11      -20.154332   1.000000
   12      -20.154331   1.000000
   13       -7.258762   1.000000
   14       -7.258762   1.000000
   15        0.913052   1.000000
   16        0.913053   1.000000
   17        3.067123   1.000000
   18        3.067124   1.000000
   19        6.727181   0.000000
   20        6.727183   0.000000
   21        9.518799   0.000000
   22        9.518800   0.000000
   23       10.589933   0.000000
   24       10.589935   0.000000
   25       10.920942   0.000000
   26       10.920945   0.000000
   27       12.535445   0.000000
   28       12.540605   0.000000
 
 -0.2222222E+00  0.1111111E+00  0.0000000E+00  0.2743484E-02
    1      -30.518975   1.000000
    2      -30.518975   1.000000
    3      -30.517837   1.000000
    4      -30.517836   1.000000
    5      -23.828894   1.000000
    6      -23.828894   1.000000
    7      -23.826887   1.000000
    8      -23.826886   1.000000
    9      -23.823226   1.000000
   10      -23.823226   1.000000
   11      -20.187051   1.000000
   12      -20.187051   1.000000
   13       -7.153066   1.000000
   14       -7.153066   1.000000
   15        1.397233   1.000000
   16        1.397234   1.000000
   17        3.300929   1.000000
   18        3.300930   1.000000
   19        6.500095  -0.000000
   20        6.500097  -0.000000
   21        9.614863   0.000000
   22        9.614863   0.000000
   23       10.261828   0.000000
   24       10.261829   0.000000
   25       11.130229   0.000000
   26       11.130233   0.000000
   27       12.068549   0.000000
   28       12.071946   0.000000
 
 -0.1111111E+00  0.1111111E+00 -0.3696723E-18  0.2743484E-02
    1      -30.519249   1.000000
    2      -30.519249   1.000000
    3      -30.518701   1.000000
    4      -30.518700   1.000000
    5      -23.829776   1.000000
    6      -23.829775   1.000000
    7      -23.827838   1.000000
    8      -23.827837   1.000000
    9      -23.825511   1.000000
   10      -23.825511   1.000000
   11      -20.220666   1.000000
   12      -20.220666   1.000000
   13       -7.043044   1.000000
   14       -7.043044   1.000000
   15        2.071750   1.000000
   16        2.071751   1.000000
   17        3.604710   1.000048
   18        3.604710   1.000048
   19        5.751527  -0.000000
   20        5.751529  -0.000000
   21        9.610889   0.000000
   22        9.610890   0.000000
   23       10.854320   0.000000
   24       10.854322   0.000000
   25       11.353044   0.000000
   26       11.353188   0.000000
   27       11.889090   0.000000
   28       11.993929   0.000000
 
 -0.3851860E-33  0.2222222E+00  0.0000000E+00  0.2743484E-02
    1      -30.519226   1.000000
    2      -30.519226   1.000000
    3      -30.518296   1.000000
    4      -30.518296   1.000000
    5      -23.829676   1.000000
    6      -23.829676   1.000000
    7      -23.827321   1.000000
    8      -23.827320   1.000000
    9      -23.824546   1.000000
   10      -23.824546   1.000000
   11      -20.207694   1.000000
   12      -20.207694   1.000000
   13       -7.086894   1.000000
   14       -7.086894   1.000000
   15        1.725876   1.000000
   16        1.725876   1.000000
   17        3.661024   1.000913
   18        3.661024   1.000913
   19        5.870498  -0.000000
   20        5.870500  -0.000000
   21        9.788759   0.000000
   22        9.788760   0.000000
   23       10.941214   0.000000
   24       10.941219   0.000000
   25       11.307561   0.000000
   26       11.307603   0.000000
   27       11.747541   0.000000
   28       11.775013   0.000000
 
  0.1111111E+00  0.2222222E+00 -0.5551115E-16  0.2743484E-02
    1      -30.519119   1.000000
    2      -30.519119   1.000000
    3      -30.518475   1.000000
    4      -30.518475   1.000000
    5      -23.829650   1.000000
    6      -23.829650   1.000000
    7      -23.827257   1.000000
    8      -23.827257   1.000000
    9      -23.824907   1.000000
   10      -23.824906   1.000000
   11      -20.210048   1.000000
   12      -20.210048   1.000000
   13       -7.077372   1.000000
   14       -7.077371   1.000000
   15        1.859675   1.000000
   16        1.859676   1.000000
   17        3.439608   1.000000
   18        3.439608   1.000000
   19        6.101717  -0.000000
   20        6.101719  -0.000000
   21        9.343793   0.000000
   22        9.343793   0.000000
   23       10.474059   0.000000
   24       10.474061   0.000000
   25       11.411684   0.000000
   26       11.411687   0.000000
   27       12.079024   0.000000
   28       12.079530   0.000000
 
  0.2222222E+00  0.2222222E+00  0.2775558E-16  0.2743484E-02
    1      -30.518840   1.000000
    2      -30.518840   1.000000
    3      -30.518204   1.000000
    4      -30.518203   1.000000
    5      -23.829656   1.000000
    6      -23.829655   1.000000
    7      -23.826298   1.000000
    8      -23.826298   1.000000
    9      -23.823757   1.000000
   10      -23.823756   1.000000
   11      -20.193084   1.000000
   12      -20.193083   1.000000
   13       -7.130218   1.000000
   14       -7.130218   1.000000
   15        1.630557   1.000000
   16        1.630558   1.000000
   17        3.115678   1.000000
   18        3.115678   1.000000
   19        6.631910  -0.000000
   20        6.631911  -0.000000
   21        8.739837   0.000000
   22        8.739838   0.000000
   23        9.925148   0.000000
   24        9.925150   0.000000
   25       11.675331   0.000000
   26       11.675333   0.000000
   27       12.613565   0.000000
   28       12.613571   0.000000
 
  0.3333333E+00  0.2222222E+00 -0.8326673E-16  0.2743484E-02
    1      -30.518546   1.000000
    2      -30.518546   1.000000
    3      -30.517508   1.000000
    4      -30.517508   1.000000
    5      -23.829050   1.000000
    6      -23.829050   1.000000
    7      -23.825757   1.000000
    8      -23.825757   1.000000
    9      -23.821402   1.000000
   10      -23.821402   1.000000
   11      -20.164383   1.000000
   12      -20.164382   1.000000
   13       -7.219841   1.000000
   14       -7.219841   1.000000
   15        1.222292   1.000000
   16        1.222293   1.000000
   17        2.813647   1.000000
   18        2.813647   1.000000
   19        7.022342   0.000000
   20        7.022343   0.000000
   21        8.623151   0.000000
   22        8.623151   0.000000
   23        9.578149   0.000000
   24        9.578151   0.000000
   25       11.978653   0.000000
   26       11.978655   0.000000
   27       13.150013   0.000000
   28       13.150057   0.000000
 
  0.4444444E+00  0.2222222E+00 -0.2775558E-16  0.2743484E-02
    1      -30.518276   1.000000
    2      -30.518276   1.000000
    3      -30.516883   1.000000
    4      -30.516882   1.000000
    5      -23.828443   1.000000
    6      -23.828442   1.000000
    7      -23.824524   1.000000
    8      -23.824523   1.000000
    9      -23.819993   1.000000
   10      -23.819993   1.000000
   11      -20.137374   1.000000
   12      -20.137373   1.000000
   13       -7.303084   1.000000
   14       -7.303084   1.000000
   15        0.898107   1.000000
   16        0.898108   1.000000
   17        2.504482   1.000000
   18        2.504483   1.000000
   19        7.211965   0.000000
   20        7.211968   0.000000
   21        8.785310   0.000000
   22        8.785310   0.000000
   23        9.861009   0.000000
   24        9.861011   0.000000
   25       11.791308   0.000000
   26       11.791311   0.000000
   27       13.465028   0.000000
   28       13.466016   0.000000
 
 -0.4444444E+00  0.2222222E+00  0.1387779E-16  0.2743484E-02
    1      -30.518130   1.000000
    2      -30.518130   1.000000
    3      -30.516608   1.000000
    4      -30.516607   1.000000
    5      -23.828133   1.000000
    6      -23.828133   1.000000
    7      -23.822955   1.000000
    8      -23.822954   1.000000
    9      -23.820387   1.000000
   10      -23.820386   1.000000
   11      -20.124860   1.000000
   12      -20.124860   1.000000
   13       -7.341161   1.000000
   14       -7.341161   1.000000
   15        0.755393   1.000000
   16        0.755394   1.000000
   17        2.339887   1.000000
   18        2.339887   1.000000
   19        7.389921   0.000000
   20        7.389924   0.000000
   21        8.709984   0.000000
   22        8.709984   0.000000
   23       10.863515   0.000000
   24       10.863516   0.000000
   25       11.607667   0.000000
   26       11.607669   0.000000
   27       12.852190   0.000000
   28       12.852241   0.000000
 
 -0.3333333E+00  0.2222222E+00 -0.1387779E-16  0.2743484E-02
    1      -30.518217   1.000000
    2      -30.518217   1.000000
    3      -30.516774   1.000000
    4      -30.516773   1.000000
    5      -23.827860   1.000000
    6      -23.827860   1.000000
    7      -23.823252   1.000000
    8      -23.823251   1.000000
    9      -23.821328   1.000000
   10      -23.821328   1.000000
   11      -20.132871   1.000000
   12      -20.132871   1.000000
   13       -7.317609   1.000000
   14       -7.317609   1.000000
   15        0.814701   1.000000
   16        0.814702   1.000000
   17        2.426606   1.000000
   18        2.426607   1.000000
   19        7.594669   0.000000
   20        7.594673   0.000000
   21        8.724970   0.000000
   22        8.724970   0.000000
   23       10.649918   0.000000
   24       10.649919   0.000000
   25       11.587963   0.000000
   26       11.587968   0.000000
   27       12.996595   0.000000
   28       13.116920   0.000000
 
 -0.2222222E+00  0.2222222E+00 -0.1619802E-16  0.2743484E-02
    1      -30.518558   1.000000
    2      -30.518558   1.000000
    3      -30.517271   1.000000
    4      -30.517270   1.000000
    5      -23.827754   1.000000
    6      -23.827754   1.000000
    7      -23.825812   1.000000
    8      -23.825811   1.000000
    9      -23.821853   1.000000
   10      -23.821853   1.000000
   11      -20.157546   1.000000
   12      -20.157546   1.000000
   13       -7.243848   1.000000
   14       -7.243848   1.000000
   15        1.053131   1.000000
   16        1.053132   1.000000
   17        2.776337   1.000000
   18        2.776337   1.000000
   19        7.360855   0.000000
   20        7.360858   0.000000
   21        9.079429   0.000000
   22        9.079430   0.000000
   23       10.003493   0.000000
   24       10.003494   0.000000
   25       11.357423   0.000000
   26       11.357426   0.000000
   27       12.135614   0.000000
   28       12.135618   0.000000
 
 -0.1111111E+00  0.2222222E+00 -0.6938894E-17  0.2743484E-02
    1      -30.518975   1.000000
    2      -30.518975   1.000000
    3      -30.517837   1.000000
    4      -30.517836   1.000000
    5      -23.828894   1.000000
    6      -23.828894   1.000000
    7      -23.826887   1.000000
    8      -23.826886   1.000000
    9      -23.823226   1.000000
   10      -23.823226   1.000000
   11      -20.187051   1.000000
   12      -20.187051   1.000000
   13       -7.153066   1.000000
   14       -7.153066   1.000000
   15        1.397233   1.000000
   16        1.397234   1.000000
   17        3.300929   1.000000
   18        3.300930   1.000000
   19        6.500095  -0.000000
   20        6.500097  -0.000000
   21        9.614863   0.000000
   22        9.614864   0.000000
   23       10.261828   0.000000
   24       10.261829   0.000000
   25       11.130229   0.000000
   26       11.130231   0.000000
   27       12.068400   0.000000
   28       12.085303   0.000000
 
 -0.3851860E-33  0.3333333E+00 -0.1387779E-16  0.2743484E-02
    1      -30.518998   1.000000
    2      -30.518998   1.000000
    3      -30.517284   1.000000
    4      -30.517283   1.000000
    5      -23.829917   1.000000
    6      -23.829917   1.000000
    7      -23.825201   1.000000
    8      -23.825200   1.000000
    9      -23.821959   1.000000
   10      -23.821959   1.000000
   11      -20.170840   1.000000
   12      -20.170840   1.000000
   13       -7.209012   1.000000
   14       -7.209012   1.000000
   15        1.070251   1.000000
   16        1.070251   1.000000
   17        3.478042   1.000000
   18        3.478042   1.000000
   19        6.181748  -0.000000
   20        6.181751  -0.000000
   21       10.368343   0.000000
   22       10.368344   0.000000
   23       10.573995   0.000000
   24       10.573996   0.000000
   25       11.005057   0.000000
   26       11.005058   0.000000
   27       11.245048   0.000000
   28       11.245050   0.000000
 
  0.1111111E+00  0.3333333E+00 -0.2775558E-16  0.2743484E-02
    1      -30.518876   1.000000
    2      -30.518875   1.000000
    3      -30.517515   1.000000
    4      -30.517514   1.000000
    5      -23.829235   1.000000
    6      -23.829235   1.000000
    7      -23.825919   1.000000
    8      -23.825918   1.000000
    9      -23.822367   1.000000
   10      -23.822367   1.000000
   11      -20.174788   1.000000
   12      -20.174788   1.000000
   13       -7.192320   1.000000
   14       -7.192320   1.000000
   15        1.215851   1.000000
   16        1.215852   1.000000
   17        3.201238   1.000000
   18        3.201239   1.000000
   19        6.602808  -0.000000
   20        6.602811  -0.000000
   21        9.637122   0.000000
   22        9.637123   0.000000
   23        9.901211   0.000000
   24        9.901213   0.000000
   25       11.293392   0.000000
   26       11.293395   0.000000
   27       12.570082   0.000000
   28       12.664588   0.000000
 
  0.2222222E+00  0.3333333E+00 -0.2775558E-16  0.2743484E-02
    1      -30.518546   1.000000
    2      -30.518546   1.000000
    3      -30.517508   1.000000
    4      -30.517508   1.000000
    5      -23.829050   1.000000
    6      -23.829050   1.000000
    7      -23.825757   1.000000
    8      -23.825757   1.000000
    9      -23.821402   1.000000
   10      -23.821401   1.000000
   11      -20.164383   1.000000
   12      -20.164382   1.000000
   13       -7.219841   1.000000
   14       -7.219841   1.000000
   15        1.222292   1.000000
   16        1.222293   1.000000
   17        2.813647   1.000000
   18        2.813647   1.000000
   19        7.022342   0.000000
   20        7.022343   0.000000
   21        8.623151   0.000000
   22        8.623151   0.000000
   23        9.578149   0.000000
   24        9.578151   0.000000
   25       11.978653   0.000000
   26       11.978655   0.000000
   27       13.150014   0.000000
   28       13.150030   0.000000
 
  0.3333333E+00  0.3333333E+00 -0.5551115E-16  0.2743484E-02
    1      -30.518268   1.000000
    2      -30.518268   1.000000
    3      -30.517104   1.000000
    4      -30.517104   1.000000
    5      -23.829284   1.000000
    6      -23.829284   1.000000
    7      -23.825184   1.000000
    8      -23.825184   1.000000
    9      -23.819282   1.000000
   10      -23.819281   1.000000
   11      -20.144263   1.000000
   12      -20.144262   1.000000
   13       -7.278881   1.000000
   14       -7.278881   1.000000
   15        1.041549   1.000000
   16        1.041550   1.000000
   17        2.604021   1.000000
   18        2.604022   1.000000
   19        6.823933   0.000000
   20        6.823934   0.000000
   21        8.084867   0.000000
   22        8.084868   0.000000
   23        9.943232   0.000000
   24        9.943233   0.000000
   25       12.729456   0.000000
   26       12.729458   0.000000
   27       13.813202   0.000000
   28       13.813466   0.000000
 
  0.4444444E+00  0.3333333E+00 -0.5551115E-16  0.2743484E-02
    1      -30.517990   1.000000
    2      -30.517990   1.000000
    3      -30.516674   1.000000
    4      -30.516673   1.000000
    5      -23.828743   1.000000
    6      -23.828742   1.000000
    7      -23.824661   1.000000
    8      -23.824661   1.000000
    9      -23.817886   1.000000
   10      -23.817886   1.000000
   11      -20.123843   1.000000
   12      -20.123843   1.000000
   13       -7.338793   1.000000
   14       -7.338793   1.000000
   15        0.863825   1.000000
   16        0.863826   1.000000
   17        2.320200   1.000000
   18        2.320200   1.000000
   19        6.791429   0.000000
   20        6.791431   0.000000
   21        8.132347   0.000000
   22        8.132348   0.000000
   23       10.209396   0.000000
   24       10.209398   0.000000
   25       12.946205   0.000000
   26       12.946206   0.000000
   27       14.188332   0.000000
   28       14.189199   0.000000
 
 -0.4444444E+00  0.3333333E+00 -0.1387779E-16  0.2743484E-02
    1      -30.517762   1.000000
    2      -30.517762   1.000000
    3      -30.516543   1.000000
    4      -30.516542   1.000000
    5      -23.827769   1.000000
    6      -23.827768   1.000000
    7      -23.823804   1.000000
    8      -23.823804   1.000000
    9      -23.818407   1.000000
   10      -23.818407   1.000000
   11      -20.112849   1.000000
   12      -20.112849   1.000000
   13       -7.370298   1.000000
   14       -7.370298   1.000000
   15        0.799253   1.000000
   16        0.799254   1.000000
   17        2.019743   1.000000
   18        2.019744   1.000000
   19        7.043442   0.000000
   20        7.043444   0.000000
   21        8.640236   0.000000
   22        8.640236   0.000000
   23       10.493728   0.000000
   24       10.493730   0.000000
   25       12.387350   0.000000
   26       12.387351   0.000000
   27       13.466930   0.000000
   28       13.467272   0.000000
 
 -0.3333333E+00  0.3333333E+00 -0.1346428E-16  0.2743484E-02
    1      -30.517797   1.000000
    2      -30.517797   1.000000
    3      -30.516637   1.000000
    4      -30.516637   1.000000
    5      -23.827287   1.000000
    6      -23.827286   1.000000
    7      -23.822552   1.000000
    8      -23.822552   1.000000
    9      -23.820588   1.000000
   10      -23.820587   1.000000
   11      -20.116464   1.000000
   12      -20.116463   1.000000
   13       -7.361041   1.000000
   14       -7.361040   1.000000
   15        0.792829   1.000000
   16        0.792831   1.000000
   17        2.017789   1.000000
   18        2.017789   1.000000
   19        7.454497   0.000000
   20        7.454500   0.000000
   21        8.845404   0.000000
   22        8.845404   0.000000
   23       11.340068   0.000000
   24       11.340069   0.000000
   25       11.498232   0.000000
   26       11.498235   0.000000
   27       12.496661   0.000000
   28       12.496728   0.000000
 
 -0.2222222E+00  0.3333333E+00  0.2775558E-16  0.2743484E-02
    1      -30.518217   1.000000
    2      -30.518217   1.000000
    3      -30.516774   1.000000
    4      -30.516773   1.000000