    1    1    1    1
  0.6021489E+02  0.4399530E-09  0.4399530E-09  0.4399530E-09  0.1000000E-15
  1.000000000000000E-004
  CAR 
 Og_FCC                                  
     18    365     28
 
  0.0000000E+00  0.0000000E+00  0.0000000E+00  0.1371742E-02
    1      -31.035954   1.000000
    2      -31.035937   1.000000
    3      -31.035922   1.000000
    4      -31.035905   1.000000
    5      -24.347198   1.000000
    6      -24.347162   1.000000
    7      -24.343590   1.000000
    8      -24.343575   1.000000
    9      -24.343535   1.000000
   10      -24.343521   1.000000
   11      -20.713393   1.000000
   12      -20.712781   1.000000
   13       -6.959892   1.000000
   14       -6.959701   1.000000
   15        3.144696   0.864389
   16        3.144766   0.864002
   17        3.144986   0.862764
   18        3.145057   0.862365
   19        3.382007  -0.011438
   20        3.382405  -0.011306
   21       10.505238   0.000000
   22       10.505320   0.000000
   23       10.505576   0.000000
   24       10.505658   0.000000
   25       10.934105   0.000000
   26       10.934221   0.000000
   27       11.080978   0.000000
   28       11.081207   0.000000
 
  0.1111111E+00  0.1031040E-17 -0.6938894E-17  0.2743484E-02
    1      -31.035991   1.000000
    2      -31.035948   1.000000
    3      -31.035704   1.000000
    4      -31.035683   1.000000
    5      -24.346535   1.000000
    6      -24.346486   1.000000
    7      -24.343714   1.000000
    8      -24.343673   1.000000
    9      -24.342754   1.000000
   10      -24.342706   1.000000
   11      -20.701213   1.000000
   12      -20.700600   1.000000
   13       -7.003831   1.000000
   14       -7.003643   1.000000
   15        2.110813   1.000000
   16        2.110925   1.000000
   17        3.075844   1.035103
   18        3.076160   1.035051
   19        4.479285  -0.000000
   20        4.479477  -0.000000
   21        9.794978   0.000000
   22        9.795280   0.000000
   23       10.625096   0.000000
   24       10.625375   0.000000
   25       10.940919   0.000000
   26       10.941129   0.000000
   27       12.165970   0.000000
   28       12.312152   0.000000
 
  0.2222222E+00 -0.1181571E-16  0.0000000E+00  0.2743484E-02
    1      -31.035779   1.000000
    2      -31.035736   1.000000
    3      -31.034842   1.000000
    4      -31.034822   1.000000
    5      -24.345471   1.000000
    6      -24.345373   1.000000
    7      -24.343189   1.000000
    8      -24.343155   1.000000
    9      -24.340584   1.000000
   10      -24.340536   1.000000
   11      -20.670065   1.000000
   12      -20.669448   1.000000
   13       -7.115094   1.000000
   14       -7.114913   1.000000
   15        1.177156   1.000000
   16        1.177270   1.000000
   17        2.911642   1.000246
   18        2.911958   1.000250
   19        5.442221  -0.000000
   20        5.442499  -0.000000
   21        9.517910   0.000000
   22        9.518081   0.000000
   23       10.607596   0.000000
   24       10.607871   0.000000
   25       11.005015   0.000000
   26       11.005221   0.000000
   27       11.639842   0.000000
   28       11.641419   0.000000
 
  0.3333333E+00  0.3093120E-17  0.0000000E+00  0.2743484E-02
    1      -31.035539   1.000000
    2      -31.035496   1.000000
    3      -31.033870   1.000000
    4      -31.033850   1.000000
    5      -24.345691   1.000000
    6      -24.345595   1.000000
    7      -24.341141   1.000000
    8      -24.341115   1.000000
    9      -24.338114   1.000000
   10      -24.338066   1.000000
   11      -20.634168   1.000000
   12      -20.633548   1.000000
   13       -7.242248   1.000000
   14       -7.242076   1.000000
   15        0.525187   1.000000
   16        0.525299   1.000000
   17        2.739840   1.000000
   18        2.740157   1.000000
   19        5.843669  -0.000000
   20        5.844064  -0.000000
   21       10.033412   0.000000
   22       10.033448   0.000000
   23       10.247873   0.000000
   24       10.248133   0.000000
   25       10.685397   0.000000
   26       10.685614   0.000000
   27       11.154213   0.000000
   28       11.154472   0.000000
 
  0.4444444E+00 -0.2363142E-16  0.0000000E+00  0.2743484E-02
    1      -31.035429   1.000000
    2      -31.035386   1.000000
    3      -31.033257   1.000000
    4      -31.033237   1.000000
    5      -24.346066   1.000000
    6      -24.345975   1.000000
    7      -24.339614   1.000000
    8      -24.339592   1.000000
    9      -24.336517   1.000000
   10      -24.336470   1.000000
   11      -20.610470   1.000000
   12      -20.609847   1.000000
   13       -7.325645   1.000000
   14       -7.325479   1.000000
   15        0.192194   1.000000
   16        0.192305   1.000000
   17        2.634841   1.000000
   18        2.635158   1.000000
   19        5.893447  -0.000000
   20        5.893892  -0.000000
   21        9.993268   0.000000
   22        9.993525   0.000000
   23       10.280110   0.000000
   24       10.280145   0.000000
   25       10.413257   0.000000
   26       10.413448   0.000000
   27       11.667905   0.000000
   28       11.667962   0.000000
 
  0.0000000E+00  0.1111111E+00  0.0000000E+00  0.2743484E-02
    1      -31.035976   1.000000
    2      -31.035963   1.000000
    3      -31.035710   1.000000
    4      -31.035677   1.000000
    5      -24.346525   1.000000
    6      -24.346496   1.000000
    7      -24.343711   1.000000
    8      -24.343678   1.000000
    9      -24.342735   1.000000
   10      -24.342724   1.000000
   11      -20.701213   1.000000
   12      -20.700600   1.000000
   13       -7.003832   1.000000
   14       -7.003642   1.000000
   15        2.110762   1.000000
   16        2.110976   1.000000
   17        3.075942   1.035087
   18        3.076062   1.035068
   19        4.479268  -0.000000
   20        4.479495  -0.000000
   21        9.794942   0.000000
   22        9.795315   0.000000
   23       10.625103   0.000000
   24       10.625369   0.000000
   25       10.940926   0.000000
   26       10.941123   0.000000
   27       12.143585   0.000000
   28       12.222222   0.000000
 
  0.1111111E+00  0.1111111E+00  0.0000000E+00  0.2743484E-02
    1      -31.035896   1.000000
    2      -31.035870   1.000000
    3      -31.035684   1.000000
    4      -31.035656   1.000000
    5      -24.346395   1.000000
    6      -24.346362   1.000000
    7      -24.343218   1.000000
    8      -24.343177   1.000000
    9      -24.342901   1.000000
   10      -24.342857   1.000000
   11      -20.697156   1.000000
   12      -20.696542   1.000000
   13       -7.017864   1.000000
   14       -7.017677   1.000000
   15        2.008519   1.000000
   16        2.008679   1.000000
   17        2.915019   1.000293
   18        2.915279   1.000297
   19        4.759515  -0.000000
   20        4.759711  -0.000000
   21        9.506098   0.000000
   22        9.506446   0.000000
   23       10.655308   0.000000
   24       10.655494   0.000000
   25       11.223004   0.000000
   26       11.223074   0.000000
   27       11.409079   0.000000
   28       11.409336   0.000000
 
  0.2222222E+00  0.1111111E+00  0.2775558E-16  0.2743484E-02
    1      -31.035662   1.000000
    2      -31.035620   1.000000
    3      -31.034991   1.000000
    4      -31.034970   1.000000
    5      -24.345409   1.000000
    6      -24.345336   1.000000
    7      -24.343137   1.000000
    8      -24.343104   1.000000
    9      -24.340909   1.000000
   10      -24.340879   1.000000
   11      -20.672336   1.000000
   12      -20.671720   1.000000
   13       -7.105013   1.000000
   14       -7.104834   1.000000
   15        1.312070   1.000000
   16        1.312191   1.000000
   17        2.714781   1.000000
   18        2.715103   1.000000
   19        5.624492  -0.000000
   20        5.624702  -0.000000
   21        9.110480   0.000000
   22        9.110762   0.000000
   23       10.213869   0.000000
   24       10.214212   0.000000
   25       11.103431   0.000000
   26       11.103580   0.000000
   27       11.754199   0.000000
   28       11.754388   0.000000
 
  0.3333333E+00  0.1111111E+00  0.0000000E+00  0.2743484E-02
    1      -31.035399   1.000000
    2      -31.035356   1.000000
    3      -31.034093   1.000000
    4      -31.034073   1.000000
    5      -24.345034   1.000000
    6      -24.344934   1.000000
    7      -24.341830   1.000000
    8      -24.341794   1.000000
    9      -24.338490   1.000000
   10      -24.338461   1.000000
   11      -20.638018   1.000000
   12      -20.637398   1.000000
   13       -7.224590   1.000000
   14       -7.224419   1.000000
   15        0.668398   1.000000
   16        0.668508   1.000000
   17        2.496518   1.000000
   18        2.496842   1.000000
   19        6.212845   0.000000
   20        6.213153   0.000000
   21        9.349922   0.000000
   22        9.350064   0.000000
   23        9.634660   0.000000
   24        9.634988   0.000000
   25       10.972121   0.000000
   26       10.972416   0.000000
   27       12.377080   0.000000
   28       12.469666   0.000000
 
  0.4444444E+00  0.1111111E+00  0.0000000E+00  0.2743484E-02
    1      -31.035214   1.000000
    2      -31.035171   1.000000
    3      -31.033396   1.000000
    4      -31.033375   1.000000
    5      -24.345282   1.000000
    6      -24.345187   1.000000
    7      -24.339921   1.000000
    8      -24.339893   1.000000
    9      -24.336891   1.000000
   10      -24.336857   1.000000
   11      -20.610205   1.000000
   12      -20.609582   1.000000
   13       -7.320493   1.000000
   14       -7.320328   1.000000
   15        0.269454   1.000000
   16        0.269559   1.000000
   17        2.327900   1.000000
   18        2.328219   1.000000
   19        6.367639   0.000000
   20        6.368020   0.000000
   21        9.098580   0.000000
   22        9.098866   0.000000
   23       10.350999   0.000000
   24       10.351113   0.000000
   25       10.834384   0.000000
   26       10.834541   0.000000
   27       12.126440   0.000000
   28       12.126701   0.000000
 
 -0.4444444E+00  0.1111111E+00 -0.2775558E-16  0.2743484E-02
    1      -31.035130   1.000000
    2      -31.035086   1.000000
    3      -31.033158   1.000000
    4      -31.033137   1.000000
    5      -24.345343   1.000000
    6      -24.345250   1.000000
    7      -24.339204   1.000000
    8      -24.339180   1.000000
    9      -24.336586   1.000000
   10      -24.336539   1.000000
   11      -20.602252   1.000000
   12      -20.601629   1.000000
   13       -7.347681   1.000000
   14       -7.347515   1.000000
   15        0.166030   1.000000
   16        0.166137   1.000000
   17        2.279633   1.000000
   18        2.279944   1.000000
   19        6.394761   0.000000
   20        6.395161   0.000000
   21        9.029638   0.000000
   22        9.029920   0.000000
   23       10.360335   0.000000
   24       10.360650   0.000000
   25       11.193719   0.000000
   26       11.193803   0.000000
   27       12.291561   0.000000
   28       12.291797   0.000000
 
 -0.3333333E+00  0.1111111E+00  0.2775558E-16  0.2743484E-02
    1      -31.035286   1.000000
    2      -31.035244   1.000000
    3      -31.033597   1.000000
    4      -31.033576   1.000000
    5      -24.345099   1.000000
    6      -24.345006   1.000000
    7      -24.340469   1.000000
    8      -24.340450   1.000000
    9      -24.337466   1.000000
   10      -24.337414   1.000000
   11      -20.618088   1.000000
   12      -20.617466   1.000000
   13       -7.293699   1.000000
   14       -7.293528   1.000000
   15        0.367416   1.000000
   16        0.367531   1.000000
   17        2.374736   1.000000
   18        2.375035   1.000000
   19        6.377202   0.000000
   20        6.377573   0.000000
   21        9.257433   0.000000
   22        9.257692   0.000000
   23       10.268493   0.000000
   24       10.268566   0.000000
   25       10.599204   0.000000
   26       10.599496   0.000000
   27       12.363040   0.000000
   28       12.634978   0.000000
 
 -0.2222222E+00  0.1111111E+00  0.0000000E+00  0.2743484E-02
    1      -31.035501   1.000000
    2      -31.035460   1.000000
    3      -31.034405   1.000000
    4      -31.034382   1.000000
    5      -24.344716   1.000000
    6      -24.344618   1.000000
    7      -24.342753   1.000000
    8      -24.342733   1.000000
    9      -24.339324   1.000000
   10      -24.339272   1.000000
   11      -20.649952   1.000000
   12      -20.649333   1.000000
   13       -7.183784   1.000000
   14       -7.183604   1.000000
   15        0.849437   1.000000
   16        0.849566   1.000000
   17        2.590469   1.000000
   18        2.590741   1.000000
   19        6.077398   0.000000
   20        6.077674   0.000000
   21        9.341211   0.000000
   22        9.341406   0.000000
   23        9.990275   0.000000
   24        9.990543   0.000000
   25       10.833511   0.000000
   26       10.833871   0.000000
   27       11.786755   0.000000
   28       11.787007   0.000000
 
 -0.1111111E+00  0.1111111E+00  0.8153288E-17  0.2743484E-02
    1      -31.035815   1.000000
    2      -31.035781   1.000000
    3      -31.035261   1.000000
    4      -31.035236   1.000000
    5      -24.345520   1.000000
    6      -24.345472   1.000000
    7      -24.343723   1.000000
    8      -24.343676   1.000000
    9      -24.341515   1.000000
   10      -24.341469   1.000000
   11      -20.682704   1.000000
   12      -20.682088   1.000000
   13       -7.069425   1.000000
   14       -7.069238   1.000000
   15        1.523740   1.000000
   16        1.523900   1.000000
   17        2.867186   1.000020
   18        2.867394   1.000020
   19        5.265132  -0.000000
   20        5.265333  -0.000000
   21        9.382729   0.000000
   22        9.383061   0.000000
   23       10.550396   0.000000
   24       10.550701   0.000000
   25       11.047060   0.000000
   26       11.047386   0.000000
   27       11.627581   0.000000
   28       11.631214   0.000000
 
  0.3851860E-33  0.2222222E+00  0.1387779E-16  0.2743484E-02
    1      -31.035764   1.000000
    2      -31.035750   1.000000
    3      -31.034849   1.000000
    4      -31.034816   1.000000
    5      -24.345424   1.000000
    6      -24.345418   1.000000
    7      -24.343204   1.000000
    8      -24.343143   1.000000
    9      -24.340565   1.000000
   10      -24.340554   1.000000
   11      -20.670065   1.000000
   12      -20.669448   1.000000
   13       -7.115098   1.000000
   14       -7.114909   1.000000
   15        1.177100   1.000000
   16        1.177326   1.000000
   17        2.911741   1.000248
   18        2.911859   1.000249
   19        5.442221  -0.000000
   20        5.442498  -0.000000
   21        9.517852   0.000000
   22        9.518138   0.000000
   23       10.607586   0.000000
   24       10.607881   0.000000
   25       11.004996   0.000000
   26       11.005239   0.000000
   27       11.639934   0.000000
   28       11.642258   0.000000
 
  0.1111111E+00  0.2222222E+00  0.4163336E-16  0.2743484E-02
    1      -31.035642   1.000000
    2      -31.035639   1.000000
    3      -31.034998   1.000000
    4      -31.034964   1.000000
    5      -24.345386   1.000000
    6      -24.345358   1.000000
    7      -24.343138   1.000000
    8      -24.343103   1.000000
    9      -24.340912   1.000000
   10      -24.340876   1.000000
   11      -20.672336   1.000000
   12      -20.671720   1.000000
   13       -7.105016   1.000000
   14       -7.104831   1.000000
   15        1.312026   1.000000
   16        1.312235   1.000000
   17        2.714863   1.000000
   18        2.715020   1.000000
   19        5.624480  -0.000000
   20        5.624713  -0.000000
   21        9.110450   0.000000
   22        9.110792   0.000000
   23       10.213873   0.000000
   24       10.214207   0.000000
   25       11.103436   0.000000
   26       11.103575   0.000000
   27       11.754205   0.000000
   28       11.754379   0.000000
 
  0.2222222E+00  0.2222222E+00  0.2775558E-16  0.2743484E-02
    1      -31.035403   1.000000
    2      -31.035376   1.000000
    3      -31.034761   1.000000
    4      -31.034733   1.000000
    5      -24.345413   1.000000
    6      -24.345355   1.000000
    7      -24.342241   1.000000
    8      -24.342199   1.000000
    9      -24.339824   1.000000
   10      -24.339801   1.000000
   11      -20.655746   1.000000
   12      -20.655128   1.000000
   13       -7.159766   1.000000
   14       -7.159589   1.000000
   15        1.082878   1.000000
   16        1.083032   1.000000
   17        2.410681   1.000000
   18        2.410923   1.000000
   19        6.165022   0.000000
   20        6.165209   0.000000
   21        8.520128   0.000000
   22        8.520489   0.000000
   23        9.674861   0.000000
   24        9.675200   0.000000
   25       11.356668   0.000000
   26       11.356777   0.000000
   27       12.257112   0.000000
   28       12.257185   0.000000
 
  0.3333333E+00  0.2222222E+00  0.5551115E-16  0.2743484E-02
    1      -31.035111   1.000000
    2      -31.035073   1.000000
    3      -31.034104   1.000000
    4      -31.034080   1.000000
    5      -24.344848   1.000000
    6      -24.344766   1.000000
    7      -24.341716   1.000000
    8      -24.341672   1.000000
    9      -24.337568   1.000000
   10      -24.337556   1.000000
   11      -20.627819   1.000000
   12      -20.627198   1.000000
   13       -7.252754   1.000000
   14       -7.252584   1.000000
   15        0.671853   1.000000
   16        0.671976   1.000000
   17        2.132135   1.000000
   18        2.132429   1.000000
   19        6.628508   0.000000
   20        6.628732   0.000000
   21        8.382328   0.000000
   22        8.382621   0.000000
   23        9.296603   0.000000
   24        9.296925   0.000000
   25       11.663501   0.000000
   26       11.663610   0.000000
   27       12.815976   0.000000
   28       12.816045   0.000000
 
  0.4444444E+00  0.2222222E+00  0.5551115E-16  0.2743484E-02
    1      -31.034838   1.000000
    2      -31.034796   1.000000
    3      -31.033513   1.000000
    4      -31.033491   1.000000
    5      -24.344277   1.000000
    6      -24.344183   1.000000
    7      -24.340525   1.000000
    8      -24.340488   1.000000
    9      -24.336227   1.000000
   10      -24.336217   1.000000
   11      -20.601532   1.000000
   12      -20.600908   1.000000
   13       -7.339055   1.000000
   14       -7.338890   1.000000
   15        0.346507   1.000000
   16        0.346610   1.000000
   17        1.849709   1.000000
   18        1.850021   1.000000
   19        6.885931   0.000000
   20        6.886240   0.000000
   21        8.521797   0.000000
   22        8.522003   0.000000
   23        9.544274   0.000000
   24        9.544576   0.000000
   25       11.474426   0.000000
   26       11.474663   0.000000
   27       13.186333   0.000000
   28       13.186440   0.000000
 
 -0.4444444E+00  0.2222222E+00  0.0000000E+00  0.2743484E-02
    1      -31.034696   1.000000
    2      -31.034654   1.000000
    3      -31.033223   1.000000
    4      -31.033201   1.000000
    5      -24.343980   1.000000
    6      -24.343887   1.000000
    7      -24.339012   1.000000
    8      -24.338979   1.000000
    9      -24.336596   1.000000
   10      -24.336579   1.000000
   11      -20.589360   1.000000
   12      -20.588734   1.000000
   13       -7.378457   1.000000
   14       -7.378292   1.000000
   15        0.203751   1.000000
   16        0.203842   1.000000
   17        1.700164   1.000000
   18        1.700476   1.000000
   19        7.086594   0.000000
   20        7.086961   0.000000
   21        8.428654   0.000000
   22        8.428873   0.000000
   23       10.544186   0.000000
   24       10.544313   0.000000
   25       11.286544   0.000000
   26       11.286698   0.000000
   27       12.556252   0.000000
   28       12.556355   0.000000
 
 -0.3333333E+00  0.2222222E+00  0.2775558E-16  0.2743484E-02
    1      -31.034754   1.000000
    2      -31.034714   1.000000
    3      -31.033375   1.000000
    4      -31.033352   1.000000
    5      -24.343713   1.000000
    6      -24.343626   1.000000
    7      -24.339282   1.000000
    8      -24.339249   1.000000
    9      -24.337501   1.000000
   10      -24.337452   1.000000
   11      -20.597181   1.000000
   12      -20.596557   1.000000
   13       -7.354092   1.000000
   14       -7.353921   1.000000
   15        0.264087   1.000000
   16        0.264184   1.000000
   17        1.783456   1.000000
   18        1.783743   1.000000
   19        7.269665   0.000000
   20        7.270032   0.000000
   21        8.445006   0.000000
   22        8.445195   0.000000
   23       10.317749   0.000000
   24       10.317835   0.000000
   25       11.253753   0.000000
   26       11.254034   0.000000
   27       12.766219   0.000000
   28       12.856897   0.000000
 
 -0.2222222E+00  0.2222222E+00  0.7312171E-17  0.2743484E-02
    1      -31.035098   1.000000
    2      -31.035065   1.000000
    3      -31.033848   1.000000
    4      -31.033824   1.000000
    5      -24.343618   1.000000
    6      -24.343554   1.000000
    7      -24.341730   1.000000
    8      -24.341686   1.000000
    9      -24.338004   1.000000
   10      -24.337956   1.000000
   11      -20.621196   1.000000
   12      -20.620574   1.000000
   13       -7.277796   1.000000
   14       -7.277617   1.000000
   15        0.504379   1.000000
   16        0.504513   1.000000
   17        2.109650   1.000000
   18        2.109879   1.000000
   19        6.965623   0.000000
   20        6.965888   0.000000
   21        8.821437   0.000000
   22        8.821620   0.000000
   23        9.694144   0.000000
   24        9.694306   0.000000
   25       11.053262   0.000000
   26       11.053555   0.000000
   27       11.857079   0.000000
   28       11.857432   0.000000
 
 -0.1111111E+00  0.2222222E+00  0.2081668E-16  0.2743484E-02
    1      -31.035492   1.000000
    2      -31.035468   1.000000
    3      -31.034408   1.000000
    4      -31.034380   1.000000
    5      -24.344670   1.000000
    6      -24.344663   1.000000
    7      -24.342787   1.000000
    8      -24.342701   1.000000
    9      -24.339318   1.000000
   10      -24.339279   1.000000
   11      -20.649952   1.000000
   12      -20.649333   1.000000
   13       -7.183787   1.000000
   14       -7.183601   1.000000
   15        0.849407   1.000000
   16        0.849596   1.000000
   17        2.590533   1.000000
   18        2.590677   1.000000
   19        6.077414   0.000000
   20        6.077658   0.000000
   21        9.341173   0.000000
   22        9.341444   0.000000
   23        9.990268   0.000000
   24        9.990549   0.000000
   25       10.833530   0.000000
   26       10.833853   0.000000
   27       11.786661   0.000000
   28       11.787021   0.000000
 
  0.7703720E-33  0.3333333E+00  0.4163336E-16  0.2743484E-02
    1      -31.035524   1.000000
    2      -31.035510   1.000000
    3      -31.033877   1.000000
    4      -31.033844   1.000000
    5      -24.345644   1.000000
    6      -24.345641   1.000000
    7      -24.341160   1.000000
    8      -24.341099   1.000000
    9      -24.338095   1.000000
   10      -24.338085   1.000000
   11      -20.634168   1.000000
   12      -20.633548   1.000000
   13       -7.242256   1.000000
   14       -7.242069   1.000000
   15        0.525126   1.000000
   16        0.525359   1.000000
   17        2.739939   1.000000
   18        2.740057   1.000000
   19        5.843679  -0.000000
   20        5.844054  -0.000000
   21       10.033359   0.000000
   22       10.033500   0.000000
   23       10.247862   0.000000
   24       10.248144   0.000000
   25       10.685386   0.000000
   26       10.685624   0.000000
   27       11.154229   0.000000
   28       11.154456   0.000000
 
  0.1111111E+00  0.3333333E+00  0.2775558E-16  0.2743484E-02
    1      -31.035380   1.000000
    2      -31.035374   1.000000
    3      -31.034101   1.000000
    4      -31.034067   1.000000
    5      -24.344991   1.000000
    6      -24.344975   1.000000
    7      -24.341831   1.000000
    8      -24.341794   1.000000
    9      -24.338495   1.000000
   10      -24.338457   1.000000
   11      -20.638018   1.000000
   12      -20.637398   1.000000
   13       -7.224597   1.000000
   14       -7.224413   1.000000
   15        0.668341   1.000000
   16        0.668564   1.000000
   17        2.496621   1.000000
   18        2.496740   1.000000
   19        6.212841   0.000000
   20        6.213157   0.000000
   21        9.349898   0.000000
   22        9.350088   0.000000
   23        9.634671   0.000000
   24        9.634977   0.000000
   25       10.972145   0.000000
   26       10.972392   0.000000
   27       12.378358   0.000000
   28       12.509329   0.000000
 
  0.2222222E+00  0.3333333E+00  0.2775558E-16  0.2743484E-02
    1      -31.035097   1.000000
    2      -31.035086   1.000000
    3      -31.034108   1.000000
    4      -31.034077   1.000000
    5      -24.344833   1.000000
    6      -24.344780   1.000000
    7      -24.341710   1.000000
    8      -24.341678   1.000000
    9      -24.337584   1.000000
   10      -24.337540   1.000000
   11      -20.627819   1.000000
   12      -20.627198   1.000000
   13       -7.252757   1.000000
   14       -7.252581   1.000000
   15        0.671824   1.000000
   16        0.672005   1.000000
   17        2.132204   1.000000
   18        2.132359   1.000000
   19        6.628500   0.000000
   20        6.628740   0.000000
   21        8.382306   0.000000
   22        8.382643   0.000000
   23        9.296608   0.000000
   24        9.296920   0.000000
   25       11.663484   0.000000
   26       11.663627   0.000000
   27       12.815940   0.000000
   28       12.816081   0.000000
 
  0.3333333E+00  0.3333333E+00  0.5551115E-16  0.2743484E-02
    1      -31.034843   1.000000
    2      -31.034816   1.000000
    3      -31.033738   1.000000
    4      -31.033709   1.000000
    5      -24.345060   1.000000
    6      -24.344990   1.000000
    7      -24.341176   1.000000
    8      -24.341135   1.000000
    9      -24.335561   1.000000
   10      -24.335530   1.000000
   11      -20.608225   1.000000
   12      -20.607602   1.000000
   13       -7.313824   1.000000
   14       -7.313655   1.000000
   15        0.487556   1.000000
   16        0.487702   1.000000
   17        1.929171   1.000000
   18        1.929399   1.000000
   19        6.488880   0.000000
   20        6.489140   0.000000
   21        7.855964   0.000000
   22        7.856335   0.000000
   23        9.649852   0.000000
   24        9.650087   0.000000
   25       12.389982   0.000000
   26       12.390097   0.000000
   27       13.498211   0.000000
   28       13.498303   0.000000
 
  0.4444444E+00  0.3333333E+00  0.5551115E-16  0.2743484E-02
    1      -31.034602   1.000000
    2      -31.034570   1.000000
    3      -31.033320   1.000000
    4      -31.033295   1.000000
    5      -24.344552   1.000000
    6      -24.344471   1.000000
    7      -24.340661   1.000000
    8      -24.340619   1.000000
    9      -24.334236   1.000000
   10      -24.334212   1.000000
   11      -20.588374   1.000000
   12      -20.587748   1.000000
   13       -7.375799   1.000000
   14       -7.375635   1.000000
   15        0.306762   1.000000
   16        0.306880   1.000000
   17        1.667406   1.000000
   18        1.667665   1.000000
   19        6.491480   0.000000
   20        6.491773   0.000000
   21        7.890467   0.000000
   22        7.890783   0.000000
   23        9.921565   0.000000
   24        9.921784   0.000000
   25       12.616158   0.000000
   26       12.616292   0.000000
   27       13.895696   0.000000
   28       13.895833   0.000000
 
 -0.4444444E+00  0.3333333E+00  0.6938894E-17  0.2743484E-02
    1      -31.034384   1.000000
    2      -31.034350   1.000000
    3      -31.033169   1.000000
    4      -31.033146   1.000000
    5      -24.343635   1.000000
    6      -24.343550   1.000000
    7      -24.339833   1.000000
    8      -24.339795   1.000000
    9      -24.334721   1.000000
   10      -24.334696   1.000000
   11      -20.577674   1.000000
   12      -20.577048   1.000000
   13       -7.408220   1.000000
   14       -7.408056   1.000000
   15        0.239612   1.000000
   16        0.239679   1.000000
   17        1.393786   1.000000
   18        1.394052   1.000000
   19        6.764110   0.000000
   20        6.764446   0.000000
   21        8.373778   0.000000
   22        8.373940   0.000000
   23       10.204454   0.000000
   24       10.204738   0.000000
   25       12.047910   0.000000
   26       12.048069   0.000000
   27       13.138158   0.000000
   28       13.138347   0.000000
 
 -0.3333333E+00  0.3333333E+00  0.5992849E-16  0.2743484E-02
    1      -31.034394   1.000000
    2      -31.034364   1.000000
    3      -31.033251   1.000000
    4      -31.033229   1.000000
    5      -24.343170   1.000000
    6      -24.343099   1.000000
    7      -24.338638   1.000000
    8      -24.338604   1.000000
    9      -24.336791   1.000000
   10      -24.336760   1.000000
   11      -20.581196   1.000000
   12      -20.580570   1.000000
   13       -7.398638   1.000000
   14       -7.398468   1.000000
   15        0.235317   1.000000
   16        0.235360   1.000000
   17        1.397223   1.000000
   18        1.397457   1.000000
   19        7.183914   0.000000
   20        7.184299   0.000000
   21        8.549948   0.000000
   22        8.550022   0.000000
   23       10.965375   0.000000
   24       10.965456   0.000000
   25       11.235865   0.000000
   26       11.236215   0.000000
   27       12.154215   0.000000
   28       12.154438   0.000000
 
 -0.2222222E+00  0.3333333E+00  0.2081668E-16  0.2743484E-02
    1      -31.034745   1.000000
    2      -31.034723   1.000000
    3      -31.033377   1.000000
    4      -31.033351   1.000000