Og_FCC                                  
           1
     4.487521    0.000000    0.000000
     2.243760    3.886307   -0.000000
     2.243760    1.295436    3.664045
   Og
   1
Direct configuration=     1
   0.00000000  0.00000000  0.00000000
