Og_FCC                                  
           1
     4.354229    0.000000    0.000000
     2.177114    3.770873   -0.000000
     2.177114    1.256958    3.555213
   Og
   1
Direct configuration=     1
   0.00000000  0.00000000  0.00000000
