   1   1   0   0
  0.6532254E+02  0.4520565E-09  0.4520565E-09  0.4520565E-09  0.1000000E-15
  1.000000000000000E-004
  CAR 
 Og_FCC                                  
     14.07312210    -44.27503115  301     -2.36160773      1.00000000
    -44.275  0.0000E+00  0.0000E+00
    -44.081  0.0000E+00  0.0000E+00
    -43.886  0.0000E+00  0.0000E+00
    -43.692  0.0000E+00  0.0000E+00
    -43.497  0.0000E+00  0.0000E+00
    -43.303  0.0000E+00  0.0000E+00
    -43.108  0.0000E+00  0.0000E+00
    -42.914  0.0000E+00  0.0000E+00
    -42.719  0.0000E+00  0.0000E+00
    -42.525  0.0000E+00  0.0000E+00
    -42.330  0.0000E+00  0.0000E+00
    -42.136  0.0000E+00  0.0000E+00
    -41.941  0.0000E+00  0.0000E+00
    -41.747  0.0000E+00  0.0000E+00
    -41.552  0.0000E+00  0.1000E+02
    -41.358  0.0000E+00  0.1000E+02
    -41.163  0.0000E+00  0.1000E+02
    -40.969  0.0000E+00  0.1000E+02
    -40.774  0.0000E+00  0.1000E+02
    -40.580  0.0000E+00  0.1000E+02
    -40.385  0.0000E+00  0.1000E+02
    -40.191  0.0000E+00  0.1000E+02
    -39.996  0.0000E+00  0.1000E+02
    -39.802  0.0000E+00  0.1000E+02
    -39.607  0.0000E+00  0.1000E+02
    -39.413  0.0000E+00  0.1000E+02
    -39.218  0.0000E+00  0.1000E+02
    -39.024  0.0000E+00  0.1000E+02
    -38.829  0.0000E+00  0.1000E+02
    -38.635  0.0000E+00  0.1000E+02
    -38.440  0.0000E+00  0.1000E+02
    -38.246  0.0000E+00  0.1000E+02
    -38.051  0.0000E+00  0.1000E+02
    -37.857  0.0000E+00  0.1000E+02
    -37.662  0.0000E+00  0.1000E+02
    -37.468  0.0000E+00  0.1000E+02
    -37.273  0.0000E+00  0.1000E+02
    -37.079  0.0000E+00  0.1000E+02
    -36.884  0.0000E+00  0.1000E+02
    -36.690  0.0000E+00  0.1000E+02
    -36.495  0.0000E+00  0.1000E+02
    -36.301  0.0000E+00  0.1000E+02
    -36.106  0.0000E+00  0.1000E+02
    -35.912  0.0000E+00  0.1000E+02
    -35.717  0.0000E+00  0.1000E+02
    -35.523  0.0000E+00  0.1000E+02
    -35.328  0.0000E+00  0.1000E+02
    -35.134  0.0000E+00  0.1000E+02
    -34.939  0.0000E+00  0.1000E+02
    -34.745  0.0000E+00  0.1000E+02
    -34.550  0.0000E+00  0.1000E+02
    -34.356  0.0000E+00  0.1000E+02
    -34.161  0.0000E+00  0.1000E+02
    -33.967  0.0000E+00  0.1000E+02
    -33.772  0.0000E+00  0.1000E+02
    -33.578  0.0000E+00  0.1000E+02
    -33.383  0.0000E+00  0.1000E+02
    -33.189  0.0000E+00  0.1000E+02
    -32.994  0.0000E+00  0.1000E+02
    -32.800  0.0000E+00  0.1000E+02
    -32.605  0.0000E+00  0.1000E+02
    -32.411  0.0000E+00  0.1000E+02
    -32.216  0.0000E+00  0.1000E+02
    -32.022  0.0000E+00  0.1000E+02
    -31.827  0.0000E+00  0.1000E+02
    -31.633  0.0000E+00  0.1000E+02
    -31.438  0.0000E+00  0.1000E+02
    -31.244  0.0000E+00  0.1000E+02
    -31.049  0.0000E+00  0.1000E+02
    -30.855  0.0000E+00  0.1000E+02
    -30.660  0.0000E+00  0.1000E+02
    -30.466  0.0000E+00  0.1000E+02
    -30.271  0.0000E+00  0.1000E+02
    -30.077  0.0000E+00  0.1000E+02
    -29.882  0.0000E+00  0.1000E+02
    -29.688  0.0000E+00  0.1000E+02
    -29.493  0.0000E+00  0.1000E+02
    -29.299  0.0000E+00  0.1000E+02
    -29.105  0.0000E+00  0.1000E+02
    -28.910  0.0000E+00  0.1000E+02
    -28.716  0.0000E+00  0.1000E+02
    -28.521  0.0000E+00  0.1000E+02
    -28.327  0.0000E+00  0.1000E+02
    -28.132  0.0000E+00  0.1000E+02
    -27.938  0.0000E+00  0.1000E+02
    -27.743  0.0000E+00  0.1000E+02
    -27.549  0.0000E+00  0.1000E+02
    -27.354  0.0000E+00  0.1000E+02
    -27.160  0.0000E+00  0.1000E+02
    -26.965  0.0000E+00  0.1000E+02
    -26.771  0.0000E+00  0.1000E+02
    -26.576  0.0000E+00  0.1000E+02
    -26.382  0.0000E+00  0.1000E+02
    -26.187  0.0000E+00  0.1000E+02
    -25.993  0.0000E+00  0.1000E+02
    -25.798  0.0000E+00  0.1000E+02
    -25.604  0.0000E+00  0.1000E+02
    -25.409  0.0000E+00  0.1000E+02
    -25.215  0.0000E+00  0.1000E+02
    -25.020  0.0000E+00  0.1000E+02
    -24.826  0.0000E+00  0.1000E+02
    -24.631  0.0000E+00  0.1000E+02
    -24.437  0.0000E+00  0.1000E+02
    -24.242  0.0000E+00  0.1000E+02
    -24.048  0.0000E+00  0.1000E+02
    -23.853  0.0000E+00  0.1000E+02
    -23.659  0.0000E+00  0.1000E+02
    -23.464  0.0000E+00  0.1000E+02
    -23.270  0.0000E+00  0.1000E+02
    -23.075  0.0000E+00  0.1000E+02
    -22.881  0.0000E+00  0.1000E+02
    -22.686  0.0000E+00  0.1000E+02
    -22.492  0.0000E+00  0.1000E+02
    -22.297  0.0000E+00  0.1000E+02
    -22.103  0.0000E+00  0.1000E+02
    -21.908  0.0000E+00  0.1000E+02
    -21.714  0.0000E+00  0.1000E+02
    -21.519  0.0000E+00  0.1000E+02
    -21.325  0.0000E+00  0.1000E+02
    -21.130  0.0000E+00  0.1000E+02
    -20.936  0.0000E+00  0.1000E+02
    -20.741  0.0000E+00  0.1000E+02
    -20.547  0.0000E+00  0.1000E+02
    -20.352  0.0000E+00  0.1000E+02
    -20.158  0.0000E+00  0.1000E+02
    -19.963  0.0000E+00  0.1000E+02
    -19.769  0.0000E+00  0.1000E+02
    -19.574  0.0000E+00  0.1000E+02
    -19.380  0.0000E+00  0.1000E+02
    -19.185  0.0000E+00  0.1000E+02
    -18.991  0.0000E+00  0.1000E+02
    -18.796  0.0000E+00  0.1000E+02
    -18.602  0.0000E+00  0.1000E+02
    -18.407  0.0000E+00  0.1000E+02
    -18.213  0.0000E+00  0.1000E+02
    -18.018  0.0000E+00  0.1000E+02
    -17.824  0.0000E+00  0.1000E+02
    -17.629  0.0000E+00  0.1000E+02
    -17.435  0.0000E+00  0.1000E+02
    -17.240  0.0000E+00  0.1200E+02
    -17.046  0.0000E+00  0.1200E+02
    -16.851  0.0000E+00  0.1200E+02
    -16.657  0.0000E+00  0.1200E+02
    -16.462  0.0000E+00  0.1200E+02
    -16.268  0.0000E+00  0.1200E+02
    -16.073  0.0000E+00  0.1200E+02
    -15.879  0.0000E+00  0.1200E+02
    -15.684  0.0000E+00  0.1200E+02
    -15.490  0.0000E+00  0.1200E+02
    -15.295  0.0000E+00  0.1200E+02
    -15.101  0.0000E+00  0.1200E+02
    -14.906  0.0000E+00  0.1200E+02
    -14.712  0.0000E+00  0.1200E+02
    -14.517  0.0000E+00  0.1200E+02
    -14.323  0.0000E+00  0.1200E+02
    -14.128  0.0000E+00  0.1200E+02
    -13.934  0.0000E+00  0.1200E+02
    -13.739  0.0000E+00  0.1200E+02
    -13.545  0.0000E+00  0.1200E+02
    -13.351  0.0000E+00  0.1200E+02
    -13.156  0.0000E+00  0.1200E+02
    -12.962  0.0000E+00  0.1200E+02
    -12.767  0.0000E+00  0.1200E+02
    -12.573  0.0000E+00  0.1200E+02
    -12.378  0.0000E+00  0.1200E+02
    -12.184  0.0000E+00  0.1200E+02
    -11.989  0.0000E+00  0.1200E+02
    -11.795  0.0000E+00  0.1200E+02
    -11.600  0.0000E+00  0.1200E+02
    -11.406  0.0000E+00  0.1200E+02
    -11.211  0.0000E+00  0.1200E+02
    -11.017  0.0000E+00  0.1200E+02
    -10.822  0.0000E+00  0.1200E+02
    -10.628  0.0000E+00  0.1200E+02
    -10.433  0.0000E+00  0.1200E+02
    -10.239  0.0000E+00  0.1200E+02
    -10.044  0.0000E+00  0.1200E+02
     -9.850  0.0000E+00  0.1200E+02
     -9.655  0.0000E+00  0.1200E+02
     -9.461  0.0000E+00  0.1200E+02
     -9.266  0.0000E+00  0.1200E+02
     -9.072  0.0000E+00  0.1200E+02
     -8.877  0.0000E+00  0.1200E+02
     -8.683  0.0000E+00  0.1200E+02
     -8.488  0.0000E+00  0.1200E+02
     -8.294  0.0000E+00  0.1200E+02
     -8.099  0.0000E+00  0.1200E+02
     -7.905  0.0000E+00  0.1200E+02
     -7.710  0.0000E+00  0.1200E+02
     -7.516  0.0000E+00  0.1200E+02
     -7.321  0.0000E+00  0.1200E+02
     -7.127  0.0000E+00  0.1200E+02
     -6.932  0.0000E+00  0.1200E+02
     -6.738  0.0000E+00  0.1200E+02
     -6.543  0.0000E+00  0.1200E+02
     -6.349  0.0000E+00  0.1200E+02
     -6.154  0.0000E+00  0.1200E+02
     -5.960  0.0000E+00  0.1200E+02
     -5.765  0.0000E+00  0.1200E+02
     -5.571  0.0000E+00  0.1200E+02
     -5.376  0.0000E+00  0.1200E+02
     -5.182  0.0000E+00  0.1200E+02
     -4.987  0.0000E+00  0.1200E+02
     -4.793  0.0000E+00  0.1200E+02
     -4.598  0.0000E+00  0.1200E+02
     -4.404  0.0000E+00  0.1200E+02
     -4.209  0.0000E+00  0.1200E+02
     -4.015  0.0000E+00  0.1204E+02
     -3.820  0.0000E+00  0.1273E+02
     -3.626  0.0000E+00  0.1353E+02
     -3.431  0.0000E+00  0.1386E+02
     -3.237  0.0000E+00  0.1431E+02
     -3.042  0.0000E+00  0.1486E+02
     -2.848  0.0000E+00  0.1605E+02
     -2.653  0.0000E+00  0.1716E+02
     -2.459  0.0000E+00  0.1797E+02
     -2.264  0.0000E+00  0.1800E+02
     -2.070  0.0000E+00  0.1800E+02
     -1.875  0.0000E+00  0.1800E+02
     -1.681  0.0000E+00  0.1800E+02
     -1.486  0.0000E+00  0.1800E+02
     -1.292  0.0000E+00  0.1800E+02
     -1.097  0.0000E+00  0.1800E+02
     -0.903  0.0000E+00  0.1800E+02
     -0.708  0.0000E+00  0.1800E+02
     -0.514  0.0000E+00  0.1800E+02
     -0.319  0.0000E+00  0.1800E+02
     -0.125  0.0000E+00  0.1800E+02
      0.070  0.0000E+00  0.1800E+02
      0.264  0.0000E+00  0.1800E+02
      0.459  0.0000E+00  0.1800E+02
      0.653  0.0000E+00  0.1800E+02
      0.848  0.0000E+00  0.1800E+02
      1.042  0.0000E+00  0.1800E+02
      1.237  0.0000E+00  0.1800E+02
      1.431  0.0000E+00  0.1800E+02
      1.626  0.0000E+00  0.1800E+02
      1.820  0.0000E+00  0.1800E+02
      2.015  0.0000E+00  0.1800E+02
      2.209  0.0000E+00  0.1800E+02
      2.403  0.0000E+00  0.1800E+02
      2.598  0.0000E+00  0.1801E+02
      2.792  0.0000E+00  0.1801E+02
      2.987  0.0000E+00  0.1801E+02
      3.181  0.0000E+00  0.1801E+02
      3.376  0.0000E+00  0.1808E+02
      3.570  0.0000E+00  0.1814E+02
      3.765  0.0000E+00  0.1814E+02
      3.959  0.0000E+00  0.1814E+02
      4.154  0.0000E+00  0.1814E+02
      4.348  0.0000E+00  0.1839E+02
      4.543  0.0000E+00  0.1867E+02
      4.737  0.0000E+00  0.1889E+02
      4.932  0.0000E+00  0.1911E+02
      5.126  0.7191E-14  0.1944E+02
      5.321  0.0000E+00  0.1958E+02
      5.515  0.0000E+00  0.1986E+02
      5.710  0.0000E+00  0.2031E+02
      5.904  0.0000E+00  0.2031E+02
      6.099  0.0000E+00  0.2064E+02
      6.293  0.7410E+00  0.2101E+02
      6.488  0.0000E+00  0.2164E+02
      6.682  0.0000E+00  0.2203E+02
      6.877  0.0000E+00  0.2203E+02
      7.071  0.0000E+00  0.2232E+02
      7.266  0.1143E+01  0.2262E+02
      7.460  0.0000E+00  0.2303E+02
      7.655  0.0000E+00  0.2356E+02
      7.849  0.1455E-08  0.2359E+02
      8.044  0.0000E+00  0.2461E+02
      8.238  0.5713E+00  0.2472E+02
      8.433  0.0000E+00  0.2550E+02
      8.627  0.0000E+00  0.2550E+02
      8.822  0.0000E+00  0.2561E+02
      9.016  0.0000E+00  0.2583E+02
      9.211  0.0000E+00  0.2583E+02
      9.405  0.1142E+01  0.2627E+02
      9.600  0.0000E+00  0.2657E+02
      9.794  0.0000E+00  0.2694E+02
      9.989  0.0000E+00  0.2739E+02
     10.183  0.0000E+00  0.2739E+02
     10.378  0.0000E+00  0.2761E+02
     10.572  0.0000E+00  0.2783E+02
     10.767  0.0000E+00  0.2783E+02
     10.961  0.0000E+00  0.2783E+02
     11.156  0.0000E+00  0.2789E+02
     11.350  0.0000E+00  0.2789E+02
     11.545  0.0000E+00  0.2800E+02
     11.739  0.0000E+00  0.2800E+02
     11.934  0.0000E+00  0.2800E+02
     12.128  0.0000E+00  0.2800E+02
     12.323  0.0000E+00  0.2800E+02
     12.517  0.0000E+00  0.2800E+02
     12.712  0.0000E+00  0.2800E+02
     12.906  0.0000E+00  0.2800E+02
     13.101  0.0000E+00  0.2800E+02
     13.295  0.0000E+00  0.2800E+02
     13.490  0.0000E+00  0.2800E+02
     13.684  0.0000E+00  0.2800E+02
     13.879  0.0000E+00  0.2800E+02
     14.073  0.0000E+00  0.2800E+02
