    1    1    1    1
  0.6532254E+02  0.4520565E-09  0.4520565E-09  0.4520565E-09  0.1000000E-15
  1.000000000000000E-004
  CAR 
 Og_FCC                                  
     18    112     14
 
  0.0000000E+00  0.0000000E+00  0.0000000E+00  0.4629630E-02
    1      -41.622288   1.000000
    2      -41.622288   1.000000
    3      -41.622288   1.000000
    4      -41.621928   1.000000
    5      -41.621928   1.000000
    6      -17.421450   1.000000
    7       -2.420742   1.000000
    8       -2.420742   1.000000
    9       -2.420741   1.000000
   10        2.455754   0.000000
   11        7.686785   0.000000
   12        7.686785   0.000000
   13        7.686786   0.000000
   14        9.480304   0.000000
 
  0.1666667E+00  0.1538294E-16  0.2081668E-16  0.9259259E-02
    1      -41.622382   1.000000
    2      -41.622364   1.000000
    3      -41.622363   1.000000
    4      -41.622051   1.000000
    5      -41.622050   1.000000
    6      -17.390663   1.000000
    7       -2.976006   1.000000
    8       -2.476132   1.000000
    9       -2.476132   1.000000
   10        3.241456   0.000000
   11        6.986805   0.000000
   12        7.887634   0.000000
   13        7.887634   0.000000
   14        9.362282   0.000000
 
  0.3333333E+00  0.5852146E-16  0.1387779E-16  0.9259259E-02
    1      -41.622241   1.000000
    2      -41.622240   1.000000
    3      -41.622010   1.000000
    4      -41.621531   1.000000
    5      -41.621529   1.000000
    6      -17.324918   1.000000
    7       -3.807864   1.000000
    8       -2.582141   1.000000
    9       -2.582140   1.000000
   10        4.163543   0.000000
   11        7.217149   0.000000
   12        7.596409   0.000000
   13        7.596409   0.000000
   14        9.509083   0.000000
 
  0.5000000E+00  0.6002661E-16  0.0000000E+00  0.4629630E-02
    1      -41.622310   1.000000
    2      -41.622308   1.000000
    3      -41.621908   1.000000
    4      -41.621423   1.000000
    5      -41.621421   1.000000
    6      -17.291893   1.000000
    7       -4.148832   1.000000
    8       -2.632949   1.000000
    9       -2.632948   1.000000
   10        4.268652   0.000000
   11        7.347244   0.000000
   12        7.347244   0.000000
   13        7.891686   0.000000
   14        9.752712   0.000000
 
  0.3851860E-33  0.1666667E+00  0.6938894E-17  0.9259259E-02
    1      -41.622382   1.000000
    2      -41.622364   1.000000
    3      -41.622363   1.000000
    4      -41.622051   1.000000
    5      -41.622050   1.000000
    6      -17.390663   1.000000
    7       -2.976006   1.000000
    8       -2.476132   1.000000
    9       -2.476132   1.000000
   10        3.241456   0.000000
   11        6.986805   0.000000
   12        7.887634   0.000000
   13        7.887634   0.000000
   14        9.362282   0.000000
 
  0.1666667E+00  0.1666667E+00  0.1387779E-16  0.9259259E-02
    1      -41.622569   1.000000
    2      -41.622257   1.000000
    3      -41.622256   1.000000
    4      -41.622068   1.000000
    5      -41.621930   1.000000
    6      -17.380076   1.000000
    7       -2.968160   1.000000
    8       -2.587903   1.000000
    9       -2.587903   1.000000
   10        3.525425   0.000000
   11        6.544313   0.000000
   12        7.990747   0.000000
   13        8.234780   0.000000
   14        8.234781   0.000000
 
  0.3333333E+00  0.1666667E+00  0.2775558E-16  0.9259259E-02
    1      -41.622417   1.000000
    2      -41.622134   1.000000
    3      -41.622071   1.000000
    4      -41.621714   1.000000
    5      -41.621518   1.000000
    6      -17.325545   1.000000
    7       -3.581917   1.000000
    8       -2.738415   1.000000
    9       -2.717837   1.000000
   10        4.522691   0.000000
   11        6.293099   0.000000
   12        6.979892   0.000000
   13        8.369601   0.000000
   14        9.402570   0.000000
 
  0.5000000E+00  0.1666667E+00  0.0000000E+00  0.9259259E-02
    1      -41.622354   1.000000
    2      -41.622096   1.000000
    3      -41.621896   1.000000
    4      -41.621493   1.000000
    5      -41.621281   1.000000
    6      -17.281185   1.000000
    7       -3.993720   1.000000
    8       -2.940579   1.000000
    9       -2.740752   1.000000
   10        4.899173   0.000000
   11        6.336937   0.000000
   12        7.621911   0.000000
   13        7.941742   0.000000
   14       10.307491   0.000000
 
 -0.3333333E+00  0.1666667E+00  0.0000000E+00  0.9259259E-02
    1      -41.622308   1.000000
    2      -41.622091   1.000000
    3      -41.621924   1.000000
    4      -41.621589   1.000000
    5      -41.621382   1.000000
    6      -17.292259   1.000000
    7       -3.887848   1.000000
    8       -3.004551   1.000000
    9       -2.636697   1.000000
   10        4.970915   0.000000
   11        6.500161   0.000000
   12        7.309380   0.000000
   13        7.853532   0.000000
   14        9.806637   0.000000
 
 -0.1666667E+00  0.1666667E+00  0.2261813E-16  0.9259259E-02
    1      -41.622239   1.000000
    2      -41.622143   1.000000
    3      -41.622116   1.000000
    4      -41.621963   1.000000
    5      -41.621547   1.000000
    6      -17.346984   1.000000
    7       -3.402763   1.000000
    8       -2.791153   1.000000
    9       -2.502211   1.000000
   10        4.212680   0.000000
   11        6.606968   0.000000
   12        7.325952   0.000000
   13        8.319901   0.000000
   14        8.376503   0.000000
 
  0.7703720E-33  0.3333333E+00  0.0000000E+00  0.9259259E-02
    1      -41.622241   1.000000
    2      -41.622239   1.000000
    3      -41.622010   1.000000
    4      -41.621531   1.000000
    5      -41.621529   1.000000
    6      -17.324918   1.000000
    7       -3.807864   1.000000
    8       -2.582141   1.000000
    9       -2.582140   1.000000
   10        4.163544   0.000000
   11        7.217149   0.000000
   12        7.596409   0.000000
   13        7.596409   0.000000
   14        9.509083   0.000000
 
  0.1666667E+00  0.3333333E+00  0.0000000E+00  0.9259259E-02
    1      -41.622417   1.000000
    2      -41.622134   1.000000
    3      -41.622071   1.000000
    4      -41.621714   1.000000
    5      -41.621518   1.000000
    6      -17.325545   1.000000
    7       -3.581917   1.000000
    8       -2.738415   1.000000
    9       -2.717837   1.000000
   10        4.522691   0.000000
   11        6.293099   0.000000
   12        6.979892   0.000000
   13        8.369601   0.000000
   14        9.402569   0.000000
 
  0.3333333E+00  0.3333333E+00  0.2775558E-16  0.9259259E-02
    1      -41.622636   1.000000
    2      -41.622116   1.000000
    3      -41.621511   1.000000
    4      -41.621477   1.000000
    5      -41.621477   1.000000
    6      -17.293055   1.000000
    7       -3.720211   1.000000
    8       -2.894121   1.000000
    9       -2.894121   1.000000
   10        4.519410   0.000000
   11        5.494001   0.000000
   12        7.594041   0.000000
   13        9.667107   0.000000
   14        9.667107   0.000000
 
  0.5000000E+00  0.3333333E+00  0.5551115E-16  0.9259259E-02
    1      -41.622493   1.000000
    2      -41.622012   1.000000
    3      -41.621606   1.000000
    4      -41.621343   1.000000
    5      -41.621206   1.000000
    6      -17.259796   1.000000
    7       -3.876264   1.000000
    8       -3.184438   1.000000
    9       -2.941529   1.000000
   10        4.652518   0.000000
   11        5.685986   0.000000
   12        7.908676   0.000000
   13        9.522187   0.000000
   14       10.431159   0.000000
 
 -0.3333333E+00  0.3333333E+00 -0.4057916E-16  0.9259259E-02
    1      -41.622378   1.000000
    2      -41.621796   1.000000
    3      -41.621704   1.000000
    4      -41.621590   1.000000
    5      -41.621587   1.000000
    6      -17.259610   1.000000
    7       -3.640798   1.000000
    8       -3.602418   1.000000
    9       -2.819227   1.000000
   10        5.183685   0.000000
   11        6.432363   0.000000
   12        7.538431   0.000000
   13        8.761374   0.000000
   14        9.374346   0.000000
 
 -0.1666667E+00  0.3333333E+00 -0.1387779E-16  0.9259259E-02
    1      -41.622308   1.000000
    2      -41.622091   1.000000
    3      -41.621924   1.000000
    4      -41.621589   1.000000
    5      -41.621382   1.000000
    6      -17.292259   1.000000
    7       -3.887848   1.000000
    8       -3.004551   1.000000
    9       -2.636697   1.000000
   10        4.970915   0.000000
   11        6.500161   0.000000
   12        7.309380   0.000000
   13        7.853532   0.000000
   14        9.806637   0.000000
 
  0.1540744E-32  0.5000000E+00  0.2775558E-16  0.4629630E-02
    1      -41.622310   1.000000
    2      -41.622308   1.000000
    3      -41.621908   1.000000
    4      -41.621423   1.000000
    5      -41.621421   1.000000
    6      -17.291893   1.000000
    7       -4.148832   1.000000
    8       -2.632949   1.000000
    9       -2.632948   1.000000
   10        4.268652   0.000000
   11        7.347244   0.000000
   12        7.347244   0.000000
   13        7.891686   0.000000
   14        9.752712   0.000000
 
  0.1666667E+00  0.5000000E+00  0.2775558E-16  0.9259259E-02
    1      -41.622354   1.000000
    2      -41.622096   1.000000
    3      -41.621896   1.000000
    4      -41.621493   1.000000
    5      -41.621281   1.000000
    6      -17.281185   1.000000
    7       -3.993720   1.000000
    8       -2.940579   1.000000
    9       -2.740752   1.000000
   10        4.899173   0.000000
   11        6.336937   0.000000
   12        7.621911   0.000000
   13        7.941742   0.000000
   14       10.307491   0.000000
 
  0.3333333E+00  0.5000000E+00  0.0000000E+00  0.9259259E-02
    1      -41.622493   1.000000
    2      -41.622012   1.000000
    3      -41.621606   1.000000
    4      -41.621343   1.000000
    5      -41.621206   1.000000
    6      -17.259796   1.000000
    7       -3.876264   1.000000
    8       -3.184438   1.000000
    9       -2.941529   1.000000
   10        4.652518   0.000000
   11        5.685986   0.000000
   12        7.908676   0.000000
   13        9.522187   0.000000
   14       10.431159   0.000000
 
  0.5000000E+00  0.5000000E+00 -0.5551115E-16  0.4629630E-02
    1      -41.622842   1.000000
    2      -41.622098   1.000000
    3      -41.621386   1.000000
    4      -41.621126   1.000000
    5      -41.621126   1.000000
    6      -17.249177   1.000000
    7       -4.008360   1.000000
    8       -3.035518   1.000000
    9       -3.035518   1.000000
   10        4.181352   0.000000
   11        5.131666   0.000000
   12        9.302717   0.000000
   13       11.117952   0.000000
   14       11.117953   0.000000
 
 -0.7703720E-33 -0.1540744E-32  0.1666667E+00  0.9259259E-02
    1      -41.622382   1.000000
    2      -41.622364   1.000000
    3      -41.622363   1.000000
    4      -41.622051   1.000000
    5      -41.622050   1.000000
    6      -17.390663   1.000000
    7       -2.976006   1.000000
    8       -2.476132   1.000000
    9       -2.476132   1.000000
   10        3.241456   0.000000
   11        6.986805   0.000000
   12        7.887634   0.000000
   13        7.887634   0.000000
   14        9.362282   0.000000
 
  0.1666667E+00  0.1086748E-16  0.1666667E+00  0.9259259E-02
    1      -41.622568   1.000000
    2      -41.622257   1.000000
    3      -41.622256   1.000000
    4      -41.622068   1.000000
    5      -41.621930   1.000000
    6      -17.380076   1.000000
    7       -2.968160   1.000000
    8       -2.587903   1.000000
    9       -2.587903   1.000000
   10        3.525425   0.000000
   11        6.544313   0.000000
   12        7.990747   0.000000
   13        8.234780   0.000000
   14        8.234780   0.000000
 
  0.3333333E+00  0.5400600E-16  0.1666667E+00  0.9259259E-02
    1      -41.622417   1.000000
    2      -41.622134   1.000000
    3      -41.622071   1.000000
    4      -41.621714   1.000000
    5      -41.621518   1.000000
    6      -17.325545   1.000000
    7       -3.581917   1.000000
    8       -2.738415   1.000000
    9       -2.717837   1.000000
   10        4.522691   0.000000
   11        6.293099   0.000000
   12        6.979892   0.000000
   13        8.369601   0.000000
   14        9.402570   0.000000
 
  0.5000000E+00  0.5551115E-16  0.1666667E+00  0.9259259E-02
    1      -41.622354   1.000000
    2      -41.622096   1.000000
    3      -41.621896   1.000000
    4      -41.621493   1.000000
    5      -41.621281   1.000000
    6      -17.281185   1.000000
    7       -3.993720   1.000000
    8       -2.940579   1.000000
    9       -2.740752   1.000000
   10        4.899173   0.000000
   11        6.336937   0.000000
   12        7.621912   0.000000
   13        7.941742   0.000000
   14       10.307491   0.000000
 
 -0.3333333E+00 -0.6303691E-16  0.1666667E+00  0.9259259E-02
    1      -41.622308   1.000000
    2      -41.622091   1.000000
    3      -41.621924   1.000000
    4      -41.621589   1.000000
    5      -41.621382   1.000000
    6      -17.292259   1.000000
    7       -3.887848   1.000000
    8       -3.004551   1.000000
    9       -2.636697   1.000000
   10        4.970915   0.000000
   11        6.500161   0.000000
   12        7.309380   0.000000
   13        7.853532   0.000000
   14        9.806637   0.000000
 
 -0.1666667E+00 -0.1989840E-16  0.1666667E+00  0.9259259E-02
    1      -41.622239   1.000000
    2      -41.622143   1.000000
    3      -41.622117   1.000000
    4      -41.621962   1.000000
    5      -41.621547   1.000000
    6      -17.346984   1.000000
    7       -3.402763   1.000000
    8       -2.791153   1.000000
    9       -2.502211   1.000000
   10        4.212680   0.000000
   11        6.606968   0.000000
   12        7.325952   0.000000
   13        8.319901   0.000000
   14        8.376503   0.000000
 
  0.0000000E+00  0.1666667E+00  0.1666667E+00  0.9259259E-02
    1      -41.622569   1.000000
    2      -41.622257   1.000000
    3      -41.622256   1.000000
    4      -41.622068   1.000000
    5      -41.621930   1.000000
    6      -17.380076   1.000000
    7       -2.968160   1.000000
    8       -2.587903   1.000000
    9       -2.587903   1.000000
   10        3.525425   0.000000
   11        6.544313   0.000000
   12        7.990747   0.000000
   13        8.234780   0.000000
   14        8.234781   0.000000
 
  0.1666667E+00  0.1666667E+00  0.1666667E+00  0.9259259E-02
    1      -41.622382   1.000000
    2      -41.622363   1.000000
    3      -41.622362   1.000000
    4      -41.622051   1.000000
    5      -41.622051   1.000000
    6      -17.390663   1.000000
    7       -2.976006   1.000000
    8       -2.476132   1.000000
    9       -2.476132   1.000000
   10        3.241456   0.000000
   11        6.986805   0.000000
   12        7.887634   0.000000
   13        7.887634   0.000000
   14        9.362282   0.000000
 
  0.3333333E+00  0.1666667E+00  0.1666667E+00  0.9259259E-02
    1      -41.622239   1.000000
    2      -41.622141   1.000000
    3      -41.622116   1.000000
    4      -41.621962   1.000000
    5      -41.621549   1.000000
    6      -17.346984   1.000000
    7       -3.402763   1.000000
    8       -2.791153   1.000000
    9       -2.502211   1.000000
   10        4.212680   0.000000
   11        6.606968   0.000000
   12        7.325952   0.000000
   13        8.319901   0.000000
   14        8.376503   0.000000
 
  0.5000000E+00  0.1666667E+00  0.1666667E+00  0.9259259E-02
    1      -41.622306   1.000000
    2      -41.622092   1.000000
    3      -41.621924   1.000000
    4      -41.621588   1.000000
    5      -41.621383   1.000000
    6      -17.292259   1.000000
    7       -3.887848   1.000000
    8       -3.004551   1.000000
    9       -2.636698   1.000000
   10        4.970915   0.000000
   11        6.500162   0.000000
   12        7.309380   0.000000
   13        7.853532   0.000000
   14        9.806637   0.000000
 
 -0.3333333E+00  0.1666667E+00  0.1666667E+00  0.9259259E-02
    1      -41.622352   1.000000
    2      -41.622097   1.000000
    3      -41.621897   1.000000
    4      -41.621493   1.000000
    5      -41.621279   1.000000
    6      -17.281185   1.000000
    7       -3.993720   1.000000
    8       -2.940578   1.000000
    9       -2.740752   1.000000
   10        4.899173   0.000000
   11        6.336937   0.000000
   12        7.621911   0.000000
   13        7.941741   0.000000
   14       10.307492   0.000000
 
 -0.1666667E+00  0.1666667E+00  0.1666667E+00  0.9259259E-02
    1      -41.622416   1.000000
    2      -41.622135   1.000000
    3      -41.622072   1.000000
    4      -41.621714   1.000000
    5      -41.621517   1.000000
    6      -17.325545   1.000000
    7       -3.581917   1.000000
    8       -2.738414   1.000000
    9       -2.717838   1.000000
   10        4.522691   0.000000
   11        6.293099   0.000000
   12        6.979892   0.000000
   13        8.369601   0.000000
   14        9.402570   0.000000
 
  0.0000000E+00  0.3333333E+00  0.1666667E+00  0.9259259E-02
    1      -41.622417   1.000000
    2      -41.622134   1.000000
    3      -41.622071   1.000000
    4      -41.621714   1.000000
    5      -41.621518   1.000000
    6      -17.325545   1.000000
    7       -3.581917   1.000000
    8       -2.738415   1.000000
    9       -2.717837   1.000000
   10        4.522691   0.000000
   11        6.293099   0.000000
   12        6.979892   0.000000
   13        8.369601   0.000000
   14        9.402570   0.000000
 
  0.1666667E+00  0.3333333E+00  0.1666667E+00  0.9259259E-02
    1      -41.622239   1.000000
    2      -41.622141   1.000000
    3      -41.622116   1.000000
    4      -41.621962   1.000000
    5      -41.621549   1.000000
    6      -17.346984   1.000000
    7       -3.402763   1.000000
    8       -2.791153   1.000000
    9       -2.502211   1.000000
   10        4.212680   0.000000
   11        6.606967   0.000000
   12        7.325952   0.000000
   13        8.319900   0.000000
   14        8.376503   0.000000
 
  0.3333333E+00  0.3333333E+00  0.1666667E+00  0.9259259E-02
    1      -41.622416   1.000000
    2      -41.622134   1.000000
    3      -41.622069   1.000000
    4      -41.621715   1.000000
    5      -41.621519   1.000000
    6      -17.325545   1.000000
    7       -3.581917   1.000000
    8       -2.738415   1.000000
    9       -2.717838   1.000000
   10        4.522691   0.000000
   11        6.293099   0.000000
   12        6.979892   0.000000
   13        8.369601   0.000000
   14        9.402570   0.000000
 
  0.5000000E+00  0.3333333E+00  0.1666667E+00  0.9259259E-02
    1      -41.622184   1.000000
    2      -41.622073   1.000000
    3      -41.621808   1.000000
    4      -41.621458   1.000000
    5      -41.621337   1.000000
    6      -17.281380   1.000000
    7       -3.761754   1.000000
    8       -3.154578   1.000000
    9       -2.810247   1.000000
   10        5.329071   0.000000
   11        6.215526   0.000000
   12        6.424334   0.000000
   13        8.940540   0.000000
   14        9.768920   0.000000
 
 -0.3333333E+00  0.3333333E+00  0.1666667E+00  0.9259259E-02
    1      -41.622140   1.000000
    2      -41.621896   1.000000
    3      -41.621662   1.000000
    4      -41.621579   1.000000
    5      -41.621250   1.000000
    6      -17.259093   1.000000
    7       -3.789504   1.000000
    8       -3.367538   1.000000
    9       -2.913481   1.000000
   10        5.672811   0.000000
   11        5.955613   0.000000
   12        7.261186   0.000000
   13        8.326934   0.000000
   14        9.977850   0.000000
 
 -0.1666667E+00  0.3333333E+00  0.1666667E+00  0.9259259E-02
    1      -41.622184   1.000000
    2      -41.622075   1.000000
    3      -41.621808   1.000000
    4      -41.621458   1.000000
    5      -41.621335   1.000000
    6      -17.281380   1.000000
    7       -3.761754   1.000000
    8       -3.154578   1.000000
    9       -2.810246   1.000000
   10        5.329071   0.000000
   11        6.215526   0.000000
   12        6.424334   0.000000
   13        8.940540   0.000000
   14        9.768920   0.000000
 
  0.5631947E-33  0.5000000E+00  0.1666667E+00  0.9259259E-02
    1      -41.622354   1.000000
    2      -41.622096   1.000000
    3      -41.621896   1.000000
    4      -41.621493   1.000000
    5      -41.621281   1.000000
    6      -17.281185   1.000000
    7       -3.993720   1.000000
    8       -2.940579   1.000000
    9       -2.740752   1.000000
   10        4.899173   0.000000
   11        6.336937   0.000000
   12        7.621912   0.000000
   13        7.941742   0.000000
   14       10.307491   0.000000
 
  0.1666667E+00  0.5000000E+00  0.1666667E+00  0.9259259E-02
    1      -41.622306   1.000000
    2      -41.622092   1.000000
    3      -41.621924   1.000000
    4      -41.621588   1.000000
    5      -41.621383   1.000000
    6      -17.292259   1.000000
    7       -3.887848   1.000000
    8       -3.004551   1.000000
    9       -2.636698   1.000000
   10        4.970915   0.000000
   11        6.500162   0.000000
   12        7.309380   0.000000
   13        7.853532   0.000000
   14        9.806637   0.000000
 
  0.3333333E+00  0.5000000E+00  0.1666667E+00  0.9259259E-02
    1      -41.622184   1.000000
    2      -41.622073   1.000000
    3      -41.621808   1.000000
    4      -41.621458   1.000000
    5      -41.621337   1.000000
    6      -17.281380   1.000000
    7       -3.761754   1.000000
    8       -3.154578   1.000000
    9       -2.810247   1.000000
   10        5.329071   0.000000
   11        6.215526   0.000000
   12        6.424334   0.000000
   13        8.940540   0.000000
   14        9.768919   0.000000
 
  0.5000000E+00  0.5000000E+00  0.1666667E+00  0.9259259E-02
    1      -41.622492   1.000000
    2      -41.622013   1.000000
    3      -41.621605   1.000000
    4      -41.621343   1.000000
    5      -41.621207   1.000000
    6      -17.259796   1.000000
    7       -3.876264   1.000000
    8       -3.184437   1.000000
    9       -2.941529   1.000000
   10        4.652518   0.000000
   11        5.685986   0.000000
   12        7.908676   0.000000
   13        9.522187   0.000000
   14       10.431159   0.000000
 
 -0.3333333E+00  0.5000000E+00  0.1666667E+00  0.9259259E-02
    1      -41.622283   1.000000
    2      -41.621967   1.000000
    3      -41.621607   1.000000
    4      -41.621549   1.000000
    5      -41.621085   1.000000
    6      -17.248613   1.000000
    7       -3.799406   1.000000
    8       -3.319182   1.000000
    9       -3.090409   1.000000
   10        4.984910   0.000000
   11        5.984716   0.000000
   12        7.958273   0.000000
   13        8.312496   0.000000
   14       11.420933   0.000000
 
 -0.1666667E+00  0.5000000E+00  0.1666667E+00  0.9259259E-02
    1      -41.622141   1.000000
    2      -41.621896   1.000000
    3      -41.621661   1.000000
    4      -41.621578   1.000000
    5      -41.621251   1.000000
    6      -17.259093   1.000000
    7       -3.789504   1.000000
    8       -3.367538   1.000000
    9       -2.913481   1.000000
   10        5.672811   0.000000
   11        5.955613   0.000000
   12        7.261187   0.000000
   13        8.326934   0.000000
   14        9.977850   0.000000
 
 -0.3081488E-32 -0.3333333E+00  0.1666667E+00  0.9259259E-02
    1      -41.622308   1.000000
    2      -41.622091   1.000000
    3      -41.621924   1.000000
    4      -41.621589   1.000000
    5      -41.621382   1.000000
    6      -17.292259   1.000000
    7       -3.887848   1.000000
    8       -3.004551   1.000000
    9       -2.636697   1.000000
   10        4.970915   0.000000
   11        6.500162   0.000000
   12        7.309380   0.000000
   13        7.853532   0.000000
   14        9.806637   0.000000
 
  0.1666667E+00 -0.3333333E+00  0.1666667E+00  0.9259259E-02
    1      -41.622352   1.000000
    2      -41.622097   1.000000
    3      -41.621897   1.000000
    4      -41.621493   1.000000
    5      -41.621279   1.000000
    6      -17.281185   1.000000
    7       -3.993721   1.000000
    8       -2.940578   1.000000
    9       -2.740752   1.000000
   10        4.899174   0.000000
   11        6.336937   0.000000
   12        7.621911   0.000000
   13        7.941741   0.000000
   14       10.307491   0.000000
 
  0.3333333E+00 -0.3333333E+00  0.1666667E+00  0.9259259E-02
    1      -41.622140   1.000000
    2      -41.621896   1.000000
    3      -41.621662   1.000000
    4      -41.621579   1.000000
    5      -41.621250   1.000000
    6      -17.259093   1.000000
    7       -3.789504   1.000000
    8       -3.367538   1.000000
    9       -2.913481   1.000000
   10        5.672811   0.000000
   11        5.955613   0.000000
   12        7.261186   0.000000
   13        8.326934   0.000000
   14        9.977850   0.000000
 
  0.5000000E+00 -0.3333333E+00  0.1666667E+00  0.9259259E-02
    1      -41.622283   1.000000
    2      -41.621967   1.000000
    3      -41.621607   1.000000
    4      -41.621549   1.000000
    5      -41.621085   1.000000
    6      -17.248613   1.000000
    7       -3.799406   1.000000
    8       -3.319183   1.000000
    9       -3.090409   1.000000
   10        4.984910   0.000000
   11        5.984716   0.000000
   12        7.958274   0.000000
   13        8.312496   0.000000
   14       11.420932   0.000000
 
 -0.3333333E+00 -0.3333333E+00  0.1666667E+00  0.9259259E-02
    1      -41.622492   1.000000
    2      -41.622013   1.000000
    3      -41.621607   1.000000
    4      -41.621343   1.000000
    5      -41.621205   1.000000
    6      -17.259796   1.000000
    7       -3.876264   1.000000
    8       -3.184437   1.000000
    9       -2.941529   1.000000
   10        4.652518   0.000000
   11        5.685986   0.000000
   12        7.908676   0.000000
   13        9.522187   0.000000
   14       10.431159   0.000000
 
 -0.1666667E+00 -0.3333333E+00  0.1666667E+00  0.9259259E-02
    1      -41.622184   1.000000
    2      -41.622075   1.000000
    3      -41.621808   1.000000
    4      -41.621458   1.000000
    5      -41.621335   1.000000
    6      -17.281380   1.000000
    7       -3.761754   1.000000
    8       -3.154578   1.000000
    9       -2.810246   1.000000
   10        5.329071   0.000000
   11        6.215526   0.000000
   12        6.424333   0.000000
   13        8.940540   0.000000
   14        9.768920   0.000000
 
 -0.7703720E-33 -0.1666667E+00  0.1666667E+00  0.9259259E-02
    1      -41.622239   1.000000
    2      -41.622143   1.000000
    3      -41.622116   1.000000
    4      -41.621962   1.000000
    5      -41.621547   1.000000
    6      -17.346984   1.000000
    7       -3.402763   1.000000
    8       -2.791153   1.000000
    9       -2.502211   1.000000
   10        4.212680   0.000000
   11        6.606968   0.000000
   12        7.325952   0.000000
   13        8.319901   0.000000
   14        8.376503   0.000000
 
  0.1666667E+00 -0.1666667E+00  0.1666667E+00  0.9259259E-02
    1      -41.622416   1.000000
    2      -41.622135   1.000000
    3      -41.622072   1.000000
    4      -41.621714   1.000000
    5      -41.621517   1.000000
    6      -17.325545   1.000000
    7       -3.581917   1.000000
    8       -2.738414   1.000000
    9       -2.717838   1.000000
   10        4.522691   0.000000
   11        6.293099   0.000000
   12        6.979892   0.000000
   13        8.369601   0.000000
   14        9.402570   0.000000
 
  0.3333333E+00 -0.1666667E+00  0.1666667E+00  0.9259259E-02
    1      -41.622184   1.000000
    2      -41.622075   1.000000
    3      -41.621808   1.000000
    4      -41.621458   1.000000
    5      -41.621335   1.000000
    6      -17.281380   1.000000
    7       -3.761754   1.000000
    8       -3.154578   1.000000
    9       -2.810246   1.000000
   10        5.329071   0.000000
   11        6.215526   0.000000
   12        6.424333   0.000000
   13        8.940540   0.000000
   14        9.768919   0.000000
 
  0.5000000E+00 -0.1666667E+00  0.1666667E+00  0.9259259E-02
    1      -41.622141   1.000000
    2      -41.621896   1.000000
    3      -41.621661   1.000000
    4      -41.621578   1.000000
    5      -41.621251   1.000000
    6      -17.259093   1.000000
    7       -3.789504   1.000000
    8       -3.367538   1.000000
    9       -2.913481   1.000000
   10        5.672811   0.000000
   11        5.955613   0.000000
   12        7.261187   0.000000
   13        8.326935   0.000000
   14        9.977850   0.000000
 
 -0.3333333E+00 -0.1666667E+00  0.1666667E+00  0.9259259E-02
    1      -41.622184   1.000000
    2      -41.622075   1.000000
    3      -41.621808   1.000000
    4      -41.621458   1.000000
    5      -41.621335   1.000000
    6      -17.281380   1.000000
    7       -3.761754   1.000000
    8       -3.154578   1.000000
    9       -2.810246   1.000000
   10        5.329071   0.000000
   11        6.215526   0.000000
   12        6.424333   0.000000
   13        8.940540   0.000000
   14        9.768919   0.000000
 
 -0.1666667E+00 -0.1666667E+00  0.1666667E+00  0.9259259E-02
    1      -41.622416   1.000000
    2      -41.622135   1.000000
    3      -41.622072   1.000000
    4      -41.621714   1.000000
    5      -41.621517   1.000000
    6      -17.325545   1.000000
    7       -3.581917   1.000000
    8       -2.738414   1.000000
    9       -2.717838   1.000000
   10        4.522691   0.000000
   11        6.293099   0.000000
   12        6.979892   0.000000
   13        8.369601   0.000000
   14        9.402570   0.000000
 
  0.0000000E+00 -0.1540744E-32  0.3333333E+00  0.9259259E-02
    1      -41.622241   1.000000
    2      -41.622239   1.000000
    3      -41.622010   1.000000
    4      -41.621531   1.000000
    5      -41.621529   1.000000
    6      -17.324918   1.000000
    7       -3.807864   1.000000
    8       -2.582141   1.000000
    9       -2.582140   1.000000
   10        4.163543   0.000000