Og_FCC                                  
   1.00000000000000     
     4.342346    0.000000    0.000000
     2.171173    3.760582   -0.000000
     2.171173    1.253527    3.545511
   Og
     1
Direct
  0.000000  0.000000  0.000000
 
   56   56   56
  207.32      204.37      198.93      198.40      207.82      225.03      241.08      245.38      231.76      201.43    
  161.53      120.93      86.352      60.633      43.299      32.157      24.724      19.351      15.272      12.065    
  9.5209      7.5168      5.9744      4.8112      3.9570      3.3477      2.9431      2.7109      2.6366      2.7109    
  2.9431      3.3477      3.9570      4.8112      5.9744      7.5168      9.5209      12.065      15.272      19.351    
  24.724      32.157      43.299      60.633      86.352      120.93      161.53      201.43      231.76      245.38    
  241.08      225.03      207.82      198.40      198.93      204.37      204.37      200.22      197.59      202.87    
  217.36      235.00      245.49      240.21      216.97      180.52      139.36      101.50      71.592      50.562    
  36.836      27.933      21.720      17.096      13.512      10.670      8.4190      6.6647      5.3286      4.3336    
  3.6118      3.1117      2.7975      2.6465      2.6464      2.7975      3.1115      3.6116      4.3332      5.3281    
  6.6639      8.4179      10.668      13.509      17.093      21.716      27.928      36.830      50.555      71.584    
  101.49      139.36      180.51      216.97      240.21      245.49      235.01      217.37      202.88      197.59    
  200.23      204.37      198.93      197.59      201.48      213.46      230.33      243.58      244.08      227.25    
  195.26      155.33      115.80      82.660      58.254      41.865      31.290      24.153      18.948      14.975    
  11.840      9.3487      7.3863      5.8759      4.7368      3.8995      3.3019      2.9045      2.6764      2.6032    
  2.6762      2.9042      3.3014      3.8989      4.7359      5.8747      7.3844      9.3461      11.836      14.970    
  18.942      24.144      31.279      41.852      58.239      82.645      115.78      155.32      195.26      227.25    
  244.08      243.58      230.34      213.47      201.48      197.60      198.93      200.23      198.40      202.87    
  213.46      228.62      242.02      245.40      233.17      205.47      167.82      128.08      92.928      65.822    
  46.993      34.699      26.578      20.785      16.419      13.001      10.281      8.1220      6.4407      5.1594    
  4.2047      3.5107      3.0289      2.7257      2.5797      2.5796      2.7254      3.0285      3.5099      4.2037    
  5.1578      6.4385      8.1189      10.276      12.995      16.411      20.774      26.564      34.682      46.973    
  65.800      92.907      128.06      167.81      205.46      233.17      245.40      242.03      228.64      213.47    
  202.88      198.41      197.60      197.59      207.82      217.36      230.33      242.02      245.65      235.79    
  211.35      176.28      137.44      101.50      72.618      51.848      37.996      28.901      22.545      17.801    
  14.120      11.189      8.8504      7.0087      5.5908      4.5211      3.7324      3.1683      2.7916      2.5754    
  2.5054      2.5751      2.7912      3.1676      3.7312      4.5194      5.5885      7.0054      8.8458      11.182    
  14.111      17.789      22.529      28.882      37.973      51.822      72.590      101.48      137.42      176.27    
  211.35      235.79      245.66      242.04      230.34      217.38      207.83      202.88      201.48      202.88    
  225.03      235.00      243.58      245.40      235.79      213.26      180.53      143.27      107.64      78.007    
  55.998      40.950      31.009      24.151      19.076      15.160      12.045      9.5482      7.5634      6.0188    
  4.8405      3.9607      3.3185      2.8713      2.5885      2.4519      2.4518      2.5881      2.8706      3.3175    
  3.9592      4.8383      6.0156      7.5589      9.5418      12.036      15.148      19.060      24.131      30.984    
  40.921      55.966      77.975      107.61      143.25      180.51      213.26      235.79      245.41      243.59    
  235.02      225.05      217.38      213.47      213.47      217.37      241.08      245.49      244.08      233.17    
  211.35      180.53      145.25      110.84      81.467      59.034      43.304      32.765      25.522      20.188    
  16.083      12.819      10.192      8.0860      6.4301      5.1531      4.1891      3.4738      2.9613      2.6159    
  2.4179      2.3525      2.4176      2.6153      2.9604      3.4724      4.1871      5.1503      6.4261      8.0802    
  10.184      12.807      16.068      20.168      25.498      32.736      43.271      58.998      81.432      110.81    
  145.22      180.51      211.35      233.17      244.09      245.50      241.10      235.02      230.34      228.64    
  230.34      235.01      245.38      240.21      227.25      205.47      176.28      143.27      110.84      82.659    
  60.638      44.826      34.032      26.576      21.083      16.851      13.482      10.757      8.5578      6.8100    
  5.4487      4.4093      3.6288      3.0566      2.6551      2.4001      2.2760      2.2759      2.3997      2.6544    
  3.0555      3.6272      4.4071      5.4454      6.8052      8.5509      10.748      13.468      16.833      21.061    
  26.549      34.000      44.790      60.599      82.622      110.81      143.25      176.27      205.46      227.25    
  240.22      245.40      245.50      243.59      242.04      242.03      243.58      245.49      231.76      216.97    
  195.26      167.82      137.44      107.64      81.467      60.638      45.352      34.698      27.241      21.712    
  17.429      14.007      11.224      8.9605      7.1445      5.7160      4.6137      3.7767      3.1527      2.7015    
  2.3962      2.2190      2.1609      2.2188      2.3958      2.7008      3.1516      3.7750      4.6113      5.7123    
  7.1392      8.9527      11.213      13.992      17.410      21.688      27.212      34.663      45.315      60.598    
  81.430      107.61      137.42      167.80      195.26      216.97      231.76      240.22      244.09      245.41    
  245.66      245.40      244.08      240.21      201.43      180.52      155.33      128.08      101.50      78.007    
  59.034      44.826      34.698      27.468      22.037      17.789      14.371      11.572      9.2782      7.4202    
  5.9444      4.7942      3.9115      3.2443      2.7512      2.4026      2.1791      2.0696      2.0695      2.1788    
  2.4022      2.7506      3.2433      3.9099      4.7917      5.9406      7.4146      9.2698      11.561      14.355    
  17.769      22.012      27.438      34.663      44.788      58.995      77.970      101.47      128.06      155.32    
  180.51      201.43      216.97      227.25      233.17      235.79      235.79      233.17      227.25      216.97    
  161.53      139.36      115.80      92.928      72.618      55.998      43.304      34.032      27.241      22.037    
  17.911      14.558      11.788      9.4977      7.6259      6.1247      4.9432      4.0275      3.3268      2.8000    
  2.4159      2.1533      1.9995      1.9487      1.9995      2.1531      2.4157      2.7995      3.3262      4.0261    
  4.9410      6.1209      7.6203      9.4892      11.776      14.542      17.891      22.012      27.212      33.998    
  43.269      55.961      72.583      92.899      115.77      139.35      161.52      180.51      195.26      205.46    
  211.35      213.26      211.35      205.46      195.26      180.51      120.93      101.50      82.660      65.822    
  51.848      40.950      32.765      26.576      21.712      17.789      14.558      11.861      9.6099      7.7528    
  6.2493      5.0546      4.1196      3.3962      2.8443      2.4324      2.1385      1.9478      1.8538      1.8537    
  1.9480      2.1385      2.4326      2.8442      3.3960      4.1187      5.0529      6.2459      7.7477      9.6018    
  11.850      14.542      17.770      21.688      26.549      32.733      40.917      51.815      65.790      82.635    
  101.48      120.92      139.35      155.32      167.80      176.27      180.51      180.51      176.27      167.81    
  155.32      139.36      86.352      71.592      58.254      46.993      37.996      31.009      25.522      21.083    
  17.429      14.371      11.788      9.6099      7.7957      6.3129      5.1234      4.1836      3.4488      2.8808    
  2.4491      2.1312      1.9115      1.7815      1.7385      1.7817      1.9119      2.1317      2.4498      2.8813    
  3.4493      4.1834      5.1226      6.3104      7.7916      9.6028      11.778      14.357      17.412      21.061    
  25.497      30.982      37.966      46.966      58.226      71.569      86.334      101.48      115.77      128.06    
  137.42      143.25      145.22      143.25      137.42      128.06      115.78      101.49      60.633      50.562    
  41.865      34.699      28.901      24.151      20.188      16.851      14.007      11.572      9.4977      7.7528    
  6.3129      5.1467      4.2165      3.4817      2.9070      2.4632      2.1285      1.8869      1.7288      1.6502    
  1.6504      1.7293      1.8878      2.1296      2.4646      2.9083      3.4831      4.2173      5.1469      6.3116    
  7.7500      9.4923      11.564      13.995      16.836      20.170      24.129      28.880      34.673      41.842    
  50.541      60.614      71.569      82.635      92.899      101.47      107.61      110.81      110.81      107.61    
  101.48      92.907      82.645      71.584      43.299      36.836      31.290      26.578      22.545      19.076    
  16.083      13.482      11.224      9.2782      7.6259      6.2493      5.1234      4.2165      3.4929      2.9206    
  2.4726      2.1280      1.8713      1.6923      1.5858      1.5505      1.5863      1.6933      1.8727      2.1299    
  2.4748      2.9231      3.4954      4.2186      5.1249      6.2497      7.6247      9.2750      11.218      13.473    
  16.071      19.062      22.526      26.561      31.271      36.816      43.284      50.541      58.226      65.790    
  72.583      77.970      81.430      82.622      81.432      77.975      72.590      65.800      58.239      50.555    
  32.157      27.933      24.153      20.785      17.801      15.160      12.819      10.757      8.9605      7.4202    
  6.1247      5.0546      4.1836      3.4817      2.9206      2.4759      2.1281      1.8626      1.6692      1.5421    
  1.4790      1.4794      1.5431      1.6708      1.8649      2.1309      2.4792      2.9243      3.4856      4.1873    
  5.0578      6.1271      7.4213      8.9599      10.754      12.814      15.152      17.792      20.773      24.139    
  27.922      32.143      36.816      41.842      46.966      51.815      55.961      58.995      60.598      60.599    
  58.998      55.966      51.822      46.973      41.852      36.830      24.724      21.720      18.948      16.419    
  14.120      12.045      10.192      8.5578      7.1445      5.9444      4.9432      4.1196      3.4488      2.9070    
  2.4726      2.1281      1.8598      1.6580      1.5169      1.4332      1.4058      1.4341      1.5185      1.6604    
  1.8630      2.1320      2.4772      2.9120      3.4542      4.1250      4.9485      5.9490      7.1480      8.5601    
  10.192      12.044      14.116      16.413      18.943      21.711      24.715      27.922      31.271      34.673    
  37.966      40.917      43.269      44.788      45.315      44.790      43.271      40.921      37.973      34.682    
  31.279      27.928      19.351      17.096      14.975      13.001      11.189      9.5482      8.0860      6.8100    
  5.7160      4.7942      4.0275      3.3962      2.8808      2.4632      2.1280      1.8626      1.6580      1.5086    
  1.4110      1.3630      1.3634      1.4124      1.5110      1.6614      1.8669      2.1332      2.4692      2.8874    
  3.4034      4.0349      4.8015      5.7230      6.8161      8.0915      9.5515      11.191      13.002      14.973    
  17.094      19.349      21.711      24.139      26.561      28.880      30.982      32.733      33.998      34.663    
  34.663      34.000      32.736      30.984      28.882      26.564      24.144      21.716      15.272      13.512    
  11.840      10.281      8.8504      7.5634      6.4301      5.4487      4.6137      3.9115      3.3268      2.8443    
  2.4491      2.1285      1.8713      1.6692      1.5169      1.4110      1.3490      1.3289      1.3501      1.4132    
  1.5203      1.6737      1.8769      2.1351      2.4567      2.8526      3.3359      3.9210      4.6233      5.4583    
  6.4388      7.5720      8.8574      10.286      11.845      13.515      15.273      17.094      18.943      20.773    
  22.526      24.129      25.497      26.549      27.212      27.438      27.212      26.549      25.498      24.131    
  22.529      20.774      18.942      17.093      12.065      10.670      9.3487      8.1220      7.0087      6.0188    
  5.1531      4.4093      3.7767      3.2443      2.8000      2.4324      2.1312      1.8869      1.6923      1.5421    
  1.4332      1.3630      1.3289      1.3296      1.3649      1.4365      1.5466      1.6980      1.8939      2.1393    
  2.4416      2.8101      3.2552      3.7883      4.4211      5.1654      6.0303      7.0202      8.1326      9.3575    
  10.678      12.073      13.515      14.973      16.413      17.792      19.062      20.170      21.061      21.688    
  22.012      22.012      21.688      21.061      20.168      19.060      17.789      16.411      14.970      13.509    
  9.5209      8.4190      7.3863      6.4407      5.5908      4.8405      4.1891      3.6288      3.1527      2.7512    
  2.4159      2.1385      1.9115      1.7288      1.5858      1.4790      1.4058      1.3634      1.3501      1.3649    
  1.4087      1.4834      1.5916      1.7360      1.9199      2.1482      2.4268      2.7632      3.1656      3.6425    
  4.2029      4.8550      5.6049      6.4545      7.4000      8.4312      9.5314      10.678      11.845      13.002    
  14.116      15.152      16.071      16.836      17.412      17.770      17.891      17.769      17.410      16.833    
  16.068      15.148      14.111      12.995      11.836      10.668      7.5168      6.6647      5.8759      5.1594    
  4.5211      3.9607      3.4738      3.0566      2.7015      2.4026      2.1533      1.9478      1.7815      1.6502    
  1.5505      1.4794      1.4341      1.4124      1.4132      1.4365      1.4834      1.5561      1.6574      1.7902    
  1.9579      2.1647      2.4154      2.7155      3.0714      3.4897      3.9768      4.5378      5.1761      5.8917    
  6.6803      7.5320      8.4312      9.3575      10.286      11.191      12.044      12.814      13.473      13.995    
  14.357      14.542      14.542      14.355      13.992      13.468      12.807      12.036      11.182      10.276    
  9.3461      8.4179      5.9744      5.3286      4.7368      4.2047      3.7324      3.3185      2.9613      2.6551    
  2.3962      2.1791      1.9995      1.8538      1.7385      1.6504      1.5863      1.5431      1.5185      1.5110    
  1.5203      1.5466      1.5916      1.6574      1.7471      1.8639      2.0113      2.1923      2.4107      2.6709    
  2.9778      3.3362      3.7503      4.2230      4.7556      5.3466      5.9913      6.6803      7.4000      8.1326    
  8.8574      9.5515      10.192      10.754      11.218      11.564      11.778      11.850      11.776      11.561    
  11.213      10.748      10.184      9.5418      8.8458      8.1189      7.3844      6.6639      4.8112      4.3336    
  3.8995      3.5107      3.1683      2.8713      2.6159      2.4001      2.2190      2.0696      1.9487      1.8537    
  1.7817      1.7293      1.6933      1.6708      1.6604      1.6614      1.6737      1.6980      1.7360      1.7902    
  1.8639      1.9606      2.0830      2.2339      2.4163      2.6336      2.8896      3.1877      3.5304      3.9191    
  4.3534      4.8310      5.3466      5.8917      6.4545      7.0202      7.5720      8.0915      8.5601      8.9599    
  9.2750      9.4923      9.6028      9.6018      9.4892      9.2698      8.9527      8.5509      8.0802      7.5589    
  7.0054      6.4385      5.8747      5.3281      3.9570      3.6118      3.3019      3.0289      2.7917      2.5885    
  2.4179      2.2760      2.1609      2.0695      1.9995      1.9480      1.9119      1.8878      1.8727      1.8649    
  1.8630      1.8669      1.8769      1.8939      1.9199      1.9579      2.0113      2.0830      2.1760      2.2926    
  2.4355      2.6075      2.8114      3.0494      3.3232      3.6329      3.9774      4.3534      4.7556      5.1761    
  5.6049      6.0303      6.4388      6.8161      7.1480      7.4213      7.6247      7.7500      7.7916      7.7477    
  7.6203      7.4146      7.1392      6.8052      6.4261      6.0156      5.5885      5.1578      4.7359      4.3332    
  3.3477      3.1117      2.9045      2.7257      2.5754      2.4519      2.3525      2.2759      2.2188      2.1788    
  2.1531      2.1385      2.1317      2.1296      2.1299      2.1309      2.1320      2.1332      2.1351      2.1393    
  2.1482      2.1647      2.1923      2.2339      2.2926      2.3709      2.4712      2.5958      2.7468      2.9257    
  3.1335      3.3698      3.6329      3.9191      4.2230      4.5378      4.8550      5.1654      5.4583      5.7230    
  5.9490      6.1271      6.2497      6.3116      6.3104      6.2459      6.1209      5.9406      5.7123      5.4454    
  5.1503      4.8383      4.5194      4.2037      3.8989      3.6116      2.9431      2.7975      2.6764      2.5797    
  2.5054      2.4518      2.4176      2.3997      2.3958      2.4022      2.4157      2.4326      2.4498      2.4646    
  2.4748      2.4792      2.4772      2.4692      2.4567      2.4416      2.4268      2.4154      2.4107      2.4163    
  2.4355      2.4712      2.5257      2.6010      2.6987      2.8198      2.9650      3.1335      3.3232      3.5304    
  3.7503      3.9768      4.2029      4.4211      4.6233      4.8015      4.9485      5.0578      5.1249      5.1469    
  5.1226      5.0529      4.9410      4.7917      4.6113      4.4071      4.1871      3.9592      3.7312      3.5099    
  3.3014      3.1115      2.7109      2.6465      2.6032      2.5796      2.5751      2.5881      2.6153      2.6544    
  2.7008      2.7506      2.7995      2.8442      2.8813      2.9083      2.9231      2.9243      2.9120      2.8874    
  2.8526      2.8101      2.7632      2.7155      2.6709      2.6336      2.6075      2.5958      2.6010      2.6249    
  2.6689      2.7339      2.8198      2.9257      3.0494      3.1877      3.3362      3.4897      3.6425      3.7883    
  3.9210      4.0349      4.1250      4.1873      4.2186      4.2173      4.1834      4.1187      4.0261      3.9099    
  3.7750      3.6272      3.4724      3.3175      3.1676      3.0285      2.9042      2.7975      2.6366      2.6464    
  2.6762      2.7254      2.7912      2.8706      2.9604      3.0555      3.1516      3.2433      3.3262      3.3960    
  3.4493      3.4831      3.4954      3.4856      3.4542      3.4034      3.3359      3.2552      3.1656      3.0714    
  2.9778      2.8896      2.8114      2.7468      2.6987      2.6689      2.6589      2.6689      2.6987      2.7468    
  2.8114      2.8896      2.9778      3.0714      3.1656      3.2552      3.3359      3.4034      3.4542      3.4856    
  3.4954      3.4831      3.4493      3.3960      3.3262      3.2433      3.1516      3.0555      2.9604      2.8706    
  2.7912      2.7254      2.6762      2.6464      2.7109      2.7975      2.9042      3.0285      3.1676      3.3175    
  3.4724      3.6272      3.7750      3.9099      4.0261      4.1187      4.1834      4.2173      4.2186      4.1873    
  4.1250      4.0349      3.9210      3.7883      3.6425      3.4897      3.3362      3.1877      3.0494      2.9257    
  2.8198      2.7339      2.6689      2.6249      2.6010      2.5958      2.6075      2.6336      2.6709      2.7155    
  2.7632      2.8101      2.8526      2.8874      2.9120      2.9243      2.9231      2.9083      2.8813      2.8442    
  2.7995      2.7506      2.7008      2.6544      2.6153      2.5881      2.5751      2.5796      2.6032      2.6465    
  2.9431      3.1115      3.3014      3.5099      3.7312      3.9592      4.1871      4.4071      4.6113      4.7917    
  4.9410      5.0529      5.1226      5.1469      5.1249      5.0578      4.9485      4.8015      4.6233      4.4211    
  4.2029      3.9768      3.7503      3.5304      3.3232      3.1335      2.9650      2.8198      2.6987      2.6010    
  2.5257      2.4712      2.4355      2.4163      2.4107      2.4154      2.4268      2.4416      2.4567      2.4692    
  2.4772      2.4792      2.4748      2.4646      2.4498      2.4326      2.4157      2.4022      2.3958      2.3997    
  2.4176      2.4518      2.5054      2.5797      2.6764      2.7975      3.3477      3.6116      3.8989      4.2037    
  4.5194      4.8383      5.1503      5.4454      5.7123      5.9406      6.1209      6.2459      6.3104      6.3116    
  6.2497      6.1271      5.9490      5.7230      5.4583      5.1654      4.8550      4.5378      4.2230      3.9191    
  3.6329      3.3698      3.1335      2.9257      2.7468      2.5958      2.4712      2.3709      2.2926      2.2339    
  2.1923      2.1647      2.1482      2.1393      2.1351      2.1332      2.1320      2.1309      2.1299      2.1296    
  2.1317      2.1385      2.1531      2.1788      2.2188      2.2759      2.3525      2.4519      2.5754      2.7257    
  2.9045      3.1117      3.9570      4.3332      4.7359      5.1578      5.5885      6.0156      6.4261      6.8052    
  7.1392      7.4146      7.6203      7.7477      7.7916      7.7500      7.6247      7.4213      7.1480      6.8161    
  6.4388      6.0303      5.6049      5.1761      4.7556      4.3534      3.9774      3.6329      3.3232      3.0494    
  2.8114      2.6075      2.4355      2.2926      2.1760      2.0830      2.0113      1.9579      1.9199      1.8939    
  1.8769      1.8669      1.8630      1.8649      1.8727      1.8878      1.9119      1.9480      1.9995      2.0695    
  2.1609      2.2760      2.4179      2.5885      2.7917      3.0289      3.3019      3.6118      4.8112      5.3281    
  5.8747      6.4385      7.0054      7.5589      8.0802      8.5509      8.9527      9.2698      9.4892      9.6018    
  9.6028      9.4923      9.2750      8.9599      8.5601      8.0915      7.5720      7.0202      6.4545      5.8917    
  5.3466      4.8310      4.3534      3.9191      3.5304      3.1877      2.8896      2.6336      2.4163      2.2339    
  2.0830      1.9606      1.8639      1.7902      1.7360      1.6980      1.6737      1.6614      1.6604      1.6708    
  1.6933      1.7293      1.7817      1.8537      1.9487      2.0696      2.2190      2.4001      2.6159      2.8713    
  3.1683      3.5107      3.8995      4.3336      5.9744      6.6639      7.3844      8.1189      8.8458      9.5418    
  10.184      10.748      11.213      11.561      11.776      11.850      11.778      11.564      11.218      10.754    
  10.192      9.5515      8.8574      8.1326      7.4000      6.6803      5.9913      5.3466      4.7556      4.2230    
  3.7503      3.3362      2.9778      2.6709      2.4107      2.1923      2.0113      1.8639      1.7471      1.6574    
  1.5916      1.5466      1.5203      1.5110      1.5185      1.5431      1.5863      1.6504      1.7385      1.8538    
  1.9995      2.1791      2.3962      2.6551      2.9613      3.3185      3.7324      4.2047      4.7368      5.3286    
  7.5168      8.4179      9.3461      10.276      11.182      12.036      12.807      13.468      13.992      14.355    
  14.542      14.542      14.357      13.995      13.473      12.814      12.044      11.191      10.286      9.3575    
  8.4312      7.5320      6.6803      5.8917      5.1761      4.5378      3.9768      3.4897      3.0714      2.7155    
  2.4154      2.1647      1.9579      1.7902      1.6574      1.5561      1.4834      1.4365      1.4132      1.4124    
  1.4341      1.4794      1.5505      1.6502      1.7815      1.9478      2.1533      2.4026      2.7015      3.0566    
  3.4738      3.9607      4.5211      5.1594      5.8759      6.6647      9.5209      10.668      11.836      12.995    
  14.111      15.148      16.068      16.833      17.410      17.769      17.891      17.770      17.412      16.836    
  16.071      15.152      14.116      13.002      11.845      10.678      9.5314      8.4312      7.4000      6.4545    
  5.6049      4.8550      4.2029      3.6425      3.1656      2.7632      2.4268      2.1482      1.9199      1.7360    
  1.5916      1.4834      1.4087      1.3649      1.3501      1.3634      1.4058      1.4790      1.5858      1.7288    
  1.9115      2.1385      2.4159      2.7512      3.1527      3.6288      4.1891      4.8405      5.5908      6.4407    
  7.3863      8.4190      12.065      13.509      14.970      16.411      17.789      19.060      20.168      21.061    
  21.688      22.012      22.012      21.688      21.061      20.170      19.062      17.792      16.413      14.973    
  13.515      12.073      10.678      9.3575      8.1326      7.0202      6.0303      5.1654      4.4211      3.7883    
  3.2552      2.8101      2.4416      2.1393      1.8939      1.6980      1.5466      1.4365      1.3649      1.3296    
  1.3289      1.3630      1.4332      1.5421      1.6923      1.8869      2.1312      2.4324      2.8000      3.2443    
  3.7767      4.4093      5.1531      6.0188      7.0087      8.1220      9.3487      10.670      15.272      17.093    
  18.942      20.774      22.529      24.131      25.498      26.549      27.212      27.438      27.212      26.549    
  25.497      24.129      22.526      20.773      18.943      17.094      15.273      13.515      11.845      10.286    
  8.8574      7.5720      6.4388      5.4583      4.6233      3.9210      3.3359      2.8526      2.4567      2.1351    
  1.8769      1.6737      1.5203      1.4132      1.3501      1.3289      1.3490      1.4110      1.5169      1.6692    
  1.8713      2.1285      2.4491      2.8443      3.3268      3.9115      4.6137      5.4487      6.4301      7.5634    
  8.8504      10.281      11.840      13.512      19.351      21.716      24.144      26.564      28.882      30.984    
  32.736      34.000      34.663      34.663      33.998      32.733      30.982      28.880      26.561      24.139    
  21.711      19.349      17.094      14.973      13.002      11.191      9.5515      8.0915      6.8161      5.7230    
  4.8015      4.0349      3.4034      2.8874      2.4692      2.1332      1.8669      1.6614      1.5110      1.4124    
  1.3634      1.3630      1.4110      1.5086      1.6580      1.8626      2.1280      2.4632      2.8808      3.3962    
  4.0275      4.7942      5.7160      6.8100      8.0860      9.5482      11.189      13.001      14.975      17.096    
  24.724      27.928      31.279      34.682      37.973      40.921      43.271      44.790      45.315      44.788    
  43.269      40.917      37.966      34.673      31.271      27.922      24.715      21.711      18.943      16.413    
  14.116      12.044      10.192      8.5601      7.1480      5.9490      4.9485      4.1250      3.4542      2.9120    
  2.4772      2.1320      1.8630      1.6604      1.5185      1.4341      1.4058      1.4332      1.5169      1.6580    
  1.8598      2.1281      2.4726      2.9070      3.4488      4.1196      4.9432      5.9444      7.1445      8.5578    
  10.192      12.045      14.120      16.419      18.948      21.720      32.157      36.830      41.852      46.973    
  51.822      55.966      58.998      60.599      60.598      58.995      55.961      51.815      46.966      41.842    
  36.816      32.143      27.922      24.139      20.773      17.792      15.152      12.814      10.754      8.9599    
  7.4213      6.1271      5.0578      4.1873      3.4856      2.9243      2.4792      2.1309      1.8649      1.6708    
  1.5431      1.4794      1.4790      1.5421      1.6692      1.8626      2.1281      2.4759      2.9206      3.4817    
  4.1836      5.0546      6.1247      7.4202      8.9605      10.757      12.819      15.160      17.801      20.785    
  24.153      27.933      43.299      50.555      58.239      65.800      72.590      77.975      81.432      82.622    
  81.430      77.970      72.583      65.790      58.226      50.541      43.284      36.816      31.271      26.561    
  22.526      19.062      16.071      13.473      11.218      9.2750      7.6247      6.2497      5.1249      4.2186    
  3.4954      2.9231      2.4748      2.1299      1.8727      1.6933      1.5863      1.5505      1.5858      1.6923    
  1.8713      2.1280      2.4726      2.9206      3.4929      4.2165      5.1234      6.2493      7.6259      9.2782    
  11.224      13.482      16.083      19.076      22.545      26.578      31.290      36.836      60.633      71.584    
  82.645      92.907      101.48      107.61      110.81      110.81      107.61      101.47      92.899      82.635    
  71.569      60.614      50.541      41.842      34.673      28.880      24.129      20.170      16.836      13.995    
  11.564      9.4923      7.7500      6.3116      5.1469      4.2173      3.4831      2.9083      2.4646      2.1296    
  1.8878      1.7293      1.6504      1.6502      1.7288      1.8869      2.1285      2.4632      2.9070      3.4817    