Og_FCC                                  
   1.00000000000000     
     4.342346    0.000000    0.000000
     2.171173    3.760582   -0.000000
     2.171173    1.253527    3.545511
   Og
     1
Direct
  0.000000  0.000000  0.000000
 
   56   56   56
 0.20732117776E+03 0.20436760161E+03 0.19892907996E+03 0.19840411882E+03 0.20782001147E+03
 0.22502878509E+03 0.24108075619E+03 0.24538286274E+03 0.23175676529E+03 0.20142747817E+03
 0.16152679056E+03 0.12093358987E+03 0.86352192481E+02 0.60633495619E+02 0.43299421934E+02
 0.32156716152E+02 0.24724280084E+02 0.19350531834E+02 0.15272254520E+02 0.12065138168E+02
 0.95209189941E+01 0.75168401774E+01 0.59744230607E+01 0.48111900001E+01 0.39570049000E+01
 0.33476737633E+01 0.29430714496E+01 0.27109430883E+01 0.26366430114E+01 0.27109430877E+01
 0.29430714483E+01 0.33476737615E+01 0.39570048977E+01 0.48111899974E+01 0.59744230580E+01
 0.75168401747E+01 0.95209189916E+01 0.12065138166E+02 0.15272254519E+02 0.19350531834E+02
 0.24724280085E+02 0.32156716156E+02 0.43299421938E+02 0.60633495624E+02 0.86352192486E+02
 0.12093358988E+03 0.16152679056E+03 0.20142747817E+03 0.23175676529E+03 0.24538286274E+03
 0.24108075619E+03 0.22502878510E+03 0.20782001147E+03 0.19840411882E+03 0.19892907996E+03
 0.20436760161E+03 0.20436760162E+03 0.20022282955E+03 0.19758803396E+03 0.20287166773E+03
 0.21736196637E+03 0.23500499202E+03 0.24548502269E+03 0.24020711614E+03 0.21697076326E+03
 0.18051776223E+03 0.13936238115E+03 0.10149838923E+03 0.71591958860E+02 0.50561779478E+02
 0.36836286124E+02 0.27932785926E+02 0.21720087744E+02 0.17095847788E+02 0.13511598871E+02
 0.10669958682E+02 0.84189791942E+01 0.66647471772E+01 0.53285833481E+01 0.43336143780E+01
 0.36118435883E+01 0.31116657377E+01 0.27975345173E+01 0.26464942467E+01 0.26464354378E+01
 0.27974565789E+01 0.31114607457E+01 0.36115986843E+01 0.43332006466E+01 0.53280591690E+01
 0.66639380819E+01 0.84178952226E+01 0.10668363369E+02 0.13509453385E+02 0.17092861904E+02
 0.21716218214E+02 0.27927770851E+02 0.36830199369E+02 0.50554656188E+02 0.71584325997E+02
 0.10149078720E+03 0.13935571174E+03 0.18051296851E+03 0.21696813965E+03 0.24020760015E+03
 0.24548708558E+03 0.23500975751E+03 0.21736692622E+03 0.20287670306E+03 0.19759256995E+03
 0.20022513804E+03 0.20436804016E+03 0.19892908001E+03 0.19758803400E+03 0.20147543048E+03
 0.21345792785E+03 0.23032830116E+03 0.24357767124E+03 0.24408002463E+03 0.22725085631E+03
 0.19526414848E+03 0.15533197602E+03 0.11579602163E+03 0.82660428033E+02 0.58253504278E+02
 0.41864918023E+02 0.31289617279E+02 0.24153064005E+02 0.18948204710E+02 0.14975244602E+02
 0.11839768096E+02 0.93486993529E+01 0.73862715801E+01 0.58759450665E+01 0.47367906529E+01
 0.38995479738E+01 0.33018696087E+01 0.29044701309E+01 0.26763781019E+01 0.26031850293E+01
 0.26762433498E+01 0.29042012192E+01 0.33014278350E+01 0.38989230018E+01 0.47358753333E+01
 0.58746767023E+01 0.73844276307E+01 0.93461333498E+01 0.11836122007E+02 0.14970300755E+02
 0.18941521233E+02 0.24144473098E+02 0.31278723355E+02 0.41852043048E+02 0.58239004338E+02
 0.82645440428E+02 0.11578176170E+03 0.15532047113E+03 0.19525667852E+03 0.22724839755E+03
 0.24408263966E+03 0.24358409205E+03 0.23033766527E+03 0.21346786572E+03 0.20148463230E+03
 0.19759510968E+03 0.19893295406E+03 0.20022513807E+03 0.19840411897E+03 0.20287166787E+03
 0.21345792796E+03 0.22862439581E+03 0.24202129447E+03 0.24539650674E+03 0.23316789525E+03
 0.20547010645E+03 0.16782124536E+03 0.12808303216E+03 0.92928139204E+02 0.65821699802E+02
 0.46993211862E+02 0.34699028088E+02 0.26577636311E+02 0.20785082694E+02 0.16418863507E+02
 0.13001252952E+02 0.10280738014E+02 0.81220236026E+01 0.64406940931E+01 0.51594174673E+01
 0.42047109674E+01 0.35106704940E+01 0.30289275896E+01 0.27257104744E+01 0.25796727278E+01
 0.25796086030E+01 0.27253919277E+01 0.30284550038E+01 0.35098822421E+01 0.42036534232E+01
 0.51578381743E+01 0.64385199114E+01 0.81188517950E+01 0.10276345043E+02 0.12995083775E+02
 0.16410586129E+02 0.20774100814E+02 0.26563749847E+02 0.34681935862E+02 0.46973380673E+02
 0.65799975083E+02 0.92906697671E+02 0.12806394134E+03 0.16780692267E+03 0.20546217344E+03
 0.23316707989E+03 0.24540235892E+03 0.24203234573E+03 0.22863847877E+03 0.21347217467E+03
 0.20288419166E+03 0.19841199526E+03 0.19759510976E+03 0.19759257007E+03 0.20782001179E+03
 0.21736196669E+03 0.23032830143E+03 0.24202129463E+03 0.24565483315E+03 0.23578552499E+03
 0.21135417815E+03 0.17628493816E+03 0.13744280721E+03 0.10150226111E+03 0.72617709326E+02
 0.51847837656E+02 0.37995756189E+02 0.28901439089E+02 0.22544667703E+02 0.17801430899E+02
 0.14120285200E+02 0.11188770160E+02 0.88504439526E+01 0.70087449194E+01 0.55908252484E+01
 0.45210548006E+01 0.37323566247E+01 0.31683467421E+01 0.27916499008E+01 0.25753803316E+01
 0.25053805254E+01 0.25751448208E+01 0.27911647730E+01 0.31675717869E+01 0.37312268234E+01
 0.45194355785E+01 0.55885195806E+01 0.70054407620E+01 0.88457574158E+01 0.11182197861E+02
 0.14111292780E+02 0.17789422997E+02 0.22529133141E+02 0.28882041624E+02 0.37972623825E+02
 0.51821588374E+02 0.72590215735E+02 0.10147573534E+03 0.13742053253E+03 0.17626902337E+03
 0.21134693799E+03 0.23578674575E+03 0.24566346878E+03 0.24203596633E+03 0.23034494454E+03
 0.21737855649E+03 0.20783359980E+03 0.20288419181E+03 0.20148463254E+03 0.20287670335E+03
 0.22502878566E+03 0.23500499257E+03 0.24357767173E+03 0.24539650711E+03 0.23578552519E+03
 0.21326369769E+03 0.18053147018E+03 0.14327093833E+03 0.10764341906E+03 0.78006865194E+02
 0.55997990566E+02 0.40950006037E+02 0.31008889647E+02 0.24151258599E+02 0.19075510836E+02
 0.15160052439E+02 0.12044587184E+02 0.95481917245E+01 0.75634148960E+01 0.60187958613E+01
 0.48404697975E+01 0.39606852081E+01 0.33185128427E+01 0.28712526893E+01 0.25884779690E+01
 0.24519224056E+01 0.24517901979E+01 0.25880786219E+01 0.28705512308E+01 0.33174553310E+01
 0.39591562223E+01 0.48382795989E+01 0.60156480783E+01 0.75588984711E+01 0.95418005888E+01
 0.12035703534E+02 0.15148052298E+02 0.19059740302E+02 0.24131233167E+02 0.30984348632E+02
 0.40921349167E+02 0.55966410004E+02 0.77974781943E+02 0.10761345903E+03 0.14324691698E+03
 0.18051498639E+03 0.21325713677E+03 0.23578829639E+03 0.24540715199E+03 0.24359421441E+03
 0.23502390049E+03 0.22504554749E+03 0.21737855672E+03 0.21347217506E+03 0.21346786620E+03
 0.21736692676E+03 0.24108075704E+03 0.24548502350E+03 0.24408002535E+03 0.23316789585E+03
 0.21135417858E+03 0.18053147041E+03 0.14524601932E+03 0.11084164271E+03 0.81466845688E+02
 0.59033604195E+02 0.43304324171E+02 0.32764767737E+02 0.25522261529E+02 0.20187651260E+02
 0.16082773339E+02 0.12818528825E+02 0.10191697512E+02 0.80859862140E+01 0.64301066330E+01
 0.51530677754E+01 0.41890570688E+01 0.34737702088E+01 0.29612765154E+01 0.26159045734E+01
 0.24178936542E+01 0.23525497760E+01 0.24176231676E+01 0.26153429443E+01 0.29603799150E+01
 0.34724470101E+01 0.41871488286E+01 0.51503025366E+01 0.64261032332E+01 0.80802266549E+01
 0.10183586709E+02 0.12807368236E+02 0.16067876382E+02 0.20168389386E+02 0.25498267281E+02
 0.32735903274E+02 0.43271362318E+02 0.58998000853E+02 0.81431929712E+02 0.11080954771E+03
 0.14522097650E+03 0.18051476939E+03 0.21134755556E+03 0.23317132402E+03 0.24409072411E+03
 0.24550075228E+03 0.24109824625E+03 0.23502390078E+03 0.23034494506E+03 0.22863847945E+03
 0.23033766606E+03 0.23500975835E+03 0.24538286387E+03 0.24020711722E+03 0.22725085729E+03
 0.20547010730E+03 0.17628493884E+03 0.14327093879E+03 0.11084164293E+03 0.82659194299E+02
 0.60637518247E+02 0.44825505227E+02 0.34032073459E+02 0.26575768400E+02 0.21083169901E+02
 0.16850626124E+02 0.13481645287E+02 0.10757434771E+02 0.85578194054E+01 0.68100280966E+01
 0.54486949226E+01 0.44092978825E+01 0.36287508647E+01 0.30565634717E+01 0.26551083773E+01
 0.24000655022E+01 0.22760280179E+01 0.22759126132E+01 0.23996691236E+01 0.26544388147E+01
 0.30555155693E+01 0.36272363113E+01 0.44070608826E+01 0.54454264972E+01 0.68052286395E+01
 0.85509233556E+01 0.10747751732E+02 0.13468474079E+02 0.16833266318E+02 0.21061008022E+02
 0.26548659672E+02 0.33999863569E+02 0.44789655763E+02 0.60599281693E+02 0.82622380078E+02
 0.11080834717E+03 0.14324532253E+03 0.17626836303E+03 0.20546277846E+03 0.22725357663E+03
 0.24021662427E+03 0.24539560272E+03 0.24550075262E+03 0.24359421504E+03 0.24203596720E+03
 0.24203234676E+03 0.24358409317E+03 0.24548708673E+03 0.23175676670E+03 0.21697076460E+03
 0.19526414973E+03 0.16782124646E+03 0.13744280812E+03 0.10764341974E+03 0.81466846118E+02
 0.60637518442E+02 0.45351717359E+02 0.34697656063E+02 0.27240666474E+02 0.21712238003E+02
 0.17428854740E+02 0.14006771312E+02 0.11223965177E+02 0.89605343726E+01 0.71445468084E+01
 0.57159650229E+01 0.46137443587E+01 0.37766673345E+01 0.31526637403E+01 0.27015228799E+01
 0.23962045582E+01 0.22189650404E+01 0.21609228467E+01 0.22187531559E+01 0.23957693746E+01
 0.27008009310E+01 0.31515898366E+01 0.37750371670E+01 0.46113271831E+01 0.57122926950E+01
 0.71391616035E+01 0.89527035281E+01 0.11213093482E+02 0.13992003963E+02 0.17409749262E+02
 0.21688027650E+02 0.27211648389E+02 0.34663417543E+02 0.45314506807E+02 0.60598132604E+02
 0.81429850072E+02 0.10760998193E+03 0.13741654583E+03 0.16780439470E+03 0.19525548825E+03
 0.21697094822E+03 0.23176325874E+03 0.24021662464E+03 0.24409072483E+03 0.24540715300E+03
 0.24566347001E+03 0.24540236029E+03 0.24408264110E+03 0.24020760160E+03 0.20142747986E+03
 0.18051776384E+03 0.15533197752E+03 0.12808303348E+03 0.10150226221E+03 0.78006866037E+02
 0.59033604771E+02 0.44825505559E+02 0.34697656199E+02 0.27468178185E+02 0.22037051012E+02
 0.17788648639E+02 0.14371044222E+02 0.11572328041E+02 0.92781952463E+01 0.74202384833E+01
 0.59444481396E+01 0.47941599647E+01 0.39115383031E+01 0.32442721428E+01 0.27512175992E+01
 0.24026037564E+01 0.21790830450E+01 0.20695571454E+01 0.20695208053E+01 0.21788356336E+01
 0.24022462424E+01 0.27505511217E+01 0.32433181212E+01 0.39099350594E+01 0.47917441143E+01
 0.59405804109E+01 0.74145505942E+01 0.92697949315E+01 0.11560787756E+02 0.14355318341E+02
 0.17768631723E+02 0.22011748329E+02 0.27438486898E+02 0.34662719555E+02 0.44788400731E+02
 0.58994510125E+02 0.77970372098E+02 0.10147040119E+03 0.12805738801E+03 0.15531569811E+03
 0.18050900863E+03 0.20142540629E+03 0.21697094862E+03 0.22725357740E+03 0.23317132513E+03
 0.23578829779E+03 0.23578674735E+03 0.23316708161E+03 0.22724839930E+03 0.21696814139E+03
 0.16152679252E+03 0.13936238301E+03 0.11579602333E+03 0.92928140687E+02 0.72617710545E+02
 0.55997991496E+02 0.43304324818E+02 0.34032073860E+02 0.27240666686E+02 0.22037051094E+02
 0.17910790078E+02 0.14557649652E+02 0.11787729783E+02 0.94977496591E+01 0.76258553436E+01
 0.61247111594E+01 0.49432177093E+01 0.40275106306E+01 0.33268481342E+01 0.27999682403E+01
 0.24158713065E+01 0.21532625730E+01 0.19994997253E+01 0.19487005492E+01 0.19994645945E+01
 0.21531405252E+01 0.24156894071E+01 0.27995379641E+01 0.33261641855E+01 0.40261390429E+01
 0.49410309104E+01 0.61209330859E+01 0.76202508467E+01 0.94892187275E+01 0.11776159848E+02
 0.14541687552E+02 0.17890880180E+02 0.22011713426E+02 0.27211667355E+02 0.33997887869E+02
 0.43268734348E+02 0.55961082679E+02 0.72582976136E+02 0.92898850811E+02 0.11577169628E+03
 0.13934587706E+03 0.16151754889E+03 0.18050900905E+03 0.19525548907E+03 0.20546277966E+03
 0.21134755710E+03 0.21325713857E+03 0.21134693996E+03 0.20546217550E+03 0.19525668059E+03
 0.18051297055E+03 0.12093359205E+03 0.10149839126E+03 0.82660429847E+02 0.65821701349E+02
 0.51847838898E+02 0.40950006969E+02 0.32764768385E+02 0.26575768814E+02 0.21712238244E+02
 0.17788648763E+02 0.14557649701E+02 0.11860636246E+02 0.96099371163E+01 0.77527868564E+01
 0.62492963424E+01 0.50545554565E+01 0.41196206152E+01 0.33961741087E+01 0.28442535031E+01
 0.24323832294E+01 0.21384581241E+01 0.19477997370E+01 0.18537555872E+01 0.18536888951E+01
 0.19480109482E+01 0.21384971327E+01 0.24326296678E+01 0.28441541116E+01 0.33960287953E+01
 0.41186509514E+01 0.50529257494E+01 0.62459066990E+01 0.77477405760E+01 0.96017896587E+01
 0.11849715251E+02 0.14542210910E+02 0.17769770977E+02 0.21687975381E+02 0.26548511190E+02
 0.32733077447E+02 0.40916760717E+02 0.51815224548E+02 0.65789531427E+02 0.82634689864E+02
 0.10147752218E+03 0.12091842388E+03 0.13934587749E+03 0.15531569896E+03 0.16780439597E+03
 0.17626836468E+03 0.18051477136E+03 0.18051498858E+03 0.17626902570E+03 0.16780692504E+03
 0.15532047349E+03 0.13935571403E+03 0.86352194779E+02 0.71591960943E+02 0.58253506092E+02
 0.46993213364E+02 0.37995757364E+02 0.31008890512E+02 0.25522262127E+02 0.21083170292E+02
 0.17428854984E+02 0.14371044369E+02 0.11787729867E+02 0.96099371547E+01 0.77957314574E+01
 0.63129153015E+01 0.51234271881E+01 0.41835881025E+01 0.34488145294E+01 0.28807653321E+01
 0.24491270484E+01 0.21311616240E+01 0.19114710532E+01 0.17814846326E+01 0.17384666676E+01
 0.17816776782E+01 0.19119000953E+01 0.21316765325E+01 0.24498373494E+01 0.28813115791E+01
 0.34493177956E+01 0.41833729072E+01 0.51225854312E+01 0.63103540903E+01 0.77916235485E+01
 0.96027725706E+01 0.11778066904E+02 0.14357001552E+02 0.17411808431E+02 0.21061296759E+02
 0.25497472841E+02 0.30981545884E+02 0.37965522455E+02 0.46965879441E+02 0.58226176698E+02
 0.71569024709E+02 0.86334426115E+02 0.10147752261E+03 0.11577169714E+03 0.12805738931E+03
 0.13741654754E+03 0.14324532461E+03 0.14522097886E+03 0.14324691952E+03 0.13742053516E+03
 0.12806394397E+03 0.11578176426E+03 0.10149078966E+03 0.60633497896E+02 0.50561781487E+02
 0.41864919722E+02 0.34699029456E+02 0.28901440134E+02 0.24151259358E+02 0.20187651787E+02
 0.16850626480E+02 0.14006771552E+02 0.11572328205E+02 0.94977497724E+01 0.77527869303E+01
 0.63129153386E+01 0.51466997625E+01 0.42164508517E+01 0.34817011384E+01 0.29069678672E+01
 0.24631854751E+01 0.21285429228E+01 0.18868823788E+01 0.17288355135E+01 0.16501927123E+01
 0.16504309007E+01 0.17292979718E+01 0.18877989008E+01 0.21296146160E+01 0.24646053636E+01
 0.29083230920E+01 0.34830993585E+01 0.42172624027E+01 0.51469358933E+01 0.63116452612E+01
 0.77499972860E+01 0.94922534567E+01 0.11564351201E+02 0.13995158155E+02 0.16835780051E+02
 0.20169776814E+02 0.24129164093E+02 0.28879893265E+02 0.34673131308E+02 0.41842176398E+02
 0.50540562959E+02 0.60614238308E+02 0.71569025114E+02 0.82634690698E+02 0.92898852084E+02
 0.10147040289E+03 0.10760998403E+03 0.11080834960E+03 0.11080955036E+03 0.10761346182E+03
 0.10147573816E+03 0.92906700433E+02 0.82645443080E+02 0.71584328485E+02 0.43299424055E+02
 0.36836287949E+02 0.31289618784E+02 0.26577637497E+02 0.22544668596E+02 0.19075511484E+02
 0.16082773798E+02 0.13481645613E+02 0.11223965417E+02 0.92781954298E+01 0.76258554873E+01
 0.62492964510E+01 0.51234272605E+01 0.42164508867E+01 0.34929157511E+01 0.29206377529E+01
 0.24725739991E+01 0.21280354873E+01 0.18712782620E+01 0.16922763225E+01 0.15857804416E+01
 0.15505482599E+01 0.15862828371E+01 0.16932787241E+01 0.18727405025E+01 0.21299348214E+01
 0.24747990330E+01 0.29230952111E+01 0.34953683012E+01 0.42186351536E+01 0.51249491590E+01
 0.62497331820E+01 0.76246981680E+01 0.92749802786E+01 0.11218085721E+02 0.13473349518E+02
 0.16070513001E+02 0.19062466276E+02 0.22526373084E+02 0.26560799513E+02 0.31271050640E+02
 0.36816348441E+02 0.43284045137E+02 0.50540563324E+02 0.58226177462E+02 0.65789532610E+02
 0.72582977744E+02 0.77970374108E+02 0.81429852432E+02 0.82622382706E+02 0.81431932506E+02
 0.77974784801E+02 0.72590218568E+02 0.65799977819E+02 0.58239006919E+02 0.50554658561E+02
 0.32156718027E+02 0.27932787508E+02 0.24153065289E+02 0.20785083695E+02 0.17801431651E+02
 0.15160052993E+02 0.12818529233E+02 0.10757435081E+02 0.89605346202E+01 0.74202386898E+01
 0.61247113328E+01 0.50545555961E+01 0.41835882049E+01 0.34817012021E+01 0.29206377808E+01
 0.24758720884E+01 0.21281341102E+01 0.18625979951E+01 0.16692047204E+01 0.15421263773E+01
 0.14790401538E+01 0.14793667602E+01 0.15431194652E+01 0.16708326206E+01 0.18648548795E+01
 0.21309483743E+01 0.24791895145E+01 0.29242830082E+01 0.34855547207E+01 0.41872923124E+01
 0.50578473110E+01 0.61270520963E+01 0.74212874619E+01 0.89598525265E+01 0.10754350933E+02
 0.12813824974E+02 0.15151581717E+02 0.17792451331E+02 0.20773299392E+02 0.24138682276E+02
 0.27921689320E+02 0.32142992287E+02 0.36816348755E+02 0.41842177064E+02 0.46965880484E+02
 0.51815225979E+02 0.55961084492E+02 0.58994512284E+02 0.60598135046E+02 0.60599284331E+02
 0.58998003591E+02 0.55966412751E+02 0.51821591053E+02 0.46973383223E+02 0.41852045415E+02
 0.36830201507E+02 0.24724281682E+02 0.21720089080E+02 0.18948205786E+02 0.16418864346E+02
 0.14120285838E+02 0.12044587668E+02 0.10191697888E+02 0.85578197112E+01 0.71445470698E+01
 0.59444483686E+01 0.49432179072E+01 0.41196207776E+01 0.34488146520E+01 0.29069679490E+01
 0.24725740443E+01 0.21281341276E+01 0.18597968955E+01 0.16580218978E+01 0.15168579099E+01
 0.14332344342E+01 0.14057555636E+01 0.14340506407E+01 0.15184962618E+01 0.16604432083E+01
 0.18630110395E+01 0.21320421373E+01 0.24771702486E+01 0.29120007820E+01 0.34542296183E+01
 0.41250225873E+01 0.49484644755E+01 0.59489771946E+01 0.71480435221E+01 0.85600538774E+01
 0.10191649834E+02 0.12043570352E+02 0.14116284416E+02 0.16413294162E+02 0.18942746328E+02
 0.21711145810E+02 0.24714859104E+02 0.27921689582E+02 0.31271051199E+02 0.34673132187E+02
 0.37965523667E+02 0.40916762261E+02 0.43268736207E+02 0.44788402861E+02 0.45314509143E+02
 0.44789658225E+02 0.43271364825E+02 0.40921351645E+02 0.37972626214E+02 0.34681938111E+02
 0.31278725420E+02 0.27927772696E+02 0.19350533173E+02 0.17095848905E+02 0.14975245503E+02
 0.13001253662E+02 0.11188770714E+02 0.95481921621E+01 0.80859865731E+01 0.68100284056E+01
 0.57159652978E+01 0.47941602098E+01 0.40275108427E+01 0.33961742818E+01 0.28807654621E+01
 0.24631855628E+01 0.21280355386E+01 0.18625980195E+01 0.16580219059E+01 0.15085862553E+01
 0.14109512082E+01 0.13629523731E+01 0.13634447062E+01 0.14124144552E+01 0.15110254109E+01
 0.16614093203E+01 0.18669198677E+01 0.21332083428E+01 0.24691963180E+01 0.28874235928E+01
 0.34033554936E+01 0.40348951877E+01 0.48015211903E+01 0.57229918870E+01 0.68161059739E+01
 0.80915214907E+01 0.95515293969E+01 0.11191424179E+02 0.13002126295E+02 0.14973484468E+02
 0.17094004947E+02 0.19348553960E+02 0.21711146027E+02 0.24138682737E+02 0.26560800234E+02
 0.28879894253E+02 0.30981547142E+02 0.32733078964E+02 0.33997889621E+02 0.34662721499E+02
 0.34663419622E+02 0.33999865721E+02 0.32735905437E+02 0.30984350753E+02 0.28882043657E+02
 0.26563751753E+02 0.24144474842E+02 0.21716219766E+02 0.15272255639E+02 0.13511599808E+02
 0.11839768859E+02 0.10280738627E+02 0.88504444458E+01 0.75634153034E+01 0.64301069833E+01
 0.54486952346E+01 0.46137446403E+01 0.39115385532E+01 0.33268483471E+01 0.28442536730E+01
 0.24491271731E+01 0.21285430055E+01 0.18712783106E+01 0.16692047452E+01 0.15168579209E+01
 0.14109512126E+01 0.13489502814E+01 0.13289306973E+01 0.13500892679E+01 0.14132186221E+01
 0.15202597439E+01 0.16737031145E+01 0.18768875125E+01 0.21351157670E+01 0.24566664077E+01
 0.28525659396E+01 0.33358785341E+01 0.39209684837E+01 0.46233159582E+01 0.54582742197E+01
 0.64387813708E+01 0.75719808033E+01 0.88573559800E+01 0.10286488016E+02 0.11845107317E+02
 0.13514635568E+02 0.15273235025E+02 0.17094005126E+02 0.18942746705E+02 0.20773299976E+02
 0.22526373877E+02 0.24129165091E+02 0.25497474036E+02 0.26548512568E+02 0.27211668892E+02
 0.27438488559E+02 0.27211650135E+02 0.26548661459E+02 0.25498269068E+02 0.24131234918E+02
 0.22529134824E+02 0.20774102397E+02 0.18941522685E+02 0.17092863199E+02 0.12065139107E+02
 0.10669959474E+02 0.93487000080E+01 0.81220241412E+01 0.70087453683E+01 0.60187962466E+01
 0.51530681170E+01 0.44092981910E+01 0.37766676116E+01 0.32442723844E+01 0.27999684405E+01
 0.24323833844E+01 0.21311617346E+01 0.18868824507E+01 0.16922763652E+01 0.15421264015E+01
 0.14332344491E+01 0.13629523839E+01 0.13289307046E+01 0.13295762554E+01 0.13648958493E+01
 0.14364645450E+01 0.15466389265E+01 0.16980210685E+01 0.18938930463E+01 0.21393232614E+01
 0.24416403726E+01 0.28101393074E+01 0.32552494977E+01 0.37882881297E+01 0.44211098473E+01
 0.51653620717E+01 0.60302648215E+01 0.70202113759E+01 0.81325904525E+01 0.93574770590E+01
 0.10678144226E+02 0.12072682375E+02 0.13514635713E+02 0.14973484774E+02 0.16413294635E+02
 0.17792451964E+02 0.19062467061E+02 0.20169777740E+02 0.21061297815E+02 0.21687976554E+02
 0.22011714699E+02 0.22011749681E+02 0.21688029057E+02 0.21061009459E+02 0.20168390828E+02
 0.19059741726E+02 0.17789424377E+02 0.16410587437E+02 0.14970301963E+02 0.13509454468E+02
 0.95209197857E+01 0.84189798695E+01 0.73862721487E+01 0.64406945733E+01 0.55908256612E+01
 0.48404701615E+01 0.41890573958E+01 0.36287511592E+01 0.31526640004E+01 0.27512178203E+01
 0.24158714843E+01 0.21384582581E+01 0.19114711473E+01 0.17288355759E+01 0.15857804826E+01
 0.14790401835E+01 0.14057555891E+01 0.13634447303E+01 0.13500892889E+01 0.13648958625E+01
 0.14086573624E+01 0.14833767604E+01 0.15915684079E+01 0.17359564907E+01 0.19199466693E+01
 0.21481822695E+01 0.24268360319E+01 0.27632333602E+01 0.31655631519E+01 0.36424867208E+01
 0.42029224006E+01 0.48550415323E+01 0.56049170193E+01 0.64544723998E+01 0.74000272659E+01
 0.84312150468E+01 0.95313566800E+01 0.10678144340E+02 0.11845107561E+02 0.13002126673E+02
 0.14116284920E+02 0.15151582333E+02 0.16070513716E+02 0.16835780854E+02 0.17411809312E+02
 0.17769771930E+02 0.17890881196E+02 0.17768632792E+02 0.17409750374E+02 0.16833267461E+02
 0.16067877542E+02 0.15148053457E+02 0.14111293916E+02 0.12995084860E+02 0.11836123016E+02
 0.10668364278E+02 0.75168408464E+01 0.66647477554E+01 0.58759455632E+01 0.51594178973E+01
 0.45210551789E+01 0.39606855464E+01 0.34737705129E+01 0.30565637420E+01 0.27015231136E+01
 0.24026039502E+01 0.21532627259E+01 0.19477998516E+01 0.17814847160E+01 0.16501927741E+01
 0.15505483102E+01 0.14793668068E+01 0.14340506875E+01 0.14124145016E+01 0.14132186641E+01
 0.14364645768E+01 0.14833767771E+01 0.15561153680E+01 0.16573611836E+01 0.17901658498E+01
 0.19579430089E+01 0.21647446290E+01 0.24153619665E+01 0.27154782132E+01 0.30713896952E+01
 0.34897308958E+01 0.39767626221E+01 0.45377906664E+01 0.51760681205E+01 0.58917418234E+01
 0.66803467589E+01 0.75320354968E+01 0.84312151318E+01 0.93574772464E+01 0.10286488311E+02
 0.11191424574E+02 0.12043570834E+02 0.12813825527E+02 0.13473350130E+02 0.13995158817E+02
 0.14357002261E+02 0.14542211663E+02 0.14541688351E+02 0.14355319184E+02 0.13992004847E+02
 0.13468474998E+02 0.12807369181E+02 0.12035704489E+02 0.11182198803E+02 0.10276345948E+02
 0.93461341934E+01 0.84178959855E+01 0.59744236258E+01 0.53285838437E+01 0.47367910870E+01
 0.42047113508E+01 0.37323569670E+01 0.33185131500E+01 0.29612767896E+01 0.26551086174E+01
 0.23962047623E+01 0.21790832125E+01 0.19994998587E+01 0.18537556925E+01 0.17384667537E+01
 0.16504309771E+01 0.15862829117E+01 0.15431195422E+01 0.15184963408E+01 0.15110254875E+01
 0.15202598117E+01 0.15466389790E+01 0.15915684411E+01 0.16573611979E+01 0.17470566281E+01
 0.18639303600E+01 0.20112509600E+01 0.21922649052E+01 0.24106827052E+01 0.26708625943E+01
 0.29777528749E+01 0.33361761567E+01 0.37503092391E+01 0.42230403586E+01 0.47556090979E+01
 0.53466472736E+01 0.59913218373E+01 0.66803468169E+01 0.74000273997E+01 0.81325906700E+01
 0.88573562783E+01 0.95515297655E+01 0.10191650259E+02 0.10754351400E+02 0.11218086224E+02
 0.11564351734E+02 0.11778067470E+02 0.11849715852E+02 0.11776160487E+02 0.11560788437E+02
 0.11213094204E+02 0.10747752490E+02 0.10183587493E+02 0.95418013848E+01 0.88457582028E+01
 0.81188525509E+01 0.73844283356E+01 0.66639387214E+01 0.48111904760E+01 0.43336148020E+01
 0.38995483519E+01 0.35106708330E+01 0.31683470472E+01 0.28712529628E+01 0.26159048157E+01
 0.24000657127E+01 0.22189652194E+01 0.20695572956E+01 0.19487006763E+01 0.18536890073E+01
 0.17816777846E+01 0.17292980800E+01 0.16932788379E+01 0.16708327393E+01 0.16604433268E+01
 0.16614094307E+01 0.16737032082E+01 0.16980211391E+01 0.17359565359E+01 0.17901658721E+01
 0.18639303664E+01 0.19605819391E+01 0.20830109781E+01 0.22339320614E+01 0.24162801319E+01
 0.26335870730E+01 0.28895811879E+01 0.31877009520E+01 0.35304285744E+01 0.39191057402E+01
 0.43534348936E+01 0.48310472174E+01 0.53466473079E+01 0.58917419087E+01 0.64544725466E+01
 0.70202115862E+01 0.75719810718E+01 0.80915218075E+01 0.85600542320E+01 0.89598529109E+01
 0.92749806891E+01 0.94922538937E+01 0.96027730371E+01 0.96017901587E+01 0.94892192643E+01
 0.92697955064E+01 0.89527041395E+01 0.85509239978E+01 0.80802273177E+01 0.75588991398E+01
 0.70054414194E+01 0.64385205402E+01 0.58746772880E+01 0.53280597026E+01 0.39570053001E+01
 0.36118439508E+01 0.33018699374E+01 0.30289278879E+01 0.27916501708E+01 0.25884782115E+01
 0.24178938694E+01 0.22760282068E+01 0.21609230125E+01 0.20695209537E+01 0.19994647335E+01
 0.19480110864E+01 0.19119002398E+01 0.18877990553E+01 0.18727406659E+01 0.18648550456E+01
 0.18630111986E+01 0.18669200091E+01 0.18768876269E+01 0.18938931284E+01 0.19199467189E+01
 0.19579430312E+01 0.20112509645E+01 0.20830109755E+01 0.21759710933E+01 0.22925885167E+01
 0.24354980217E+01 0.26074922996E+01 0.28113796355E+01 0.30494351674E+01 0.33231717745E+01
 0.36328795978E+01 0.39773796108E+01 0.43534349090E+01 0.47556091424E+01 0.51760682055E+01
 0.56049171509E+01 0.60302650003E+01 0.64387815928E+01 0.68161062332E+01 0.71480438134E+01
 0.74212877823E+01 0.76246985171E+01 0.77499976652E+01 0.77916239597E+01 0.77477410204E+01
 0.76202513240E+01 0.74145511024E+01 0.71391621381E+01 0.68052291934E+01 0.64261037966E+01
 0.60156486391E+01 0.55885201262E+01 0.51578386931E+01 0.47358758166E+01 0.43332010897E+01
 0.33476741018E+01 0.31116660502E+01 0.29044704192E+01 0.27257107396E+01 0.25753805742E+01
 0.24519226259E+01 0.23525499755E+01 0.22759127951E+01 0.22187533260E+01 0.21788357995E+01
 0.21531406955E+01 0.21384973141E+01 0.21316767286E+01 0.21296148253E+01 0.21299350371E+01
 0.21309485857E+01 0.21320423314E+01 0.21332085075E+01 0.21351158936E+01 0.21393233466E+01
 0.21481823159E+01 0.21647446447E+01 0.21922649016E+01 0.22339320505E+01 0.22925885084E+01
 0.23708725366E+01 0.24711846188E+01 0.25958259743E+01 0.27467890855E+01 0.29257138219E+01
 0.31334548111E+01 0.33697968843E+01 0.36328796001E+01 0.39191057543E+01 0.42230403944E+01
 0.45377907322E+01 0.48550416334E+01 0.51653622101E+01 0.54582743953E+01 0.57229920991E+01
 0.59489774425E+01 0.61270523800E+01 0.62497335016E+01 0.63116456161E+01 0.63103544783E+01
 0.62459071166E+01 0.61209335280E+01 0.59405808717E+01 0.57122931681E+01 0.54454269755E+01
 0.51503030123E+01 0.48382800643E+01 0.45194360263E+01 0.42036538474E+01 0.38989233988E+01
 0.36115990526E+01 0.29430717423E+01 0.27975347938E+01 0.26763783623E+01 0.25796729720E+01
 0.25053807534E+01 0.24517904107E+01 0.24176233684E+01 0.23996693176E+01 0.23957695690E+01
 0.24022464451E+01 0.24156896249E+01 0.24326299040E+01 0.24498376028E+01 0.24646056274E+01
 0.24747992959E+01 0.24791897623E+01 0.24771704669E+01 0.24691964952E+01 0.24566665371E+01
 0.24416404539E+01 0.24268360706E+01 0.24153619731E+01 0.24106826924E+01 0.24162801121E+01
 0.24354980046E+01 0.24711846098E+01 0.25257307315E+01 0.26010174813E+01 0.26986555047E+01
 0.28197971475E+01 0.29649626916E+01 0.31334548068E+01 0.33231717701E+01 0.35304285767E+01
 0.37503092560E+01 0.39767626613E+01 0.42029224687E+01 0.44211099498E+01 0.46233160994E+01
 0.48015213734E+01 0.49484647025E+01 0.50578475821E+01 0.51249494720E+01 0.51469362431E+01
 0.51225858106E+01 0.50529261497E+01 0.49410313229E+01 0.47917445309E+01 0.46113275973E+01
 0.44070612892E+01 0.41871492236E+01 0.39591566029E+01 0.37312271876E+01 0.35098825887E+01
 0.33014281637E+01 0.31114610567E+01 0.27109433531E+01 0.26464945037E+01 0.26031852777E+01
 0.25796088424E+01 0.25751450518E+01 0.25880788466E+01 0.26153431671E+01 0.26544390416E+01
 0.27008011687E+01 0.27505513763E+01 0.27995382389E+01 0.28441544056E+01 0.28813118862E+01
 0.29083234013E+01 0.29230955085E+01 0.29242832784E+01 0.29120010117E+01 0.28874237725E+01
 0.28525660658E+01 0.28101393827E+01 0.27632333925E+01 0.27154782141E+01 0.26708625767E+01
 0.26335870487E+01 0.26074922776E+01 0.25958259597E+01 0.26010174751E+01 0.26249459081E+01
 0.26689456626E+01 0.27338883472E+01 0.28197971422E+01 0.29257138108E+01 0.30494351531E+01
 0.31877009397E+01 0.33361761538E+01 0.34897309112E+01 0.36424867636E+01 0.37882882089E+01
 0.39209686067E+01 0.40348953598E+01 0.41250228104E+01 0.41872925845E+01 0.42186354682E+01
 0.42172627501E+01 0.41833732754E+01 0.41186513284E+01 0.40261394183E+01 0.39099354255E+01
 0.37750375193E+01 0.36272366482E+01 0.34724473321E+01 0.33174556399E+01 0.31675720848E+01
 0.30284552924E+01 0.29042014997E+01 0.27974568520E+01 0.26366432672E+01 0.26464356937E+01
 0.26762436050E+01 0.27253921823E+01 0.27911650281E+01 0.28705514892E+01 0.29603801808E+01
 0.30555158473E+01 0.31515901312E+01 0.32433184349E+01 0.33261645174E+01 0.33960291403E+01
 0.34493181441E+01 0.34830996978E+01 0.34953686168E+01 0.34855549991E+01 0.34542298488E+01
 0.34033556704E+01 0.33358786569E+01 0.32552495713E+01 0.31655631851E+01 0.30713896991E+01
 0.29777528609E+01 0.28895811667E+01 0.28113796151E+01 0.27467890707E+01 0.26986554970E+01
 0.26689456605E+01 0.26589155391E+01 0.26689456601E+01 0.26986554963E+01 0.27467890695E+01
 0.28113796135E+01 0.28895811647E+01 0.29777528586E+01 0.30713896963E+01 0.31655631819E+01
 0.32552495678E+01 0.33358786529E+01 0.34033556661E+01 0.34542298443E+01 0.34855549944E+01
 0.34953686119E+01 0.34830996928E+01 0.34493181390E+01 0.33960291351E+01 0.33261645122E+01
 0.32433184298E+01 0.31515901263E+01 0.30555158427E+01 0.29603801766E+01 0.28705514856E+01
 0.27911650251E+01 0.27253921800E+01 0.26762436035E+01 0.26464356929E+01 0.27109433537E+01
 0.27974568533E+01 0.29042015018E+01 0.30284552952E+01 0.31675720883E+01 0.33174556441E+01