   1   1   0   0
  0.5789729E+02  0.4342346E-09  0.4342346E-09  0.4342346E-09  0.1000000E-15
  1.000000000000000E-004
  CAR 
 Og_FCC                                  
     60.00130919    -32.63050538  301      1.99063532      1.00000000
    -32.631  0.0000E+00  0.0000E+00
    -32.322  0.0000E+00  0.0000E+00
    -32.013  0.0000E+00  0.0000E+00
    -31.704  0.0000E+00  0.0000E+00
    -31.395  0.0000E+00  0.0000E+00
    -31.087  0.0000E+00  0.0000E+00
    -30.778  0.0000E+00  0.0000E+00
    -30.469  0.0000E+00  0.0000E+00
    -30.160  0.0000E+00  0.0000E+00
    -29.852  0.0000E+00  0.0000E+00
    -29.543  0.0000E+00  0.0000E+00
    -29.234  0.0000E+00  0.0000E+00
    -28.925  0.0000E+00  0.0000E+00
    -28.616  0.2123E-07  0.6556E-08
    -28.308  0.3215E+02  0.9926E+01
    -27.999  0.1983E+00  0.1000E+02
    -27.690  0.0000E+00  0.1000E+02
    -27.381  0.0000E+00  0.1000E+02
    -27.073  0.0000E+00  0.1000E+02
    -26.764  0.0000E+00  0.1000E+02
    -26.455  0.0000E+00  0.1000E+02
    -26.146  0.0000E+00  0.1000E+02
    -25.838  0.0000E+00  0.1000E+02
    -25.529  0.0000E+00  0.1000E+02
    -25.220  0.0000E+00  0.1000E+02
    -24.911  0.0000E+00  0.1000E+02
    -24.602  0.0000E+00  0.1000E+02
    -24.294  0.0000E+00  0.1000E+02
    -23.985  0.0000E+00  0.1000E+02
    -23.676  0.0000E+00  0.1000E+02
    -23.367  0.0000E+00  0.1000E+02
    -23.059  0.0000E+00  0.1000E+02
    -22.750  0.0000E+00  0.1000E+02
    -22.441  0.0000E+00  0.1000E+02
    -22.132  0.0000E+00  0.1000E+02
    -21.823  0.0000E+00  0.1000E+02
    -21.515  0.1589E-15  0.1000E+02
    -21.206  0.4093E+00  0.1013E+02
    -20.897  0.6068E+01  0.1200E+02
    -20.588  0.0000E+00  0.1200E+02
    -20.280  0.0000E+00  0.1200E+02
    -19.971  0.0000E+00  0.1200E+02
    -19.662  0.0000E+00  0.1200E+02
    -19.353  0.0000E+00  0.1200E+02
    -19.045  0.0000E+00  0.1200E+02
    -18.736  0.0000E+00  0.1200E+02
    -18.427  0.0000E+00  0.1200E+02
    -18.118  0.0000E+00  0.1200E+02
    -17.809  0.0000E+00  0.1200E+02
    -17.501  0.0000E+00  0.1200E+02
    -17.192  0.0000E+00  0.1200E+02
    -16.883  0.0000E+00  0.1200E+02
    -16.574  0.0000E+00  0.1200E+02
    -16.266  0.0000E+00  0.1200E+02
    -15.957  0.0000E+00  0.1200E+02
    -15.648  0.0000E+00  0.1200E+02
    -15.339  0.0000E+00  0.1200E+02
    -15.030  0.0000E+00  0.1200E+02
    -14.722  0.0000E+00  0.1200E+02
    -14.413  0.0000E+00  0.1200E+02
    -14.104  0.0000E+00  0.1200E+02
    -13.795  0.0000E+00  0.1200E+02
    -13.487  0.0000E+00  0.1200E+02
    -13.178  0.0000E+00  0.1200E+02
    -12.869  0.0000E+00  0.1200E+02
    -12.560  0.0000E+00  0.1200E+02
    -12.252  0.0000E+00  0.1200E+02
    -11.943  0.0000E+00  0.1200E+02
    -11.634  0.0000E+00  0.1200E+02
    -11.325  0.0000E+00  0.1200E+02
    -11.016  0.0000E+00  0.1200E+02
    -10.708  0.0000E+00  0.1200E+02
    -10.399  0.0000E+00  0.1200E+02
    -10.090  0.0000E+00  0.1200E+02
     -9.781  0.0000E+00  0.1200E+02
     -9.473  0.0000E+00  0.1200E+02
     -9.164  0.0000E+00  0.1200E+02
     -8.855  0.0000E+00  0.1200E+02
     -8.546  0.0000E+00  0.1200E+02
     -8.237  0.0000E+00  0.1200E+02
     -7.929  0.0000E+00  0.1200E+02
     -7.620  0.0000E+00  0.1200E+02
     -7.311  0.0000E+00  0.1200E+02
     -7.002  0.0000E+00  0.1200E+02
     -6.694  0.0000E+00  0.1200E+02
     -6.385  0.0000E+00  0.1200E+02
     -6.076  0.0000E+00  0.1200E+02
     -5.767  0.0000E+00  0.1200E+02
     -5.459  0.0000E+00  0.1200E+02
     -5.150  0.0000E+00  0.1200E+02
     -4.841  0.0000E+00  0.1200E+02
     -4.532  0.0000E+00  0.1200E+02
     -4.223  0.0000E+00  0.1200E+02
     -3.915  0.0000E+00  0.1200E+02
     -3.606  0.0000E+00  0.1200E+02
     -3.297  0.0000E+00  0.1200E+02
     -2.988  0.0000E+00  0.1200E+02
     -2.680  0.0000E+00  0.1200E+02
     -2.371  0.0000E+00  0.1200E+02
     -2.062  0.0000E+00  0.1200E+02
     -1.753  0.2336E-05  0.1200E+02
     -1.444  0.9874E-01  0.1203E+02
     -1.136  0.2102E+01  0.1268E+02
     -0.827  0.2427E+01  0.1343E+02
     -0.518  0.1448E+01  0.1388E+02
     -0.209  0.1094E+01  0.1421E+02
      0.099  0.1187E+01  0.1458E+02
      0.408  0.2086E+01  0.1522E+02
      0.717  0.2729E+01  0.1607E+02
      1.026  0.3527E+01  0.1716E+02
      1.334  0.1794E+01  0.1771E+02
      1.643  0.9365E+00  0.1800E+02
      1.952  0.2658E-02  0.1800E+02
      2.261  0.0000E+00  0.1800E+02
      2.570  0.0000E+00  0.1800E+02
      2.878  0.0000E+00  0.1800E+02
      3.187  0.0000E+00  0.1800E+02
      3.496  0.0000E+00  0.1800E+02
      3.805  0.2272E-02  0.1800E+02
      4.113  0.2786E-01  0.1801E+02
      4.422  0.0000E+00  0.1801E+02
      4.731  0.0000E+00  0.1801E+02
      5.040  0.4030E-12  0.1801E+02
      5.349  0.2317E+00  0.1808E+02
      5.657  0.9266E-02  0.1808E+02
      5.966  0.1807E+00  0.1814E+02
      6.275  0.6684E-01  0.1816E+02
      6.584  0.3689E+00  0.1827E+02
      6.892  0.3495E+00  0.1838E+02
      7.201  0.1625E+01  0.1888E+02
      7.510  0.1416E+01  0.1932E+02
      7.819  0.7532E+00  0.1955E+02
      8.127  0.7459E+00  0.1978E+02
      8.436  0.2480E+00  0.1986E+02
      8.745  0.9523E+00  0.2015E+02
      9.054  0.1217E+01  0.2053E+02
      9.363  0.1480E+01  0.2099E+02
      9.671  0.2677E+01  0.2181E+02
      9.980  0.1083E+01  0.2215E+02
     10.289  0.6019E+00  0.2233E+02
     10.598  0.3857E+00  0.2245E+02
     10.906  0.3410E+00  0.2256E+02
     11.215  0.1946E+01  0.2316E+02
     11.524  0.3892E+01  0.2436E+02
     11.833  0.2757E+01  0.2521E+02
     12.142  0.1234E+01  0.2560E+02
     12.450  0.5004E+00  0.2575E+02
     12.759  0.5728E+00  0.2593E+02
     13.068  0.1055E+01  0.2625E+02
     13.377  0.3146E+01  0.2722E+02
     13.685  0.2003E+01  0.2784E+02
     13.994  0.2520E+01  0.2862E+02
     14.303  0.5714E+00  0.2880E+02
     14.612  0.3290E+01  0.2981E+02
     14.920  0.1267E+01  0.3021E+02
     15.229  0.2065E+01  0.3084E+02
     15.538  0.1570E+01  0.3133E+02
     15.847  0.5768E+00  0.3151E+02
     16.156  0.2055E+01  0.3214E+02
     16.464  0.1115E+01  0.3249E+02
     16.773  0.2314E+01  0.3320E+02
     17.082  0.2467E+01  0.3396E+02
     17.391  0.2769E+01  0.3482E+02
     17.699  0.6583E+00  0.3502E+02
     18.008  0.2683E+01  0.3585E+02
     18.317  0.2448E+01  0.3660E+02
     18.626  0.4358E+01  0.3795E+02
     18.935  0.5584E+01  0.3967E+02
     19.243  0.3687E+01  0.4081E+02
     19.552  0.2877E+01  0.4170E+02
     19.861  0.3404E+01  0.4275E+02
     20.170  0.2141E+01  0.4341E+02
     20.478  0.1540E+01  0.4389E+02
     20.787  0.2809E+01  0.4476E+02
     21.096  0.1574E+01  0.4524E+02
     21.405  0.1461E+01  0.4569E+02
     21.713  0.1352E+01  0.4611E+02
     22.022  0.2403E+00  0.4619E+02
     22.331  0.8884E-01  0.4621E+02
     22.640  0.7246E+00  0.4644E+02
     22.949  0.1131E+01  0.4679E+02
     23.257  0.1930E+01  0.4738E+02
     23.566  0.3544E+01  0.4848E+02
     23.875  0.9941E+00  0.4878E+02
     24.184  0.5844E+00  0.4896E+02
     24.492  0.9955E+00  0.4927E+02
     24.801  0.3622E+01  0.5039E+02
     25.110  0.3223E+01  0.5139E+02
     25.419  0.2435E+01  0.5214E+02
     25.728  0.3515E+01  0.5322E+02
     26.036  0.5285E+01  0.5486E+02
     26.345  0.3510E+01  0.5594E+02
     26.654  0.1541E+01  0.5642E+02
     26.963  0.1739E+01  0.5695E+02
     27.271  0.1458E+01  0.5740E+02
     27.580  0.8984E+00  0.5768E+02
     27.889  0.1691E+01  0.5820E+02
     28.198  0.2821E+01  0.5907E+02
     28.506  0.2243E+01  0.5977E+02
     28.815  0.1426E+01  0.6021E+02
     29.124  0.4256E+00  0.6034E+02
     29.433  0.3039E+01  0.6128E+02
     29.742  0.1840E+01  0.6185E+02
     30.050  0.5310E+00  0.6201E+02
     30.359  0.1807E+01  0.6257E+02
     30.668  0.1562E+01  0.6305E+02
     30.977  0.4388E+01  0.6441E+02
     31.285  0.6528E+00  0.6461E+02
     31.594  0.9146E+00  0.6489E+02
     31.903  0.3510E+01  0.6597E+02
     32.212  0.2281E+01  0.6668E+02
     32.521  0.8827E+00  0.6695E+02
     32.829  0.4286E+01  0.6827E+02
     33.138  0.3371E+01  0.6931E+02
     33.447  0.4579E+01  0.7073E+02
     33.756  0.2030E+01  0.7136E+02
     34.064  0.2762E+01  0.7221E+02
     34.373  0.1745E+01  0.7275E+02
     34.682  0.1462E+01  0.7320E+02
     34.991  0.2490E+01  0.7397E+02
     35.299  0.1729E+01  0.7450E+02
     35.608  0.2136E+01  0.7516E+02
     35.917  0.1258E+01  0.7555E+02
     36.226  0.4408E+01  0.7691E+02
     36.535  0.3178E+01  0.7789E+02
     36.843  0.1449E+01  0.7834E+02
     37.152  0.4211E+01  0.7964E+02
     37.461  0.2260E+01  0.8034E+02
     37.770  0.2103E+01  0.8099E+02
     38.078  0.3766E+01  0.8215E+02
     38.387  0.2321E+01  0.8287E+02
     38.696  0.2135E+01  0.8353E+02
     39.005  0.1523E+01  0.8400E+02
     39.314  0.1245E+01  0.8438E+02
     39.622  0.1064E+01  0.8471E+02
     39.931  0.1288E+01  0.8511E+02
     40.240  0.2910E+01  0.8601E+02
     40.549  0.3248E+01  0.8701E+02
     40.857  0.4867E+01  0.8851E+02
     41.166  0.2636E+01  0.8933E+02
     41.475  0.9122E+00  0.8961E+02
     41.784  0.1567E+01  0.9009E+02
     42.092  0.3422E+01  0.9115E+02
     42.401  0.1325E+01  0.9156E+02
     42.710  0.5456E+01  0.9324E+02
     43.019  0.3433E+01  0.9430E+02
     43.328  0.1738E+01  0.9484E+02
     43.636  0.2885E+01  0.9573E+02
     43.945  0.2665E+01  0.9655E+02
     44.254  0.3868E+01  0.9775E+02
     44.563  0.1010E+01  0.9806E+02
     44.871  0.1245E+01  0.9845E+02
     45.180  0.3121E+01  0.9941E+02
     45.489  0.2042E+01  0.1000E+03
     45.798  0.1396E+01  0.1005E+03
     46.107  0.3425E+01  0.1015E+03
     46.415  0.2327E+01  0.1022E+03
     46.724  0.3203E+01  0.1032E+03
     47.033  0.3836E+01  0.1044E+03
     47.342  0.2950E+01  0.1053E+03
     47.650  0.1519E+01  0.1058E+03
     47.959  0.3995E+01  0.1070E+03
     48.268  0.3214E+01  0.1080E+03
     48.577  0.2783E+01  0.1089E+03
     48.885  0.2602E+01  0.1097E+03
     49.194  0.3501E+01  0.1108E+03
     49.503  0.1464E+01  0.1112E+03
     49.812  0.3781E+01  0.1124E+03
     50.121  0.3463E+01  0.1135E+03
     50.429  0.1165E+01  0.1138E+03
     50.738  0.2375E+01  0.1146E+03
     51.047  0.2610E+01  0.1154E+03
     51.356  0.4914E+01  0.1169E+03
     51.664  0.1227E+01  0.1173E+03
     51.973  0.3557E+01  0.1184E+03
     52.282  0.2721E+01  0.1192E+03
     52.591  0.2543E+01  0.1200E+03
     52.900  0.3620E+01  0.1211E+03
     53.208  0.2414E+01  0.1218E+03
     53.517  0.2523E+01  0.1226E+03
     53.826  0.4267E+01  0.1239E+03
     54.135  0.2969E+01  0.1249E+03
     54.443  0.3046E+01  0.1258E+03
     54.752  0.2169E+01  0.1265E+03
     55.061  0.5274E+00  0.1266E+03
     55.370  0.1554E+01  0.1271E+03
     55.678  0.1558E+01  0.1276E+03
     55.987  0.1316E+01  0.1280E+03
     56.296  0.0000E+00  0.1280E+03
     56.605  0.0000E+00  0.1280E+03
     56.914  0.0000E+00  0.1280E+03
     57.222  0.0000E+00  0.1280E+03
     57.531  0.0000E+00  0.1280E+03
     57.840  0.0000E+00  0.1280E+03
     58.149  0.0000E+00  0.1280E+03
     58.457  0.0000E+00  0.1280E+03
     58.766  0.0000E+00  0.1280E+03
     59.075  0.0000E+00  0.1280E+03
     59.384  0.0000E+00  0.1280E+03
     59.693  0.0000E+00  0.1280E+03
     60.001  0.0000E+00  0.1280E+03
