    1    1    1    1
  0.5789729E+02  0.4342346E-09  0.4342346E-09  0.4342346E-09  0.1000000E-15
  1.000000000000000E-004
  CAR 
 Og_FCC                                  
     18    152     64
 
  0.5000000E+00  0.5000000E+00  0.5000000E+00  0.0000000E+00
    1      -28.413186   1.000000
    2      -28.413186   1.000000
    3      -28.410334   1.000000
    4      -28.399496   1.000000
    5      -28.399496   1.000000
    6      -21.125946   1.000000
    7       -1.610989   1.000000
    8        1.161183   1.000000
    9        1.161186   1.000000
   10        6.363616   0.000000
   11       10.635360   0.000000
   12       10.635362   0.000000
   13       10.983426   0.000000
   14       13.638363   0.000000
   15       15.003131   0.000000
   16       15.003133   0.000000
   17       16.318597   0.000000
   18       17.103513   0.000000
   19       17.103514   0.000000
   20       19.367957   0.000000
   21       19.369314   0.000000
   22       19.369316   0.000000
   23       21.079327   0.000000
   24       24.478680   0.000000
   25       24.580371   0.000000
   26       26.122137   0.000000
   27       26.122139   0.000000
   28       27.402454   0.000000
   29       27.402457   0.000000
   30       27.859874   0.000000
   31       29.324662   0.000000
   32       31.170903   0.000000
   33       31.170904   0.000000
   34       31.826758   0.000000
   35       32.927916   0.000000
   36       32.927917   0.000000
   37       33.359367   0.000000
   38       34.236183   0.000000
   39       34.931399   0.000000
   40       34.931402   0.000000
   41       37.647716   0.000000
   42       37.647720   0.000000
   43       40.857625   0.000000
   44       40.857629   0.000000
   45       41.094300   0.000000
   46       41.094305   0.000000
   47       41.600207   0.000000
   48       43.297747   0.000000
   49       45.419497   0.000000
   50       45.419499   0.000000
   51       47.643242   0.000000
   52       47.643247   0.000000
   53       47.794819   0.000000
   54       47.969336   0.000000
   55       49.138410   0.000000
   56       51.744297   0.000000
   57       51.744346   0.000000
   58       52.104358   0.000000
   59       52.493168   0.000000
   60       52.494997   0.000000
   61       52.759910   0.000000
   62       53.277375   0.000000
   63       54.711057   0.000000
   64       54.812678   0.000000
 
  0.4750000E+00  0.4750000E+00  0.4750000E+00  0.0000000E+00
    1      -28.413093   1.000000
    2      -28.413092   1.000000
    3      -28.410147   1.000000
    4      -28.399395   1.000000
    5      -28.399395   1.000000
    6      -21.126681   1.000000
    7       -1.599440   1.000000
    8        1.163549   1.000000
    9        1.163552   1.000000
   10        6.363626   0.000000
   11       10.642305   0.000000
   12       10.642307   0.000000
   13       10.991458   0.000000
   14       13.525193   0.000000
   15       14.946416   0.000000
   16       14.946417   0.000000
   17       16.452196   0.000000
   18       17.165499   0.000000
   19       17.165499   0.000000
   20       19.305761   0.000000
   21       19.343895   0.000000
   22       19.343897   0.000000
   23       21.077514   0.000000
   24       24.203562   0.000000
   25       24.824376   0.000000
   26       26.105998   0.000000
   27       26.106000   0.000000
   28       27.422209   0.000000
   29       27.422212   0.000000
   30       27.851004   0.000000
   31       29.384165   0.000000
   32       31.196496   0.000000
   33       31.196497   0.000000
   34       31.905909   0.000000
   35       32.919230   0.000000
   36       32.919232   0.000000
   37       33.354612   0.000000
   38       34.250996   0.000000
   39       34.963769   0.000000
   40       34.963772   0.000000
   41       37.642384   0.000000
   42       37.642389   0.000000
   43       40.809782   0.000000
   44       40.809786   0.000000
   45       41.162294   0.000000
   46       41.162299   0.000000
   47       41.597723   0.000000
   48       43.318015   0.000000
   49       45.375762   0.000000
   50       45.375764   0.000000
   51       47.653351   0.000000
   52       47.653356   0.000000
   53       47.758794   0.000000
   54       47.847321   0.000000
   55       49.242655   0.000000
   56       51.300326   0.000000
   57       51.365170   0.000000
   58       51.365478   0.000000
   59       52.826442   0.000000
   60       52.826927   0.000000
   61       53.297231   0.000000
   62       53.562780   0.000000
   63       54.604222   0.000000
   64       54.702594   0.000000
 
  0.4500000E+00  0.4500000E+00  0.4500000E+00  0.0000000E+00
    1      -28.409028   1.000000
    2      -28.391164   1.000000
    3      -28.391164   1.000000
    4      -28.385267   1.000000
    5      -28.385267   1.000000
    6      -21.128497   1.000000
    7       -1.564845   1.000000
    8        1.170729   1.000000
    9        1.170731   1.000000
   10        6.363477   0.000000
   11       10.663090   0.000000
   12       10.663092   0.000000
   13       11.015591   0.000000
   14       13.238929   0.000000
   15       14.796549   0.000000
   16       14.796550   0.000000
   17       16.801663   0.000000
   18       17.334226   0.000000
   19       17.334226   0.000000
   20       19.137415   0.000000
   21       19.277245   0.000000
   22       19.277247   0.000000
   23       21.081609   0.000000
   24       23.854559   0.000000
   25       25.087534   0.000000
   26       26.062554   0.000000
   27       26.062556   0.000000
   28       27.493544   0.000000
   29       27.493546   0.000000
   30       27.836747   0.000000
   31       29.568860   0.000000
   32       31.283638   0.000000
   33       31.283639   0.000000
   34       32.130931   0.000000
   35       32.894420   0.000000
   36       32.894421   0.000000
   37       33.352641   0.000000
   38       34.298538   0.000000
   39       35.060710   0.000000
   40       35.060713   0.000000
   41       37.628853   0.000000
   42       37.628858   0.000000
   43       40.743112   0.000000
   44       40.743116   0.000000
   45       41.309273   0.000000
   46       41.309277   0.000000
   47       41.605686   0.000000
   48       43.378086   0.000000
   49       45.256374   0.000000
   50       45.256376   0.000000
   51       47.569111   0.000000
   52       47.670359   0.000000
   53       47.682034   0.000000
   54       47.682038   0.000000
   55       49.445285   0.000000
   56       50.322716   0.000000
   57       50.759716   0.000000
   58       50.760015   0.000000
   59       53.231172   0.000000
   60       53.319526   0.000000
   61       53.497034   0.000000
   62       54.624051   0.000000
   63       54.638965   0.000000
   64       54.666785   0.000000
 
  0.4250000E+00  0.4250000E+00  0.4250000E+00  0.0000000E+00
    1      -28.408177   1.000000
    2      -28.392123   1.000000
    3      -28.392123   1.000000
    4      -28.385645   1.000000
    5      -28.385645   1.000000
    6      -21.132018   1.000000
    7       -1.507419   1.000000
    8        1.182319   1.000000
    9        1.182322   1.000000
   10        6.361532   0.000000
   11       10.697433   0.000000
   12       10.697435   0.000000
   13       11.053176   0.000000
   14       12.866737   0.000000
   15       14.583252   0.000000
   16       14.583253   0.000000
   17       17.277271   0.000000
   18       17.572589   0.000000
   19       17.572589   0.000000
   20       18.858498   0.000000
   21       19.154298   0.000000
   22       19.154300   0.000000
   23       21.072190   0.000000
   24       23.465809   0.000000
   25       25.313427   0.000000
   26       26.001051   0.000000
   27       26.001052   0.000000
   28       27.577312   0.000000
   29       27.577314   0.000000
   30       27.822585   0.000000
   31       29.853300   0.000000
   32       31.400708   0.000000
   33       31.400708   0.000000
   34       32.440044   0.000000
   35       32.854448   0.000000
   36       32.854449   0.000000
   37       33.376667   0.000000
   38       34.372553   0.000000
   39       35.220013   0.000000
   40       35.220016   0.000000
   41       37.604129   0.000000
   42       37.604133   0.000000
   43       40.675986   0.000000
   44       40.675990   0.000000
   45       41.467118   0.000000
   46       41.467123   0.000000
   47       41.594386   0.000000
   48       43.470161   0.000000
   49       45.067952   0.000000
   50       45.067953   0.000000
   51       47.210004   0.000000
   52       47.489373   0.000000
   53       47.714627   0.000000
   54       47.714630   0.000000
   55       49.022886   0.000000
   56       49.980394   0.000000
   57       50.141671   0.000000
   58       50.141688   0.000000
   59       53.384208   0.000000
   60       53.384618   0.000000
   61       53.598076   0.000000
   62       54.470086   0.000000
   63       54.971526   0.000000
   64       54.997277   0.000000
 
  0.4000000E+00  0.4000000E+00  0.4000000E+00  0.0000000E+00
    1      -28.396105   1.000000
    2      -28.392399   1.000000
    3      -28.392398   1.000000
    4      -28.385524   1.000000
    5      -28.385523   1.000000
    6      -21.136790   1.000000
    7       -1.427439   1.000000
    8        1.198222   1.000000
    9        1.198224   1.000000
   10        6.355867   0.000000
   11       10.744908   0.000000
   12       10.744910   0.000000
   13       11.100663   0.000000
   14       12.471024   0.000000
   15       14.339201   0.000000
   16       14.339202   0.000000
   17       17.809920   0.000000
   18       17.849736   0.000000
   19       17.849736   0.000000
   20       18.522404   0.000000
   21       18.989678   0.000000
   22       18.989680   0.000000
   23       21.059645   0.000000
   24       23.048082   0.000000
   25       25.510609   0.000000
   26       25.933536   0.000000
   27       25.933537   0.000000
   28       27.681443   0.000000
   29       27.681445   0.000000
   30       27.820685   0.000000
   31       30.244553   0.000000
   32       31.551750   0.000000
   33       31.551750   0.000000
   34       32.704682   0.000000
   35       32.803950   0.000000
   36       32.803951   0.000000
   37       33.540782   0.000000
   38       34.475582   0.000000
   39       35.440155   0.000000
   40       35.440159   0.000000
   41       37.573028   0.000000
   42       37.573033   0.000000
   43       40.630403   0.000000
   44       40.630407   0.000000
   45       41.593069   0.000000
   46       41.629061   0.000000
   47       41.629065   0.000000
   48       43.592376   0.000000
   49       44.837278   0.000000
   50       44.837279   0.000000
   51       46.795305   0.000000
   52       47.242556   0.000000
   53       47.745528   0.000000
   54       47.745532   0.000000
   55       48.072060   0.000000
   56       49.544900   0.000000
   57       49.544901   0.000000
   58       50.238528   0.000000
   59       53.363013   0.000000
   60       53.363046   0.000000
   61       53.728028   0.000000
   62       54.251523   0.000000
   63       55.528205   0.000000
   64       55.578551   0.000000
 
  0.3750000E+00  0.3750000E+00  0.3750000E+00  0.0000000E+00
    1      -28.395722   1.000000
    2      -28.393013   1.000000
    3      -28.393013   1.000000
    4      -28.385276   1.000000
    5      -28.385276   1.000000
    6      -21.142773   1.000000
    7       -1.325341   1.000000
    8        1.218130   1.000000
    9        1.218133   1.000000
   10        6.343166   0.000000
   11       10.804804   0.000000
   12       10.804805   0.000000
   13       11.145101   0.000000
   14       12.094367   0.000000
   15       14.083376   0.000000
   16       14.083377   0.000000
   17       17.996981   0.000000
   18       18.139924   0.000000
   19       18.139924   0.000000
   20       18.516861   0.000000
   21       18.792947   0.000000
   22       18.792948   0.000000
   23       21.044322   0.000000
   24       22.597996   0.000000
   25       25.678808   0.000000
   26       25.868379   0.000000
   27       25.868380   0.000000
   28       27.798733   0.000000
   29       27.798735   0.000000
   30       27.826378   0.000000
   31       30.728221   0.000000
   32       31.720366   0.000000
   33       31.720367   0.000000
   34       32.751994   0.000000
   35       32.751996   0.000000
   36       32.781075   0.000000
   37       33.966292   0.000000
   38       34.607171   0.000000
   39       35.716641   0.000000
   40       35.716645   0.000000
   41       37.536818   0.000000
   42       37.536823   0.000000
   43       40.606193   0.000000
   44       40.606198   0.000000
   45       41.579044   0.000000
   46       41.782816   0.000000
   47       41.782820   0.000000
   48       43.722791   0.000000
   49       44.588624   0.000000
   50       44.588625   0.000000
   51       46.258142   0.000000
   52       46.935061   0.000000
   53       47.215828   0.000000
   54       47.760304   0.000000
   55       47.760307   0.000000
   56       48.983490   0.000000
   57       48.983491   0.000000
   58       50.534595   0.000000
   59       53.290690   0.000000
   60       53.290695   0.000000
   61       53.818125   0.000000
   62       54.034531   0.000000
   63       55.450397   0.000000
   64       55.577131   0.000000
 
  0.3500000E+00  0.3500000E+00  0.3500000E+00  0.0000000E+00
    1      -28.395883   1.000000
    2      -28.393629   1.000000
    3      -28.393629   1.000000
    4      -28.384737   1.000000
    5      -28.384737   1.000000
    6      -21.149763   1.000000
    7       -1.201682   1.000000
    8        1.241641   1.000000
    9        1.241644   1.000000
   10        6.319119   0.000000
   11       10.876055   0.000000
   12       10.876057   0.000000
   13       11.144710   0.000000
   14       11.797320   0.000000
   15       13.827897   0.000000
   16       13.827898   0.000000
   17       17.580763   0.000000
   18       18.371243   0.000000
   19       18.371244   0.000000
   20       18.630489   0.000000
   21       18.630490   0.000000
   22       19.105814   0.000000
   23       21.026643   0.000000
   24       22.127482   0.000000
   25       25.816676   0.000000
   26       25.816677   0.000000
   27       25.825734   0.000000
   28       27.833286   0.000000
   29       27.925554   0.000000
   30       27.925556   0.000000
   31       31.287734   0.000000
   32       31.877888   0.000000
   33       31.877889   0.000000
   34       32.717095   0.000000
   35       32.717097   0.000000
   36       32.740549   0.000000
   37       34.572701   0.000000
   38       34.766760   0.000000
   39       36.045258   0.000000
   40       36.045262   0.000000
   41       37.500894   0.000000
   42       37.500898   0.000000
   43       40.602537   0.000000
   44       40.602541   0.000000
   45       41.555717   0.000000
   46       41.915146   0.000000
   47       41.915150   0.000000
   48       43.842785   0.000000
   49       44.349765   0.000000
   50       44.349767   0.000000
   51       45.515074   0.000000
   52       46.573596   0.000000
   53       46.616812   0.000000
   54       47.749734   0.000000
   55       47.749738   0.000000
   56       48.470661   0.000000
   57       48.470662   0.000000
   58       50.842285   0.000000
   59       53.209460   0.000000
   60       53.209471   0.000000
   61       53.759208   0.000000
   62       53.835340   0.000000
   63       54.677328   0.000000
   64       54.682582   0.000000
 
  0.3250000E+00  0.3250000E+00  0.3250000E+00  0.0000000E+00
    1      -28.393809   1.000000
    2      -28.393809   1.000000
    3      -28.389060   1.000000
    4      -28.389060   1.000000
    5      -28.386623   1.000000
    6      -21.157581   1.000000
    7       -1.057194   1.000000
    8        1.268258   1.000000
    9        1.268261   1.000000
   10        6.278183   0.000000
   11       10.956905   0.000000
   12       10.956907   0.000000
   13       11.013790   0.000000
   14       11.679612   0.000000
   15       13.581964   0.000000
   16       13.581965   0.000000
   17       17.106810   0.000000
   18       18.226586   0.000000
   19       18.226587   0.000000
   20       18.810687   0.000000
   21       18.810687   0.000000
   22       19.744235   0.000000
   23       21.006420   0.000000
   24       21.656372   0.000000
   25       25.781529   0.000000
   26       25.781530   0.000000
   27       25.961802   0.000000
   28       27.850530   0.000000
   29       28.063818   0.000000
   30       28.063820   0.000000
   31       31.877311   0.000000
   32       31.977568   0.000000
   33       31.977568   0.000000
   34       32.690857   0.000000
   35       32.735081   0.000000
   36       32.735083   0.000000
   37       34.953949   0.000000
   38       35.275706   0.000000
   39       36.421126   0.000000
   40       36.421130   0.000000
   41       37.472039   0.000000
   42       37.472043   0.000000
   43       40.603364   0.000000
   44       40.603368   0.000000
   45       41.507857   0.000000
   46       42.009876   0.000000
   47       42.009879   0.000000
   48       43.865451   0.000000
   49       44.143816   0.000000
   50       44.143818   0.000000
   51       44.761110   0.000000
   52       46.162068   0.000000
   53       46.213294   0.000000
   54       47.680146   0.000000
   55       47.680150   0.000000
   56       48.043318   0.000000
   57       48.043319   0.000000
   58       51.127173   0.000000
   59       53.107427   0.000000
   60       53.107439   0.000000
   61       53.439353   0.000000
   62       53.660062   0.000000
   63       53.907631   0.000000
   64       53.908356   0.000000
 
  0.3000000E+00  0.3000000E+00  0.3000000E+00  0.0000000E+00
    1      -28.394433   1.000000
    2      -28.394433   1.000000
    3      -28.393936   1.000000
    4      -28.392354   1.000000
    5      -28.392354   1.000000
    6      -21.166040   1.000000
    7       -0.892695   1.000000
    8        1.297421   1.000000
    9        1.297423   1.000000
   10        6.213601   0.000000
   11       10.777700   0.000000
   12       11.044761   0.000000
   13       11.044762   0.000000
   14       11.724846   0.000000
   15       13.352386   0.000000
   16       13.352387   0.000000
   17       16.614836   0.000000
   18       17.945978   0.000000
   19       17.945979   0.000000
   20       19.093815   0.000000
   21       19.093815   0.000000
   22       20.355455   0.000000
   23       20.985424   0.000000
   24       21.230481   0.000000
   25       25.758859   0.000000
   26       25.758860   0.000000
   27       26.084057   0.000000
   28       27.872636   0.000000
   29       28.211711   0.000000
   30       28.211712   0.000000
   31       31.982776   0.000000
   32       31.982777   0.000000
   33       32.239114   0.000000
   34       32.834732   0.000000
   35       32.834733   0.000000
   36       32.899092   0.000000
   37       35.167503   0.000000
   38       36.037403   0.000000
   39       36.822977   0.000000
   40       36.822981   0.000000
   41       37.463575   0.000000
   42       37.463578   0.000000
   43       40.617160   0.000000
   44       40.617164   0.000000
   45       41.379157   0.000000
   46       42.053168   0.000000
   47       42.053170   0.000000
   48       43.466482   0.000000
   49       43.996306   0.000000
   50       43.996309   0.000000
   51       44.457833   0.000000
   52       45.716335   0.000000
   53       45.903521   0.000000
   54       47.431384   0.000000
   55       47.431387   0.000000
   56       47.817456   0.000000
   57       47.817458   0.000000
   58       51.386666   0.000000
   59       52.878256   0.000000
   60       52.878316   0.000000
   61       52.962228   0.000000
   62       53.230881   0.000000
   63       53.231176   0.000000
   64       53.509955   0.000000
 
  0.2750000E+00  0.2750000E+00  0.2750000E+00  0.0000000E+00
    1      -28.394797   1.000000
    2      -28.394797   1.000000
    3      -28.393447   1.000000
    4      -28.393090   1.000000
    5      -28.393089   1.000000
    6      -21.174869   1.000000
    7       -0.709215   1.000000
    8        1.328486   1.000000
    9        1.328488   1.000000
   10        6.118690   0.000000
   11       10.540188   0.000000
   12       11.135534   0.000000
   13       11.135536   0.000000
   14       11.839389   0.000000
   15       13.146565   0.000000
   16       13.146566   0.000000
   17       16.120141   0.000000
   18       17.640392   0.000000
   19       17.640393   0.000000
   20       19.371557   0.000000
   21       19.371557   0.000000
   22       20.485403   0.000000
   23       20.963623   0.000000
   24       21.303440   0.000000
   25       25.762428   0.000000
   26       25.762429   0.000000
   27       26.204142   0.000000
   28       27.900558   0.000000
   29       28.371165   0.000000
   30       28.371167   0.000000
   31       31.909164   0.000000
   32       31.909165   0.000000
   33       32.192967   0.000000
   34       32.982684   0.000000
   35       32.982686   0.000000
   36       33.552060   0.000000
   37       35.406849   0.000000
   38       36.845769   0.000000
   39       37.180332   0.000000
   40       37.180337   0.000000
   41       37.558388   0.000000
   42       37.558390   0.000000
   43       40.637328   0.000000
   44       40.637332   0.000000
   45       41.054786   0.000000
   46       42.042398   0.000000
   47       42.042400   0.000000
   48       42.910349   0.000000
   49       43.920294   0.000000
   50       43.920298   0.000000
   51       44.495537   0.000000
   52       45.240956   0.000000
   53       45.666484   0.000000
   54       47.103033   0.000000
   55       47.103035   0.000000
   56       47.706785   0.000000
   57       47.706788   0.000000
   58       51.590947   0.000000
   59       52.233514   0.000000
   60       52.233583   0.000000
   61       52.451380   0.000000
   62       52.898680   0.000000
   63       52.898908   0.000000
   64       53.383869   0.000000
 
  0.2500000E+00  0.2500000E+00  0.2500000E+00  0.0000000E+00
    1      -28.393738   1.000000
    2      -28.393737   1.000000
    3      -28.391865   1.000000
    4      -28.391865   1.000000
    5      -28.387515   1.000000
    6      -21.183845   1.000000
    7       -0.508033   1.000000
    8        1.360751   1.000000
    9        1.360753   1.000000
   10        5.987968   0.000000
   11       10.345387   0.000000
   12       11.222880   0.000000
   13       11.222882   0.000000
   14       11.985697   0.000000
   15       12.973318   0.000000
   16       12.973319   0.000000
   17       15.628312   0.000000
   18       17.320329   0.000000
   19       17.320330   0.000000
   20       19.634059   0.000000
   21       19.634059   0.000000
   22       20.075743   0.000000
   23       20.941594   0.000000
   24       21.932840   0.000000
   25       25.795380   0.000000
   26       25.795381   0.000000
   27       26.330922   0.000000
   28       27.935168   0.000000
   29       28.543362   0.000000
   30       28.543364   0.000000
   31       31.791814   0.000000
   32       31.791815   0.000000
   33       32.048527   0.000000
   34       33.128305   0.000000
   35       33.128307   0.000000
   36       34.326584   0.000000
   37       35.671199   0.000000
   38       37.329972   0.000000
   39       37.329977   0.000000
   40       37.685703   0.000000
   41       37.923351   0.000000
   42       37.923353   0.000000
   43       40.430505   0.000000
   44       40.657634   0.000000
   45       40.657637   0.000000
   46       41.991072   0.000000
   47       41.991073   0.000000
   48       42.605466   0.000000
   49       43.909263   0.000000
   50       43.909268   0.000000
   51       44.561146   0.000000
   52       44.743490   0.000000
   53       45.517370   0.000000
   54       46.810786   0.000000
   55       46.810789   0.000000
   56       47.598743   0.000000
   57       47.598746   0.000000
   58       51.462735   0.000000
   59       51.462746   0.000000
   60       51.539564   0.000000
   61       52.124123   0.000000
   62       52.582866   0.000000
   63       52.583427   0.000000
   64       53.280215   0.000000
 
  0.2250000E+00  0.2250000E+00  0.2250000E+00  0.0000000E+00
    1      -28.392324   1.000000
    2      -28.392324   1.000000
    3      -28.384047   1.000000
    4      -28.384046   1.000000
    5      -28.383244   1.000000
    6      -21.192726   1.000000
    7       -0.290683   1.000000
    8        1.393500   1.000000
    9        1.393503   1.000000
   10        5.818202   0.000000
   11       10.208416   0.000000
   12       11.297612   0.000000
   13       11.297614   0.000000
   14       12.150918   0.000000
   15       12.843617   0.000000
   16       12.843617   0.000000
   17       15.148096   0.000000
   18       16.991323   0.000000
   19       16.991323   0.000000
   20       19.613675   0.000000
   21       19.872997   0.000000
   22       19.872997   0.000000
   23       20.933469   0.000000
   24       22.631612   0.000000
   25       25.852160   0.000000
   26       25.852161   0.000000
   27       26.449885   0.000000
   28       27.984893   0.000000
   29       28.729215   0.000000
   30       28.729216   0.000000
   31       31.653295   0.000000
   32       31.653296   0.000000
   33       31.887450   0.000000
   34       33.230908   0.000000
   35       33.230910   0.000000
   36       35.153268   0.000000
   37       35.961768   0.000000
   38       37.411882   0.000000
   39       37.411886   0.000000
   40       38.421654   0.000000
   41       38.421656   0.000000
   42       38.550825   0.000000
   43       39.609211   0.000000
   44       40.679631   0.000000
   45       40.679635   0.000000
   46       41.922257   0.000000
   47       41.922258   0.000000
   48       42.514206   0.000000
   49       43.941931   0.000000
   50       43.941936   0.000000
   51       44.238522   0.000000
   52       44.552246   0.000000
   53       45.485481   0.000000
   54       46.580428   0.000000
   55       46.580431   0.000000
   56       47.459953   0.000000
   57       47.459956   0.000000
   58       50.684438   0.000000
   59       50.684441   0.000000
   60       51.085959   0.000000
   61       52.090316   0.000000
   62       52.173652   0.000000
   63       52.173718   0.000000
   64       53.227628   0.000000
 
  0.2000000E+00  0.2000000E+00  0.2000000E+00  0.0000000E+00
    1      -28.383643   1.000000
    2      -28.383643   1.000000
    3      -28.381530   1.000000
    4      -28.381530   1.000000
    5      -28.381097   1.000000
    6      -21.201368   1.000000
    7       -0.059108   1.000000
    8        1.425838   1.000000
    9        1.425840   1.000000
   10        5.610825   0.000000
   11       10.134541   0.000000
   12       11.348249   0.000000
   13       11.348250   0.000000
   14       12.326550   0.000000
   15       12.770575   0.000000
   16       12.770575   0.000000
   17       14.684751   0.000000
   18       16.657156   0.000000
   19       16.657156   0.000000
   20       19.153986   0.000000
   21       20.089163   0.000000
   22       20.089163   0.000000
   23       20.913741   0.000000
   24       23.340772   0.000000
   25       25.939772   0.000000
   26       25.939773   0.000000
   27       26.566700   0.000000
   28       28.042651   0.000000
   29       28.934370   0.000000
   30       28.934372   0.000000
   31       31.503188   0.000000
   32       31.503189   0.000000
   33       31.718731   0.000000
   34       33.265289   0.000000
   35       33.265291   0.000000
   36       35.995207   0.000000
   37       36.276055   0.000000
   38       37.522905   0.000000
   39       37.522908   0.000000
   40       38.679135   0.000000
   41       38.960101   0.000000
   42       38.960104   0.000000
   43       39.473435   0.000000
   44       40.697792   0.000000
   45       40.697795   0.000000
   46       41.859479   0.000000
   47       41.859480   0.000000
   48       42.527827   0.000000
   49       43.715041   0.000000
   50       44.002751   0.000000
   51       44.002757   0.000000
   52       44.474852   0.000000
   53       45.561012   0.000000
   54       46.414173   0.000000
   55       46.414175   0.000000
   56       47.283520   0.000000
   57       47.283522   0.000000
   58       49.917574   0.000000
   59       49.917578   0.000000
   60       50.530681   0.000000
   61       51.709239   0.000000
   62       51.709248   0.000000
   63       51.923287   0.000000
   64       53.162251   0.000000
 
  0.1750000E+00  0.1750000E+00  0.1750000E+00  0.0000000E+00
    1      -28.394120   1.000000
    2      -28.394120   1.000000
    3      -28.385027   1.000000
    4      -28.385027   1.000000
    5      -28.381967   1.000000
    6      -21.209743   1.000000
    7        0.184099   1.000000
    8        1.456883   1.000000
    9        1.456885   1.000000
   10        5.370617   0.000000
   11       10.122487   0.000000
   12       11.365836   0.000000
   13       11.365837   0.000000
   14       12.502366   0.000000
   15       12.763555   0.000000
   16       12.763556   0.000000
   17       14.247694   0.000000
   18       16.318442   0.000000
   19       16.318442   0.000000
   20       18.707620   0.000000
   21       20.269678   0.000000
   22       20.269678   0.000000
   23       20.888415   0.000000
   24       24.041137   0.000000
   25       26.033875   0.000000
   26       26.033876   0.000000
   27       26.678157   0.000000
   28       28.121459   0.000000
   29       29.145007   0.000000
   30       29.145009   0.000000
   31       31.348912   0.000000
   32       31.348913   0.000000
   33       31.550629   0.000000
   34       33.216325   0.000000
   35       33.216328   0.000000
   36       36.609585   0.000000
   37       36.755797   0.000000
   38       37.680226   0.000000
   39       37.680229   0.000000
   40       37.867246   0.000000
   41       39.508635   0.000000
   42       39.508638   0.000000
   43       40.361913   0.000000
   44       40.712725   0.000000