   1   1   0   0
  0.5789729E+02  0.4342346E-09  0.4342346E-09  0.4342346E-09  0.1000000E-15
  1.000000000000000E-004
  CAR 
 Og_FCC                                  
     59.60970482    -34.99021650  301      3.63808470      1.00000000
    -34.990  0.0000E+00  0.0000E+00
    -34.675  0.0000E+00  0.0000E+00
    -34.360  0.0000E+00  0.0000E+00
    -34.044  0.0000E+00  0.0000E+00
    -33.729  0.0000E+00  0.0000E+00
    -33.414  0.0000E+00  0.0000E+00
    -33.098  0.0000E+00  0.0000E+00
    -32.783  0.0000E+00  0.0000E+00
    -32.468  0.0000E+00  0.0000E+00
    -32.152  0.0000E+00  0.0000E+00
    -31.837  0.0000E+00  0.0000E+00
    -31.522  0.0000E+00  0.0000E+00
    -31.206  0.0000E+00  0.0000E+00
    -30.891  0.0000E+00  0.0000E+00
    -30.576  0.0000E+00  0.4000E+01
    -30.260  0.0000E+00  0.4000E+01
    -29.945  0.0000E+00  0.4000E+01
    -29.630  0.0000E+00  0.4000E+01
    -29.314  0.0000E+00  0.4000E+01
    -28.999  0.0000E+00  0.4000E+01
    -28.684  0.0000E+00  0.4000E+01
    -28.368  0.0000E+00  0.4000E+01
    -28.053  0.0000E+00  0.4000E+01
    -27.738  0.0000E+00  0.4000E+01
    -27.422  0.0000E+00  0.4000E+01
    -27.107  0.0000E+00  0.4000E+01
    -26.792  0.0000E+00  0.4000E+01
    -26.476  0.0000E+00  0.4000E+01
    -26.161  0.0000E+00  0.4000E+01
    -25.846  0.0000E+00  0.4000E+01
    -25.530  0.0000E+00  0.4000E+01
    -25.215  0.0000E+00  0.4000E+01
    -24.900  0.0000E+00  0.4000E+01
    -24.584  0.0000E+00  0.4000E+01
    -24.269  0.0000E+00  0.4000E+01
    -23.954  0.0000E+00  0.1000E+02
    -23.638  0.0000E+00  0.1000E+02
    -23.323  0.0000E+00  0.1000E+02
    -23.008  0.0000E+00  0.1000E+02
    -22.692  0.0000E+00  0.1000E+02
    -22.377  0.0000E+00  0.1000E+02
    -22.062  0.0000E+00  0.1000E+02
    -21.746  0.0000E+00  0.1000E+02
    -21.431  0.0000E+00  0.1000E+02
    -21.116  0.0000E+00  0.1000E+02
    -20.800  0.0000E+00  0.1000E+02
    -20.485  0.0000E+00  0.1000E+02
    -20.170  0.4405E+00  0.1200E+02
    -19.854  0.0000E+00  0.1200E+02
    -19.539  0.0000E+00  0.1200E+02
    -19.224  0.0000E+00  0.1200E+02
    -18.908  0.0000E+00  0.1200E+02
    -18.593  0.0000E+00  0.1200E+02
    -18.278  0.0000E+00  0.1200E+02
    -17.962  0.0000E+00  0.1200E+02
    -17.647  0.0000E+00  0.1200E+02
    -17.332  0.0000E+00  0.1200E+02
    -17.016  0.0000E+00  0.1200E+02
    -16.701  0.0000E+00  0.1200E+02
    -16.386  0.0000E+00  0.1200E+02
    -16.070  0.0000E+00  0.1200E+02
    -15.755  0.0000E+00  0.1200E+02
    -15.440  0.0000E+00  0.1200E+02
    -15.124  0.0000E+00  0.1200E+02
    -14.809  0.0000E+00  0.1200E+02
    -14.494  0.0000E+00  0.1200E+02
    -14.178  0.0000E+00  0.1200E+02
    -13.863  0.0000E+00  0.1200E+02
    -13.548  0.0000E+00  0.1200E+02
    -13.232  0.0000E+00  0.1200E+02
    -12.917  0.0000E+00  0.1200E+02
    -12.602  0.0000E+00  0.1200E+02
    -12.286  0.0000E+00  0.1200E+02
    -11.971  0.0000E+00  0.1200E+02
    -11.656  0.0000E+00  0.1200E+02
    -11.340  0.0000E+00  0.1200E+02
    -11.025  0.0000E+00  0.1200E+02
    -10.710  0.0000E+00  0.1200E+02
    -10.394  0.0000E+00  0.1200E+02
    -10.079  0.0000E+00  0.1200E+02
     -9.764  0.0000E+00  0.1200E+02
     -9.448  0.0000E+00  0.1200E+02
     -9.133  0.0000E+00  0.1200E+02
     -8.818  0.0000E+00  0.1200E+02
     -8.502  0.0000E+00  0.1200E+02
     -8.187  0.0000E+00  0.1200E+02
     -7.872  0.0000E+00  0.1200E+02
     -7.556  0.0000E+00  0.1200E+02
     -7.241  0.0000E+00  0.1200E+02
     -6.926  0.7047E+00  0.1375E+02
     -6.610  0.0000E+00  0.1400E+02
     -6.295  0.0000E+00  0.1400E+02
     -5.980  0.0000E+00  0.1400E+02
     -5.664  0.0000E+00  0.1400E+02
     -5.349  0.0000E+00  0.1400E+02
     -5.034  0.0000E+00  0.1400E+02
     -4.718  0.0000E+00  0.1400E+02
     -4.403  0.0000E+00  0.1400E+02
     -4.088  0.0000E+00  0.1400E+02
     -3.772  0.0000E+00  0.1400E+02
     -3.457  0.0000E+00  0.1400E+02
     -3.142  0.0000E+00  0.1400E+02
     -2.826  0.0000E+00  0.1400E+02
     -2.511  0.0000E+00  0.1400E+02
     -2.196  0.0000E+00  0.1400E+02
     -1.880  0.0000E+00  0.1400E+02
     -1.565  0.0000E+00  0.1400E+02
     -1.250  0.0000E+00  0.1400E+02
     -0.934  0.0000E+00  0.1400E+02
     -0.619  0.0000E+00  0.1400E+02
     -0.304  0.0000E+00  0.1400E+02
      0.012  0.0000E+00  0.1400E+02
      0.327  0.0000E+00  0.1400E+02
      0.642  0.0000E+00  0.1540E+02
      0.958  0.0000E+00  0.1575E+02
      1.273  0.0000E+00  0.1586E+02
      1.588  0.0000E+00  0.1597E+02
      1.904  0.0000E+00  0.1658E+02
      2.219  0.0000E+00  0.1691E+02
      2.534  0.0000E+00  0.1741E+02
      2.850  0.0000E+00  0.1763E+02
      3.165  0.0000E+00  0.1791E+02
      3.480  0.0000E+00  0.1798E+02
      3.796  0.0000E+00  0.1801E+02
      4.111  0.0000E+00  0.1801E+02
      4.426  0.0000E+00  0.1801E+02
      4.742  0.0000E+00  0.1801E+02
      5.057  0.0000E+00  0.1801E+02
      5.372  0.0000E+00  0.1801E+02
      5.688  0.0000E+00  0.1808E+02
      6.003  0.0000E+00  0.1814E+02
      6.318  0.0000E+00  0.1825E+02
      6.634  0.2894E+00  0.1837E+02
      6.949  0.0000E+00  0.1889E+02
      7.264  0.0000E+00  0.1911E+02
      7.580  0.0000E+00  0.1956E+02
      7.895  0.0000E+00  0.2003E+02
      8.210  0.0000E+00  0.2008E+02
      8.526  0.0000E+00  0.2031E+02
      8.841  0.0000E+00  0.2053E+02
      9.156  0.3760E+00  0.2131E+02
      9.472  0.0000E+00  0.2169E+02
      9.787  0.0000E+00  0.2225E+02
     10.102  0.0000E+00  0.2232E+02
     10.418  0.0000E+00  0.2253E+02
     10.733  0.7047E+00  0.2355E+02
     11.048  0.0000E+00  0.2382E+02
     11.364  0.0000E+00  0.2422E+02
     11.679  0.2773E-04  0.2489E+02
     11.994  0.2485E-13  0.2556E+02
     12.310  0.0000E+00  0.2594E+02
     12.625  0.0000E+00  0.2606E+02
     12.940  0.1918E-10  0.2631E+02
     13.256  0.0000E+00  0.2748E+02
     13.571  0.0000E+00  0.2756E+02
     13.886  0.0000E+00  0.2860E+02
     14.202  0.0000E+00  0.2895E+02
     14.517  0.0000E+00  0.2969E+02
     14.832  0.0000E+00  0.3047E+02
     15.148  0.0000E+00  0.3055E+02
     15.463  0.1762E+00  0.3091E+02
     15.778  0.4968E-04  0.3124E+02
     16.094  0.1005E-04  0.3188E+02
     16.409  0.0000E+00  0.3262E+02
     16.724  0.0000E+00  0.3319E+02
     17.040  0.0000E+00  0.3387E+02
     17.355  0.0000E+00  0.3461E+02
     17.670  0.0000E+00  0.3492E+02
     17.986  0.1571E+00  0.3563E+02
     18.301  0.2967E-14  0.3635E+02
     18.616  0.2413E+00  0.3780E+02
     18.932  0.0000E+00  0.3966E+02
     19.247  0.3524E+00  0.4082E+02
     19.562  0.4338E-01  0.4156E+02
     19.878  0.0000E+00  0.4297E+02
     20.193  0.0000E+00  0.4336E+02
     20.508  0.1762E+00  0.4394E+02
     20.824  0.0000E+00  0.4451E+02
     21.139  0.0000E+00  0.4544E+02
     21.454  0.3524E+00  0.4611E+02
     21.770  0.5003E-12  0.4641E+02
     22.085  0.2641E-01  0.4655E+02
     22.400  0.0000E+00  0.4673E+02
     22.716  0.0000E+00  0.4718E+02
     23.031  0.0000E+00  0.4795E+02
     23.346  0.0000E+00  0.4807E+02
     23.662  0.0000E+00  0.4835E+02
     23.977  0.0000E+00  0.4908E+02
     24.292  0.0000E+00  0.4978E+02
     24.608  0.0000E+00  0.5050E+02
     24.923  0.0000E+00  0.5083E+02
     25.238  0.4006E-01  0.5171E+02
     25.554  0.0000E+00  0.5297E+02
     25.869  0.0000E+00  0.5377E+02
     26.184  0.0000E+00  0.5503E+02
     26.500  0.0000E+00  0.5581E+02
     26.815  0.0000E+00  0.5644E+02
     27.130  0.0000E+00  0.5718E+02
     27.446  0.0000E+00  0.5749E+02
     27.761  0.2375E-13  0.5770E+02
     28.076  0.8800E-01  0.5834E+02
     28.392  0.0000E+00  0.5947E+02
     28.707  0.0000E+00  0.6021E+02
     29.022  0.0000E+00  0.6035E+02
     29.338  0.5301E-06  0.6113E+02
     29.653  0.0000E+00  0.6202E+02
     29.968  0.0000E+00  0.6224E+02
     30.284  0.0000E+00  0.6248E+02
     30.599  0.0000E+00  0.6329E+02
     30.914  0.1674E-02  0.6415E+02
     31.230  0.0000E+00  0.6482E+02
     31.545  0.0000E+00  0.6510E+02
     31.860  0.2349E+00  0.6600E+02
     32.176  0.0000E+00  0.6688E+02
     32.491  0.4458E-05  0.6725E+02
     32.806  0.0000E+00  0.6825E+02
     33.122  0.0000E+00  0.6974E+02
     33.437  0.0000E+00  0.6996E+02
     33.752  0.0000E+00  0.7131E+02
     34.068  0.1179E-05  0.7208E+02
     34.383  0.7047E+00  0.7319E+02
     34.698  0.0000E+00  0.7355E+02
     35.014  0.0000E+00  0.7433E+02
     35.329  0.3524E+00  0.7456E+02
     35.644  0.7046E+00  0.7589E+02
     35.960  0.0000E+00  0.7607E+02
     36.275  0.1762E+00  0.7770E+02
     36.590  0.7047E+00  0.7869E+02
     36.906  0.1798E-05  0.7919E+02
     37.221  0.0000E+00  0.7996E+02
     37.536  0.2349E+00  0.8079E+02
     37.852  0.8809E-01  0.8172E+02
     38.167  0.0000E+00  0.8307E+02
     38.482  0.0000E+00  0.8341E+02
     38.798  0.1762E+00  0.8427E+02
     39.113  0.0000E+00  0.8482E+02
     39.428  0.0000E+00  0.8568E+02
     39.744  0.0000E+00  0.8607E+02
     40.059  0.0000E+00  0.8635E+02
     40.374  0.2347E+00  0.8733E+02
     40.690  0.0000E+00  0.8872E+02
     41.005  0.0000E+00  0.8949E+02
     41.320  0.0000E+00  0.8969E+02
     41.636  0.2480E+00  0.9058E+02
     41.951  0.0000E+00  0.9111E+02
     42.266  0.7047E+00  0.9220E+02
     42.582  0.0000E+00  0.9334E+02
     42.897  0.0000E+00  0.9419E+02
     43.212  0.0000E+00  0.9508E+02
     43.528  0.3773E-02  0.9576E+02
     43.843  0.0000E+00  0.9652E+02
     44.158  0.0000E+00  0.9769E+02
     44.474  0.0000E+00  0.9825E+02
     44.789  0.0000E+00  0.9858E+02
     45.104  0.0000E+00  0.9971E+02
     45.420  0.1731E-11  0.1002E+03
     45.735  0.0000E+00  0.1010E+03
     46.050  0.3940E-03  0.1021E+03
     46.366  0.0000E+00  0.1031E+03
     46.681  0.0000E+00  0.1038E+03
     46.996  0.0000E+00  0.1048E+03
     47.312  0.0000E+00  0.1058E+03
     47.627  0.0000E+00  0.1069E+03
     47.942  0.0000E+00  0.1079E+03
     48.258  0.0000E+00  0.1086E+03
     48.573  0.0000E+00  0.1099E+03
     48.888  0.5082E-01  0.1103E+03
     49.204  0.0000E+00  0.1114E+03
     49.519  0.0000E+00  0.1116E+03
     49.834  0.0000E+00  0.1128E+03
     50.150  0.0000E+00  0.1135E+03
     50.465  0.0000E+00  0.1144E+03
     50.780  0.0000E+00  0.1151E+03
     51.096  0.0000E+00  0.1163E+03
     51.411  0.0000E+00  0.1170E+03
     51.726  0.0000E+00  0.1177E+03
     52.042  0.0000E+00  0.1186E+03
     52.357  0.3695E-14  0.1196E+03
     52.672  0.0000E+00  0.1208E+03
     52.988  0.0000E+00  0.1219E+03
     53.303  0.0000E+00  0.1225E+03
     53.618  0.0000E+00  0.1237E+03
     53.934  0.0000E+00  0.1248E+03
     54.249  0.0000E+00  0.1258E+03
     54.564  0.0000E+00  0.1264E+03
     54.880  0.0000E+00  0.1271E+03
     55.195  0.0000E+00  0.1273E+03
     55.510  0.0000E+00  0.1280E+03
     55.826  0.0000E+00  0.1280E+03
     56.141  0.0000E+00  0.1280E+03
     56.456  0.0000E+00  0.1280E+03
     56.772  0.0000E+00  0.1280E+03
     57.087  0.0000E+00  0.1280E+03
     57.402  0.0000E+00  0.1280E+03
     57.718  0.0000E+00  0.1280E+03
     58.033  0.0000E+00  0.1280E+03
     58.348  0.0000E+00  0.1280E+03
     58.664  0.0000E+00  0.1280E+03
     58.979  0.0000E+00  0.1280E+03
     59.294  0.0000E+00  0.1280E+03
     59.610  0.0000E+00  0.1280E+03
