    1    1    1    1
  0.5789729E+02  0.4342346E-09  0.4342346E-09  0.4342346E-09  0.1000000E-15
  1.000000000000000E-004
  CAR 
 Og_FCC                                  
     18    216    128
 
  0.0000000E+00  0.0000000E+00  0.0000000E+00  0.4629630E-02
    1      -30.683345   1.000000
    2      -30.683345   1.000000
    3      -30.683341   1.000000
    4      -30.683341   1.000000
    5      -24.019641   1.000000
    6      -24.019641   1.000000
    7      -24.019639   1.000000
    8      -24.019639   1.000000
    9      -24.017722   1.000000
   10      -24.017722   1.000000
   11      -20.345653   1.000000
   12      -20.345653   1.000000
   13       -6.621721   1.000000
   14       -6.621721   1.000000
   15        3.565427   1.000000
   16        3.565427   1.000000
   17        3.565435   1.000000
   18        3.565435   1.000000
   19        3.719110   0.000000
   20        3.719110   0.000000
   21       10.925548   0.000000
   22       10.925548   0.000000
   23       10.925554   0.000000
   24       10.925554   0.000000
   25       11.375561   0.000000
   26       11.375561   0.000000
   27       11.424388   0.000000
   28       11.424388   0.000000
   29       13.499907   0.000000
   30       13.499907   0.000000
   31       13.817319   0.000000
   32       13.817319   0.000000
   33       13.817334   0.000000
   34       13.817334   0.000000
   35       14.391287   0.000000
   36       14.391287   0.000000
   37       14.391289   0.000000
   38       14.391289   0.000000
   39       16.604190   0.000000
   40       16.604190   0.000000
   41       21.026289   0.000000
   42       21.026289   0.000000
   43       21.026289   0.000000
   44       21.026290   0.000000
   45       21.026345   0.000000
   46       21.026345   0.000000
   47       23.161569   0.000000
   48       23.161569   0.000000
   49       27.186599   0.000000
   50       27.186599   0.000000
   51       27.186610   0.000000
   52       27.186611   0.000000
   53       27.595235   0.000000
   54       27.595235   0.000000
   55       28.763908   0.000000
   56       28.763908   0.000000
   57       30.258595   0.000000
   58       30.258595   0.000000
   59       30.258615   0.000000
   60       30.258615   0.000000
   61       30.959598   0.000000
   62       30.959598   0.000000
   63       31.155953   0.000000
   64       31.155953   0.000000
   65       31.155970   0.000000
   66       31.155970   0.000000
   67       31.597526   0.000000
   68       31.597526   0.000000
   69       32.263249   0.000000
   70       32.263249   0.000000
   71       32.263255   0.000000
   72       32.263255   0.000000
   73       39.005288   0.000000
   74       39.005288   0.000000
   75       39.005289   0.000000
   76       39.005289   0.000000
   77       39.005329   0.000000
   78       39.005329   0.000000
   79       39.454949   0.000000
   80       39.454949   0.000000
   81       39.589767   0.000000
   82       39.589767   0.000000
   83       39.589789   0.000000
   84       39.589789   0.000000
   85       39.589790   0.000000
   86       39.589790   0.000000
   87       42.249528   0.000000
   88       42.249528   0.000000
   89       42.249536   0.000000
   90       42.249536   0.000000
   91       42.477907   0.000000
   92       42.477907   0.000000
   93       43.528520   0.000000
   94       43.528520   0.000000
   95       44.057802   0.000000
   96       44.057803   0.000000
   97       44.057841   0.000000
   98       44.057841   0.000000
   99       44.525544   0.000000
  100       44.525544   0.000000
  101       44.525562   0.000000
  102       44.525562   0.000000
  103       44.527152   0.000000
  104       44.527152   0.000000
  105       44.527154   0.000000
  106       44.527154   0.000000
  107       45.464543   0.000000
  108       45.464543   0.000000
  109       45.464570   0.000000
  110       45.464570   0.000000
  111       45.695529   0.000000
  112       45.695529   0.000000
  113       46.831937   0.000000
  114       46.831937   0.000000
  115       46.980692   0.000000
  116       46.980692   0.000000
  117       47.331294   0.000000
  118       47.331294   0.000000
  119       47.331315   0.000000
  120       47.331315   0.000000
  121       47.917683   0.000000
  122       47.917684   0.000000
  123       48.462789   0.000000
  124       48.462789   0.000000
  125       48.462792   0.000000
  126       48.462793   0.000000
  127       48.609699   0.000000
  128       48.609699   0.000000
 
  0.1666667E+00  0.1566927E-17  0.2081668E-16  0.4629630E-02
    1      -30.658674   1.000000
    2      -30.658674   1.000000
    3      -30.656424   1.000000
    4      -30.656424   1.000000
    5      -24.002371   1.000000
    6      -24.002371   1.000000
    7      -24.001246   1.000000
    8      -24.001246   1.000000
    9      -23.998924   1.000000
   10      -23.998924   1.000000
   11      -20.314359   1.000000
   12      -20.314358   1.000000
   13       -6.727581   1.000000
   14       -6.727581   1.000000
   15        1.914666   1.000000
   16        1.914666   1.000000
   17        3.409444   1.000000
   18        3.409444   1.000000
   19        5.446224   0.000000
   20        5.446224   0.000000
   21        9.946039   0.000000
   22        9.946039   0.000000
   23       11.103894   0.000000
   24       11.103894   0.000000
   25       11.472665   0.000000
   26       11.472665   0.000000
   27       12.411266   0.000000
   28       12.411266   0.000000
   29       12.643815   0.000000
   30       12.643815   0.000000
   31       12.826926   0.000000
   32       12.826927   0.000000
   33       14.036841   0.000000
   34       14.036841   0.000000
   35       16.116533   0.000000
   36       16.116533   0.000000
   37       16.283021   0.000000
   38       16.283022   0.000000
   39       18.436856   0.000000
   40       18.436856   0.000000
   41       20.414750   0.000000
   42       20.414750   0.000000
   43       20.577786   0.000000
   44       20.577786   0.000000
   45       21.129130   0.000000
   46       21.129130   0.000000
   47       22.056978   0.000000
   48       22.056978   0.000000
   49       25.706146   0.000000
   50       25.706146   0.000000
   51       26.512952   0.000000
   52       26.512953   0.000000
   53       27.007000   0.000000
   54       27.007000   0.000000
   55       28.201670   0.000000
   56       28.201670   0.000000
   57       28.760484   0.000000
   58       28.760484   0.000000
   59       29.579196   0.000000
   60       29.579196   0.000000
   61       31.072086   0.000000
   62       31.072086   0.000000
   63       31.129638   0.000000
   64       31.129638   0.000000
   65       31.730113   0.000000
   66       31.730113   0.000000
   67       31.855243   0.000000
   68       31.855243   0.000000
   69       33.649084   0.000000
   70       33.649085   0.000000
   71       36.023036   0.000000
   72       36.023036   0.000000
   73       36.476590   0.000000
   74       36.476590   0.000000
   75       37.550095   0.000000
   76       37.550095   0.000000
   77       37.570606   0.000000
   78       37.570606   0.000000
   79       38.022844   0.000000
   80       38.022844   0.000000
   81       39.209982   0.000000
   82       39.209982   0.000000
   83       40.104271   0.000000
   84       40.104271   0.000000
   85       40.396633   0.000000
   86       40.396633   0.000000
   87       40.558654   0.000000
   88       40.558654   0.000000
   89       40.585107   0.000000
   90       40.585108   0.000000
   91       41.630561   0.000000
   92       41.630561   0.000000
   93       41.700040   0.000000
   94       41.700040   0.000000
   95       42.553829   0.000000
   96       42.553829   0.000000
   97       42.762086   0.000000
   98       42.762086   0.000000
   99       43.929155   0.000000
  100       43.929155   0.000000
  101       44.341383   0.000000
  102       44.341383   0.000000
  103       44.548147   0.000000
  104       44.548147   0.000000
  105       45.330264   0.000000
  106       45.330264   0.000000
  107       45.998906   0.000000
  108       45.998906   0.000000
  109       46.052454   0.000000
  110       46.052454   0.000000
  111       46.199708   0.000000
  112       46.199708   0.000000
  113       47.500140   0.000000
  114       47.500140   0.000000
  115       48.549914   0.000000
  116       48.549914   0.000000
  117       48.838982   0.000000
  118       48.838982   0.000000
  119       49.713260   0.000000
  120       49.713260   0.000000
  121       50.814590   0.000000
  122       50.814591   0.000000
  123       50.836967   0.000000
  124       50.836967   0.000000
  125       51.492576   0.000000
  126       51.492576   0.000000
  127       52.758237   0.000000
  128       52.758237   0.000000
 
  0.3333333E+00  0.3133854E-17  0.0000000E+00  0.4629630E-02
    1      -30.671535   1.000000
    2      -30.671535   1.000000
    3      -30.664940   1.000000
    4      -30.664939   1.000000
    5      -24.007985   1.000000
    6      -24.007984   1.000000
    7      -24.006201   1.000000
    8      -24.006201   1.000000
    9      -24.004331   1.000000
   10      -24.004330   1.000000
   11      -20.250866   1.000000
   12      -20.250866   1.000000
   13       -6.941435   1.000000
   14       -6.941435   1.000000
   15        0.769684   1.000000
   16        0.769684   1.000000
   17        3.128879   1.000000
   18        3.128880   1.000000
   19        6.224387   0.000000
   20        6.224387   0.000000
   21       10.545652   0.000000
   22       10.545652   0.000000
   23       10.649261   0.000000
   24       10.649261   0.000000
   25       11.114828   0.000000
   26       11.114828   0.000000
   27       11.526596   0.000000
   28       11.526596   0.000000
   29       13.501453   0.000000
   30       13.501454   0.000000
   31       13.774256   0.000000
   32       13.774257   0.000000
   33       17.017586   0.000000
   34       17.017586   0.000000
   35       17.992374   0.000000
   36       17.992374   0.000000
   37       18.383038   0.000000
   38       18.383038   0.000000
   39       18.612515   0.000000
   40       18.612515   0.000000
   41       19.023229   0.000000
   42       19.023230   0.000000
   43       19.361269   0.000000
   44       19.361269   0.000000
   45       21.272852   0.000000
   46       21.272852   0.000000
   47       21.653541   0.000000
   48       21.653541   0.000000
   49       24.516922   0.000000
   50       24.516922   0.000000
   51       26.060894   0.000000
   52       26.060894   0.000000
   53       26.088371   0.000000
   54       26.088371   0.000000
   55       27.170723   0.000000
   56       27.170723   0.000000
   57       28.129583   0.000000
   58       28.129583   0.000000
   59       28.536621   0.000000
   60       28.536622   0.000000
   61       30.526715   0.000000
   62       30.526715   0.000000
   63       31.896784   0.000000
   64       31.896784   0.000000
   65       32.215358   0.000000
   66       32.215358   0.000000
   67       32.790526   0.000000
   68       32.790526   0.000000
   69       32.875038   0.000000
   70       32.875038   0.000000
   71       33.127658   0.000000
   72       33.127658   0.000000
   73       34.611911   0.000000
   74       34.611911   0.000000
   75       34.844917   0.000000
   76       34.844917   0.000000
   77       35.754088   0.000000
   78       35.754088   0.000000
   79       36.526820   0.000000
   80       36.526820   0.000000
   81       37.176191   0.000000
   82       37.176191   0.000000
   83       37.533657   0.000000
   84       37.533657   0.000000
   85       40.372142   0.000000
   86       40.372142   0.000000
   87       40.411459   0.000000
   88       40.411459   0.000000
   89       41.139294   0.000000
   90       41.139294   0.000000
   91       41.799041   0.000000
   92       41.799042   0.000000
   93       42.009280   0.000000
   94       42.009280   0.000000
   95       43.267274   0.000000
   96       43.267274   0.000000
   97       44.097224   0.000000
   98       44.097224   0.000000
   99       44.241121   0.000000
  100       44.241121   0.000000
  101       45.021166   0.000000
  102       45.021166   0.000000
  103       45.933621   0.000000
  104       45.933621   0.000000
  105       46.101513   0.000000
  106       46.101513   0.000000
  107       47.119380   0.000000
  108       47.119380   0.000000
  109       47.712329   0.000000
  110       47.712329   0.000000
  111       47.867263   0.000000
  112       47.867263   0.000000
  113       48.172804   0.000000
  114       48.172805   0.000000
  115       51.046469   0.000000
  116       51.046469   0.000000
  117       52.639782   0.000000
  118       52.639782   0.000000
  119       52.898586   0.000000
  120       52.898586   0.000000
  121       53.429173   0.000000
  122       53.429173   0.000000
  123       53.447095   0.000000
  124       53.447095   0.000000
  125       53.740767   0.000000
  126       53.740767   0.000000
  127       54.105314   0.000000
  128       54.105314   0.000000
 
  0.5000000E+00  0.4700780E-17  0.5551115E-16  0.4629630E-02
    1      -30.690218   1.000000
    2      -30.690218   1.000000
    3      -30.676983   1.000000
    4      -30.676983   1.000000
    5      -24.019299   1.000000
    6      -24.019299   1.000000
    7      -24.014737   1.000000
    8      -24.014736   1.000000
    9      -24.012584   1.000000
   10      -24.012584   1.000000
   11      -20.218480   1.000000
   12      -20.218480   1.000000
   13       -7.049336   1.000000
   14       -7.049336   1.000000
   15        0.375045   1.000000
   16        0.375045   1.000000
   17        3.001146   1.000000
   18        3.001146   1.000000
   19        6.245699   0.000000
   20        6.245699   0.000000
   21       10.350207   0.000000
   22       10.350207   0.000000
   23       10.715574   0.000000
   24       10.715575   0.000000
   25       10.776920   0.000000
   26       10.776921   0.000000
   27       12.391891   0.000000
   28       12.391891   0.000000
   29       15.039043   0.000000
   30       15.039043   0.000000
   31       15.137656   0.000000
   32       15.137657   0.000000
   33       16.231238   0.000000
   34       16.231238   0.000000
   35       17.174697   0.000000
   36       17.174697   0.000000
   37       17.338416   0.000000
   38       17.338416   0.000000
   39       18.971079   0.000000
   40       18.971079   0.000000
   41       19.544725   0.000000
   42       19.544725   0.000000
   43       19.598022   0.000000
   44       19.598023   0.000000
   45       21.346509   0.000000
   46       21.346509   0.000000
   47       23.809443   0.000000
   48       23.809443   0.000000
   49       24.525779   0.000000
   50       24.525779   0.000000
   51       26.000886   0.000000
   52       26.000886   0.000000
   53       26.126466   0.000000
   54       26.126466   0.000000
   55       26.174256   0.000000
   56       26.174256   0.000000
   57       27.672411   0.000000
   58       27.672411   0.000000
   59       28.196455   0.000000
   60       28.196455   0.000000
   61       29.400864   0.000000
   62       29.400864   0.000000
   63       30.434643   0.000000
   64       30.434643   0.000000
   65       31.662222   0.000000
   66       31.662222   0.000000
   67       31.844114   0.000000
   68       31.844114   0.000000
   69       32.631289   0.000000
   70       32.631289   0.000000
   71       33.350141   0.000000
   72       33.350141   0.000000
   73       33.840375   0.000000
   74       33.840375   0.000000
   75       33.946396   0.000000
   76       33.946396   0.000000
   77       34.812022   0.000000
   78       34.812022   0.000000
   79       34.893377   0.000000
   80       34.893377   0.000000
   81       37.017371   0.000000
   82       37.017371   0.000000
   83       37.755709   0.000000
   84       37.755710   0.000000
   85       40.659952   0.000000
   86       40.659952   0.000000
   87       40.765150   0.000000
   88       40.765150   0.000000
   89       40.795532   0.000000
   90       40.795532   0.000000
   91       41.295988   0.000000
   92       41.295988   0.000000
   93       41.452745   0.000000
   94       41.452745   0.000000
   95       43.255353   0.000000
   96       43.255353   0.000000
   97       43.259160   0.000000
   98       43.259160   0.000000
   99       45.794312   0.000000
  100       45.794312   0.000000
  101       47.417690   0.000000
  102       47.417690   0.000000
  103       47.602275   0.000000
  104       47.602276   0.000000
  105       47.610595   0.000000
  106       47.610596   0.000000
  107       47.832536   0.000000
  108       47.832536   0.000000
  109       48.888488   0.000000
  110       48.888488   0.000000
  111       50.654209   0.000000
  112       50.654209   0.000000
  113       51.557946   0.000000
  114       51.557946   0.000000
  115       51.800041   0.000000
  116       51.800041   0.000000
  117       52.290032   0.000000
  118       52.290032   0.000000
  119       52.681339   0.000000
  120       52.681339   0.000000
  121       52.692434   0.000000
  122       52.692434   0.000000
  123       54.125021   0.000000
  124       54.125021   0.000000
  125       54.284269   0.000000
  126       54.284269   0.000000
  127       54.468992   0.000000
  128       54.468992   0.000000
 
 -0.3333333E+00 -0.3133854E-17  0.0000000E+00  0.4629630E-02
    1      -30.671535   1.000000
    2      -30.671535   1.000000
    3      -30.664940   1.000000
    4      -30.664939   1.000000
    5      -24.007985   1.000000
    6      -24.007984   1.000000
    7      -24.006201   1.000000
    8      -24.006201   1.000000
    9      -24.004331   1.000000
   10      -24.004330   1.000000
   11      -20.250866   1.000000
   12      -20.250866   1.000000
   13       -6.941435   1.000000
   14       -6.941435   1.000000
   15        0.769684   1.000000
   16        0.769684   1.000000
   17        3.128879   1.000000
   18        3.128880   1.000000
   19        6.224387   0.000000
   20        6.224387   0.000000
   21       10.545652   0.000000
   22       10.545652   0.000000
   23       10.649261   0.000000
   24       10.649261   0.000000
   25       11.114828   0.000000
   26       11.114828   0.000000
   27       11.526596   0.000000
   28       11.526596   0.000000
   29       13.501453   0.000000
   30       13.501454   0.000000
   31       13.774256   0.000000
   32       13.774257   0.000000
   33       17.017586   0.000000
   34       17.017586   0.000000
   35       17.992374   0.000000
   36       17.992374   0.000000
   37       18.383038   0.000000
   38       18.383038   0.000000
   39       18.612515   0.000000
   40       18.612515   0.000000
   41       19.023229   0.000000
   42       19.023230   0.000000
   43       19.361269   0.000000
   44       19.361269   0.000000
   45       21.272852   0.000000
   46       21.272852   0.000000
   47       21.653541   0.000000
   48       21.653541   0.000000
   49       24.516922   0.000000
   50       24.516922   0.000000
   51       26.060894   0.000000
   52       26.060894   0.000000
   53       26.088371   0.000000
   54       26.088371   0.000000
   55       27.170723   0.000000
   56       27.170723   0.000000
   57       28.129583   0.000000
   58       28.129583   0.000000
   59       28.536621   0.000000
   60       28.536622   0.000000
   61       30.526715   0.000000
   62       30.526715   0.000000
   63       31.896784   0.000000
   64       31.896784   0.000000
   65       32.215358   0.000000
   66       32.215358   0.000000
   67       32.790526   0.000000
   68       32.790526   0.000000
   69       32.875038   0.000000
   70       32.875038   0.000000
   71       33.127658   0.000000
   72       33.127658   0.000000
   73       34.611911   0.000000
   74       34.611911   0.000000
   75       34.844917   0.000000
   76       34.844917   0.000000
   77       35.754088   0.000000
   78       35.754088   0.000000
   79       36.526820   0.000000
   80       36.526820   0.000000
   81       37.176191   0.000000
   82       37.176191   0.000000
   83       37.533657   0.000000
   84       37.533657   0.000000
   85       40.372142   0.000000
   86       40.372142   0.000000
   87       40.411459   0.000000
   88       40.411459   0.000000
   89       41.139294   0.000000
   90       41.139294   0.000000
   91       41.799041   0.000000
   92       41.799042   0.000000
   93       42.009280   0.000000
   94       42.009280   0.000000
   95       43.267274   0.000000
   96       43.267274   0.000000
   97       44.097224   0.000000
   98       44.097224   0.000000
   99       44.241121   0.000000
  100       44.241121   0.000000
  101       45.021166   0.000000
  102       45.021166   0.000000
  103       45.933621   0.000000
  104       45.933621   0.000000
  105       46.101513   0.000000
  106       46.101513   0.000000
  107       47.119380   0.000000
  108       47.119380   0.000000
  109       47.712329   0.000000
  110       47.712329   0.000000
  111       47.867263   0.000000
  112       47.867263   0.000000
  113       48.172804   0.000000
  114       48.172805   0.000000
  115       51.046469   0.000000
  116       51.046469   0.000000
  117       52.639782   0.000000
  118       52.639782   0.000000
  119       52.898586   0.000000
  120       52.898586   0.000000
  121       53.429173   0.000000
  122       53.429173   0.000000
  123       53.447095   0.000000
  124       53.447095   0.000000
  125       53.740767   0.000000
  126       53.740767   0.000000
  127       54.105314   0.000000
  128       54.105314   0.000000
 
 -0.1666667E+00 -0.1566927E-17 -0.6938894E-17  0.4629630E-02
    1      -30.658674   1.000000
    2      -30.658674   1.000000
    3      -30.656424   1.000000
    4      -30.656424   1.000000
    5      -24.002371   1.000000
    6      -24.002371   1.000000
    7      -24.001246   1.000000
    8      -24.001246   1.000000
    9      -23.998924   1.000000
   10      -23.998924   1.000000
   11      -20.314359   1.000000
   12      -20.314358   1.000000
   13       -6.727581   1.000000
   14       -6.727581   1.000000
   15        1.914666   1.000000
   16        1.914666   1.000000
   17        3.409444   1.000000
   18        3.409444   1.000000
   19        5.446224   0.000000
   20        5.446224   0.000000
   21        9.946039   0.000000
   22        9.946039   0.000000
   23       11.103894   0.000000
   24       11.103894   0.000000
   25       11.472665   0.000000
   26       11.472665   0.000000
   27       12.411266   0.000000
   28       12.411266   0.000000
   29       12.643815   0.000000
   30       12.643815   0.000000
   31       12.826926   0.000000
   32       12.826927   0.000000
   33       14.036841   0.000000
   34       14.036841   0.000000
   35       16.116533   0.000000
   36       16.116533   0.000000
   37       16.283021   0.000000
   38       16.283022   0.000000
   39       18.436856   0.000000
   40       18.436856   0.000000
   41       20.414750   0.000000
   42       20.414750   0.000000
   43       20.577786   0.000000
   44       20.577786   0.000000
   45       21.129130   0.000000
   46       21.129130   0.000000
   47       22.056978   0.000000
   48       22.056978   0.000000
   49       25.706146   0.000000
   50       25.706146   0.000000
   51       26.512952   0.000000
   52       26.512953   0.000000
   53       27.007000   0.000000
   54       27.007000   0.000000
   55       28.201670   0.000000
   56       28.201670   0.000000
   57       28.760484   0.000000
   58       28.760484   0.000000
   59       29.579196   0.000000
   60       29.579196   0.000000
   61       31.072086   0.000000
   62       31.072086   0.000000
   63       31.129638   0.000000
   64       31.129638   0.000000
   65       31.730113   0.000000
   66       31.730113   0.000000
   67       31.855243   0.000000
   68       31.855243   0.000000
   69       33.649084   0.000000
   70       33.649085   0.000000
   71       36.023036   0.000000
   72       36.023036   0.000000
   73       36.476590   0.000000
   74       36.476590   0.000000
   75       37.550095   0.000000
   76       37.550095   0.000000
   77       37.570606   0.000000
   78       37.570606   0.000000
   79       38.022844   0.000000
   80       38.022844   0.000000
   81       39.209982   0.000000
   82       39.209982   0.000000
   83       40.104271   0.000000
   84       40.104271   0.000000
   85       40.396633   0.000000
   86       40.396633   0.000000
   87       40.558654   0.000000
   88       40.558654   0.000000
   89       40.585107   0.000000
   90       40.585108   0.000000
   91       41.630561   0.000000
   92       41.630561   0.000000
   93       41.700040   0.000000
   94       41.700040   0.000000
   95       42.553829   0.000000
   96       42.553829   0.000000
   97       42.762086   0.000000
   98       42.762086   0.000000
   99       43.929155   0.000000
  100       43.929155   0.000000
  101       44.341383   0.000000
  102       44.341383   0.000000
  103       44.548147   0.000000
  104       44.548147   0.000000
  105       45.330264   0.000000
  106       45.330264   0.000000
  107       45.998906   0.000000
  108       45.998906   0.000000
  109       46.052454   0.000000
  110       46.052454   0.000000
  111       46.199708   0.000000
  112       46.199708   0.000000
  113       47.500140   0.000000
  114       47.500140   0.000000
  115       48.549914   0.000000
  116       48.549914   0.000000
  117       48.838982   0.000000
  118       48.838982   0.000000
  119       49.713260   0.000000
  120       49.713260   0.000000
  121       50.814590   0.000000
  122       50.814591   0.000000
  123       50.836967   0.000000
  124       50.836967   0.000000
  125       51.492576   0.000000
  126       51.492576   0.000000
  127       52.758237   0.000000
  128       52.758237   0.000000
 
 -0.1925930E-33  0.1666667E+00 -0.6938894E-17  0.4629630E-02
    1      -30.658674   1.000000
    2      -30.658674   1.000000
    3      -30.656424   1.000000
    4      -30.656424   1.000000
    5      -24.002371   1.000000
    6      -24.002371   1.000000
    7      -24.001246   1.000000
    8      -24.001245   1.000000
    9      -23.998924   1.000000
   10      -23.998924   1.000000
   11      -20.314359   1.000000
   12      -20.314358   1.000000
   13       -6.727581   1.000000
   14       -6.727581   1.000000
   15        1.914666   1.000000
   16        1.914666   1.000000
   17        3.409444   1.000000
   18        3.409444   1.000000
   19        5.446224   0.000000
   20        5.446224   0.000000
   21        9.946039   0.000000
   22        9.946039   0.000000
   23       11.103894   0.000000
   24       11.103894   0.000000
   25       11.472665   0.000000
   26       11.472665   0.000000
   27       12.411266   0.000000
   28       12.411266   0.000000
   29       12.643815   0.000000
   30       12.643815   0.000000
   31       12.826926   0.000000
   32       12.826926   0.000000
   33       14.036841   0.000000
   34       14.036841   0.000000
   35       16.116533   0.000000
   36       16.116533   0.000000
   37       16.283021   0.000000
   38       16.283021   0.000000
   39       18.436856   0.000000
   40       18.436856   0.000000
   41       20.414750   0.000000
   42       20.414750   0.000000
   43       20.577786   0.000000
   44       20.577786   0.000000
   45       21.129129   0.000000
   46       21.129129   0.000000
   47       22.056978   0.000000
   48       22.056978   0.000000
   49       25.706146   0.000000
   50       25.706146   0.000000
   51       26.512952   0.000000
   52       26.512952   0.000000
   53       27.007000   0.000000
   54       27.007000   0.000000
   55       28.201670   0.000000
   56       28.201670   0.000000
   57       28.760483   0.000000
   58       28.760484   0.000000
   59       29.579196   0.000000
   60       29.579196   0.000000
   61       31.072087   0.000000
   62       31.072087   0.000000
   63       31.129638   0.000000
   64       31.129638   0.000000
   65       31.730113   0.000000
   66       31.730113   0.000000
   67       31.855243   0.000000
   68       31.855243   0.000000
   69       33.649085   0.000000
   70       33.649085   0.000000
   71       36.023036   0.000000
   72       36.023036   0.000000
   73       36.476589   0.000000
   74       36.476590   0.000000
   75       37.550095   0.000000
   76       37.550095   0.000000
   77       37.570606   0.000000
   78       37.570606   0.000000
   79       38.022843   0.000000
   80       38.022843   0.000000
   81       39.209982   0.000000
   82       39.209982   0.000000
   83       40.104271   0.000000
   84       40.104271   0.000000
   85       40.396633   0.000000
   86       40.396633   0.000000
   87       40.558654   0.000000
   88       40.558654   0.000000
   89       40.585108   0.000000
   90       40.585108   0.000000
   91       41.630561   0.000000
   92       41.630561   0.000000
   93       41.700040   0.000000
   94       41.700040   0.000000
   95       42.553829   0.000000
   96       42.553829   0.000000
   97       42.762085   0.000000
   98       42.762086   0.000000
   99       43.929155   0.000000
  100       43.929155   0.000000
  101       44.341383   0.000000
  102       44.341383   0.000000
  103       44.548147   0.000000
  104       44.548147   0.000000
  105       45.330264   0.000000
  106       45.330264   0.000000
  107       45.998906   0.000000
  108       45.998907   0.000000
  109       46.052454   0.000000
  110       46.052454   0.000000
  111       46.199707   0.000000
  112       46.199707   0.000000
  113       47.500140   0.000000
  114       47.500140   0.000000
  115       48.549914   0.000000
  116       48.549914   0.000000
  117       48.838982   0.000000
  118       48.838982   0.000000
  119       49.713261   0.000000
  120       49.713261   0.000000
  121       50.814590   0.000000