   1   1   0   0
  0.6008441E+02  0.4396350E-09  0.4396350E-09  0.4396350E-09  0.1000000E-15
  1.000000000000000E-004
  CAR 
 Og_FCC                                  
     63.88802907   -233.60060084  301      3.76931448      1.00000000
   -233.601  0.0000E+00  0.0000E+00
   -232.609  0.0000E+00  0.0000E+00
   -231.617  0.0000E+00  0.0000E+00
   -230.626  0.0000E+00  0.0000E+00
   -229.634  0.0000E+00  0.0000E+00
   -228.642  0.0000E+00  0.0000E+00
   -227.651  0.0000E+00  0.0000E+00
   -226.659  0.0000E+00  0.0000E+00
   -225.668  0.0000E+00  0.0000E+00
   -224.676  0.0000E+00  0.0000E+00
   -223.684  0.0000E+00  0.0000E+00
   -222.693  0.0000E+00  0.0000E+00
   -221.701  0.0000E+00  0.0000E+00
   -220.709  0.0000E+00  0.0000E+00
   -219.718  0.0000E+00  0.2000E+01
   -218.726  0.0000E+00  0.2000E+01
   -217.735  0.0000E+00  0.2000E+01
   -216.743  0.0000E+00  0.2000E+01
   -215.751  0.0000E+00  0.2000E+01
   -214.760  0.0000E+00  0.2000E+01
   -213.768  0.0000E+00  0.2000E+01
   -212.776  0.0000E+00  0.2000E+01
   -211.785  0.0000E+00  0.2000E+01
   -210.793  0.0000E+00  0.2000E+01
   -209.802  0.0000E+00  0.2000E+01
   -208.810  0.0000E+00  0.2000E+01
   -207.818  0.0000E+00  0.2000E+01
   -206.827  0.0000E+00  0.2000E+01
   -205.835  0.0000E+00  0.2000E+01
   -204.843  0.0000E+00  0.2000E+01
   -203.852  0.0000E+00  0.2000E+01
   -202.860  0.0000E+00  0.2000E+01
   -201.868  0.0000E+00  0.2000E+01
   -200.877  0.0000E+00  0.2000E+01
   -199.885  0.0000E+00  0.2000E+01
   -198.894  0.0000E+00  0.2000E+01
   -197.902  0.0000E+00  0.2000E+01
   -196.910  0.0000E+00  0.2000E+01
   -195.919  0.0000E+00  0.2000E+01
   -194.927  0.0000E+00  0.2000E+01
   -193.935  0.0000E+00  0.2000E+01
   -192.944  0.0000E+00  0.2000E+01
   -191.952  0.0000E+00  0.2000E+01
   -190.961  0.0000E+00  0.2000E+01
   -189.969  0.0000E+00  0.2000E+01
   -188.977  0.0000E+00  0.2000E+01
   -187.986  0.0000E+00  0.2000E+01
   -186.994  0.0000E+00  0.2000E+01
   -186.002  0.0000E+00  0.2000E+01
   -185.011  0.0000E+00  0.2000E+01
   -184.019  0.0000E+00  0.2000E+01
   -183.028  0.0000E+00  0.2000E+01
   -182.036  0.0000E+00  0.2000E+01
   -181.044  0.0000E+00  0.2000E+01
   -180.053  0.0000E+00  0.2000E+01
   -179.061  0.0000E+00  0.2000E+01
   -178.069  0.0000E+00  0.2000E+01
   -177.078  0.0000E+00  0.2000E+01
   -176.086  0.0000E+00  0.2000E+01
   -175.095  0.0000E+00  0.2000E+01
   -174.103  0.0000E+00  0.2000E+01
   -173.111  0.0000E+00  0.2000E+01
   -172.120  0.0000E+00  0.2000E+01
   -171.128  0.0000E+00  0.2000E+01
   -170.136  0.0000E+00  0.2000E+01
   -169.145  0.0000E+00  0.2000E+01
   -168.153  0.0000E+00  0.2000E+01
   -167.161  0.0000E+00  0.2000E+01
   -166.170  0.0000E+00  0.2000E+01
   -165.178  0.0000E+00  0.2000E+01
   -164.187  0.0000E+00  0.2000E+01
   -163.195  0.0000E+00  0.2000E+01
   -162.203  0.0000E+00  0.2000E+01
   -161.212  0.0000E+00  0.2000E+01
   -160.220  0.0000E+00  0.2000E+01
   -159.228  0.0000E+00  0.2000E+01
   -158.237  0.0000E+00  0.2000E+01
   -157.245  0.0000E+00  0.2000E+01
   -156.254  0.0000E+00  0.2000E+01
   -155.262  0.0000E+00  0.2000E+01
   -154.270  0.0000E+00  0.2000E+01
   -153.279  0.0000E+00  0.2000E+01
   -152.287  0.0000E+00  0.2000E+01
   -151.295  0.0000E+00  0.2000E+01
   -150.304  0.0000E+00  0.2000E+01
   -149.312  0.0000E+00  0.2000E+01
   -148.321  0.0000E+00  0.2000E+01
   -147.329  0.0000E+00  0.2000E+01
   -146.337  0.0000E+00  0.2000E+01
   -145.346  0.0000E+00  0.2000E+01
   -144.354  0.0000E+00  0.2000E+01
   -143.362  0.0000E+00  0.2000E+01
   -142.371  0.0000E+00  0.2000E+01
   -141.379  0.0000E+00  0.2000E+01
   -140.387  0.0000E+00  0.2000E+01
   -139.396  0.0000E+00  0.2037E+01
   -138.404  0.0000E+00  0.4000E+01
   -137.413  0.0000E+00  0.4000E+01
   -136.421  0.0000E+00  0.4000E+01
   -135.429  0.0000E+00  0.4000E+01
   -134.438  0.0000E+00  0.4000E+01
   -133.446  0.0000E+00  0.4000E+01
   -132.454  0.0000E+00  0.4000E+01
   -131.463  0.0000E+00  0.4000E+01
   -130.471  0.0000E+00  0.4000E+01
   -129.480  0.0000E+00  0.4000E+01
   -128.488  0.0000E+00  0.4000E+01
   -127.496  0.0000E+00  0.4000E+01
   -126.505  0.0000E+00  0.4000E+01
   -125.513  0.0000E+00  0.4000E+01
   -124.521  0.0000E+00  0.4000E+01
   -123.530  0.0000E+00  0.4000E+01
   -122.538  0.0000E+00  0.4000E+01
   -121.547  0.0000E+00  0.4000E+01
   -120.555  0.0000E+00  0.4000E+01
   -119.563  0.0000E+00  0.4000E+01
   -118.572  0.0000E+00  0.4000E+01
   -117.580  0.0000E+00  0.4000E+01
   -116.588  0.0000E+00  0.4000E+01
   -115.597  0.0000E+00  0.4000E+01
   -114.605  0.0000E+00  0.4000E+01
   -113.614  0.0000E+00  0.4000E+01
   -112.622  0.0000E+00  0.4000E+01
   -111.630  0.0000E+00  0.4000E+01
   -110.639  0.0000E+00  0.4000E+01
   -109.647  0.0000E+00  0.4000E+01
   -108.655  0.0000E+00  0.4000E+01
   -107.664  0.0000E+00  0.4000E+01
   -106.672  0.0000E+00  0.4000E+01
   -105.680  0.0000E+00  0.4000E+01
   -104.689  0.0000E+00  0.4000E+01
   -103.697  0.0000E+00  0.4000E+01
   -102.706  0.0000E+00  0.4000E+01
   -101.714  0.0000E+00  0.4000E+01
   -100.722  0.0000E+00  0.4000E+01
    -99.731  0.0000E+00  0.4000E+01
    -98.739  0.0000E+00  0.4000E+01
    -97.747  0.0000E+00  0.4000E+01
    -96.756  0.0000E+00  0.4000E+01
    -95.764  0.0000E+00  0.4000E+01
    -94.773  0.0000E+00  0.4000E+01
    -93.781  0.0000E+00  0.4000E+01
    -92.789  0.0000E+00  0.4000E+01
    -91.798  0.0000E+00  0.4000E+01
    -90.806  0.0000E+00  0.4000E+01
    -89.814  0.0000E+00  0.8000E+01
    -88.823  0.0000E+00  0.8000E+01
    -87.831  0.0000E+00  0.8000E+01
    -86.840  0.0000E+00  0.8000E+01
    -85.848  0.0000E+00  0.8000E+01
    -84.856  0.0000E+00  0.8000E+01
    -83.865  0.0000E+00  0.8000E+01
    -82.873  0.0000E+00  0.8000E+01
    -81.881  0.0000E+00  0.8000E+01
    -80.890  0.0000E+00  0.8000E+01
    -79.898  0.0000E+00  0.8000E+01
    -78.907  0.0000E+00  0.8000E+01
    -77.915  0.0000E+00  0.8000E+01
    -76.923  0.0000E+00  0.8000E+01
    -75.932  0.0000E+00  0.8000E+01
    -74.940  0.0000E+00  0.8000E+01
    -73.948  0.0000E+00  0.8000E+01
    -72.957  0.0000E+00  0.8000E+01
    -71.965  0.0000E+00  0.8000E+01
    -70.973  0.0000E+00  0.8000E+01
    -69.982  0.0000E+00  0.8000E+01
    -68.990  0.0000E+00  0.8000E+01
    -67.999  0.0000E+00  0.8000E+01
    -67.007  0.0000E+00  0.8000E+01
    -66.015  0.0000E+00  0.8000E+01
    -65.024  0.0000E+00  0.8000E+01
    -64.032  0.0000E+00  0.8000E+01
    -63.040  0.0000E+00  0.8000E+01
    -62.049  0.0000E+00  0.8000E+01
    -61.057  0.0000E+00  0.8000E+01
    -60.066  0.0000E+00  0.8000E+01
    -59.074  0.0000E+00  0.8000E+01
    -58.082  0.0000E+00  0.8000E+01
    -57.091  0.0000E+00  0.8000E+01
    -56.099  0.0000E+00  0.8000E+01
    -55.107  0.0000E+00  0.8000E+01
    -54.116  0.0000E+00  0.8000E+01
    -53.124  0.0000E+00  0.8000E+01
    -52.133  0.0000E+00  0.8000E+01
    -51.141  0.0000E+00  0.8000E+01
    -50.149  0.0000E+00  0.8000E+01
    -49.158  0.0000E+00  0.8000E+01
    -48.166  0.0000E+00  0.8000E+01
    -47.174  0.0000E+00  0.8000E+01
    -46.183  0.0000E+00  0.8000E+01
    -45.191  0.0000E+00  0.8000E+01
    -44.200  0.0000E+00  0.8000E+01
    -43.208  0.0000E+00  0.8000E+01
    -42.216  0.0000E+00  0.8000E+01
    -41.225  0.0000E+00  0.8000E+01
    -40.233  0.0000E+00  0.8000E+01
    -39.241  0.0000E+00  0.8000E+01
    -38.250  0.0000E+00  0.8000E+01
    -37.258  0.0000E+00  0.8000E+01
    -36.266  0.0000E+00  0.8000E+01
    -35.275  0.0000E+00  0.8000E+01
    -34.283  0.0000E+00  0.8000E+01
    -33.292  0.0000E+00  0.8000E+01
    -32.300  0.0000E+00  0.1200E+02
    -31.308  0.0000E+00  0.1200E+02
    -30.317  0.0000E+00  0.1200E+02
    -29.325  0.0000E+00  0.1200E+02
    -28.333  0.0000E+00  0.1200E+02
    -27.342  0.0000E+00  0.1200E+02
    -26.350  0.0000E+00  0.1200E+02
    -25.359  0.0000E+00  0.1800E+02
    -24.367  0.0000E+00  0.1800E+02
    -23.375  0.0000E+00  0.1800E+02
    -22.384  0.0000E+00  0.1800E+02
    -21.392  0.0000E+00  0.1800E+02
    -20.400  0.0000E+00  0.2000E+02
    -19.409  0.0000E+00  0.2000E+02
    -18.417  0.0000E+00  0.2000E+02
    -17.426  0.0000E+00  0.2000E+02
    -16.434  0.0000E+00  0.2000E+02
    -15.442  0.0000E+00  0.2000E+02
    -14.451  0.0000E+00  0.2000E+02
    -13.459  0.0000E+00  0.2000E+02
    -12.467  0.0000E+00  0.2000E+02
    -11.476  0.0000E+00  0.2000E+02
    -10.484  0.0000E+00  0.2000E+02
     -9.492  0.0000E+00  0.2000E+02
     -8.501  0.0000E+00  0.2000E+02
     -7.509  0.0000E+00  0.2000E+02
     -6.518  0.0000E+00  0.2000E+02
     -5.526  0.0000E+00  0.2000E+02
     -4.534  0.0000E+00  0.2000E+02
     -3.543  0.0000E+00  0.2145E+02
     -2.551  0.0000E+00  0.2200E+02
     -1.559  0.0000E+00  0.2200E+02
     -0.568  0.0000E+00  0.2200E+02
      0.424  0.0000E+00  0.2200E+02
      1.415  0.2568E-11  0.2353E+02
      2.407  0.0000E+00  0.2491E+02
      3.399  0.0000E+00  0.2591E+02
      4.390  0.0000E+00  0.2601E+02
      5.382  0.0000E+00  0.2601E+02
      6.374  0.0000E+00  0.2625E+02
      7.365  0.0000E+00  0.2733E+02
      8.357  0.0000E+00  0.2808E+02
      9.348  0.0000E+00  0.2958E+02
     10.340  0.0000E+00  0.3047E+02
     11.332  0.6307E-06  0.3255E+02
     12.323  0.2163E-03  0.3380E+02
     13.315  0.0000E+00  0.3578E+02
     14.307  0.5602E-01  0.3825E+02
     15.298  0.0000E+00  0.3935E+02
     16.290  0.2241E+00  0.4173E+02
     17.281  0.0000E+00  0.4358E+02
     18.273  0.0000E+00  0.4746E+02
     19.265  0.0000E+00  0.5136E+02
     20.256  0.4819E-02  0.5352E+02
     21.248  0.0000E+00  0.5441E+02
     22.240  0.0000E+00  0.5560E+02
     23.231  0.0000E+00  0.5706E+02
     24.223  0.0000E+00  0.6002E+02
     25.215  0.0000E+00  0.6384E+02
     26.206  0.0000E+00  0.6556E+02
     27.198  0.0000E+00  0.6777E+02
     28.189  0.0000E+00  0.6969E+02
     29.181  0.0000E+00  0.7129E+02
     30.173  0.0000E+00  0.7319E+02
     31.164  0.0000E+00  0.7644E+02
     32.156  0.0000E+00  0.7975E+02
     33.148  0.0000E+00  0.8183E+02
     34.139  0.0000E+00  0.8364E+02
     35.131  0.0000E+00  0.8724E+02
     36.122  0.0000E+00  0.9021E+02
     37.114  0.0000E+00  0.9191E+02
     38.106  0.0000E+00  0.9390E+02
     39.097  0.0000E+00  0.9712E+02
     40.089  0.0000E+00  0.9919E+02
     41.081  0.0000E+00  0.1027E+03
     42.072  0.0000E+00  0.1057E+03
     43.064  0.0000E+00  0.1079E+03
     44.055  0.2385E-01  0.1104E+03
     45.047  0.0000E+00  0.1137E+03
     46.039  0.1120E+00  0.1168E+03
     47.030  0.0000E+00  0.1194E+03
     48.022  0.3867E-01  0.1223E+03
     49.014  0.3462E-07  0.1246E+03
     50.005  0.1107E+00  0.1276E+03
     50.997  0.0000E+00  0.1280E+03
     51.988  0.0000E+00  0.1280E+03
     52.980  0.0000E+00  0.1280E+03
     53.972  0.0000E+00  0.1280E+03
     54.963  0.0000E+00  0.1280E+03
     55.955  0.0000E+00  0.1280E+03
     56.947  0.0000E+00  0.1280E+03
     57.938  0.0000E+00  0.1280E+03
     58.930  0.0000E+00  0.1280E+03
     59.922  0.0000E+00  0.1280E+03
     60.913  0.0000E+00  0.1280E+03
     61.905  0.0000E+00  0.1280E+03
     62.896  0.0000E+00  0.1280E+03
     63.888  0.0000E+00  0.1280E+03
