    1    1    1    1
  0.6008441E+02  0.4396350E-09  0.4396350E-09  0.4396350E-09  0.1000000E-15
  1.000000000000000E-004
  CAR 
 Og_FCC                                  
     26    216    128
 
  0.0000000E+00  0.0000000E+00  0.0000000E+00  0.4629630E-02
    1     -220.076198   1.000000
    2     -220.076165   1.000000
    3     -139.434322   1.000000
    4     -139.434302   1.000000
    5      -90.764784   1.000000
    6      -90.764768   1.000000
    7      -90.764627   1.000000
    8      -90.764612   1.000000
    9      -33.269480   1.000000
   10      -33.269427   1.000000
   11      -33.269310   1.000000
   12      -33.269258   1.000000
   13      -26.135057   1.000000
   14      -26.134378   1.000000
   15      -26.113620   1.000000
   16      -26.113233   1.000000
   17      -26.113040   1.000000
   18      -26.112652   1.000000
   19      -21.366060   1.000000
   20      -21.365400   1.000000
   21       -2.927732   1.000000
   22       -2.926514   1.000000
   23        3.676180   1.000000
   24        3.676506   1.000000
   25        3.766961   0.999563
   26        3.766994   0.999485
   27        3.771635   0.000515
   28        3.771668   0.000437
   29       10.742858   0.000000
   30       10.742966   0.000000
   31       10.743561   0.000000
   32       10.743670   0.000000
   33       11.214176   0.000000
   34       11.214695   0.000000
   35       11.223144   0.000000
   36       11.224482   0.000000
   37       13.322896   0.000000
   38       13.325403   0.000000
   39       13.508087   0.000000
   40       13.508359   0.000000
   41       13.509077   0.000000
   42       13.509350   0.000000
   43       14.052083   0.000000
   44       14.053429   0.000000
   45       14.054301   0.000000
   46       14.055647   0.000000
   47       16.312574   0.000000
   48       16.312869   0.000000
   49       19.957861   0.000000
   50       19.958152   0.000000
   51       19.958371   0.000000
   52       19.959310   0.000000
   53       19.959529   0.000000
   54       19.959821   0.000000
   55       24.317014   0.000000
   56       24.319005   0.000000
   57       25.654560   0.000000
   58       25.654771   0.000000
   59       25.656486   0.000000
   60       25.656697   0.000000
   61       25.789328   0.000000
   62       25.789964   0.000000
   63       28.003835   0.000000
   64       28.004473   0.000000
   65       28.772802   0.000000
   66       28.773667   0.000000
   67       28.773939   0.000000
   68       28.774806   0.000000
   69       29.300193   0.000000
   70       29.300735   0.000000
   71       29.590675   0.000000
   72       29.590938   0.000000
   73       29.591480   0.000000
   74       29.591744   0.000000
   75       30.028102   0.000000
   76       30.028413   0.000000
   77       30.889238   0.000000
   78       30.889337   0.000000
   79       30.890490   0.000000
   80       30.890588   0.000000
   81       36.989323   0.000000
   82       36.989966   0.000000
   83       36.990065   0.000000
   84       36.990322   0.000000
   85       36.990422   0.000000
   86       36.991065   0.000000
   87       37.952051   0.000000
   88       37.952325   0.000000
   89       37.953233   0.000000
   90       37.954690   0.000000
   91       37.955599   0.000000
   92       37.955873   0.000000
   93       39.282262   0.000000
   94       39.283806   0.000000
   95       40.293313   0.000000
   96       40.293537   0.000000
   97       40.293848   0.000000
   98       40.294071   0.000000
   99       40.552908   0.000000
  100       40.553558   0.000000
  101       41.594634   0.000000
  102       41.595216   0.000000
  103       41.657206   0.000000
  104       41.658283   0.000000
  105       41.659047   0.000000
  106       41.660119   0.000000
  107       42.457373   0.000000
  108       42.457858   0.000000
  109       42.458206   0.000000
  110       42.458691   0.000000
  111       42.909056   0.000000
  112       42.909244   0.000000
  113       42.910977   0.000000
  114       42.911165   0.000000
  115       42.935610   0.000000
  116       42.936087   0.000000
  117       42.936481   0.000000
  118       42.936957   0.000000
  119       43.183928   0.000000
  120       43.184505   0.000000
  121       44.255072   0.000000
  122       44.255729   0.000000
  123       44.894389   0.000000
  124       44.895684   0.000000
  125       45.152958   0.000000
  126       45.153201   0.000000
  127       45.154291   0.000000
  128       45.154534   0.000000
 
  0.1666667E+00 -0.4006644E-16 -0.6938894E-17  0.4629630E-02
    1     -220.058433   1.000000
    2     -220.058400   1.000000
    3     -139.159764   1.000000
    4     -139.159745   1.000000
    5      -90.744480   1.000000
    6      -90.744365   1.000000
    7      -90.706786   1.000000
    8      -90.706686   1.000000
    9      -33.258731   1.000000
   10      -33.258587   1.000000
   11      -33.240620   1.000000
   12      -33.240486   1.000000
   13      -26.112221   1.000000
   14      -26.112174   1.000000
   15      -26.080781   1.000000
   16      -26.080148   1.000000
   17      -26.073009   1.000000
   18      -26.072784   1.000000
   19      -21.346130   1.000000
   20      -21.345471   1.000000
   21       -3.115191   1.000000
   22       -3.114031   1.000000
   23        2.238546   1.000000
   24        2.240521   1.000000
   25        3.627319   1.000000
   26        3.630421   1.000000
   27        5.396703   0.000000
   28        5.397459   0.000000
   29        9.873505   0.000000
   30        9.874212   0.000000
   31       10.899676   0.000000
   32       10.900002   0.000000
   33       11.334708   0.000000
   34       11.335083   0.000000
   35       12.221750   0.000000
   36       12.222579   0.000000
   37       12.413276   0.000000
   38       12.414965   0.000000
   39       12.599744   0.000000
   40       12.601131   0.000000
   41       13.711521   0.000000
   42       13.712531   0.000000
   43       15.707470   0.000000
   44       15.709157   0.000000
   45       15.784721   0.000000
   46       15.786419   0.000000
   47       18.012655   0.000000
   48       18.013088   0.000000
   49       19.525823   0.000000
   50       19.527028   0.000000
   51       19.631654   0.000000
   52       19.632979   0.000000
   53       20.022788   0.000000
   54       20.024110   0.000000
   55       22.589365   0.000000
   56       22.589884   0.000000
   57       24.669020   0.000000
   58       24.669665   0.000000
   59       25.119826   0.000000
   60       25.121109   0.000000
   61       25.416754   0.000000
   62       25.417728   0.000000
   63       26.670458   0.000000
   64       26.671422   0.000000
   65       27.443863   0.000000
   66       27.444172   0.000000
   67       28.024344   0.000000
   68       28.024955   0.000000
   69       29.451729   0.000000
   70       29.453172   0.000000
   71       29.907899   0.000000
   72       29.908758   0.000000
   73       30.072599   0.000000
   74       30.073428   0.000000
   75       30.668152   0.000000
   76       30.668221   0.000000
   77       32.198145   0.000000
   78       32.199390   0.000000
   79       34.864755   0.000000
   80       34.865512   0.000000
   81       35.067634   0.000000
   82       35.068554   0.000000
   83       35.779990   0.000000
   84       35.780355   0.000000
   85       35.869259   0.000000
   86       35.870064   0.000000
   87       36.035281   0.000000
   88       36.035661   0.000000
   89       37.583378   0.000000
   90       37.583628   0.000000
   91       38.238486   0.000000
   92       38.240002   0.000000
   93       38.608058   0.000000
   94       38.608852   0.000000
   95       38.651182   0.000000
   96       38.651970   0.000000
   97       38.779403   0.000000
   98       38.779780   0.000000
   99       39.639194   0.000000
  100       39.639537   0.000000
  101       39.663396   0.000000
  102       39.663784   0.000000
  103       40.590934   0.000000
  104       40.591705   0.000000
  105       40.592352   0.000000
  106       40.592871   0.000000
  107       41.575837   0.000000
  108       41.576279   0.000000
  109       42.110036   0.000000
  110       42.110962   0.000000
  111       42.378338   0.000000
  112       42.378861   0.000000
  113       43.418930   0.000000
  114       43.419472   0.000000
  115       43.882611   0.000000
  116       43.883276   0.000000
  117       43.980570   0.000000
  118       43.981439   0.000000
  119       44.055450   0.000000
  120       44.056272   0.000000
  121       45.264719   0.000000
  122       45.265464   0.000000
  123       46.287390   0.000000
  124       46.287842   0.000000
  125       46.533568   0.000000
  126       46.534153   0.000000
  127       47.578178   0.000000
  128       47.578471   0.000000
 
  0.3333333E+00 -0.2462172E-16  0.4163336E-16  0.4629630E-02
    1     -220.036739   1.000000
    2     -220.036706   1.000000
    3     -138.834890   1.000000
    4     -138.834872   1.000000
    5      -90.691253   1.000000
    6      -90.691153   1.000000
    7      -90.663280   1.000000
    8      -90.663166   1.000000
    9      -33.231553   1.000000
   10      -33.231419   1.000000
   11      -33.218207   1.000000
   12      -33.218062   1.000000
   13      -26.063083   1.000000
   14      -26.062943   1.000000
   15      -26.048958   1.000000
   16      -26.048325   1.000000
   17      -26.037574   1.000000
   18      -26.037343   1.000000
   19      -21.305765   1.000000
   20      -21.305107   1.000000
   21       -3.484139   1.000000
   22       -3.483103   1.000000
   23        1.337147   1.000000
   24        1.339248   1.000000
   25        3.377322   1.000000
   26        3.380223   1.000000
   27        6.153675   0.000000
   28        6.154185   0.000000
   29       10.502461   0.000000
   30       10.502812   0.000000
   31       10.707515   0.000000
   32       10.708265   0.000000
   33       10.992516   0.000000
   34       10.993740   0.000000
   35       11.357962   0.000000
   36       11.358655   0.000000
   37       13.212707   0.000000
   38       13.213279   0.000000
   39       13.441952   0.000000
   40       13.442905   0.000000
   41       16.637780   0.000000
   42       16.639032   0.000000
   43       17.557716   0.000000
   44       17.559256   0.000000
   45       17.670800   0.000000
   46       17.672690   0.000000
   47       17.926312   0.000000
   48       17.927685   0.000000
   49       18.331703   0.000000
   50       18.332984   0.000000
   51       18.770456   0.000000
   52       18.771981   0.000000
   53       20.234923   0.000000
   54       20.236275   0.000000
   55       21.038787   0.000000
   56       21.039375   0.000000
   57       24.179237   0.000000
   58       24.180029   0.000000
   59       24.721979   0.000000
   60       24.722996   0.000000
   61       24.814985   0.000000
   62       24.815966   0.000000
   63       26.185652   0.000000
   64       26.186229   0.000000
   65       26.532384   0.000000
   66       26.532956   0.000000
   67       27.011816   0.000000
   68       27.012327   0.000000
   69       29.612470   0.000000
   70       29.612924   0.000000
   71       30.205434   0.000000
   72       30.206987   0.000000
   73       30.782416   0.000000
   74       30.783442   0.000000
   75       31.102616   0.000000
   76       31.103421   0.000000
   77       31.234021   0.000000
   78       31.235209   0.000000
   79       31.416668   0.000000
   80       31.417644   0.000000
   81       33.177160   0.000000
   82       33.177954   0.000000
   83       33.359849   0.000000
   84       33.360183   0.000000
   85       34.433065   0.000000
   86       34.434081   0.000000
   87       34.883450   0.000000
   88       34.884732   0.000000
   89       35.275458   0.000000
   90       35.275782   0.000000
   91       35.693806   0.000000
   92       35.694763   0.000000
   93       38.532047   0.000000
   94       38.533189   0.000000
   95       38.557934   0.000000
   96       38.558842   0.000000
   97       39.515334   0.000000
   98       39.515841   0.000000
   99       39.645050   0.000000
  100       39.645288   0.000000
  101       40.036528   0.000000
  102       40.036777   0.000000
  103       41.370364   0.000000
  104       41.370934   0.000000
  105       41.924022   0.000000
  106       41.924534   0.000000
  107       42.134071   0.000000
  108       42.134791   0.000000
  109       42.907406   0.000000
  110       42.908320   0.000000
  111       43.559184   0.000000
  112       43.559884   0.000000
  113       44.069659   0.000000
  114       44.070062   0.000000
  115       44.969632   0.000000
  116       44.969825   0.000000
  117       45.299544   0.000000
  118       45.300144   0.000000
  119       45.692033   0.000000
  120       45.693057   0.000000
  121       46.013484   0.000000
  122       46.014080   0.000000
  123       48.542885   0.000000
  124       48.543395   0.000000
  125       50.322330   0.000000
  126       50.322774   0.000000
  127       50.365099   0.000000
  128       50.365661   0.000000
 
  0.5000000E+00 -0.2305480E-16  0.5551115E-16  0.4629630E-02
    1     -220.067386   1.000000
    2     -220.067353   1.000000
    3     -139.304410   1.000000
    4     -139.304392   1.000000
    5      -90.749601   1.000000
    6      -90.749500   1.000000
    7      -90.742590   1.000000
    8      -90.742475   1.000000
    9      -33.260996   1.000000
   10      -33.260862   1.000000
   11      -33.256286   1.000000
   12      -33.256142   1.000000
   13      -26.105875   1.000000
   14      -26.105423   1.000000
   15      -26.101594   1.000000
   16      -26.100962   1.000000
   17      -26.100635   1.000000
   18      -26.099972   1.000000
   19      -21.285471   1.000000
   20      -21.284813   1.000000
   21       -3.670173   1.000000
   22       -3.669200   1.000000
   23        1.042376   1.000000
   24        1.044483   1.000000
   25        3.255934   1.000000
   26        3.258753   1.000000
   27        6.178769   0.000000
   28        6.179405   0.000000
   29       10.230151   0.000000
   30       10.230638   0.000000
   31       10.685684   0.000000
   32       10.687075   0.000000
   33       10.760475   0.000000
   34       10.761184   0.000000
   35       12.722740   0.000000
   36       12.723259   0.000000
   37       14.544135   0.000000
   38       14.544407   0.000000
   39       14.642871   0.000000
   40       14.643567   0.000000
   41       15.609160   0.000000
   42       15.609703   0.000000
   43       16.640867   0.000000
   44       16.641517   0.000000
   45       16.826638   0.000000
   46       16.828298   0.000000
   47       18.463722   0.000000
   48       18.465259   0.000000
   49       18.721179   0.000000
   50       18.723288   0.000000
   51       18.769253   0.000000
   52       18.771169   0.000000
   53       20.256814   0.000000
   54       20.258177   0.000000
   55       23.397723   0.000000
   56       23.398783   0.000000
   57       23.400598   0.000000
   58       23.401339   0.000000
   59       24.979151   0.000000
   60       24.979732   0.000000
   61       25.013612   0.000000
   62       25.014233   0.000000
   63       25.294537   0.000000
   64       25.295057   0.000000
   65       26.583265   0.000000
   66       26.583969   0.000000
   67       26.728197   0.000000
   68       26.728620   0.000000
   69       27.884804   0.000000
   70       27.885347   0.000000
   71       29.213163   0.000000
   72       29.214047   0.000000
   73       30.206426   0.000000
   74       30.207368   0.000000
   75       30.347385   0.000000
   76       30.347721   0.000000
   77       30.837389   0.000000
   78       30.838926   0.000000
   79       31.594923   0.000000
   80       31.595380   0.000000
   81       31.741966   0.000000
   82       31.742851   0.000000
   83       32.570014   0.000000
   84       32.570820   0.000000
   85       33.334367   0.000000
   86       33.335526   0.000000
   87       33.435231   0.000000
   88       33.436655   0.000000
   89       35.304650   0.000000
   90       35.304886   0.000000
   91       35.843751   0.000000
   92       35.844573   0.000000
   93       38.687912   0.000000
   94       38.688954   0.000000
   95       38.723012   0.000000
   96       38.724496   0.000000
   97       38.891666   0.000000
   98       38.891948   0.000000
   99       39.316159   0.000000
  100       39.317101   0.000000
  101       39.606864   0.000000
  102       39.607208   0.000000
  103       41.205058   0.000000
  104       41.205377   0.000000
  105       42.081859   0.000000
  106       42.082004   0.000000
  107       43.608196   0.000000
  108       43.608401   0.000000
  109       44.687252   0.000000
  110       44.687938   0.000000
  111       45.221866   0.000000
  112       45.222371   0.000000
  113       45.347076   0.000000
  114       45.347778   0.000000
  115       45.603799   0.000000
  116       45.604470   0.000000
  117       46.572511   0.000000
  118       46.572985   0.000000
  119       48.950458   0.000000
  120       48.951229   0.000000
  121       49.065700   0.000000
  122       49.066400   0.000000
  123       49.226895   0.000000
  124       49.227376   0.000000
  125       49.811289   0.000000
  126       49.812366   0.000000
  127       50.240847   0.000000
  128       50.241229   0.000000
 
 -0.3333333E+00  0.2462172E-16 -0.4163336E-16  0.4629630E-02
    1     -220.036739   1.000000
    2     -220.036706   1.000000
    3     -138.834890   1.000000
    4     -138.834872   1.000000
    5      -90.691253   1.000000
    6      -90.691153   1.000000
    7      -90.663280   1.000000
    8      -90.663166   1.000000
    9      -33.231553   1.000000
   10      -33.231419   1.000000
   11      -33.218207   1.000000
   12      -33.218062   1.000000
   13      -26.063083   1.000000
   14      -26.062943   1.000000
   15      -26.048958   1.000000
   16      -26.048325   1.000000
   17      -26.037574   1.000000
   18      -26.037343   1.000000
   19      -21.305765   1.000000
   20      -21.305107   1.000000
   21       -3.484139   1.000000
   22       -3.483103   1.000000
   23        1.337147   1.000000
   24        1.339248   1.000000
   25        3.377322   1.000000
   26        3.380223   1.000000
   27        6.153675   0.000000
   28        6.154185   0.000000
   29       10.502461   0.000000
   30       10.502812   0.000000
   31       10.707515   0.000000
   32       10.708265   0.000000
   33       10.992516   0.000000
   34       10.993740   0.000000
   35       11.357962   0.000000
   36       11.358655   0.000000
   37       13.212708   0.000000
   38       13.213279   0.000000
   39       13.441952   0.000000
   40       13.442905   0.000000
   41       16.637780   0.000000
   42       16.639032   0.000000
   43       17.557716   0.000000
   44       17.559256   0.000000
   45       17.670800   0.000000
   46       17.672690   0.000000
   47       17.926312   0.000000
   48       17.927685   0.000000
   49       18.331703   0.000000
   50       18.332984   0.000000
   51       18.770456   0.000000
   52       18.771981   0.000000
   53       20.234923   0.000000
   54       20.236275   0.000000
   55       21.038787   0.000000
   56       21.039375   0.000000
   57       24.179237   0.000000
   58       24.180029   0.000000
   59       24.721979   0.000000
   60       24.722996   0.000000
   61       24.814985   0.000000
   62       24.815966   0.000000
   63       26.185652   0.000000
   64       26.186229   0.000000
   65       26.532384   0.000000
   66       26.532956   0.000000
   67       27.011816   0.000000
   68       27.012327   0.000000
   69       29.612470   0.000000
   70       29.612924   0.000000
   71       30.205434   0.000000
   72       30.206987   0.000000
   73       30.782416   0.000000
   74       30.783442   0.000000
   75       31.102616   0.000000
   76       31.103421   0.000000
   77       31.234021   0.000000
   78       31.235209   0.000000
   79       31.416668   0.000000
   80       31.417644   0.000000
   81       33.177160   0.000000
   82       33.177954   0.000000
   83       33.359849   0.000000
   84       33.360183   0.000000
   85       34.433065   0.000000
   86       34.434081   0.000000
   87       34.883450   0.000000
   88       34.884732   0.000000
   89       35.275458   0.000000
   90       35.275782   0.000000
   91       35.693806   0.000000
   92       35.694763   0.000000
   93       38.532047   0.000000
   94       38.533189   0.000000
   95       38.557934   0.000000
   96       38.558842   0.000000
   97       39.515334   0.000000
   98       39.515841   0.000000
   99       39.645050   0.000000
  100       39.645288   0.000000
  101       40.036528   0.000000
  102       40.036777   0.000000
  103       41.370364   0.000000
  104       41.370933   0.000000
  105       41.924022   0.000000
  106       41.924534   0.000000
  107       42.134071   0.000000
  108       42.134791   0.000000
  109       42.907406   0.000000
  110       42.908320   0.000000
  111       43.559184   0.000000
  112       43.559884   0.000000
  113       44.069659   0.000000
  114       44.070062   0.000000
  115       44.969632   0.000000
  116       44.969825   0.000000
  117       45.299544   0.000000
  118       45.300144   0.000000
  119       45.692033   0.000000
  120       45.693057   0.000000
  121       46.013484   0.000000
  122       46.014080   0.000000
  123       48.542885   0.000000
  124       48.543395   0.000000
  125       50.322330   0.000000
  126       50.322774   0.000000
  127       50.365099   0.000000
  128       50.365661   0.000000
 
 -0.1666667E+00  0.4006644E-16  0.6938894E-17  0.4629630E-02
    1     -220.058433   1.000000
    2     -220.058400   1.000000
    3     -139.159764   1.000000
    4     -139.159745   1.000000
    5      -90.744480   1.000000
    6      -90.744365   1.000000
    7      -90.706786   1.000000
    8      -90.706686   1.000000
    9      -33.258731   1.000000
   10      -33.258587   1.000000
   11      -33.240620   1.000000
   12      -33.240486   1.000000
   13      -26.112221   1.000000
   14      -26.112174   1.000000
   15      -26.080781   1.000000
   16      -26.080148   1.000000
   17      -26.073009   1.000000
   18      -26.072784   1.000000
   19      -21.346130   1.000000
   20      -21.345471   1.000000
   21       -3.115191   1.000000
   22       -3.114031   1.000000
   23        2.238546   1.000000
   24        2.240521   1.000000
   25        3.627319   1.000000
   26        3.630421   1.000000
   27        5.396703   0.000000
   28        5.397459   0.000000
   29        9.873505   0.000000
   30        9.874212   0.000000
   31       10.899676   0.000000
   32       10.900002   0.000000
   33       11.334708   0.000000
   34       11.335083   0.000000
   35       12.221750   0.000000
   36       12.222579   0.000000
   37       12.413276   0.000000
   38       12.414965   0.000000
   39       12.599744   0.000000
   40       12.601131   0.000000
   41       13.711520   0.000000
   42       13.712531   0.000000
   43       15.707470   0.000000
   44       15.709157   0.000000
   45       15.784721   0.000000
   46       15.786419   0.000000
   47       18.012655   0.000000
   48       18.013088   0.000000
   49       19.525823   0.000000
   50       19.527028   0.000000
   51       19.631654   0.000000
   52       19.632979   0.000000
   53       20.022788   0.000000
   54       20.024110   0.000000
   55       22.589365   0.000000
   56       22.589884   0.000000
   57       24.669020   0.000000
   58       24.669664   0.000000
   59       25.119826   0.000000
   60       25.121109   0.000000
   61       25.416754   0.000000
   62       25.417728   0.000000
   63       26.670458   0.000000
   64       26.671422   0.000000
   65       27.443863   0.000000
   66       27.444172   0.000000
   67       28.024344   0.000000
   68       28.024955   0.000000
   69       29.451729   0.000000
   70       29.453172   0.000000
   71       29.907899   0.000000
   72       29.908758   0.000000
   73       30.072599   0.000000
   74       30.073428   0.000000
   75       30.668152   0.000000
   76       30.668221   0.000000
   77       32.198145   0.000000
   78       32.199390   0.000000
   79       34.864755   0.000000
   80       34.865512   0.000000
   81       35.067634   0.000000
   82       35.068554   0.000000
   83       35.779990   0.000000
   84       35.780355   0.000000
   85       35.869259   0.000000
   86       35.870064   0.000000
   87       36.035281   0.000000
   88       36.035661   0.000000
   89       37.583378   0.000000
   90       37.583628   0.000000
   91       38.238486   0.000000
   92       38.240002   0.000000
   93       38.608058   0.000000
   94       38.608852   0.000000
   95       38.651182   0.000000
   96       38.651970   0.000000
   97       38.779403   0.000000
   98       38.779780   0.000000
   99       39.639194   0.000000
  100       39.639537   0.000000
  101       39.663396   0.000000
  102       39.663784   0.000000
  103       40.590934   0.000000
  104       40.591705   0.000000
  105       40.592352   0.000000
  106       40.592871   0.000000
  107       41.575837   0.000000
  108       41.576279   0.000000
  109       42.110036   0.000000
  110       42.110962   0.000000
  111       42.378338   0.000000
  112       42.378861   0.000000
  113       43.418930   0.000000
  114       43.419472   0.000000
  115       43.882611   0.000000
  116       43.883275   0.000000
  117       43.980570   0.000000
  118       43.981439   0.000000
  119       44.055450   0.000000
  120       44.056272   0.000000
  121       45.264719   0.000000
  122       45.265464   0.000000
  123       46.287390   0.000000
  124       46.287842   0.000000
  125       46.533568   0.000000
  126       46.534153   0.000000
  127       47.578178   0.000000
  128       47.578471   0.000000
 
 -0.1925930E-33  0.1666667E+00  0.0000000E+00  0.4629630E-02
    1     -220.058433   1.000000
    2     -220.058400   1.000000
    3     -139.159764   1.000000
    4     -139.159745   1.000000
    5      -90.744447   1.000000
    6      -90.744399   1.000000
    7      -90.706746   1.000000
    8      -90.706725   1.000000
    9      -33.258670   1.000000
   10      -33.258648   1.000000
   11      -33.240608   1.000000
   12      -33.240497   1.000000
   13      -26.112217   1.000000
   14      -26.112179   1.000000
   15      -26.080549   1.000000
   16      -26.080384   1.000000
   17      -26.072922   1.000000
   18      -26.072865   1.000000
   19      -21.346131   1.000000
   20      -21.345471   1.000000
   21       -3.115204   1.000000
   22       -3.114019   1.000000
   23        2.239190   1.000000
   24        2.239875   1.000000
   25        3.628359   1.000000
   26        3.629382   1.000000
   27        5.396922   0.000000
   28        5.397241   0.000000
   29        9.873766   0.000000
   30        9.873952   0.000000
   31       10.899799   0.000000
   32       10.899878   0.000000
   33       11.334582   0.000000
   34       11.335209   0.000000
   35       12.221674   0.000000
   36       12.222655   0.000000
   37       12.413254   0.000000
   38       12.414987   0.000000
   39       12.600240   0.000000
   40       12.600637   0.000000
   41       13.711888   0.000000
   42       13.712163   0.000000
   43       15.707221   0.000000
   44       15.709401   0.000000
   45       15.785339   0.000000
   46       15.785807   0.000000
   47       18.012654   0.000000
   48       18.013088   0.000000
   49       19.526025   0.000000
   50       19.526823   0.000000
   51       19.632111   0.000000
   52       19.632525   0.000000
   53       20.022730   0.000000
   54       20.024169   0.000000
   55       22.589240   0.000000
   56       22.590008   0.000000
   57       24.668805   0.000000
   58       24.669878   0.000000
   59       25.120281   0.000000
   60       25.120654   0.000000
   61       25.417066   0.000000
   62       25.417416   0.000000
   63       26.670422   0.000000
   64       26.671458   0.000000
   65       27.443869   0.000000
   66       27.444166   0.000000
   67       28.024496   0.000000
   68       28.024804   0.000000
   69       29.452175   0.000000
   70       29.452726   0.000000
   71       29.907757   0.000000
   72       29.908903   0.000000
   73       30.072496   0.000000
   74       30.073529   0.000000
   75       30.668064   0.000000
   76       30.668309   0.000000
   77       32.198565   0.000000
   78       32.198969   0.000000
   79       34.864934   0.000000
   80       34.865333   0.000000
   81       35.067558   0.000000
   82       35.068629   0.000000
   83       35.780064   0.000000
   84       35.780279   0.000000
   85       35.869474   0.000000
   86       35.869850   0.000000
   87       36.035362   0.000000
   88       36.035580   0.000000
   89       37.583195   0.000000
   90       37.583811   0.000000
   91       38.239040   0.000000
   92       38.239449   0.000000
   93       38.608047   0.000000
   94       38.608858   0.000000
   95       38.651453   0.000000
   96       38.651702   0.000000
   97       38.779329   0.000000
   98       38.779855   0.000000
   99       39.639321   0.000000
  100       39.639407   0.000000
  101       39.663310   0.000000
  102       39.663874   0.000000
  103       40.590950   0.000000
  104       40.591692   0.000000
  105       40.592449   0.000000
  106       40.592770   0.000000
  107       41.575981   0.000000
  108       41.576136   0.000000
  109       42.109924   0.000000
  110       42.111073   0.000000
  111       42.378282   0.000000
  112       42.378917   0.000000
  113       43.418839   0.000000
  114       43.419563   0.000000
  115       43.882543   0.000000
  116       43.883343   0.000000
  117       43.980880   0.000000
  118       43.981129   0.000000
  119       44.055383   0.000000
  120       44.056339   0.000000
  121       45.264912   0.000000