       N       E                     dE             d eps       ncg     rms          rms(c)
DIA:   1    -0.163855659861E+02   -0.16386E+02    0.00000E+00     0   0.000E+00
DIA:   2    -0.163855659861E+02    0.90949E-11    0.00000E+00     0   0.000E+00
DIA:   3    -0.163855659861E+02    0.54570E-11    0.00000E+00     0   0.000E+00
DIA:   4    -0.163855659861E+02    0.15461E-10    0.00000E+00     0   0.000E+00
DIA:   5    -0.163855659861E+02   -0.25466E-10    0.00000E+00     0   0.000E+00    0.100E-04
DIA:   6    -0.163855659855E+02    0.63483E-09    0.00000E+00     0   0.000E+00
   1 F= -.16809048E+02 E0= -.16809048E+02  d E =-.222439E-07  mag=     0.0017     0.0003     0.0001
 imaginary and real dielectric function
