   1   1   0   0
  0.6532254E+02  0.4520565E-09  0.4520565E-09  0.4520565E-09  0.1000000E-15
  1.000000000000000E-004
  CAR 
 Og_FCC                                  
     55.34714729    -49.72526662  301     -1.65463726      1.00000000
    -49.725  0.0000E+00  0.0000E+00
    -49.375  0.0000E+00  0.0000E+00
    -49.025  0.0000E+00  0.0000E+00
    -48.675  0.0000E+00  0.0000E+00
    -48.324  0.0000E+00  0.0000E+00
    -47.974  0.0000E+00  0.0000E+00
    -47.624  0.0000E+00  0.0000E+00
    -47.274  0.0000E+00  0.0000E+00
    -46.923  0.0000E+00  0.0000E+00
    -46.573  0.0000E+00  0.0000E+00
    -46.223  0.0000E+00  0.0000E+00
    -45.873  0.0000E+00  0.0000E+00
    -45.522  0.0000E+00  0.0000E+00
    -45.172  0.0000E+00  0.0000E+00
    -44.822  0.0000E+00  0.4000E+01
    -44.472  0.0000E+00  0.4000E+01
    -44.121  0.0000E+00  0.4000E+01
    -43.771  0.0000E+00  0.4000E+01
    -43.421  0.0000E+00  0.4000E+01
    -43.071  0.0000E+00  0.4000E+01
    -42.720  0.0000E+00  0.4000E+01
    -42.370  0.0000E+00  0.4000E+01
    -42.020  0.0000E+00  0.4000E+01
    -41.670  0.0000E+00  0.4000E+01
    -41.319  0.0000E+00  0.4000E+01
    -40.969  0.0000E+00  0.4000E+01
    -40.619  0.0000E+00  0.4000E+01
    -40.269  0.0000E+00  0.1000E+02
    -39.919  0.0000E+00  0.1000E+02
    -39.568  0.0000E+00  0.1000E+02
    -39.218  0.0000E+00  0.1000E+02
    -38.868  0.0000E+00  0.1000E+02
    -38.518  0.0000E+00  0.1000E+02
    -38.167  0.0000E+00  0.1000E+02
    -37.817  0.0000E+00  0.1000E+02
    -37.467  0.0000E+00  0.1000E+02
    -37.117  0.0000E+00  0.1000E+02
    -36.766  0.0000E+00  0.1000E+02
    -36.416  0.0000E+00  0.1000E+02
    -36.066  0.0000E+00  0.1000E+02
    -35.716  0.0000E+00  0.1000E+02
    -35.365  0.0000E+00  0.1000E+02
    -35.015  0.0000E+00  0.1000E+02
    -34.665  0.0000E+00  0.1000E+02
    -34.315  0.0000E+00  0.1000E+02
    -33.964  0.0000E+00  0.1000E+02
    -33.614  0.0000E+00  0.1000E+02
    -33.264  0.0000E+00  0.1000E+02
    -32.914  0.0000E+00  0.1000E+02
    -32.563  0.0000E+00  0.1000E+02
    -32.213  0.0000E+00  0.1000E+02
    -31.863  0.0000E+00  0.1000E+02
    -31.513  0.0000E+00  0.1000E+02
    -31.162  0.0000E+00  0.1000E+02
    -30.812  0.0000E+00  0.1000E+02
    -30.462  0.0000E+00  0.1000E+02
    -30.112  0.0000E+00  0.1000E+02
    -29.762  0.0000E+00  0.1000E+02
    -29.411  0.0000E+00  0.1000E+02
    -29.061  0.0000E+00  0.1000E+02
    -28.711  0.0000E+00  0.1000E+02
    -28.361  0.0000E+00  0.1000E+02
    -28.010  0.0000E+00  0.1000E+02
    -27.660  0.0000E+00  0.1000E+02
    -27.310  0.0000E+00  0.1000E+02
    -26.960  0.0000E+00  0.1000E+02
    -26.609  0.0000E+00  0.1000E+02
    -26.259  0.0000E+00  0.1000E+02
    -25.909  0.0000E+00  0.1000E+02
    -25.559  0.0000E+00  0.1000E+02
    -25.208  0.0000E+00  0.1000E+02
    -24.858  0.0000E+00  0.1000E+02
    -24.508  0.0000E+00  0.1000E+02
    -24.158  0.0000E+00  0.1000E+02
    -23.807  0.0000E+00  0.1000E+02
    -23.457  0.0000E+00  0.1000E+02
    -23.107  0.0000E+00  0.1000E+02
    -22.757  0.0000E+00  0.1000E+02
    -22.406  0.0000E+00  0.1000E+02
    -22.056  0.0000E+00  0.1000E+02
    -21.706  0.0000E+00  0.1000E+02
    -21.356  0.0000E+00  0.1000E+02
    -21.005  0.0000E+00  0.1000E+02
    -20.655  0.0000E+00  0.1000E+02
    -20.305  0.0000E+00  0.1000E+02
    -19.955  0.0000E+00  0.1000E+02
    -19.605  0.0000E+00  0.1000E+02
    -19.254  0.0000E+00  0.1000E+02
    -18.904  0.0000E+00  0.1000E+02
    -18.554  0.0000E+00  0.1000E+02
    -18.204  0.0000E+00  0.1000E+02
    -17.853  0.0000E+00  0.1200E+02
    -17.503  0.0000E+00  0.1200E+02
    -17.153  0.0000E+00  0.1200E+02
    -16.803  0.0000E+00  0.1200E+02
    -16.452  0.0000E+00  0.1200E+02
    -16.102  0.0000E+00  0.1200E+02
    -15.752  0.0000E+00  0.1200E+02
    -15.402  0.0000E+00  0.1200E+02
    -15.051  0.0000E+00  0.1200E+02
    -14.701  0.0000E+00  0.1200E+02
    -14.351  0.0000E+00  0.1200E+02
    -14.001  0.0000E+00  0.1200E+02
    -13.650  0.0000E+00  0.1200E+02
    -13.300  0.0000E+00  0.1200E+02
    -12.950  0.0000E+00  0.1200E+02
    -12.600  0.0000E+00  0.1200E+02
    -12.249  0.0000E+00  0.1200E+02
    -11.899  0.0000E+00  0.1200E+02
    -11.549  0.0000E+00  0.1200E+02
    -11.199  0.0000E+00  0.1200E+02
    -10.848  0.0000E+00  0.1200E+02
    -10.498  0.0000E+00  0.1200E+02
    -10.148  0.0000E+00  0.1200E+02
     -9.798  0.0000E+00  0.1200E+02
     -9.448  0.0000E+00  0.1200E+02
     -9.097  0.0000E+00  0.1200E+02
     -8.747  0.0000E+00  0.1200E+02
     -8.397  0.0000E+00  0.1200E+02
     -8.047  0.0000E+00  0.1200E+02
     -7.696  0.0000E+00  0.1200E+02
     -7.346  0.0000E+00  0.1200E+02
     -6.996  0.0000E+00  0.1200E+02
     -6.646  0.0000E+00  0.1200E+02
     -6.295  0.0000E+00  0.1200E+02
     -5.945  0.0000E+00  0.1353E+02
     -5.595  0.0000E+00  0.1399E+02
     -5.245  0.0000E+00  0.1400E+02
     -4.894  0.0000E+00  0.1400E+02
     -4.544  0.0000E+00  0.1400E+02
     -4.194  0.0000E+00  0.1400E+02
     -3.844  0.0000E+00  0.1400E+02
     -3.493  0.0000E+00  0.1400E+02
     -3.143  0.1955E-01  0.1496E+02
     -2.793  0.0000E+00  0.1575E+02
     -2.443  0.0000E+00  0.1678E+02
     -2.092  0.0000E+00  0.1763E+02
     -1.742  0.0000E+00  0.1800E+02
     -1.392  0.0000E+00  0.1800E+02
     -1.042  0.0000E+00  0.1800E+02
     -0.691  0.0000E+00  0.1800E+02
     -0.341  0.0000E+00  0.1800E+02
      0.009  0.0000E+00  0.1800E+02
      0.359  0.0000E+00  0.1800E+02
      0.709  0.0000E+00  0.1800E+02
      1.060  0.0000E+00  0.1800E+02
      1.410  0.0000E+00  0.1800E+02
      1.760  0.0000E+00  0.1800E+02
      2.110  0.0000E+00  0.1800E+02
      2.461  0.0000E+00  0.1800E+02
      2.811  0.0000E+00  0.1801E+02
      3.161  0.0000E+00  0.1801E+02
      3.511  0.0000E+00  0.1808E+02
      3.862  0.0000E+00  0.1814E+02
      4.212  0.8916E-03  0.1814E+02
      4.562  0.0000E+00  0.1839E+02
      4.912  0.0000E+00  0.1889E+02
      5.263  0.0000E+00  0.1944E+02
      5.613  0.0000E+00  0.1981E+02
      5.963  0.0000E+00  0.2031E+02
      6.313  0.0000E+00  0.2064E+02
      6.664  0.0000E+00  0.2164E+02
      7.014  0.0000E+00  0.2203E+02
      7.364  0.0000E+00  0.2240E+02
      7.714  0.0000E+00  0.2303E+02
      8.065  0.0000E+00  0.2362E+02
      8.415  0.0000E+00  0.2461E+02
      8.765  0.0000E+00  0.2550E+02
      9.115  0.0000E+00  0.2561E+02
      9.466  0.0000E+00  0.2586E+02
      9.816  0.0000E+00  0.2631E+02
     10.166  0.0000E+00  0.2674E+02
     10.516  0.0000E+00  0.2763E+02
     10.866  0.3172E+00  0.2820E+02
     11.217  0.0000E+00  0.2843E+02
     11.567  0.0000E+00  0.2912E+02
     11.917  0.7931E-01  0.2969E+02
     12.267  0.0000E+00  0.3058E+02
     12.618  0.1057E+00  0.3099E+02
     12.968  0.0000E+00  0.3144E+02
     13.318  0.0000E+00  0.3251E+02
     13.668  0.0000E+00  0.3394E+02
     14.019  0.0000E+00  0.3454E+02
     14.369  0.0000E+00  0.3493E+02
     14.719  0.0000E+00  0.3547E+02
     15.069  0.0000E+00  0.3575E+02
     15.420  0.0000E+00  0.3616E+02
     15.770  0.8389E+00  0.3736E+02
     16.120  0.0000E+00  0.3869E+02
     16.470  0.0000E+00  0.4019E+02
     16.821  0.0000E+00  0.4189E+02
     17.171  0.7931E-01  0.4284E+02
     17.521  0.0000E+00  0.4343E+02
     17.871  0.3172E+00  0.4428E+02
     18.222  0.0000E+00  0.4465E+02
     18.572  0.6345E+00  0.4548E+02
     18.922  0.0000E+00  0.4600E+02
     19.272  0.2115E+00  0.4729E+02
     19.623  0.6345E+00  0.4773E+02
     19.973  0.8027E-02  0.4885E+02
     20.323  0.0000E+00  0.4960E+02
     20.673  0.0000E+00  0.5030E+02
     21.023  0.0000E+00  0.5094E+02
     21.374  0.2439E-03  0.5167E+02
     21.724  0.3172E+00  0.5329E+02
     22.074  0.1166E-07  0.5431E+02
     22.424  0.3172E+00  0.5549E+02
     22.775  0.0000E+00  0.5649E+02
     23.125  0.0000E+00  0.5732E+02
     23.475  0.0000E+00  0.5781E+02
     23.825  0.0000E+00  0.5811E+02
     24.176  0.6345E+00  0.5933E+02
     24.526  0.0000E+00  0.5971E+02
     24.876  0.0000E+00  0.6064E+02
     25.226  0.0000E+00  0.6136E+02
     25.577  0.6345E+00  0.6244E+02
     25.927  0.2115E+00  0.6318E+02
     26.277  0.0000E+00  0.6379E+02
     26.627  0.9608E-06  0.6463E+02
     26.978  0.0000E+00  0.6549E+02
     27.328  0.0000E+00  0.6650E+02
     27.678  0.0000E+00  0.6724E+02
     28.028  0.0000E+00  0.6851E+02
     28.379  0.7163E-05  0.7006E+02
     28.729  0.0000E+00  0.7132E+02
     29.079  0.0000E+00  0.7146E+02
     29.429  0.2001E-02  0.7230E+02
     29.780  0.0000E+00  0.7274E+02
     30.130  0.0000E+00  0.7330E+02
     30.480  0.0000E+00  0.7435E+02
     30.830  0.0000E+00  0.7506E+02
     31.180  0.0000E+00  0.7548E+02
     31.531  0.0000E+00  0.7743E+02
     31.881  0.0000E+00  0.7850E+02
     32.231  0.0000E+00  0.7931E+02
     32.581  0.0000E+00  0.8072E+02
     32.932  0.0000E+00  0.8156E+02
     33.282  0.0000E+00  0.8277E+02
     33.632  0.0000E+00  0.8332E+02
     33.982  0.0000E+00  0.8416E+02
     34.333  0.0000E+00  0.8465E+02
     34.683  0.6345E+00  0.8583E+02
     35.033  0.7931E-01  0.8678E+02
     35.383  0.1073E+00  0.8765E+02
     35.734  0.0000E+00  0.8871E+02
     36.084  0.0000E+00  0.8936E+02
     36.434  0.6345E+00  0.8981E+02
     36.784  0.0000E+00  0.9084E+02
     37.135  0.0000E+00  0.9217E+02
     37.485  0.0000E+00  0.9277E+02
     37.835  0.0000E+00  0.9376E+02
     38.185  0.0000E+00  0.9496E+02
     38.536  0.0000E+00  0.9648E+02
     38.886  0.6345E+00  0.9715E+02
     39.236  0.0000E+00  0.9759E+02
     39.586  0.7993E-13  0.9876E+02
     39.937  0.0000E+00  0.9961E+02
     40.287  0.0000E+00  0.1010E+03
     40.637  0.3515E+00  0.1022E+03
     40.987  0.0000E+00  0.1031E+03
     41.337  0.0000E+00  0.1038E+03
     41.688  0.0000E+00  0.1054E+03
     42.038  0.0000E+00  0.1065E+03
     42.388  0.0000E+00  0.1078E+03
     42.738  0.0000E+00  0.1083E+03
     43.089  0.0000E+00  0.1094E+03
     43.439  0.0000E+00  0.1095E+03
     43.789  0.0000E+00  0.1109E+03
     44.139  0.0000E+00  0.1126E+03
     44.490  0.2085E-03  0.1138E+03
     44.840  0.0000E+00  0.1149E+03
     45.190  0.3356E+00  0.1162E+03
     45.540  0.2114E+00  0.1174E+03
     45.891  0.0000E+00  0.1186E+03
     46.241  0.0000E+00  0.1196E+03
     46.591  0.0000E+00  0.1200E+03
     46.941  0.1057E+00  0.1207E+03
     47.292  0.0000E+00  0.1217E+03
     47.642  0.0000E+00  0.1224E+03
     47.992  0.0000E+00  0.1232E+03
     48.342  0.0000E+00  0.1242E+03
     48.693  0.6345E+00  0.1258E+03
     49.043  0.0000E+00  0.1266E+03
     49.393  0.0000E+00  0.1272E+03
     49.743  0.0000E+00  0.1277E+03
     50.094  0.0000E+00  0.1280E+03
     50.444  0.0000E+00  0.1280E+03
     50.794  0.0000E+00  0.1280E+03
     51.144  0.0000E+00  0.1280E+03
     51.494  0.0000E+00  0.1280E+03
     51.845  0.0000E+00  0.1280E+03
     52.195  0.0000E+00  0.1280E+03
     52.545  0.0000E+00  0.1280E+03
     52.895  0.0000E+00  0.1280E+03
     53.246  0.0000E+00  0.1280E+03
     53.596  0.0000E+00  0.1280E+03
     53.946  0.0000E+00  0.1280E+03
     54.296  0.0000E+00  0.1280E+03
     54.647  0.0000E+00  0.1280E+03
     54.997  0.0000E+00  0.1280E+03
     55.347  0.0000E+00  0.1280E+03
