    1    1    1    1
  0.6532254E+02  0.4520565E-09  0.4520565E-09  0.4520565E-09  0.1000000E-15
  1.000000000000000E-004
  CAR 
 Og_FCC                                  
     18    216    128
 
  0.0000000E+00  0.0000000E+00  0.0000000E+00  0.4629630E-02
    1      -44.949248   1.000000
    2      -44.949248   1.000000
    3      -44.949246   1.000000
    4      -44.949246   1.000000
    5      -40.541890   1.000000
    6      -40.541890   1.000000
    7      -40.541371   1.000000
    8      -40.541371   1.000000
    9      -40.541370   1.000000
   10      -40.541370   1.000000
   11      -18.128221   1.000000
   12      -18.128220   1.000000
   13       -5.536118   1.000000
   14       -5.536118   1.000000
   15       -1.810154   1.000000
   16       -1.810154   1.000000
   17       -1.810140   1.000000
   18       -1.810140   1.000000
   19        2.674017   0.000000
   20        2.674017   0.000000
   21        7.938150   0.000000
   22        7.938150   0.000000
   23        7.938156   0.000000
   24        7.938156   0.000000
   25        8.105378   0.000000
   26        8.105378   0.000000
   27        9.713458   0.000000
   28        9.713458   0.000000
   29       10.455349   0.000000
   30       10.455349   0.000000
   31       10.455354   0.000000
   32       10.455354   0.000000
   33       11.787704   0.000000
   34       11.787704   0.000000
   35       11.884309   0.000000
   36       11.884309   0.000000
   37       11.884338   0.000000
   38       11.884338   0.000000
   39       13.910399   0.000000
   40       13.910399   0.000000
   41       19.051829   0.000000
   42       19.051829   0.000000
   43       19.084226   0.000000
   44       19.084227   0.000000
   45       19.084252   0.000000
   46       19.084252   0.000000
   47       21.644403   0.000000
   48       21.644403   0.000000
   49       22.895350   0.000000
   50       22.895350   0.000000
   51       22.895358   0.000000
   52       22.895358   0.000000
   53       23.784210   0.000000
   54       23.784210   0.000000
   55       25.004539   0.000000
   56       25.004539   0.000000
   57       25.004592   0.000000
   58       25.004593   0.000000
   59       25.249522   0.000000
   60       25.249522   0.000000
   61       25.351628   0.000000
   62       25.351629   0.000000
   63       26.389298   0.000000
   64       26.389299   0.000000
   65       26.389353   0.000000
   66       26.389353   0.000000
   67       26.447352   0.000000
   68       26.447352   0.000000
   69       26.447384   0.000000
   70       26.447384   0.000000
   71       27.369636   0.000000
   72       27.369636   0.000000
   73       34.123786   0.000000
   74       34.123786   0.000000
   75       34.153655   0.000000
   76       34.153655   0.000000
   77       34.153711   0.000000
   78       34.153711   0.000000
   79       35.692571   0.000000
   80       35.692572   0.000000
   81       36.072767   0.000000
   82       36.072768   0.000000
   83       36.072802   0.000000
   84       36.072803   0.000000
   85       37.293129   0.000000
   86       37.293130   0.000000
   87       37.293149   0.000000
   88       37.293149   0.000000
   89       37.373531   0.000000
   90       37.373531   0.000000
   91       37.373611   0.000000
   92       37.373611   0.000000
   93       37.571876   0.000000
   94       37.571876   0.000000
   95       37.637796   0.000000
   96       37.637796   0.000000
   97       37.637855   0.000000
   98       37.637855   0.000000
   99       37.637888   0.000000
  100       37.637888   0.000000
  101       39.448072   0.000000
  102       39.448072   0.000000
  103       39.448131   0.000000
  104       39.448131   0.000000
  105       39.457353   0.000000
  106       39.457353   0.000000
  107       39.464419   0.000000
  108       39.464420   0.000000
  109       40.494292   0.000000
  110       40.494292   0.000000
  111       40.494324   0.000000
  112       40.494325   0.000000
  113       42.232244   0.000000
  114       42.232245   0.000000
  115       42.629034   0.000000
  116       42.629034   0.000000
  117       42.678649   0.000000
  118       42.678650   0.000000
  119       42.678701   0.000000
  120       42.678702   0.000000
  121       42.892615   0.000000
  122       42.892615   0.000000
  123       43.225442   0.000000
  124       43.225442   0.000000
  125       43.225471   0.000000
  126       43.225471   0.000000
  127       43.248124   0.000000
  128       43.248124   0.000000
 
  0.1666667E+00  0.1538294E-16  0.2081668E-16  0.4629630E-02
    1      -44.949196   1.000000
    2      -44.949196   1.000000
    3      -44.949109   1.000000
    4      -44.949109   1.000000
    5      -40.542500   1.000000
    6      -40.542500   1.000000
    7      -40.542165   1.000000
    8      -40.542165   1.000000
    9      -40.542092   1.000000
   10      -40.542092   1.000000
   11      -18.094129   1.000000
   12      -18.094128   1.000000
   13       -5.672389   1.000000
   14       -5.672389   1.000000
   15       -2.296215   1.000000
   16       -2.296215   1.000000
   17       -1.877363   1.000000
   18       -1.877363   1.000000
   19        3.477502   0.000000
   20        3.477502   0.000000
   21        7.206885   0.000000
   22        7.206885   0.000000
   23        8.116952   0.000000
   24        8.116953   0.000000
   25        8.280871   0.000000
   26        8.280871   0.000000
   27        9.667813   0.000000
   28        9.667814   0.000000
   29        9.755824   0.000000
   30        9.755824   0.000000
   31       10.456619   0.000000
   32       10.456620   0.000000
   33       11.734930   0.000000
   34       11.734930   0.000000
   35       13.458174   0.000000
   36       13.458174   0.000000
   37       13.509084   0.000000
   38       13.509084   0.000000
   39       15.787907   0.000000
   40       15.787907   0.000000
   41       17.997637   0.000000
   42       17.997637   0.000000
   43       18.100474   0.000000
   44       18.100474   0.000000
   45       19.135754   0.000000
   46       19.135754   0.000000
   47       19.558496   0.000000
   48       19.558496   0.000000
   49       21.667215   0.000000
   50       21.667216   0.000000
   51       22.289801   0.000000
   52       22.289801   0.000000
   53       23.403335   0.000000
   54       23.403335   0.000000
   55       24.326089   0.000000
   56       24.326089   0.000000
   57       24.399148   0.000000
   58       24.399148   0.000000
   59       24.494597   0.000000
   60       24.494597   0.000000
   61       25.923246   0.000000
   62       25.923246   0.000000
   63       26.058790   0.000000
   64       26.058790   0.000000
   65       26.570641   0.000000
   66       26.570642   0.000000
   67       27.594702   0.000000
   68       27.594702   0.000000
   69       28.272297   0.000000
   70       28.272298   0.000000
   71       30.644876   0.000000
   72       30.644876   0.000000
   73       32.454400   0.000000
   74       32.454400   0.000000
   75       32.830042   0.000000
   76       32.830042   0.000000
   77       32.939634   0.000000
   78       32.939634   0.000000
   79       33.103838   0.000000
   80       33.103838   0.000000
   81       34.138233   0.000000
   82       34.138233   0.000000
   83       34.385225   0.000000
   84       34.385225   0.000000
   85       36.128898   0.000000
   86       36.128898   0.000000
   87       36.303582   0.000000
   88       36.303582   0.000000
   89       36.449775   0.000000
   90       36.449775   0.000000
   91       37.396068   0.000000
   92       37.396068   0.000000
   93       37.454524   0.000000
   94       37.454524   0.000000
   95       37.554148   0.000000
   96       37.554148   0.000000
   97       37.596713   0.000000
   98       37.596714   0.000000
   99       37.853563   0.000000
  100       37.853563   0.000000
  101       38.524171   0.000000
  102       38.524172   0.000000
  103       39.403954   0.000000
  104       39.403955   0.000000
  105       39.591364   0.000000
  106       39.591364   0.000000
  107       40.194088   0.000000
  108       40.194088   0.000000
  109       41.293898   0.000000
  110       41.293898   0.000000
  111       41.608953   0.000000
  112       41.608954   0.000000
  113       41.611828   0.000000
  114       41.611828   0.000000
  115       43.713859   0.000000
  116       43.713860   0.000000
  117       43.858884   0.000000
  118       43.858885   0.000000
  119       43.899372   0.000000
  120       43.899372   0.000000
  121       44.988536   0.000000
  122       44.988537   0.000000
  123       45.308673   0.000000
  124       45.308673   0.000000
  125       45.481717   0.000000
  126       45.481717   0.000000
  127       45.537996   0.000000
  128       45.537996   0.000000
 
  0.3333333E+00  0.5852146E-16  0.1387779E-16  0.4629630E-02
    1      -44.949120   1.000000
    2      -44.949120   1.000000
    3      -44.948906   1.000000
    4      -44.948906   1.000000
    5      -40.542094   1.000000
    6      -40.542094   1.000000
    7      -40.541290   1.000000
    8      -40.541290   1.000000
    9      -40.541016   1.000000
   10      -40.541016   1.000000
   11      -18.020196   1.000000
   12      -18.020196   1.000000
   13       -5.963588   1.000000
   14       -5.963587   1.000000
   15       -2.951899   1.000000
   16       -2.951899   1.000000
   17       -2.004862   1.000000
   18       -2.004862   1.000000
   19        4.405372   0.000000
   20        4.405372   0.000000
   21        7.342763   0.000000
   22        7.342763   0.000000
   23        7.778830   0.000000
   24        7.778830   0.000000
   25        7.953644   0.000000
   26        7.953645   0.000000
   27        9.685910   0.000000
   28        9.685910   0.000000
   29       10.494703   0.000000
   30       10.494703   0.000000
   31       10.630151   0.000000
   32       10.630151   0.000000
   33       14.678875   0.000000
   34       14.678876   0.000000
   35       15.230950   0.000000
   36       15.230950   0.000000
   37       15.510585   0.000000
   38       15.510585   0.000000
   39       15.768574   0.000000
   40       15.768574   0.000000
   41       16.075932   0.000000
   42       16.075932   0.000000
   43       16.076496   0.000000
   44       16.076496   0.000000
   45       18.876060   0.000000
   46       18.876060   0.000000
   47       19.268681   0.000000
   48       19.268681   0.000000
   49       21.429410   0.000000
   50       21.429410   0.000000
   51       21.930823   0.000000
   52       21.930823   0.000000
   53       22.201174   0.000000
   54       22.201174   0.000000
   55       23.197804   0.000000
   56       23.197804   0.000000
   57       23.617622   0.000000
   58       23.617622   0.000000
   59       24.290337   0.000000
   60       24.290337   0.000000
   61       26.174257   0.000000
   62       26.174257   0.000000
   63       26.212672   0.000000
   64       26.212672   0.000000
   65       26.456024   0.000000
   66       26.456024   0.000000
   67       27.867340   0.000000
   68       27.867340   0.000000
   69       28.142599   0.000000
   70       28.142599   0.000000
   71       28.334237   0.000000
   72       28.334237   0.000000
   73       31.002459   0.000000
   74       31.002459   0.000000
   75       31.094133   0.000000
   76       31.094133   0.000000
   77       31.190996   0.000000
   78       31.190996   0.000000
   79       31.768083   0.000000
   80       31.768083   0.000000
   81       32.554933   0.000000
   82       32.554933   0.000000
   83       32.857118   0.000000
   84       32.857119   0.000000
   85       35.179296   0.000000
   86       35.179296   0.000000
   87       35.628705   0.000000
   88       35.628706   0.000000
   89       35.762787   0.000000
   90       35.762788   0.000000
   91       36.873604   0.000000
   92       36.873604   0.000000
   93       36.947598   0.000000
   94       36.947598   0.000000
   95       38.064582   0.000000
   96       38.064582   0.000000
   97       38.514334   0.000000
   98       38.514334   0.000000
   99       38.772797   0.000000
  100       38.772797   0.000000
  101       39.387512   0.000000
  102       39.387513   0.000000
  103       39.712260   0.000000
  104       39.712260   0.000000
  105       41.424967   0.000000
  106       41.424967   0.000000
  107       41.581638   0.000000
  108       41.581638   0.000000
  109       41.946240   0.000000
  110       41.946240   0.000000
  111       42.924573   0.000000
  112       42.924573   0.000000
  113       43.052088   0.000000
  114       43.052088   0.000000
  115       45.320950   0.000000
  116       45.320950   0.000000
  117       47.321146   0.000000
  118       47.321146   0.000000
  119       47.557963   0.000000
  120       47.557963   0.000000
  121       47.851001   0.000000
  122       47.851001   0.000000
  123       47.924703   0.000000
  124       47.924703   0.000000
  125       48.011194   0.000000
  126       48.011195   0.000000
  127       48.194773   0.000000
  128       48.194773   0.000000
 
  0.5000000E+00  0.6002661E-16  0.0000000E+00  0.4629630E-02
    1      -44.949083   1.000000
    2      -44.949083   1.000000
    3      -44.948815   1.000000
    4      -44.948815   1.000000
    5      -40.542330   1.000000
    6      -40.542330   1.000000
    7      -40.541163   1.000000
    8      -40.541163   1.000000
    9      -40.541136   1.000000
   10      -40.541136   1.000000
   11      -17.983174   1.000000
   12      -17.983174   1.000000
   13       -6.117306   1.000000
   14       -6.117306   1.000000
   15       -3.192777   1.000000
   16       -3.192777   1.000000
   17       -2.065477   1.000000
   18       -2.065477   1.000000
   19        4.501537   0.000000
   20        4.501538   0.000000
   21        7.516437   0.000000
   22        7.516437   0.000000
   23        7.681371   0.000000
   24        7.681371   0.000000
   25        7.891283   0.000000
   26        7.891283   0.000000
   27        9.998440   0.000000
   28        9.998441   0.000000
   29       12.467917   0.000000
   30       12.467918   0.000000
   31       12.612512   0.000000
   32       12.612512   0.000000
   33       12.822574   0.000000
   34       12.822575   0.000000
   35       13.031059   0.000000
   36       13.031059   0.000000
   37       13.509065   0.000000
   38       13.509065   0.000000
   39       17.156665   0.000000
   40       17.156665   0.000000
   41       17.643251   0.000000
   42       17.643251   0.000000
   43       17.659597   0.000000
   44       17.659597   0.000000
   45       19.335876   0.000000
   46       19.335876   0.000000
   47       20.091636   0.000000
   48       20.091636   0.000000
   49       21.096299   0.000000
   50       21.096300   0.000000
   51       21.461175   0.000000
   52       21.461175   0.000000
   53       21.525124   0.000000
   54       21.525124   0.000000
   55       22.115605   0.000000
   56       22.115605   0.000000
   57       23.081682   0.000000
   58       23.081682   0.000000
   59       24.533047   0.000000
   60       24.533047   0.000000
   61       25.183452   0.000000
   62       25.183452   0.000000
   63       26.294364   0.000000
   64       26.294364   0.000000
   65       26.583459   0.000000
   66       26.583459   0.000000
   67       27.172588   0.000000
   68       27.172588   0.000000
   69       27.533048   0.000000
   70       27.533049   0.000000
   71       27.611706   0.000000
   72       27.611706   0.000000
   73       28.508619   0.000000
   74       28.508619   0.000000
   75       30.721708   0.000000
   76       30.721709   0.000000
   77       30.772036   0.000000
   78       30.772036   0.000000
   79       31.248093   0.000000
   80       31.248093   0.000000
   81       32.059970   0.000000
   82       32.059971   0.000000
   83       32.403512   0.000000
   84       32.403513   0.000000
   85       35.350378   0.000000
   86       35.350379   0.000000
   87       35.423166   0.000000
   88       35.423166   0.000000
   89       35.443571   0.000000
   90       35.443571   0.000000
   91       36.687709   0.000000
   92       36.687709   0.000000
   93       36.826976   0.000000
   94       36.826976   0.000000
   95       38.428931   0.000000
   96       38.428932   0.000000
   97       38.660682   0.000000
   98       38.660682   0.000000
   99       39.347381   0.000000
  100       39.347381   0.000000
  101       39.626481   0.000000
  102       39.626481   0.000000
  103       42.724391   0.000000
  104       42.724391   0.000000
  105       43.459792   0.000000
  106       43.459792   0.000000
  107       43.483337   0.000000
  108       43.483337   0.000000
  109       43.979035   0.000000
  110       43.979036   0.000000
  111       44.325067   0.000000
  112       44.325067   0.000000
  113       44.895152   0.000000
  114       44.895152   0.000000
  115       44.978148   0.000000
  116       44.978148   0.000000
  117       46.570056   0.000000
  118       46.570056   0.000000
  119       46.718750   0.000000
  120       46.718750   0.000000
  121       46.933560   0.000000
  122       46.933560   0.000000
  123       48.782045   0.000000
  124       48.782045   0.000000
  125       48.823447   0.000000
  126       48.823447   0.000000
  127       50.571040   0.000000
  128       50.571040   0.000000
 
 -0.3333333E+00 -0.5852146E-16 -0.1387779E-16  0.4629630E-02
    1      -44.949120   1.000000
    2      -44.949120   1.000000
    3      -44.948906   1.000000
    4      -44.948906   1.000000
    5      -40.542094   1.000000
    6      -40.542094   1.000000
    7      -40.541290   1.000000
    8      -40.541290   1.000000
    9      -40.541016   1.000000
   10      -40.541016   1.000000
   11      -18.020196   1.000000
   12      -18.020196   1.000000
   13       -5.963588   1.000000
   14       -5.963587   1.000000
   15       -2.951899   1.000000
   16       -2.951899   1.000000
   17       -2.004862   1.000000
   18       -2.004862   1.000000
   19        4.405372   0.000000
   20        4.405372   0.000000
   21        7.342763   0.000000
   22        7.342763   0.000000
   23        7.778830   0.000000
   24        7.778830   0.000000
   25        7.953644   0.000000
   26        7.953645   0.000000
   27        9.685910   0.000000
   28        9.685910   0.000000
   29       10.494703   0.000000
   30       10.494703   0.000000
   31       10.630151   0.000000
   32       10.630151   0.000000
   33       14.678875   0.000000
   34       14.678876   0.000000
   35       15.230950   0.000000
   36       15.230950   0.000000
   37       15.510585   0.000000
   38       15.510585   0.000000
   39       15.768574   0.000000
   40       15.768574   0.000000
   41       16.075932   0.000000
   42       16.075932   0.000000
   43       16.076496   0.000000
   44       16.076496   0.000000
   45       18.876060   0.000000
   46       18.876060   0.000000
   47       19.268681   0.000000
   48       19.268681   0.000000
   49       21.429410   0.000000
   50       21.429410   0.000000
   51       21.930823   0.000000
   52       21.930824   0.000000
   53       22.201174   0.000000
   54       22.201174   0.000000
   55       23.197804   0.000000
   56       23.197804   0.000000
   57       23.617622   0.000000
   58       23.617622   0.000000
   59       24.290337   0.000000
   60       24.290337   0.000000
   61       26.174257   0.000000
   62       26.174257   0.000000
   63       26.212672   0.000000
   64       26.212672   0.000000
   65       26.456024   0.000000
   66       26.456024   0.000000
   67       27.867340   0.000000
   68       27.867340   0.000000
   69       28.142599   0.000000
   70       28.142599   0.000000
   71       28.334237   0.000000
   72       28.334237   0.000000
   73       31.002459   0.000000
   74       31.002459   0.000000
   75       31.094133   0.000000
   76       31.094133   0.000000
   77       31.190996   0.000000
   78       31.190996   0.000000
   79       31.768083   0.000000
   80       31.768083   0.000000
   81       32.554933   0.000000
   82       32.554933   0.000000
   83       32.857118   0.000000
   84       32.857118   0.000000
   85       35.179296   0.000000
   86       35.179296   0.000000
   87       35.628705   0.000000
   88       35.628706   0.000000
   89       35.762787   0.000000
   90       35.762788   0.000000
   91       36.873604   0.000000
   92       36.873604   0.000000
   93       36.947598   0.000000
   94       36.947598   0.000000
   95       38.064582   0.000000
   96       38.064582   0.000000
   97       38.514334   0.000000
   98       38.514334   0.000000
   99       38.772797   0.000000
  100       38.772797   0.000000
  101       39.387512   0.000000
  102       39.387513   0.000000
  103       39.712260   0.000000
  104       39.712260   0.000000
  105       41.424967   0.000000
  106       41.424967   0.000000
  107       41.581638   0.000000
  108       41.581638   0.000000
  109       41.946240   0.000000
  110       41.946240   0.000000
  111       42.924573   0.000000
  112       42.924573   0.000000
  113       43.052088   0.000000
  114       43.052088   0.000000
  115       45.320950   0.000000
  116       45.320950   0.000000
  117       47.321146   0.000000
  118       47.321146   0.000000
  119       47.557963   0.000000
  120       47.557963   0.000000
  121       47.851001   0.000000
  122       47.851001   0.000000
  123       47.924703   0.000000
  124       47.924703   0.000000
  125       48.011194   0.000000
  126       48.011195   0.000000
  127       48.194773   0.000000
  128       48.194773   0.000000
 
 -0.1666667E+00 -0.1538294E-16  0.1387779E-16  0.4629630E-02
    1      -44.949196   1.000000
    2      -44.949196   1.000000
    3      -44.949109   1.000000
    4      -44.949109   1.000000
    5      -40.542500   1.000000
    6      -40.542500   1.000000
    7      -40.542165   1.000000
    8      -40.542165   1.000000
    9      -40.542092   1.000000
   10      -40.542092   1.000000
   11      -18.094129   1.000000
   12      -18.094128   1.000000
   13       -5.672389   1.000000
   14       -5.672389   1.000000
   15       -2.296215   1.000000
   16       -2.296215   1.000000
   17       -1.877363   1.000000
   18       -1.877363   1.000000
   19        3.477502   0.000000
   20        3.477502   0.000000
   21        7.206885   0.000000
   22        7.206885   0.000000
   23        8.116952   0.000000
   24        8.116953   0.000000
   25        8.280871   0.000000
   26        8.280871   0.000000
   27        9.667813   0.000000
   28        9.667814   0.000000
   29        9.755824   0.000000
   30        9.755824   0.000000
   31       10.456619   0.000000
   32       10.456620   0.000000
   33       11.734930   0.000000
   34       11.734930   0.000000
   35       13.458174   0.000000
   36       13.458174   0.000000
   37       13.509084   0.000000
   38       13.509084   0.000000
   39       15.787907   0.000000
   40       15.787907   0.000000
   41       17.997637   0.000000
   42       17.997637   0.000000
   43       18.100474   0.000000
   44       18.100474   0.000000
   45       19.135754   0.000000
   46       19.135754   0.000000
   47       19.558496   0.000000
   48       19.558496   0.000000
   49       21.667215   0.000000
   50       21.667215   0.000000
   51       22.289801   0.000000
   52       22.289801   0.000000
   53       23.403335   0.000000
   54       23.403335   0.000000
   55       24.326089   0.000000
   56       24.326089   0.000000
   57       24.399148   0.000000
   58       24.399148   0.000000
   59       24.494597   0.000000
   60       24.494597   0.000000
   61       25.923246   0.000000
   62       25.923246   0.000000
   63       26.058790   0.000000
   64       26.058790   0.000000
   65       26.570641   0.000000
   66       26.570642   0.000000
   67       27.594702   0.000000
   68       27.594702   0.000000
   69       28.272297   0.000000
   70       28.272298   0.000000
   71       30.644876   0.000000
   72       30.644876   0.000000
   73       32.454400   0.000000
   74       32.454400   0.000000
   75       32.830042   0.000000
   76       32.830042   0.000000
   77       32.939634   0.000000
   78       32.939634   0.000000
   79       33.103838   0.000000
   80       33.103838   0.000000
   81       34.138233   0.000000
   82       34.138233   0.000000
   83       34.385224   0.000000
   84       34.385225   0.000000
   85       36.128897   0.000000
   86       36.128898   0.000000
   87       36.303582   0.000000
   88       36.303582   0.000000
   89       36.449775   0.000000
   90       36.449775   0.000000
   91       37.396068   0.000000
   92       37.396068   0.000000
   93       37.454524   0.000000
   94       37.454524   0.000000
   95       37.554148   0.000000
   96       37.554148   0.000000
   97       37.596713   0.000000
   98       37.596714   0.000000
   99       37.853563   0.000000
  100       37.853563   0.000000
  101       38.524171   0.000000
  102       38.524172   0.000000
  103       39.403954   0.000000
  104       39.403955   0.000000
  105       39.591364   0.000000
  106       39.591364   0.000000
  107       40.194088   0.000000
  108       40.194088   0.000000
  109       41.293898   0.000000
  110       41.293898   0.000000
  111       41.608953   0.000000
  112       41.608953   0.000000
  113       41.611828   0.000000
  114       41.611828   0.000000
  115       43.713859   0.000000
  116       43.713859   0.000000
  117       43.858884   0.000000
  118       43.858885   0.000000
  119       43.899372   0.000000
  120       43.899372   0.000000
  121       44.988536   0.000000
  122       44.988537   0.000000
  123       45.308673   0.000000
  124       45.308673   0.000000
  125       45.481717   0.000000
  126       45.481717   0.000000
  127       45.537996   0.000000
  128       45.537996   0.000000
 
  0.3851860E-33  0.1666667E+00  0.6938894E-17  0.4629630E-02
    1      -44.949196   1.000000
    2      -44.949196   1.000000
    3      -44.949109   1.000000
    4      -44.949109   1.000000
    5      -40.542500   1.000000
    6      -40.542500   1.000000
    7      -40.542165   1.000000
    8      -40.542165   1.000000
    9      -40.542092   1.000000
   10      -40.542092   1.000000
   11      -18.094129   1.000000
   12      -18.094128   1.000000
   13       -5.672389   1.000000
   14       -5.672389   1.000000
   15       -2.296214   1.000000
   16       -2.296214   1.000000
   17       -1.877364   1.000000
   18       -1.877364   1.000000
   19        3.477502   0.000000
   20        3.477503   0.000000
   21        7.206882   0.000000
   22        7.206883   0.000000
   23        8.116953   0.000000
   24        8.116953   0.000000
   25        8.280871   0.000000
   26        8.280872   0.000000
   27        9.667812   0.000000
   28        9.667812   0.000000
   29        9.755823   0.000000
   30        9.755823   0.000000
   31       10.456626   0.000000
   32       10.456626   0.000000
   33       11.734928   0.000000
   34       11.734928   0.000000
   35       13.458172   0.000000
   36       13.458172   0.000000
   37       13.509082   0.000000
   38       13.509082   0.000000
   39       15.787909   0.000000
   40       15.787909   0.000000
   41       17.997640   0.000000
   42       17.997640   0.000000
   43       18.100476   0.000000
   44       18.100476   0.000000
   45       19.135746   0.000000
   46       19.135746   0.000000
   47       19.558495   0.000000
   48       19.558495   0.000000
   49       21.667213   0.000000
   50       21.667213   0.000000
   51       22.289799   0.000000
   52       22.289799   0.000000
   53       23.403334   0.000000
   54       23.403334   0.000000
   55       24.326088   0.000000
   56       24.326088   0.000000
   57       24.399146   0.000000
   58       24.399146   0.000000
   59       24.494596   0.000000
   60       24.494596   0.000000
   61       25.923263   0.000000
   62       25.923263   0.000000
   63       26.058806   0.000000
   64       26.058806   0.000000
   65       26.570636   0.000000
   66       26.570636   0.000000
   67       27.594697   0.000000
   68       27.594697   0.000000
   69       28.272292   0.000000
   70       28.272292   0.000000
   71       30.644875   0.000000
   72       30.644875   0.000000
   73       32.454398   0.000000
   74       32.454398   0.000000
   75       32.830041   0.000000
   76       32.830041   0.000000
   77       32.939633   0.000000
   78       32.939634   0.000000
   79       33.103831   0.000000
   80       33.103831   0.000000
   81       34.138229   0.000000
   82       34.138229   0.000000
   83       34.385222   0.000000
   84       34.385222   0.000000
   85       36.128899   0.000000
   86       36.128899   0.000000
   87       36.303582   0.000000
   88       36.303583   0.000000
   89       36.449778   0.000000
   90       36.449778   0.000000
   91       37.396072   0.000000
   92       37.396072   0.000000
   93       37.454528   0.000000
   94       37.454528   0.000000
   95       37.554152   0.000000
   96       37.554153   0.000000
   97       37.596718   0.000000
   98       37.596719   0.000000
   99       37.853555   0.000000
  100       37.853555   0.000000
  101       38.524177   0.000000
  102       38.524177   0.000000
  103       39.403972   0.000000
  104       39.403972   0.000000
  105       39.591361   0.000000
  106       39.591361   0.000000
  107       40.194083   0.000000
  108       40.194083   0.000000
  109       41.293891   0.000000
  110       41.293891   0.000000
  111       41.608955   0.000000
  112       41.608956   0.000000
  113       41.611830   0.000000
  114       41.611830   0.000000
  115       43.713850   0.000000
  116       43.713851   0.000000
  117       43.858874   0.000000
  118       43.858875   0.000000
  119       43.899364   0.000000
  120       43.899365   0.000000
  121       44.988538   0.000000