   1   1   0   0
  0.1628488E+02  0.2845115E-09  0.2845115E-09  0.2845115E-09  0.1000000E-15
  1.000000000000000E-004
  CAR 
 Og_FCC                                  
    162.10915130    -32.70837266  301    -22.15575678      1.00000000
    -32.708  0.0000E+00  0.0000E+00
    -32.059  0.0000E+00  0.0000E+00
    -31.410  0.0000E+00  0.0000E+00
    -30.760  0.0000E+00  0.0000E+00
    -30.111  0.0000E+00  0.0000E+00
    -29.461  0.0000E+00  0.0000E+00
    -28.812  0.0000E+00  0.0000E+00
    -28.163  0.0000E+00  0.0000E+00
    -27.513  0.0000E+00  0.0000E+00
    -26.864  0.0000E+00  0.0000E+00
    -26.214  0.0000E+00  0.0000E+00
    -25.565  0.0000E+00  0.0000E+00
    -24.916  0.0000E+00  0.0000E+00
    -24.266  0.0000E+00  0.0000E+00
    -23.617  0.1591E-14  0.5248E-01
    -22.967  0.0000E+00  0.5190E+00
    -22.318  0.0000E+00  0.2000E+01
    -21.669  0.0000E+00  0.2000E+01
    -21.019  0.0000E+00  0.2000E+01
    -20.370  0.0000E+00  0.2000E+01
    -19.721  0.0000E+00  0.2000E+01
    -19.071  0.0000E+00  0.2000E+01
    -18.422  0.0000E+00  0.2000E+01
    -17.772  0.0000E+00  0.2000E+01
    -17.123  0.0000E+00  0.2000E+01
    -16.474  0.0000E+00  0.2000E+01
    -15.824  0.0000E+00  0.2000E+01
    -15.175  0.0000E+00  0.2000E+01
    -14.525  0.0000E+00  0.2000E+01
    -13.876  0.0000E+00  0.2000E+01
    -13.227  0.0000E+00  0.2000E+01
    -12.577  0.0000E+00  0.2000E+01
    -11.928  0.0000E+00  0.2000E+01
    -11.278  0.0000E+00  0.2000E+01
    -10.629  0.0000E+00  0.2000E+01
     -9.980  0.0000E+00  0.2000E+01
     -9.330  0.0000E+00  0.2000E+01
     -8.681  0.0000E+00  0.2000E+01
     -8.031  0.0000E+00  0.2000E+01
     -7.382  0.0000E+00  0.2000E+01
     -6.733  0.0000E+00  0.2000E+01
     -6.083  0.0000E+00  0.2000E+01
     -5.434  0.0000E+00  0.2000E+01
     -4.785  0.0000E+00  0.2000E+01
     -4.135  0.0000E+00  0.2000E+01
     -3.486  0.0000E+00  0.2000E+01
     -2.836  0.0000E+00  0.2000E+01
     -2.187  0.0000E+00  0.2000E+01
     -1.538  0.0000E+00  0.2000E+01
     -0.888  0.0000E+00  0.2000E+01
     -0.239  0.0000E+00  0.2000E+01
      0.411  0.0000E+00  0.2000E+01
      1.060  0.0000E+00  0.2000E+01
      1.709  0.0000E+00  0.2000E+01
      2.359  0.0000E+00  0.2000E+01
      3.008  0.0000E+00  0.2000E+01
      3.658  0.0000E+00  0.2000E+01
      4.307  0.0000E+00  0.2000E+01
      4.956  0.0000E+00  0.2000E+01
      5.606  0.0000E+00  0.2000E+01
      6.255  0.2158E-01  0.2061E+01
      6.905  0.0000E+00  0.3125E+01
      7.554  0.0000E+00  0.3615E+01
      8.203  0.0000E+00  0.4070E+01
      8.853  0.0000E+00  0.4560E+01
      9.502  0.0000E+00  0.4840E+01
     10.151  0.1681E-14  0.5120E+01
     10.801  0.0000E+00  0.5446E+01
     11.450  0.0000E+00  0.5901E+01
     12.100  0.0000E+00  0.5901E+01
     12.749  0.0000E+00  0.6297E+01
     13.398  0.0000E+00  0.6367E+01
     14.048  0.0000E+00  0.6857E+01
     14.697  0.0000E+00  0.7277E+01
     15.347  0.0000E+00  0.7487E+01
     15.996  0.0000E+00  0.7557E+01
     16.645  0.0000E+00  0.8327E+01
     17.295  0.0000E+00  0.8758E+01
     17.944  0.0000E+00  0.9248E+01
     18.594  0.0000E+00  0.9481E+01
     19.243  0.0000E+00  0.9784E+01
     19.892  0.0000E+00  0.1016E+02
     20.542  0.0000E+00  0.1019E+02
     21.191  0.0000E+00  0.1056E+02
     21.841  0.0000E+00  0.1115E+02
     22.490  0.0000E+00  0.1153E+02
     23.139  0.0000E+00  0.1216E+02
     23.789  0.0000E+00  0.1224E+02
     24.438  0.0000E+00  0.1272E+02
     25.087  0.0000E+00  0.1290E+02
     25.737  0.0000E+00  0.1342E+02
     26.386  0.0000E+00  0.1412E+02
     27.036  0.0000E+00  0.1433E+02
     27.685  0.0000E+00  0.1455E+02
     28.334  0.0000E+00  0.1487E+02
     28.984  0.0000E+00  0.1588E+02
     29.633  0.0000E+00  0.1602E+02
     30.283  0.0000E+00  0.1637E+02
     30.932  0.0000E+00  0.1671E+02
     31.581  0.0000E+00  0.1708E+02
     32.231  0.0000E+00  0.1743E+02
     32.880  0.0000E+00  0.1788E+02
     33.530  0.0000E+00  0.1865E+02
     34.179  0.0000E+00  0.1872E+02
     34.828  0.0000E+00  0.1914E+02
     35.478  0.0000E+00  0.1998E+02
     36.127  0.1689E+00  0.2022E+02
     36.777  0.0000E+00  0.2081E+02
     37.426  0.0000E+00  0.2134E+02
     38.075  0.0000E+00  0.2194E+02
     38.725  0.0000E+00  0.2221E+02
     39.374  0.0000E+00  0.2262E+02
     40.024  0.0000E+00  0.2290E+02
     40.673  0.0000E+00  0.2367E+02
     41.322  0.0000E+00  0.2412E+02
     41.972  0.0000E+00  0.2440E+02
     42.621  0.2155E+00  0.2520E+02
     43.270  0.5360E-01  0.2551E+02
     43.920  0.0000E+00  0.2628E+02
     44.569  0.0000E+00  0.2678E+02
     45.219  0.0000E+00  0.2740E+02
     45.868  0.1077E+00  0.2764E+02
     46.517  0.0000E+00  0.2841E+02
     47.167  0.0000E+00  0.2895E+02
     47.816  0.0000E+00  0.2934E+02
     48.466  0.0000E+00  0.2973E+02
     49.115  0.0000E+00  0.2987E+02
     49.764  0.0000E+00  0.3008E+02
     50.414  0.0000E+00  0.3143E+02
     51.063  0.0000E+00  0.3164E+02
     51.713  0.0000E+00  0.3238E+02
     52.362  0.0000E+00  0.3273E+02
     53.011  0.0000E+00  0.3371E+02
     53.661  0.0000E+00  0.3462E+02
     54.310  0.0000E+00  0.3497E+02
     54.960  0.0000E+00  0.3529E+02
     55.609  0.0000E+00  0.3578E+02
     56.258  0.0000E+00  0.3624E+02
     56.908  0.0000E+00  0.3701E+02
     57.557  0.0000E+00  0.3715E+02
     58.206  0.0000E+00  0.3752E+02
     58.856  0.0000E+00  0.3829E+02
     59.505  0.0000E+00  0.3880E+02
     60.155  0.0000E+00  0.3932E+02
     60.804  0.0000E+00  0.4016E+02
     61.453  0.0000E+00  0.4114E+02
     62.103  0.0000E+00  0.4163E+02
     62.752  0.0000E+00  0.4208E+02
     63.402  0.0000E+00  0.4286E+02
     64.051  0.7183E-01  0.4367E+02
     64.700  0.0000E+00  0.4423E+02
     65.350  0.0000E+00  0.4479E+02
     65.999  0.0000E+00  0.4515E+02
     66.649  0.0000E+00  0.4571E+02
     67.298  0.0000E+00  0.4587E+02
     67.947  0.0000E+00  0.4643E+02
     68.597  0.0000E+00  0.4703E+02
     69.246  0.0000E+00  0.4710E+02
     69.896  0.0000E+00  0.4832E+02
     70.545  0.0000E+00  0.4930E+02
     71.194  0.1077E+00  0.4984E+02
     71.844  0.0000E+00  0.5100E+02
     72.493  0.0000E+00  0.5140E+02
     73.142  0.1437E+00  0.5233E+02
     73.792  0.0000E+00  0.5289E+02
     74.441  0.0000E+00  0.5362E+02
     75.091  0.0000E+00  0.5457E+02
     75.740  0.0000E+00  0.5485E+02
     76.389  0.0000E+00  0.5520E+02
     77.039  0.0000E+00  0.5560E+02
     77.688  0.1077E+00  0.5574E+02
     78.338  0.2155E+00  0.5643E+02
     78.987  0.0000E+00  0.5715E+02
     79.636  0.0000E+00  0.5771E+02
     80.286  0.1210E-10  0.5877E+02
     80.935  0.0000E+00  0.5956E+02
     81.585  0.2155E+00  0.6027E+02
     82.234  0.0000E+00  0.6111E+02
     82.883  0.0000E+00  0.6191E+02
     83.533  0.0000E+00  0.6303E+02
     84.182  0.0000E+00  0.6362E+02
     84.832  0.0000E+00  0.6385E+02
     85.481  0.0000E+00  0.6469E+02
     86.130  0.0000E+00  0.6571E+02
     86.780  0.0000E+00  0.6592E+02
     87.429  0.0000E+00  0.6638E+02
     88.078  0.0000E+00  0.6709E+02
     88.728  0.2484E-01  0.6715E+02
     89.377  0.0000E+00  0.6814E+02
     90.027  0.0000E+00  0.6898E+02
     90.676  0.0000E+00  0.6961E+02
     91.325  0.0000E+00  0.7024E+02
     91.975  0.2155E+00  0.7123E+02
     92.624  0.0000E+00  0.7184E+02
     93.274  0.0000E+00  0.7251E+02
     93.923  0.0000E+00  0.7331E+02
     94.572  0.2129E+00  0.7428E+02
     95.222  0.0000E+00  0.7491E+02
     95.871  0.0000E+00  0.7590E+02
     96.521  0.0000E+00  0.7681E+02
     97.170  0.0000E+00  0.7779E+02
     97.819  0.1700E+00  0.7868E+02
     98.469  0.0000E+00  0.7910E+02
     99.118  0.0000E+00  0.7943E+02
     99.768  0.0000E+00  0.7968E+02
    100.417  0.0000E+00  0.8066E+02
    101.066  0.0000E+00  0.8080E+02
    101.716  0.0000E+00  0.8150E+02
    102.365  0.0000E+00  0.8224E+02
    103.015  0.0000E+00  0.8350E+02
    103.664  0.0000E+00  0.8404E+02
    104.313  0.0000E+00  0.8451E+02
    104.963  0.0000E+00  0.8569E+02
    105.612  0.0000E+00  0.8634E+02
    106.261  0.2130E+00  0.8769E+02
    106.911  0.0000E+00  0.8827E+02
    107.560  0.0000E+00  0.8917E+02
    108.210  0.0000E+00  0.8994E+02
    108.859  0.0000E+00  0.9054E+02
    109.508  0.0000E+00  0.9159E+02
    110.158  0.0000E+00  0.9239E+02
    110.807  0.0000E+00  0.9324E+02
    111.457  0.0000E+00  0.9429E+02
    112.106  0.0000E+00  0.9471E+02
    112.755  0.0000E+00  0.9506E+02
    113.405  0.0000E+00  0.9597E+02
    114.054  0.0000E+00  0.9632E+02
    114.704  0.0000E+00  0.9681E+02
    115.353  0.1995E-03  0.9748E+02
    116.002  0.0000E+00  0.9842E+02
    116.652  0.0000E+00  0.9940E+02
    117.301  0.0000E+00  0.1001E+03
    117.951  0.0000E+00  0.1007E+03
    118.600  0.1962E+00  0.1021E+03
    119.249  0.0000E+00  0.1028E+03
    119.899  0.0000E+00  0.1040E+03
    120.548  0.0000E+00  0.1049E+03
    121.197  0.0000E+00  0.1058E+03
    121.847  0.0000E+00  0.1070E+03
    122.496  0.0000E+00  0.1075E+03
    123.146  0.6240E-05  0.1080E+03
    123.795  0.0000E+00  0.1088E+03
    124.444  0.0000E+00  0.1096E+03
    125.094  0.0000E+00  0.1103E+03
    125.743  0.0000E+00  0.1113E+03
    126.393  0.0000E+00  0.1117E+03
    127.042  0.0000E+00  0.1127E+03
    127.691  0.0000E+00  0.1132E+03
    128.341  0.0000E+00  0.1139E+03
    128.990  0.5387E-01  0.1152E+03
    129.640  0.0000E+00  0.1161E+03
    130.289  0.0000E+00  0.1163E+03
    130.938  0.0000E+00  0.1173E+03
    131.588  0.0000E+00  0.1178E+03
    132.237  0.7183E-01  0.1189E+03
    132.887  0.0000E+00  0.1201E+03
    133.536  0.2155E+00  0.1208E+03
    134.185  0.0000E+00  0.1218E+03
    134.835  0.0000E+00  0.1223E+03
    135.484  0.8257E-01  0.1233E+03
    136.133  0.0000E+00  0.1241E+03
    136.783  0.0000E+00  0.1254E+03
    137.432  0.0000E+00  0.1263E+03
    138.082  0.0000E+00  0.1264E+03
    138.731  0.0000E+00  0.1269E+03
    139.380  0.0000E+00  0.1273E+03
    140.030  0.0000E+00  0.1274E+03
    140.679  0.0000E+00  0.1274E+03
    141.329  0.0000E+00  0.1274E+03
    141.978  0.0000E+00  0.1275E+03
    142.627  0.0000E+00  0.1277E+03
    143.277  0.0000E+00  0.1277E+03
    143.926  0.0000E+00  0.1278E+03
    144.576  0.0000E+00  0.1279E+03
    145.225  0.0000E+00  0.1279E+03
    145.874  0.0000E+00  0.1279E+03
    146.524  0.0000E+00  0.1279E+03
    147.173  0.0000E+00  0.1279E+03
    147.823  0.0000E+00  0.1279E+03
    148.472  0.7183E-01  0.1280E+03
    149.121  0.0000E+00  0.1280E+03
    149.771  0.0000E+00  0.1280E+03
    150.420  0.0000E+00  0.1280E+03
    151.069  0.0000E+00  0.1280E+03
    151.719  0.0000E+00  0.1280E+03
    152.368  0.0000E+00  0.1280E+03
    153.018  0.0000E+00  0.1280E+03
    153.667  0.0000E+00  0.1280E+03
    154.316  0.0000E+00  0.1280E+03
    154.966  0.0000E+00  0.1280E+03
    155.615  0.0000E+00  0.1280E+03
    156.265  0.0000E+00  0.1280E+03
    156.914  0.0000E+00  0.1280E+03
    157.563  0.0000E+00  0.1280E+03
    158.213  0.0000E+00  0.1280E+03
    158.862  0.0000E+00  0.1280E+03
    159.512  0.0000E+00  0.1280E+03
    160.161  0.0000E+00  0.1280E+03
    160.810  0.0000E+00  0.1280E+03
    161.460  0.0000E+00  0.1280E+03
    162.109  0.0000E+00  0.1280E+03
