   1   1   0   0
  0.4557239E+02  0.4009334E-09  0.4009334E-09  0.4009334E-09  0.1000000E-15
  1.000000000000000E-004
  CAR 
 Og_FCC                                  
     73.43915228    -26.43942545  301     -6.71340635      1.00000000
    -26.439  0.0000E+00  0.0000E+00
    -26.106  0.0000E+00  0.0000E+00
    -25.774  0.0000E+00  0.0000E+00
    -25.441  0.0000E+00  0.0000E+00
    -25.108  0.0000E+00  0.0000E+00
    -24.775  0.0000E+00  0.0000E+00
    -24.442  0.0000E+00  0.0000E+00
    -24.109  0.0000E+00  0.0000E+00
    -23.776  0.0000E+00  0.0000E+00
    -23.443  0.0000E+00  0.0000E+00
    -23.110  0.0000E+00  0.0000E+00
    -22.777  0.0000E+00  0.0000E+00
    -22.444  0.0000E+00  0.0000E+00
    -22.111  0.0000E+00  0.0000E+00
    -21.778  0.3337E+00  0.2500E+00
    -21.445  0.0000E+00  0.2000E+01
    -21.113  0.0000E+00  0.2000E+01
    -20.780  0.0000E+00  0.2000E+01
    -20.447  0.0000E+00  0.2000E+01
    -20.114  0.0000E+00  0.2000E+01
    -19.781  0.0000E+00  0.2000E+01
    -19.448  0.0000E+00  0.2000E+01
    -19.115  0.0000E+00  0.2000E+01
    -18.782  0.0000E+00  0.2000E+01
    -18.449  0.0000E+00  0.2000E+01
    -18.116  0.0000E+00  0.2000E+01
    -17.783  0.0000E+00  0.2000E+01
    -17.450  0.0000E+00  0.2000E+01
    -17.117  0.0000E+00  0.2000E+01
    -16.784  0.0000E+00  0.2000E+01
    -16.452  0.0000E+00  0.2000E+01
    -16.119  0.0000E+00  0.2000E+01
    -15.786  0.0000E+00  0.2000E+01
    -15.453  0.0000E+00  0.2000E+01
    -15.120  0.0000E+00  0.2000E+01
    -14.787  0.0000E+00  0.2000E+01
    -14.454  0.0000E+00  0.2000E+01
    -14.121  0.0000E+00  0.2000E+01
    -13.788  0.0000E+00  0.2000E+01
    -13.455  0.0000E+00  0.2000E+01
    -13.122  0.0000E+00  0.2000E+01
    -12.789  0.0000E+00  0.2000E+01
    -12.456  0.0000E+00  0.2000E+01
    -12.123  0.0000E+00  0.2000E+01
    -11.791  0.0000E+00  0.2000E+01
    -11.458  0.0000E+00  0.2000E+01
    -11.125  0.0000E+00  0.2000E+01
    -10.792  0.0000E+00  0.2000E+01
    -10.459  0.0000E+00  0.2000E+01
    -10.126  0.0000E+00  0.2000E+01
     -9.793  0.0000E+00  0.2000E+01
     -9.460  0.0000E+00  0.2000E+01
     -9.127  0.0000E+00  0.2000E+01
     -8.794  0.0000E+00  0.2287E+01
     -8.461  0.0000E+00  0.3528E+01
     -8.128  0.0000E+00  0.3861E+01
     -7.795  0.0000E+00  0.4907E+01
     -7.462  0.0000E+00  0.6259E+01
     -7.130  0.0000E+00  0.7630E+01
     -6.797  0.0000E+00  0.8000E+01
     -6.464  0.0000E+00  0.8000E+01
     -6.131  0.0000E+00  0.8000E+01
     -5.798  0.0000E+00  0.8000E+01
     -5.465  0.0000E+00  0.8000E+01
     -5.132  0.0000E+00  0.8000E+01
     -4.799  0.0000E+00  0.8000E+01
     -4.466  0.0000E+00  0.8000E+01
     -4.133  0.0000E+00  0.8000E+01
     -3.800  0.0000E+00  0.8000E+01
     -3.467  0.0000E+00  0.8000E+01
     -3.134  0.0000E+00  0.8000E+01
     -2.801  0.0000E+00  0.8000E+01
     -2.469  0.0000E+00  0.8000E+01
     -2.136  0.0000E+00  0.8000E+01
     -1.803  0.0000E+00  0.8000E+01
     -1.470  0.0000E+00  0.8000E+01
     -1.137  0.0000E+00  0.8000E+01
     -0.804  0.0000E+00  0.8000E+01
     -0.471  0.0000E+00  0.8000E+01
     -0.138  0.0000E+00  0.8000E+01
      0.195  0.0000E+00  0.8000E+01
      0.528  0.0000E+00  0.8000E+01
      0.861  0.0000E+00  0.8000E+01
      1.194  0.0000E+00  0.8000E+01
      1.527  0.0000E+00  0.8000E+01
      1.860  0.0000E+00  0.8000E+01
      2.192  0.0000E+00  0.8000E+01
      2.525  0.0000E+00  0.8000E+01
      2.858  0.0000E+00  0.8000E+01
      3.191  0.0000E+00  0.8000E+01
      3.524  0.0000E+00  0.8000E+01
      3.857  0.0000E+00  0.8000E+01
      4.190  0.0000E+00  0.8000E+01
      4.523  0.0000E+00  0.8000E+01
      4.856  0.0000E+00  0.8009E+01
      5.189  0.0000E+00  0.8009E+01
      5.522  0.0000E+00  0.8009E+01
      5.855  0.0000E+00  0.8083E+01
      6.188  0.0000E+00  0.8139E+01
      6.521  0.0000E+00  0.8139E+01
      6.853  0.0000E+00  0.8250E+01
      7.186  0.0000E+00  0.8574E+01
      7.519  0.0000E+00  0.8667E+01
      7.852  0.0000E+00  0.8889E+01
      8.185  0.0000E+00  0.9667E+01
      8.518  0.0000E+00  0.9778E+01
      8.851  0.0000E+00  0.1003E+02
      9.184  0.0000E+00  0.1031E+02
      9.517  0.0000E+00  0.1097E+02
      9.850  0.0000E+00  0.1164E+02
     10.183  0.0000E+00  0.1194E+02
     10.516  0.0000E+00  0.1236E+02
     10.849  0.0000E+00  0.1286E+02
     11.182  0.0000E+00  0.1377E+02
     11.514  0.0000E+00  0.1395E+02
     11.847  0.4450E+00  0.1432E+02
     12.180  0.0000E+00  0.1481E+02
     12.513  0.0000E+00  0.1569E+02
     12.846  0.0000E+00  0.1673E+02
     13.179  0.0000E+00  0.1773E+02
     13.512  0.0000E+00  0.1829E+02
     13.845  0.0000E+00  0.1835E+02
     14.178  0.0000E+00  0.1866E+02
     14.511  0.6184E-01  0.1919E+02
     14.844  0.0000E+00  0.1983E+02
     15.177  0.0000E+00  0.2056E+02
     15.510  0.0000E+00  0.2200E+02
     15.843  0.0000E+00  0.2249E+02
     16.175  0.7077E-14  0.2254E+02
     16.508  0.0000E+00  0.2297E+02
     16.841  0.0000E+00  0.2297E+02
     17.174  0.0000E+00  0.2312E+02
     17.507  0.1669E+00  0.2416E+02
     17.840  0.0000E+00  0.2453E+02
     18.173  0.6675E+00  0.2510E+02
     18.506  0.0000E+00  0.2544E+02
     18.839  0.0000E+00  0.2644E+02
     19.172  0.0000E+00  0.2706E+02
     19.505  0.0000E+00  0.2750E+02
     19.838  0.0000E+00  0.2806E+02
     20.171  0.0000E+00  0.2856E+02
     20.504  0.0000E+00  0.2881E+02
     20.836  0.0000E+00  0.2932E+02
     21.169  0.0000E+00  0.2957E+02
     21.502  0.0000E+00  0.2994E+02
     21.835  0.0000E+00  0.3017E+02
     22.168  0.0000E+00  0.3089E+02
     22.501  0.0000E+00  0.3122E+02
     22.834  0.3337E+00  0.3196E+02
     23.167  0.0000E+00  0.3269E+02
     23.500  0.0000E+00  0.3307E+02
     23.833  0.0000E+00  0.3369E+02
     24.166  0.0000E+00  0.3454E+02
     24.499  0.0000E+00  0.3485E+02
     24.832  0.0000E+00  0.3585E+02
     25.165  0.0000E+00  0.3615E+02
     25.497  0.0000E+00  0.3659E+02
     25.830  0.6675E+00  0.3738E+02
     26.163  0.0000E+00  0.3827E+02
     26.496  0.0000E+00  0.3878E+02
     26.829  0.0000E+00  0.3900E+02
     27.162  0.0000E+00  0.3941E+02
     27.495  0.0000E+00  0.3985E+02
     27.828  0.0000E+00  0.4010E+02
     28.161  0.3660E-02  0.4066E+02
     28.494  0.0000E+00  0.4195E+02
     28.827  0.0000E+00  0.4301E+02
     29.160  0.0000E+00  0.4353E+02
     29.493  0.0000E+00  0.4375E+02
     29.826  0.3337E+00  0.4479E+02
     30.158  0.0000E+00  0.4581E+02
     30.491  0.2142E-08  0.4619E+02
     30.824  0.1112E+00  0.4634E+02
     31.157  0.0000E+00  0.4678E+02
     31.490  0.0000E+00  0.4706E+02
     31.823  0.0000E+00  0.4816E+02
     32.156  0.0000E+00  0.4827E+02
     32.489  0.0000E+00  0.4916E+02
     32.822  0.0000E+00  0.4964E+02
     33.155  0.0000E+00  0.5121E+02
     33.488  0.0000E+00  0.5128E+02
     33.821  0.0000E+00  0.5173E+02
     34.154  0.0000E+00  0.5295E+02
     34.487  0.0000E+00  0.5340E+02
     34.819  0.0000E+00  0.5445E+02
     35.152  0.3155E+00  0.5469E+02
     35.485  0.0000E+00  0.5529E+02
     35.818  0.0000E+00  0.5595E+02
     36.151  0.0000E+00  0.5623E+02
     36.484  0.0000E+00  0.5653E+02
     36.817  0.0000E+00  0.5747E+02
     37.150  0.0000E+00  0.5772E+02
     37.483  0.1161E-01  0.5862E+02
     37.816  0.0000E+00  0.6003E+02
     38.149  0.1731E-01  0.6059E+02
     38.482  0.3250E-01  0.6144E+02
     38.815  0.0000E+00  0.6264E+02
     39.148  0.0000E+00  0.6346E+02
     39.480  0.3394E+00  0.6395E+02
     39.813  0.0000E+00  0.6459E+02
     40.146  0.0000E+00  0.6481E+02
     40.479  0.0000E+00  0.6565E+02
     40.812  0.0000E+00  0.6624E+02
     41.145  0.0000E+00  0.6680E+02
     41.478  0.0000E+00  0.6702E+02
     41.811  0.0000E+00  0.6749E+02
     42.144  0.3969E-04  0.6827E+02
     42.477  0.0000E+00  0.6938E+02
     42.810  0.0000E+00  0.6983E+02
     43.143  0.0000E+00  0.7043E+02
     43.476  0.0000E+00  0.7142E+02
     43.809  0.0000E+00  0.7263E+02
     44.141  0.0000E+00  0.7330E+02
     44.474  0.0000E+00  0.7405E+02
     44.807  0.0000E+00  0.7530E+02
     45.140  0.0000E+00  0.7622E+02
     45.473  0.0000E+00  0.7700E+02
     45.806  0.0000E+00  0.7711E+02
     46.139  0.0000E+00  0.7838E+02
     46.472  0.0000E+00  0.7881E+02
     46.805  0.0000E+00  0.7949E+02
     47.138  0.2418E-02  0.8001E+02
     47.471  0.0000E+00  0.8062E+02
     47.804  0.0000E+00  0.8129E+02
     48.137  0.0000E+00  0.8195E+02
     48.470  0.0000E+00  0.8258E+02
     48.802  0.0000E+00  0.8294E+02
     49.135  0.0000E+00  0.8383E+02
     49.468  0.0000E+00  0.8450E+02
     49.801  0.0000E+00  0.8565E+02
     50.134  0.2105E+00  0.8685E+02
     50.467  0.0000E+00  0.8793E+02
     50.800  0.0000E+00  0.8928E+02
     51.133  0.0000E+00  0.8931E+02
     51.466  0.0000E+00  0.9019E+02
     51.799  0.6639E+00  0.9138E+02
     52.132  0.0000E+00  0.9194E+02
     52.465  0.0000E+00  0.9242E+02
     52.798  0.6311E-06  0.9313E+02
     53.131  0.3905E-03  0.9402E+02
     53.463  0.0000E+00  0.9507E+02
     53.796  0.0000E+00  0.9581E+02
     54.129  0.0000E+00  0.9669E+02
     54.462  0.6049E-13  0.9738E+02
     54.795  0.0000E+00  0.9783E+02
     55.128  0.0000E+00  0.9883E+02
     55.461  0.0000E+00  0.9953E+02
     55.794  0.1669E+00  0.1005E+03
     56.127  0.0000E+00  0.1009E+03
     56.460  0.0000E+00  0.1012E+03
     56.793  0.2206E+00  0.1019E+03
     57.126  0.0000E+00  0.1030E+03
     57.459  0.1681E+00  0.1034E+03
     57.792  0.0000E+00  0.1049E+03
     58.124  0.0000E+00  0.1061E+03
     58.457  0.0000E+00  0.1070E+03
     58.790  0.0000E+00  0.1080E+03
     59.123  0.0000E+00  0.1085E+03
     59.456  0.0000E+00  0.1095E+03
     59.789  0.0000E+00  0.1104E+03
     60.122  0.3351E-12  0.1114E+03
     60.455  0.0000E+00  0.1119E+03
     60.788  0.3304E+00  0.1129E+03
     61.121  0.0000E+00  0.1133E+03
     61.454  0.0000E+00  0.1144E+03
     61.787  0.6675E+00  0.1158E+03
     62.120  0.1185E-03  0.1165E+03
     62.453  0.0000E+00  0.1173E+03
     62.785  0.0000E+00  0.1180E+03
     63.118  0.2225E+00  0.1184E+03
     63.451  0.6675E+00  0.1199E+03
     63.784  0.0000E+00  0.1209E+03
     64.117  0.0000E+00  0.1209E+03
     64.450  0.5275E-06  0.1215E+03
     64.783  0.0000E+00  0.1222E+03
     65.116  0.0000E+00  0.1235E+03
     65.449  0.0000E+00  0.1243E+03
     65.782  0.0000E+00  0.1254E+03
     66.115  0.0000E+00  0.1264E+03
     66.448  0.0000E+00  0.1272E+03
     66.781  0.0000E+00  0.1276E+03
     67.114  0.6675E+00  0.1278E+03
     67.446  0.0000E+00  0.1278E+03
     67.779  0.0000E+00  0.1279E+03
     68.112  0.0000E+00  0.1279E+03
     68.445  0.0000E+00  0.1279E+03
     68.778  0.0000E+00  0.1279E+03
     69.111  0.0000E+00  0.1280E+03
     69.444  0.0000E+00  0.1280E+03
     69.777  0.0000E+00  0.1280E+03
     70.110  0.0000E+00  0.1280E+03
     70.443  0.0000E+00  0.1280E+03
     70.776  0.0000E+00  0.1280E+03
     71.109  0.0000E+00  0.1280E+03
     71.442  0.0000E+00  0.1280E+03
     71.775  0.0000E+00  0.1280E+03
     72.107  0.0000E+00  0.1280E+03
     72.440  0.0000E+00  0.1280E+03
     72.773  0.0000E+00  0.1280E+03
     73.106  0.0000E+00  0.1280E+03
     73.439  0.0000E+00  0.1280E+03
