    1    1    1    1
  0.4557239E+02  0.4009334E-09  0.4009334E-09  0.4009334E-09  0.1000000E-15
  1.000000000000000E-004
  CAR 
 Og_FCC                                  
      8    216    128
 
  0.0000000E+00  0.0000000E+00  0.0000000E+00  0.4629630E-02
    1      -21.899490   1.000000
    2      -21.899490   1.000000
    3       -7.561173   1.000000
    4       -7.561173   1.000000
    5       -6.835874   1.000000
    6       -6.835874   1.000000
    7       -6.835873   1.000000
    8       -6.835873   1.000000
    9        4.801570   0.000000
   10        4.801571   0.000000
   11       12.002532   0.000000
   12       12.002532   0.000000
   13       12.005986   0.000000
   14       12.005986   0.000000
   15       12.005992   0.000000
   16       12.005992   0.000000
   17       12.382019   0.000000
   18       12.382019   0.000000
   19       12.382019   0.000000
   20       12.382019   0.000000
   21       13.616118   0.000000
   22       13.616119   0.000000
   23       16.144032   0.000000
   24       16.144033   0.000000
   25       16.180607   0.000000
   26       16.180608   0.000000
   27       16.180608   0.000000
   28       16.180609   0.000000
   29       18.221677   0.000000
   30       18.221704   0.000000
   31       26.386499   0.000000
   32       26.386499   0.000000
   33       26.863674   0.000000
   34       26.863674   0.000000
   35       26.863674   0.000000
   36       26.863675   0.000000
   37       27.664287   0.000000
   38       27.664287   0.000000
   39       27.664287   0.000000
   40       27.664287   0.000000
   41       27.722883   0.000000
   42       27.722883   0.000000
   43       30.646675   0.000000
   44       30.646675   0.000000
   45       30.646675   0.000000
   46       30.646675   0.000000
   47       31.521505   0.000000
   48       31.521505   0.000000
   49       31.521505   0.000000
   50       31.521505   0.000000
   51       31.521505   0.000000
   52       31.521505   0.000000
   53       33.751508   0.000000
   54       33.751520   0.000000
   55       40.728964   0.000000
   56       40.728964   0.000000
   57       40.728966   0.000000
   58       40.728966   0.000000
   59       41.647613   0.000000
   60       41.647614   0.000000
   61       41.744508   0.000000
   62       41.744510   0.000000
   63       41.744512   0.000000
   64       41.744513   0.000000
   65       42.707750   0.000000
   66       42.707751   0.000000
   67       43.688010   0.000000
   68       43.688010   0.000000
   69       43.688010   0.000000
   70       43.688010   0.000000
   71       43.717770   0.000000
   72       43.717770   0.000000
   73       44.528997   0.000000
   74       44.528998   0.000000
   75       44.659632   0.000000
   76       44.659633   0.000000
   77       44.659634   0.000000
   78       44.659635   0.000000
   79       47.217123   0.000000
   80       47.217123   0.000000
   81       47.217123   0.000000
   82       47.217124   0.000000
   83       47.217124   0.000000
   84       47.217124   0.000000
   85       47.461599   0.000000
   86       47.461599   0.000000
   87       47.461599   0.000000
   88       47.461600   0.000000
   89       47.461600   0.000000
   90       47.461600   0.000000
   91       48.657535   0.000000
   92       48.657574   0.000000
   93       49.840586   0.000000
   94       49.840587   0.000000
   95       49.840587   0.000000
   96       49.840588   0.000000
   97       49.840827   0.000000
   98       49.840828   0.000000
   99       50.581062   0.000000
  100       50.581062   0.000000
  101       50.581062   0.000000
  102       50.581063   0.000000
  103       53.697496   0.000000
  104       53.697498   0.000000
  105       53.706696   0.000000
  106       53.706697   0.000000
  107       53.706698   0.000000
  108       53.706700   0.000000
  109       53.765572   0.000000
  110       53.765585   0.000000
  111       54.190957   0.000000
  112       54.190957   0.000000
  113       54.190957   0.000000
  114       54.190958   0.000000
  115       54.192955   0.000000
  116       54.192956   0.000000
  117       54.467118   0.000000
  118       54.467121   0.000000
  119       67.897740   0.000000
  120       67.897740   0.000000
  121       67.897744   0.000000
  122       67.897744   0.000000
  123       68.529015   0.000000
  124       68.529018   0.000000
  125       68.609855   0.000000
  126       68.609858   0.000000
  127       68.609861   0.000000
  128       68.609864   0.000000
 
  0.1666667E+00  0.1653359E-17  0.1387779E-16  0.4629630E-02
    1      -21.850634   1.000000
    2      -21.850631   1.000000
    3       -7.831245   1.000000
    4       -7.831245   1.000000
    5       -7.144055   1.000000
    6       -7.144055   1.000000
    7       -6.893821   1.000000
    8       -6.893820   1.000000
    9        5.610901   0.000000
   10        5.610903   0.000000
   11       10.917322   0.000000
   12       10.917322   0.000000
   13       12.239626   0.000000
   14       12.239626   0.000000
   15       12.243782   0.000000
   16       12.243784   0.000000
   17       11.872815   0.000000
   18       11.872816   0.000000
   19       11.884066   0.000000
   20       11.884066   0.000000
   21       14.325438   0.000000
   22       14.325445   0.000000
   23       15.756507   0.000000
   24       15.756511   0.000000
   25       17.803013   0.000000
   26       17.803014   0.000000
   27       17.827986   0.000000
   28       17.827987   0.000000
   29       20.584519   0.000000
   30       20.584535   0.000000
   31       22.817647   0.000000
   32       22.817651   0.000000
   33       23.663982   0.000000
   34       23.663982   0.000000
   35       23.777926   0.000000
   36       23.777926   0.000000
   37       28.022133   0.000000
   38       28.022134   0.000000
   39       28.162372   0.000000
   40       28.162372   0.000000
   41       29.745233   0.000000
   42       29.745233   0.000000
   43       29.761209   0.000000
   44       29.761209   0.000000
   45       30.098065   0.000000
   46       30.098067   0.000000
   47       31.772755   0.000000
   48       31.772756   0.000000
   49       35.130213   0.000000
   50       35.130214   0.000000
   51       35.157568   0.000000
   52       35.157568   0.000000
   53       35.461222   0.000000
   54       35.461234   0.000000
   55       37.484012   0.000000
   56       37.484013   0.000000
   57       37.516082   0.000000
   58       37.516083   0.000000
   59       37.605106   0.000000
   60       37.605107   0.000000
   61       40.821485   0.000000
   62       40.821493   0.000000
   63       41.084528   0.000000
   64       41.084528   0.000000
   65       41.102899   0.000000
   66       41.102900   0.000000
   67       42.869756   0.000000
   68       42.869756   0.000000
   69       42.912936   0.000000
   70       42.912937   0.000000
   71       42.918550   0.000000
   72       42.918550   0.000000
   73       43.376332   0.000000
   74       43.376333   0.000000
   75       44.673217   0.000000
   76       44.673218   0.000000
   77       44.690823   0.000000
   78       44.690824   0.000000
   79       45.833134   0.000000
   80       45.833138   0.000000
   81       46.366275   0.000000
   82       46.366275   0.000000
   83       46.419236   0.000000
   84       46.419237   0.000000
   85       48.295153   0.000000
   86       48.295162   0.000000
   87       49.373131   0.000000
   88       49.373132   0.000000
   89       49.375203   0.000000
   90       49.375204   0.000000
   91       50.133014   0.000000
   92       50.133014   0.000000
   93       50.143398   0.000000
   94       50.143398   0.000000
   95       50.341404   0.000000
   96       50.341414   0.000000
   97       52.167518   0.000000
   98       52.167534   0.000000
   99       52.182612   0.000000
  100       52.182612   0.000000
  101       52.748098   0.000000
  102       52.748099   0.000000
  103       52.751211   0.000000
  104       52.751212   0.000000
  105       53.356572   0.000000
  106       53.356578   0.000000
  107       56.305649   0.000000
  108       56.305649   0.000000
  109       56.305772   0.000000
  110       56.305773   0.000000
  111       57.740598   0.000000
  112       57.740605   0.000000
  113       57.821987   0.000000
  114       57.821988   0.000000
  115       57.822904   0.000000
  116       57.822905   0.000000
  117       62.576771   0.000000
  118       62.576773   0.000000
  119       62.628971   0.000000
  120       62.628972   0.000000
  121       63.115535   0.000000
  122       63.115539   0.000000
  123       64.316415   0.000000
  124       64.316427   0.000000
  125       65.754445   0.000000
  126       65.754445   0.000000
  127       65.768574   0.000000
  128       65.768574   0.000000
 
  0.3333333E+00 -0.5220443E-16  0.1387779E-16  0.4629630E-02
    1      -21.747283   1.000000
    2      -21.747282   1.000000
    3       -8.588332   1.000000
    4       -8.588332   1.000000
    5       -7.400351   1.000000
    6       -7.400351   1.000000
    7       -7.005942   1.000000
    8       -7.005939   1.000000
    9        6.981719   0.000000
   10        6.981720   0.000000
   11       10.164010   0.000000
   12       10.164011   0.000000
   13       11.841303   0.000000
   14       11.841303   0.000000
   15       11.842038   0.000000
   16       11.842041   0.000000
   17       12.790556   0.000000
   18       12.790556   0.000000
   19       12.813382   0.000000
   20       12.813382   0.000000
   21       13.314980   0.000000
   22       13.314989   0.000000
   23       17.989420   0.000000
   24       17.989420   0.000000
   25       19.546755   0.000000
   26       19.546757   0.000000
   27       19.618923   0.000000
   28       19.618924   0.000000
   29       19.684013   0.000000
   30       19.684013   0.000000
   31       21.183014   0.000000
   32       21.183015   0.000000
   33       21.201377   0.000000
   34       21.201378   0.000000
   35       25.414114   0.000000
   36       25.414131   0.000000
   37       27.917418   0.000000
   38       27.917419   0.000000
   39       28.054042   0.000000
   40       28.054042   0.000000
   41       29.140864   0.000000
   42       29.140868   0.000000
   43       29.897792   0.000000
   44       29.897792   0.000000
   45       29.927094   0.000000
   46       29.927094   0.000000
   47       32.264289   0.000000
   48       32.264290   0.000000
   49       32.266711   0.000000
   50       32.266712   0.000000
   51       32.383344   0.000000
   52       32.383344   0.000000
   53       33.012912   0.000000
   54       33.012914   0.000000
   55       36.229720   0.000000
   56       36.229738   0.000000
   57       38.377409   0.000000
   58       38.377410   0.000000
   59       38.392039   0.000000
   60       38.392039   0.000000
   61       39.136648   0.000000
   62       39.136650   0.000000
   63       39.593712   0.000000
   64       39.593712   0.000000
   65       39.595611   0.000000
   66       39.595612   0.000000
   67       40.516750   0.000000
   68       40.516751   0.000000
   69       42.449281   0.000000
   70       42.449283   0.000000
   71       43.013470   0.000000
   72       43.013470   0.000000
   73       43.078199   0.000000
   74       43.078199   0.000000
   75       43.740237   0.000000
   76       43.740239   0.000000
   77       44.909770   0.000000
   78       44.909771   0.000000
   79       44.923443   0.000000
   80       44.923444   0.000000
   81       46.999139   0.000000
   82       46.999140   0.000000
   83       47.041132   0.000000
   84       47.041132   0.000000
   85       48.520630   0.000000
   86       48.520632   0.000000
   87       50.295625   0.000000
   88       50.295627   0.000000
   89       50.306312   0.000000
   90       50.306314   0.000000
   91       51.588203   0.000000
   92       51.588225   0.000000
   93       54.771246   0.000000
   94       54.771247   0.000000
   95       54.777864   0.000000
   96       54.777864   0.000000
   97       55.763160   0.000000
   98       55.763161   0.000000
   99       56.791035   0.000000
  100       56.791035   0.000000
  101       56.817544   0.000000
  102       56.817544   0.000000
  103       57.134587   0.000000
  104       57.134588   0.000000
  105       57.225524   0.000000
  106       57.225525   0.000000
  107       57.799770   0.000000
  108       57.799771   0.000000
  109       58.821738   0.000000
  110       58.821750   0.000000
  111       58.825051   0.000000
  112       58.825052   0.000000
  113       58.841556   0.000000
  114       58.841557   0.000000
  115       60.027224   0.000000
  116       60.027237   0.000000
  117       61.352141   0.000000
  118       61.352147   0.000000
  119       62.121894   0.000000
  120       62.121895   0.000000
  121       62.125674   0.000000
  122       62.125675   0.000000
  123       63.412107   0.000000
  124       63.412110   0.000000
  125       64.907008   0.000000
  126       64.907008   0.000000
  127       64.907636   0.000000
  128       64.907637   0.000000
 
  0.5000000E+00  0.4960076E-17  0.5551115E-16  0.4629630E-02
    1      -21.692532   1.000000
    2      -21.692532   1.000000
    3       -8.971645   1.000000
    4       -8.971645   1.000000
    5       -7.474282   1.000000
    6       -7.474282   1.000000
    7       -7.060270   1.000000
    8       -7.060269   1.000000
    9        7.398721   0.000000
   10        7.398722   0.000000
   11       10.279794   0.000000
   12       10.279796   0.000000
   13       11.505862   0.000000
   14       11.505869   0.000000
   15       11.506153   0.000000
   16       11.506154   0.000000
   17       13.370718   0.000000
   18       13.370725   0.000000
   19       14.373626   0.000000
   20       14.373626   0.000000
   21       14.390330   0.000000
   22       14.390330   0.000000
   23       15.886858   0.000000
   24       15.886859   0.000000
   25       17.089338   0.000000
   26       17.089338   0.000000
   27       17.182128   0.000000
   28       17.182128   0.000000
   29       23.892492   0.000000
   30       23.892493   0.000000
   31       24.447952   0.000000
   32       24.447960   0.000000
   33       24.849407   0.000000
   34       24.849408   0.000000
   35       24.877466   0.000000
   36       24.877467   0.000000
   37       25.387556   0.000000
   38       25.387557   0.000000
   39       25.517666   0.000000
   40       25.517667   0.000000
   41       29.869293   0.000000
   42       29.869293   0.000000
   43       30.005219   0.000000
   44       30.005219   0.000000
   45       30.495239   0.000000
   46       30.495264   0.000000
   47       30.819634   0.000000
   48       30.819639   0.000000
   49       31.092199   0.000000
   50       31.092199   0.000000
   51       31.135444   0.000000
   52       31.135445   0.000000
   53       32.780153   0.000000
   54       32.780154   0.000000
   55       33.453841   0.000000
   56       33.453842   0.000000
   57       37.419551   0.000000
   58       37.419558   0.000000
   59       37.551548   0.000000
   60       37.551549   0.000000
   61       37.563767   0.000000
   62       37.563768   0.000000
   63       38.482244   0.000000
   64       38.482245   0.000000
   65       38.482590   0.000000
   66       38.482590   0.000000
   67       39.369309   0.000000
   68       39.369309   0.000000
   69       42.381212   0.000000
   70       42.381214   0.000000
   71       44.704862   0.000000
   72       44.704863   0.000000
   73       44.725356   0.000000
   74       44.725356   0.000000
   75       46.688932   0.000000
   76       46.688932   0.000000
   77       46.728663   0.000000
   78       46.728663   0.000000
   79       47.031145   0.000000
   80       47.031148   0.000000
   81       49.342041   0.000000
   82       49.342041   0.000000
   83       49.381628   0.000000
   84       49.381628   0.000000
   85       49.567862   0.000000
   86       49.567862   0.000000
   87       50.010258   0.000000
   88       50.010258   0.000000
   89       50.059830   0.000000
   90       50.059830   0.000000
   91       52.630518   0.000000
   92       52.630521   0.000000
   93       53.422116   0.000000
   94       53.422118   0.000000
   95       53.472063   0.000000
   96       53.472066   0.000000
   97       53.838492   0.000000
   98       53.838522   0.000000
   99       54.499224   0.000000
  100       54.499225   0.000000
  101       54.516737   0.000000
  102       54.516738   0.000000
  103       57.105255   0.000000
  104       57.105256   0.000000
  105       60.358233   0.000000
  106       60.358235   0.000000
  107       61.099439   0.000000
  108       61.099439   0.000000
  109       61.134034   0.000000
  110       61.134034   0.000000
  111       61.185284   0.000000
  112       61.185284   0.000000
  113       61.197366   0.000000
  114       61.197367   0.000000
  115       62.815044   0.000000
  116       62.815045   0.000000
  117       62.843592   0.000000
  118       62.843593   0.000000
  119       63.237345   0.000000
  120       63.237345   0.000000
  121       63.241541   0.000000
  122       63.241542   0.000000
  123       63.422338   0.000000
  124       63.422339   0.000000
  125       64.073305   0.000000
  126       64.073307   0.000000
  127       64.831483   0.000000
  128       64.831484   0.000000
 
 -0.3333333E+00  0.5220443E-16 -0.1387779E-16  0.4629630E-02
    1      -21.747284   1.000000
    2      -21.747282   1.000000
    3       -8.588332   1.000000
    4       -8.588332   1.000000
    5       -7.400351   1.000000
    6       -7.400351   1.000000
    7       -7.005942   1.000000
    8       -7.005939   1.000000
    9        6.981719   0.000000
   10        6.981720   0.000000
   11       10.164010   0.000000
   12       10.164012   0.000000
   13       11.841303   0.000000
   14       11.841303   0.000000
   15       11.842038   0.000000
   16       11.842041   0.000000
   17       12.790556   0.000000
   18       12.790556   0.000000
   19       12.813382   0.000000
   20       12.813382   0.000000
   21       13.314980   0.000000
   22       13.314989   0.000000
   23       17.989420   0.000000
   24       17.989420   0.000000
   25       19.546755   0.000000
   26       19.546757   0.000000
   27       19.618923   0.000000
   28       19.618924   0.000000
   29       19.684013   0.000000
   30       19.684013   0.000000
   31       21.183014   0.000000
   32       21.183015   0.000000
   33       21.201377   0.000000
   34       21.201378   0.000000
   35       25.414114   0.000000
   36       25.414131   0.000000
   37       27.917418   0.000000
   38       27.917419   0.000000
   39       28.054042   0.000000
   40       28.054042   0.000000
   41       29.140864   0.000000
   42       29.140868   0.000000
   43       29.897792   0.000000
   44       29.897792   0.000000
   45       29.927094   0.000000
   46       29.927094   0.000000
   47       32.264289   0.000000
   48       32.264290   0.000000
   49       32.266711   0.000000
   50       32.266712   0.000000
   51       32.383344   0.000000
   52       32.383344   0.000000
   53       33.012912   0.000000
   54       33.012914   0.000000
   55       36.229720   0.000000
   56       36.229738   0.000000
   57       38.377409   0.000000
   58       38.377410   0.000000
   59       38.392039   0.000000
   60       38.392039   0.000000
   61       39.136648   0.000000
   62       39.136650   0.000000
   63       39.593712   0.000000
   64       39.593712   0.000000
   65       39.595611   0.000000
   66       39.595612   0.000000
   67       40.516750   0.000000
   68       40.516751   0.000000
   69       42.449281   0.000000
   70       42.449283   0.000000
   71       43.013470   0.000000
   72       43.013470   0.000000
   73       43.078199   0.000000
   74       43.078199   0.000000
   75       43.740237   0.000000
   76       43.740239   0.000000
   77       44.909770   0.000000
   78       44.909771   0.000000
   79       44.923443   0.000000
   80       44.923444   0.000000
   81       46.999139   0.000000
   82       46.999140   0.000000
   83       47.041132   0.000000
   84       47.041132   0.000000
   85       48.520630   0.000000
   86       48.520632   0.000000
   87       50.295625   0.000000
   88       50.295627   0.000000
   89       50.306312   0.000000
   90       50.306314   0.000000
   91       51.588203   0.000000
   92       51.588225   0.000000
   93       54.771246   0.000000
   94       54.771247   0.000000
   95       54.777864   0.000000
   96       54.777864   0.000000
   97       55.763160   0.000000
   98       55.763161   0.000000
   99       56.791035   0.000000
  100       56.791035   0.000000
  101       56.817544   0.000000
  102       56.817544   0.000000
  103       57.134587   0.000000
  104       57.134588   0.000000
  105       57.225524   0.000000
  106       57.225525   0.000000
  107       57.799770   0.000000
  108       57.799771   0.000000
  109       58.821738   0.000000
  110       58.821750   0.000000
  111       58.825051   0.000000
  112       58.825052   0.000000
  113       58.841556   0.000000
  114       58.841557   0.000000
  115       60.027224   0.000000
  116       60.027237   0.000000
  117       61.352141   0.000000
  118       61.352147   0.000000
  119       62.121894   0.000000
  120       62.121895   0.000000
  121       62.125674   0.000000
  122       62.125675   0.000000
  123       63.412107   0.000000
  124       63.412110   0.000000
  125       64.907008   0.000000
  126       64.907008   0.000000
  127       64.907636   0.000000
  128       64.907637   0.000000
 
 -0.1666667E+00 -0.1653359E-17 -0.1387779E-16  0.4629630E-02
    1      -21.850634   1.000000
    2      -21.850631   1.000000
    3       -7.831245   1.000000
    4       -7.831245   1.000000
    5       -7.144055   1.000000
    6       -7.144054   1.000000
    7       -6.893821   1.000000
    8       -6.893820   1.000000
    9        5.610901   0.000000
   10        5.610903   0.000000
   11       10.917322   0.000000
   12       10.917323   0.000000
   13       12.239626   0.000000
   14       12.239626   0.000000
   15       12.243783   0.000000
   16       12.243784   0.000000
   17       11.872815   0.000000
   18       11.872816   0.000000
   19       11.884066   0.000000
   20       11.884066   0.000000
   21       14.325438   0.000000
   22       14.325445   0.000000
   23       15.756507   0.000000
   24       15.756511   0.000000
   25       17.803013   0.000000
   26       17.803014   0.000000
   27       17.827986   0.000000
   28       17.827987   0.000000
   29       20.584519   0.000000
   30       20.584535   0.000000
   31       22.817647   0.000000
   32       22.817651   0.000000
   33       23.663982   0.000000
   34       23.663982   0.000000
   35       23.777926   0.000000
   36       23.777926   0.000000
   37       28.022133   0.000000
   38       28.022133   0.000000
   39       28.162372   0.000000
   40       28.162372   0.000000
   41       29.745233   0.000000
   42       29.745233   0.000000
   43       29.761209   0.000000
   44       29.761209   0.000000
   45       30.098065   0.000000
   46       30.098067   0.000000
   47       31.772755   0.000000
   48       31.772756   0.000000
   49       35.130213   0.000000
   50       35.130214   0.000000
   51       35.157568   0.000000
   52       35.157568   0.000000
   53       35.461222   0.000000
   54       35.461234   0.000000
   55       37.484012   0.000000
   56       37.484013   0.000000
   57       37.516082   0.000000
   58       37.516083   0.000000
   59       37.605106   0.000000
   60       37.605107   0.000000
   61       40.821485   0.000000
   62       40.821493   0.000000
   63       41.084528   0.000000
   64       41.084528   0.000000
   65       41.102899   0.000000
   66       41.102900   0.000000
   67       42.869756   0.000000
   68       42.869756   0.000000
   69       42.912936   0.000000
   70       42.912937   0.000000
   71       42.918550   0.000000
   72       42.918550   0.000000
   73       43.376332   0.000000
   74       43.376333   0.000000
   75       44.673217   0.000000
   76       44.673218   0.000000
   77       44.690823   0.000000
   78       44.690824   0.000000
   79       45.833134   0.000000
   80       45.833138   0.000000
   81       46.366275   0.000000
   82       46.366275   0.000000
   83       46.419236   0.000000
   84       46.419237   0.000000
   85       48.295153   0.000000
   86       48.295162   0.000000
   87       49.373131   0.000000
   88       49.373132   0.000000
   89       49.375203   0.000000
   90       49.375204   0.000000
   91       50.133014   0.000000
   92       50.133014   0.000000
   93       50.143398   0.000000
   94       50.143398   0.000000
   95       50.341404   0.000000
   96       50.341414   0.000000
   97       52.167518   0.000000
   98       52.167534   0.000000
   99       52.182612   0.000000
  100       52.182612   0.000000
  101       52.748098   0.000000
  102       52.748099   0.000000
  103       52.751211   0.000000
  104       52.751212   0.000000
  105       53.356572   0.000000
  106       53.356578   0.000000
  107       56.305649   0.000000
  108       56.305649   0.000000
  109       56.305772   0.000000
  110       56.305773   0.000000
  111       57.740598   0.000000
  112       57.740605   0.000000
  113       57.821987   0.000000
  114       57.821988   0.000000
  115       57.822904   0.000000
  116       57.822905   0.000000
  117       62.576771   0.000000
  118       62.576773   0.000000
  119       62.628971   0.000000
  120       62.628972   0.000000
  121       63.115535   0.000000
  122       63.115539   0.000000
  123       64.316415   0.000000
  124       64.316427   0.000000
  125       65.754445   0.000000
  126       65.754445   0.000000
  127       65.768574   0.000000
  128       65.768574   0.000000
 
 -0.3851860E-33  0.1666667E+00 -0.6938894E-17  0.4629630E-02
    1      -21.850633   1.000000
    2      -21.850633   1.000000
    3       -7.831245   1.000000
    4       -7.831245   1.000000
    5       -7.144055   1.000000
    6       -7.144055   1.000000
    7       -6.893821   1.000000
    8       -6.893820   1.000000
    9        5.610902   0.000000
   10        5.610902   0.000000
   11       10.917322   0.000000
   12       10.917322   0.000000
   13       12.239626   0.000000
   14       12.239626   0.000000
   15       12.243782   0.000000
   16       12.243784   0.000000
   17       11.872815   0.000000
   18       11.872815   0.000000
   19       11.884066   0.000000
   20       11.884066   0.000000
   21       14.325438   0.000000
   22       14.325445   0.000000
   23       15.756507   0.000000
   24       15.756511   0.000000
   25       17.803014   0.000000
   26       17.803014   0.000000
   27       17.827987   0.000000
   28       17.827987   0.000000
   29       20.584519   0.000000
   30       20.584535   0.000000
   31       22.817647   0.000000
   32       22.817651   0.000000
   33       23.663982   0.000000
   34       23.663982   0.000000
   35       23.777926   0.000000
   36       23.777926   0.000000
   37       28.022133   0.000000
   38       28.022133   0.000000
   39       28.162372   0.000000
   40       28.162372   0.000000
   41       29.745233   0.000000
   42       29.745233   0.000000
   43       29.761209   0.000000
   44       29.761209   0.000000
   45       30.098065   0.000000
   46       30.098067   0.000000
   47       31.772755   0.000000
   48       31.772756   0.000000
   49       35.130214   0.000000
   50       35.130214   0.000000
   51       35.157568   0.000000
   52       35.157568   0.000000
   53       35.461222   0.000000
   54       35.461234   0.000000
   55       37.484013   0.000000
   56       37.484013   0.000000
   57       37.516083   0.000000
   58       37.516083   0.000000
   59       37.605106   0.000000
   60       37.605107   0.000000
   61       40.821485   0.000000
   62       40.821493   0.000000
   63       41.084528   0.000000
   64       41.084528   0.000000
   65       41.102899   0.000000
   66       41.102900   0.000000
   67       42.869756   0.000000
   68       42.869756   0.000000
   69       42.912936   0.000000
   70       42.912936   0.000000
   71       42.918550   0.000000
   72       42.918550   0.000000
   73       43.376332   0.000000
   74       43.376333   0.000000
   75       44.673217   0.000000
   76       44.673217   0.000000
   77       44.690823   0.000000
   78       44.690824   0.000000
   79       45.833134   0.000000
   80       45.833138   0.000000
   81       46.366275   0.000000
   82       46.366275   0.000000
   83       46.419236   0.000000
   84       46.419237   0.000000
   85       48.295153   0.000000
   86       48.295162   0.000000
   87       49.373131   0.000000
   88       49.373132   0.000000
   89       49.375203   0.000000
   90       49.375203   0.000000
   91       50.133014   0.000000
   92       50.133014   0.000000
   93       50.143398   0.000000
   94       50.143398   0.000000
   95       50.341404   0.000000
   96       50.341414   0.000000
   97       52.167518   0.000000
   98       52.167534   0.000000
   99       52.182612   0.000000
  100       52.182612   0.000000
  101       52.748098   0.000000
  102       52.748098   0.000000
  103       52.751212   0.000000
  104       52.751212   0.000000
  105       53.356572   0.000000
  106       53.356578   0.000000
  107       56.305649   0.000000
  108       56.305649   0.000000
  109       56.305772   0.000000
  110       56.305772   0.000000
  111       57.740598   0.000000
  112       57.740605   0.000000
  113       57.821987   0.000000
  114       57.821987   0.000000
  115       57.822905   0.000000
  116       57.822905   0.000000
  117       62.576771   0.000000
  118       62.576772   0.000000
  119       62.628971   0.000000
  120       62.628972   0.000000
  121       63.115535   0.000000