   1   1   0   0
  0.3721384E+02  0.3747484E-09  0.3747484E-09  0.3747484E-09  0.1000000E-15
  1.000000000000000E-004
  CAR 
 Og_FCC                                  
     82.95804655    -24.75186956  301     -4.91529335      1.00000000
    -24.752  0.0000E+00  0.0000E+00
    -24.393  0.0000E+00  0.0000E+00
    -24.034  0.0000E+00  0.0000E+00
    -23.675  0.0000E+00  0.0000E+00
    -23.316  0.0000E+00  0.0000E+00
    -22.957  0.0000E+00  0.0000E+00
    -22.598  0.0000E+00  0.0000E+00
    -22.239  0.0000E+00  0.0000E+00
    -21.880  0.0000E+00  0.0000E+00
    -21.521  0.0000E+00  0.0000E+00
    -21.162  0.0000E+00  0.0000E+00
    -20.803  0.0000E+00  0.0000E+00
    -20.443  0.0000E+00  0.0000E+00
    -20.084  0.0000E+00  0.0000E+00
    -19.725  0.0000E+00  0.2500E+00
    -19.366  0.0000E+00  0.2000E+01
    -19.007  0.0000E+00  0.2000E+01
    -18.648  0.0000E+00  0.2000E+01
    -18.289  0.0000E+00  0.2000E+01
    -17.930  0.0000E+00  0.2000E+01
    -17.571  0.0000E+00  0.2000E+01
    -17.212  0.0000E+00  0.2000E+01
    -16.853  0.0000E+00  0.2000E+01
    -16.494  0.0000E+00  0.2000E+01
    -16.135  0.0000E+00  0.2000E+01
    -15.776  0.0000E+00  0.2000E+01
    -15.417  0.0000E+00  0.2000E+01
    -15.058  0.0000E+00  0.2000E+01
    -14.699  0.0000E+00  0.2000E+01
    -14.340  0.0000E+00  0.2000E+01
    -13.981  0.0000E+00  0.2000E+01
    -13.622  0.0000E+00  0.2000E+01
    -13.263  0.0000E+00  0.2000E+01
    -12.904  0.0000E+00  0.2000E+01
    -12.545  0.0000E+00  0.2000E+01
    -12.186  0.0000E+00  0.2000E+01
    -11.827  0.0000E+00  0.2000E+01
    -11.468  0.0000E+00  0.2000E+01
    -11.109  0.0000E+00  0.2000E+01
    -10.750  0.0000E+00  0.2000E+01
    -10.391  0.0000E+00  0.2000E+01
    -10.032  0.0000E+00  0.2000E+01
     -9.672  0.0000E+00  0.2000E+01
     -9.313  0.0000E+00  0.2000E+01
     -8.954  0.0000E+00  0.2000E+01
     -8.595  0.0000E+00  0.2000E+01
     -8.236  0.0000E+00  0.2000E+01
     -7.877  0.0000E+00  0.2000E+01
     -7.518  0.0000E+00  0.2000E+01
     -7.159  0.0000E+00  0.2000E+01
     -6.800  0.0000E+00  0.2000E+01
     -6.441  0.0000E+00  0.2000E+01
     -6.082  0.0000E+00  0.3361E+01
     -5.723  0.0000E+00  0.4306E+01
     -5.364  0.0000E+00  0.6713E+01
     -5.005  0.0000E+00  0.8000E+01
     -4.646  0.0000E+00  0.8000E+01
     -4.287  0.0000E+00  0.8000E+01
     -3.928  0.0000E+00  0.8000E+01
     -3.569  0.0000E+00  0.8000E+01
     -3.210  0.0000E+00  0.8000E+01
     -2.851  0.0000E+00  0.8000E+01
     -2.492  0.0000E+00  0.8000E+01
     -2.133  0.0000E+00  0.8000E+01
     -1.774  0.0000E+00  0.8000E+01
     -1.415  0.0000E+00  0.8000E+01
     -1.056  0.0000E+00  0.8000E+01
     -0.697  0.0000E+00  0.8000E+01
     -0.338  0.0000E+00  0.8000E+01
      0.021  0.0000E+00  0.8000E+01
      0.380  0.0000E+00  0.8000E+01
      0.739  0.0000E+00  0.8000E+01
      1.099  0.0000E+00  0.8000E+01
      1.458  0.0000E+00  0.8000E+01
      1.817  0.0000E+00  0.8000E+01
      2.176  0.0000E+00  0.8000E+01
      2.535  0.0000E+00  0.8000E+01
      2.894  0.0000E+00  0.8000E+01
      3.253  0.0000E+00  0.8000E+01
      3.612  0.0000E+00  0.8009E+01
      3.971  0.0000E+00  0.8009E+01
      4.330  0.0000E+00  0.8083E+01
      4.689  0.0000E+00  0.8139E+01
      5.048  0.0000E+00  0.8139E+01
      5.407  0.0000E+00  0.8250E+01
      5.766  0.0000E+00  0.8546E+01
      6.125  0.0000E+00  0.8602E+01
      6.484  0.0000E+00  0.8667E+01
      6.843  0.4662E-01  0.9350E+01
      7.202  0.0000E+00  0.9667E+01
      7.561  0.0000E+00  0.1000E+02
      7.920  0.0000E+00  0.1014E+02
      8.279  0.0000E+00  0.1097E+02
      8.638  0.0000E+00  0.1145E+02
      8.997  0.0000E+00  0.1197E+02
      9.356  0.0000E+00  0.1242E+02
      9.715  0.0000E+00  0.1331E+02
     10.074  0.0000E+00  0.1360E+02
     10.433  0.0000E+00  0.1381E+02
     10.792  0.0000E+00  0.1399E+02
     11.151  0.0000E+00  0.1469E+02
     11.510  0.0000E+00  0.1531E+02
     11.870  0.0000E+00  0.1586E+02
     12.229  0.0000E+00  0.1586E+02
     12.588  0.1086E+00  0.1655E+02
     12.947  0.0000E+00  0.1681E+02
     13.306  0.0000E+00  0.1708E+02
     13.665  0.0000E+00  0.1734E+02
     14.024  0.0000E+00  0.1845E+02
     14.383  0.0000E+00  0.1851E+02
     14.742  0.0000E+00  0.1883E+02
     15.101  0.6181E+00  0.1980E+02
     15.460  0.0000E+00  0.2028E+02
     15.819  0.0000E+00  0.2073E+02
     16.178  0.0000E+00  0.2129E+02
     16.537  0.0000E+00  0.2162E+02
     16.896  0.0000E+00  0.2184E+02
     17.255  0.0000E+00  0.2273E+02
     17.614  0.0000E+00  0.2294E+02
     17.973  0.0000E+00  0.2333E+02
     18.332  0.0000E+00  0.2361E+02
     18.691  0.0000E+00  0.2460E+02
     19.050  0.0000E+00  0.2542E+02
     19.409  0.0000E+00  0.2562E+02
     19.768  0.0000E+00  0.2606E+02
     20.127  0.0000E+00  0.2682E+02
     20.486  0.2968E-09  0.2705E+02
     20.845  0.3868E-01  0.2731E+02
     21.204  0.0000E+00  0.2790E+02
     21.563  0.0000E+00  0.2818E+02
     21.922  0.0000E+00  0.2840E+02
     22.281  0.0000E+00  0.2858E+02
     22.640  0.0000E+00  0.2932E+02
     23.000  0.6189E+00  0.2981E+02
     23.359  0.0000E+00  0.3014E+02
     23.718  0.0000E+00  0.3017E+02
     24.077  0.0000E+00  0.3089E+02
     24.436  0.0000E+00  0.3133E+02
     24.795  0.0000E+00  0.3258E+02
     25.154  0.0000E+00  0.3316E+02
     25.513  0.0000E+00  0.3353E+02
     25.872  0.0000E+00  0.3414E+02
     26.231  0.0000E+00  0.3414E+02
     26.590  0.0000E+00  0.3458E+02
     26.949  0.0000E+00  0.3503E+02
     27.308  0.0000E+00  0.3536E+02
     27.667  0.6189E+00  0.3636E+02
     28.026  0.2156E-03  0.3640E+02
     28.385  0.1649E-06  0.3696E+02
     28.744  0.2457E-14  0.3780E+02
     29.103  0.3095E+00  0.3893E+02
     29.462  0.0000E+00  0.3915E+02
     29.821  0.0000E+00  0.3959E+02
     30.180  0.0000E+00  0.4018E+02
     30.539  0.2168E-12  0.4062E+02
     30.898  0.0000E+00  0.4092E+02
     31.257  0.0000E+00  0.4168E+02
     31.616  0.0000E+00  0.4168E+02
     31.975  0.0000E+00  0.4205E+02
     32.334  0.0000E+00  0.4305E+02
     32.693  0.0000E+00  0.4401E+02
     33.052  0.0000E+00  0.4494E+02
     33.411  0.0000E+00  0.4549E+02
     33.771  0.3095E+00  0.4619E+02
     34.130  0.0000E+00  0.4641E+02
     34.489  0.7592E-07  0.4667E+02
     34.848  0.0000E+00  0.4724E+02
     35.207  0.0000E+00  0.4750E+02
     35.566  0.0000E+00  0.4823E+02
     35.925  0.0000E+00  0.4845E+02
     36.284  0.0000E+00  0.4901E+02
     36.643  0.5035E-10  0.4997E+02
     37.002  0.0000E+00  0.5079E+02
     37.361  0.1121E-01  0.5112E+02
     37.720  0.4422E-02  0.5155E+02
     38.079  0.2063E+00  0.5252E+02
     38.438  0.2861E-06  0.5335E+02
     38.797  0.0000E+00  0.5393E+02
     39.156  0.0000E+00  0.5483E+02
     39.515  0.0000E+00  0.5517E+02
     39.874  0.0000E+00  0.5587E+02
     40.233  0.0000E+00  0.5620E+02
     40.592  0.0000E+00  0.5665E+02
     40.951  0.0000E+00  0.5731E+02
     41.310  0.0000E+00  0.5772E+02
     41.669  0.5154E-16  0.5846E+02
     42.028  0.0000E+00  0.5938E+02
     42.387  0.0000E+00  0.5990E+02
     42.746  0.0000E+00  0.6049E+02
     43.105  0.0000E+00  0.6075E+02
     43.464  0.0000E+00  0.6181E+02
     43.823  0.0000E+00  0.6229E+02
     44.182  0.0000E+00  0.6292E+02
     44.542  0.1166E-12  0.6366E+02
     44.901  0.0000E+00  0.6448E+02
     45.260  0.0000E+00  0.6526E+02
     45.619  0.0000E+00  0.6556E+02
     45.978  0.3120E-11  0.6639E+02
     46.337  0.0000E+00  0.6706E+02
     46.696  0.4608E-07  0.6743E+02
     47.055  0.0000E+00  0.6861E+02
     47.414  0.0000E+00  0.6906E+02
     47.773  0.0000E+00  0.6938E+02
     48.132  0.2063E+00  0.7026E+02
     48.491  0.0000E+00  0.7107E+02
     48.850  0.0000E+00  0.7167E+02
     49.209  0.0000E+00  0.7183E+02
     49.568  0.6099E+00  0.7247E+02
     49.927  0.3095E+00  0.7281E+02
     50.286  0.0000E+00  0.7405E+02
     50.645  0.0000E+00  0.7460E+02
     51.004  0.0000E+00  0.7568E+02
     51.363  0.0000E+00  0.7626E+02
     51.722  0.0000E+00  0.7661E+02
     52.081  0.0000E+00  0.7722E+02
     52.440  0.0000E+00  0.7755E+02
     52.799  0.0000E+00  0.7814E+02
     53.158  0.0000E+00  0.7910E+02
     53.517  0.1031E+00  0.7992E+02
     53.876  0.3080E+00  0.8079E+02
     54.235  0.0000E+00  0.8171E+02
     54.594  0.0000E+00  0.8283E+02
     54.953  0.0000E+00  0.8325E+02
     55.313  0.0000E+00  0.8339E+02
     55.672  0.0000E+00  0.8397E+02
     56.031  0.0000E+00  0.8464E+02
     56.390  0.6189E+00  0.8508E+02
     56.749  0.0000E+00  0.8679E+02
     57.108  0.0000E+00  0.8744E+02
     57.467  0.0000E+00  0.8769E+02
     57.826  0.0000E+00  0.8834E+02
     58.185  0.7737E-01  0.8938E+02
     58.544  0.0000E+00  0.9071E+02
     58.903  0.0000E+00  0.9097E+02
     59.262  0.0000E+00  0.9161E+02
     59.621  0.3095E+00  0.9213E+02
     59.980  0.0000E+00  0.9296E+02
     60.339  0.0000E+00  0.9402E+02
     60.698  0.3076E-04  0.9501E+02
     61.057  0.3345E-01  0.9563E+02
     61.416  0.0000E+00  0.9631E+02
     61.775  0.0000E+00  0.9740E+02
     62.134  0.0000E+00  0.9774E+02
     62.493  0.0000E+00  0.9827E+02
     62.852  0.0000E+00  0.9949E+02
     63.211  0.0000E+00  0.9975E+02
     63.570  0.0000E+00  0.1011E+03
     63.929  0.0000E+00  0.1019E+03
     64.288  0.0000E+00  0.1026E+03
     64.647  0.2132E-13  0.1031E+03
     65.006  0.0000E+00  0.1044E+03
     65.365  0.0000E+00  0.1051E+03
     65.724  0.0000E+00  0.1057E+03
     66.083  0.0000E+00  0.1058E+03
     66.443  0.0000E+00  0.1067E+03
     66.802  0.0000E+00  0.1076E+03
     67.161  0.0000E+00  0.1077E+03
     67.520  0.0000E+00  0.1085E+03
     67.879  0.0000E+00  0.1096E+03
     68.238  0.2063E+00  0.1100E+03
     68.597  0.0000E+00  0.1108E+03
     68.956  0.0000E+00  0.1112E+03
     69.315  0.6181E+00  0.1124E+03
     69.674  0.0000E+00  0.1134E+03
     70.033  0.0000E+00  0.1141E+03
     70.392  0.0000E+00  0.1152E+03
     70.751  0.5758E+00  0.1165E+03
     71.110  0.0000E+00  0.1176E+03
     71.469  0.0000E+00  0.1183E+03
     71.828  0.6189E+00  0.1194E+03
     72.187  0.1450E+00  0.1201E+03
     72.546  0.0000E+00  0.1209E+03
     72.905  0.0000E+00  0.1211E+03
     73.264  0.0000E+00  0.1220E+03
     73.623  0.0000E+00  0.1230E+03
     73.982  0.0000E+00  0.1237E+03
     74.341  0.0000E+00  0.1240E+03
     74.700  0.0000E+00  0.1246E+03
     75.059  0.0000E+00  0.1256E+03
     75.418  0.0000E+00  0.1266E+03
     75.777  0.0000E+00  0.1273E+03
     76.136  0.0000E+00  0.1273E+03
     76.495  0.0000E+00  0.1273E+03
     76.854  0.0000E+00  0.1275E+03
     77.214  0.0000E+00  0.1279E+03
     77.573  0.1534E-01  0.1279E+03
     77.932  0.0000E+00  0.1279E+03
     78.291  0.0000E+00  0.1280E+03
     78.650  0.0000E+00  0.1280E+03
     79.009  0.0000E+00  0.1280E+03
     79.368  0.0000E+00  0.1280E+03
     79.727  0.0000E+00  0.1280E+03
     80.086  0.0000E+00  0.1280E+03
     80.445  0.0000E+00  0.1280E+03
     80.804  0.0000E+00  0.1280E+03
     81.163  0.0000E+00  0.1280E+03
     81.522  0.0000E+00  0.1280E+03
     81.881  0.0000E+00  0.1280E+03
     82.240  0.0000E+00  0.1280E+03
     82.599  0.0000E+00  0.1280E+03
     82.958  0.0000E+00  0.1280E+03
