    1    1    1    1
  0.3721384E+02  0.3747484E-09  0.3747484E-09  0.3747484E-09  0.1000000E-15
  1.000000000000000E-004
  CAR 
 Og_FCC                                  
      8    216    128
 
  0.0000000E+00  0.0000000E+00  0.0000000E+00  0.4629630E-02
    1      -19.855964   1.000000
    2      -19.855964   1.000000
    3       -5.262991   1.000000
    4       -5.262991   1.000000
    5       -5.071813   1.000000
    6       -5.071813   1.000000
    7       -5.071812   1.000000
    8       -5.071812   1.000000
    9        3.534669   0.000000
   10        3.534675   0.000000
   11       10.647530   0.000000
   12       10.647530   0.000000
   13       10.647530   0.000000
   14       10.647531   0.000000
   15       10.650050   0.000000
   16       10.650050   0.000000
   17       12.899670   0.000000
   18       12.899670   0.000000
   19       12.899670   0.000000
   20       12.899671   0.000000
   21       15.648021   0.000000
   22       15.648022   0.000000
   23       18.362605   0.000000
   24       18.362606   0.000000
   25       18.375596   0.000000
   26       18.375597   0.000000
   27       18.375598   0.000000
   28       18.375599   0.000000
   29       20.490225   0.000000
   30       20.490272   0.000000
   31       26.961546   0.000000
   32       26.961546   0.000000
   33       26.961548   0.000000
   34       26.961548   0.000000
   35       26.968505   0.000000
   36       26.968505   0.000000
   37       28.178786   0.000000
   38       28.178786   0.000000
   39       28.299575   0.000000
   40       28.299575   0.000000
   41       28.299576   0.000000
   42       28.299576   0.000000
   43       31.089069   0.000000
   44       31.089069   0.000000
   45       31.089071   0.000000
   46       31.089072   0.000000
   47       37.469022   0.000000
   48       37.469038   0.000000
   49       37.720998   0.000000
   50       37.720998   0.000000
   51       37.720998   0.000000
   52       37.720998   0.000000
   53       37.720999   0.000000
   54       37.720999   0.000000
   55       44.296426   0.000000
   56       44.296428   0.000000
   57       44.296429   0.000000
   58       44.296431   0.000000
   59       47.585704   0.000000
   60       47.585704   0.000000
   61       47.585705   0.000000
   62       47.585705   0.000000
   63       47.588281   0.000000
   64       47.588281   0.000000
   65       47.958593   0.000000
   66       47.958597   0.000000
   67       48.004322   0.000000
   68       48.004327   0.000000
   69       48.004331   0.000000
   70       48.004335   0.000000
   71       51.828591   0.000000
   72       51.828592   0.000000
   73       51.974932   0.000000
   74       51.974932   0.000000
   75       51.980765   0.000000
   76       51.980766   0.000000
   77       51.980766   0.000000
   78       51.980766   0.000000
   79       54.438839   0.000000
   80       54.438903   0.000000
   81       54.899702   0.000000
   82       54.899702   0.000000
   83       54.899705   0.000000
   84       54.899705   0.000000
   85       54.899706   0.000000
   86       54.899706   0.000000
   87       55.114060   0.000000
   88       55.114060   0.000000
   89       55.114060   0.000000
   90       55.114060   0.000000
   91       55.114061   0.000000
   92       55.114061   0.000000
   93       57.345612   0.000000
   94       57.345612   0.000000
   95       57.345614   0.000000
   96       57.345614   0.000000
   97       57.345620   0.000000
   98       57.345620   0.000000
   99       57.949146   0.000000
  100       57.949147   0.000000
  101       57.949149   0.000000
  102       57.949150   0.000000
  103       61.538485   0.000000
  104       61.538487   0.000000
  105       61.541281   0.000000
  106       61.541283   0.000000
  107       61.541286   0.000000
  108       61.541289   0.000000
  109       61.696376   0.000000
  110       61.696377   0.000000
  111       61.696378   0.000000
  112       61.696379   0.000000
  113       61.696645   0.000000
  114       61.696646   0.000000
  115       61.854649   0.000000
  116       61.854676   0.000000
  117       62.277723   0.000000
  118       62.277725   0.000000
  119       72.159467   0.000000
  120       72.159469   0.000000
  121       72.159474   0.000000
  122       72.159475   0.000000
  123       75.914970   0.000000
  124       75.914970   0.000000
  125       75.914973   0.000000
  126       75.914973   0.000000
  127       75.922537   0.000000
  128       75.922537   0.000000
 
  0.1666667E+00  0.1576799E-16  0.2775558E-16  0.4629630E-02
    1      -19.808440   1.000000
    2      -19.808440   1.000000
    3       -5.518657   1.000000
    4       -5.518657   1.000000
    5       -5.207277   1.000000
    6       -5.207277   1.000000
    7       -5.106980   1.000000
    8       -5.106980   1.000000
    9        4.245647   0.000000
   10        4.245654   0.000000
   11        9.774625   0.000000
   12        9.774626   0.000000
   13       10.875794   0.000000
   14       10.875794   0.000000
   15       10.877777   0.000000
   16       10.877777   0.000000
   17       12.535367   0.000000
   18       12.535367   0.000000
   19       12.537048   0.000000
   20       12.537048   0.000000
   21       16.285371   0.000000
   22       16.285384   0.000000
   23       17.597665   0.000000
   24       17.597671   0.000000
   25       19.805981   0.000000
   26       19.805983   0.000000
   27       19.815270   0.000000
   28       19.815271   0.000000
   29       22.389126   0.000000
   30       22.389143   0.000000
   31       24.643035   0.000000
   32       24.643044   0.000000
   33       24.666171   0.000000
   34       24.666177   0.000000
   35       24.682714   0.000000
   36       24.682714   0.000000
   37       28.539666   0.000000
   38       28.539666   0.000000
   39       28.564074   0.000000
   40       28.564074   0.000000
   41       30.544189   0.000000
   42       30.544191   0.000000
   43       31.897339   0.000000
   44       31.897339   0.000000
   45       31.918810   0.000000
   46       31.918810   0.000000
   47       37.787263   0.000000
   48       37.787264   0.000000
   49       37.789717   0.000000
   50       37.789717   0.000000
   51       38.072301   0.000000
   52       38.072301   0.000000
   53       38.719374   0.000000
   54       38.719393   0.000000
   55       42.342681   0.000000
   56       42.342685   0.000000
   57       43.544935   0.000000
   58       43.544936   0.000000
   59       43.552002   0.000000
   60       43.552003   0.000000
   61       46.386480   0.000000
   62       46.386481   0.000000
   63       46.392041   0.000000
   64       46.392041   0.000000
   65       47.702599   0.000000
   66       47.702616   0.000000
   67       48.782306   0.000000
   68       48.782306   0.000000
   69       48.783260   0.000000
   70       48.783260   0.000000
   71       50.327999   0.000000
   72       50.327999   0.000000
   73       50.728616   0.000000
   74       50.728617   0.000000
   75       50.740316   0.000000
   76       50.740318   0.000000
   77       51.413415   0.000000
   78       51.413417   0.000000
   79       52.350984   0.000000
   80       52.350991   0.000000
   81       52.568031   0.000000
   82       52.568031   0.000000
   83       52.572326   0.000000
   84       52.572326   0.000000
   85       54.135412   0.000000
   86       54.135420   0.000000
   87       56.461523   0.000000
   88       56.461524   0.000000
   89       56.461738   0.000000
   90       56.461739   0.000000
   91       57.561318   0.000000
   92       57.561361   0.000000
   93       57.914716   0.000000
   94       57.914717   0.000000
   95       57.916065   0.000000
   96       57.916065   0.000000
   97       59.390651   0.000000
   98       59.390660   0.000000
   99       60.538015   0.000000
  100       60.538016   0.000000
  101       60.538390   0.000000
  102       60.538391   0.000000
  103       60.639838   0.000000
  104       60.639843   0.000000
  105       60.672697   0.000000
  106       60.672697   0.000000
  107       64.856001   0.000000
  108       64.856002   0.000000
  109       64.856349   0.000000
  110       64.856349   0.000000
  111       65.984057   0.000000
  112       65.984059   0.000000
  113       65.984098   0.000000
  114       65.984100   0.000000
  115       66.155962   0.000000
  116       66.155974   0.000000
  117       68.550509   0.000000
  118       68.550512   0.000000
  119       68.570546   0.000000
  120       68.570549   0.000000
  121       71.296183   0.000000
  122       71.296186   0.000000
  123       72.784548   0.000000
  124       72.784554   0.000000
  125       73.406233   0.000000
  126       73.406233   0.000000
  127       73.406371   0.000000
  128       73.406371   0.000000
 
  0.3333333E+00  0.3153597E-16  0.5551115E-16  0.4629630E-02
    1      -19.711063   1.000000
    2      -19.711063   1.000000
    3       -6.127472   1.000000
    4       -6.127472   1.000000
    5       -5.295930   1.000000
    6       -5.295929   1.000000
    7       -5.178496   1.000000
    8       -5.178496   1.000000
    9        5.678701   0.000000
   10        5.678706   0.000000
   11        8.783865   0.000000
   12        8.783870   0.000000
   13       10.566112   0.000000
   14       10.566112   0.000000
   15       10.568661   0.000000
   16       10.568661   0.000000
   17       13.371089   0.000000
   18       13.371089   0.000000
   19       13.374805   0.000000
   20       13.374805   0.000000
   21       15.062342   0.000000
   22       15.062358   0.000000
   23       18.419222   0.000000
   24       18.419222   0.000000
   25       20.986498   0.000000
   26       20.986498   0.000000
   27       21.019311   0.000000
   28       21.019311   0.000000
   29       21.962759   0.000000
   30       21.962765   0.000000
   31       22.905902   0.000000
   32       22.905904   0.000000
   33       22.906765   0.000000
   34       22.906766   0.000000
   35       28.592883   0.000000
   36       28.592884   0.000000
   37       28.614176   0.000000
   38       28.614176   0.000000
   39       28.823945   0.000000
   40       28.823976   0.000000
   41       30.917922   0.000000
   42       30.917924   0.000000
   43       32.869639   0.000000
   44       32.869639   0.000000
   45       32.896471   0.000000
   46       32.896472   0.000000
   47       35.374271   0.000000
   48       35.374272   0.000000
   49       35.376313   0.000000
   50       35.376314   0.000000
   51       36.304056   0.000000
   52       36.304065   0.000000
   53       38.951526   0.000000
   54       38.951527   0.000000
   55       41.633590   0.000000
   56       41.633615   0.000000
   57       42.634599   0.000000
   58       42.634599   0.000000
   59       42.635878   0.000000
   60       42.635879   0.000000
   61       44.033896   0.000000
   62       44.033900   0.000000
   63       45.493265   0.000000
   64       45.493265   0.000000
   65       45.493785   0.000000
   66       45.493785   0.000000
   67       46.822068   0.000000
   68       46.822069   0.000000
   69       48.128970   0.000000
   70       48.128971   0.000000
   71       48.145368   0.000000
   72       48.145370   0.000000
   73       48.475055   0.000000
   74       48.475060   0.000000
   75       50.611554   0.000000
   76       50.611554   0.000000
   77       50.612260   0.000000
   78       50.612260   0.000000
   79       51.032204   0.000000
   80       51.032209   0.000000
   81       53.686014   0.000000
   82       53.686014   0.000000
   83       53.694243   0.000000
   84       53.694244   0.000000
   85       54.210381   0.000000
   86       54.210384   0.000000
   87       57.097831   0.000000
   88       57.097834   0.000000
   89       57.098451   0.000000
   90       57.098454   0.000000
   91       58.592607   0.000000
   92       58.592635   0.000000
   93       61.457348   0.000000
   94       61.457349   0.000000
   95       61.460243   0.000000
   96       61.460243   0.000000
   97       63.333575   0.000000
   98       63.333583   0.000000
   99       63.452798   0.000000
  100       63.452799   0.000000
  101       63.474831   0.000000
  102       63.474833   0.000000
  103       65.396650   0.000000
  104       65.396671   0.000000
  105       65.619691   0.000000
  106       65.619691   0.000000
  107       65.627314   0.000000
  108       65.627315   0.000000
  109       67.231521   0.000000
  110       67.231521   0.000000
  111       67.539832   0.000000
  112       67.539833   0.000000
  113       67.539923   0.000000
  114       67.539924   0.000000
  115       68.234800   0.000000
  116       68.234806   0.000000
  117       69.475206   0.000000
  118       69.475220   0.000000
  119       71.206199   0.000000
  120       71.206201   0.000000
  121       71.206646   0.000000
  122       71.206648   0.000000
  123       72.186674   0.000000
  124       72.186684   0.000000
  125       74.608546   0.000000
  126       74.608547   0.000000
  127       74.608749   0.000000
  128       74.608749   0.000000
 
  0.5000000E+00  0.6118174E-16  0.2775558E-16  0.4629630E-02
    1      -19.661096   1.000000
    2      -19.661096   1.000000
    3       -6.408749   1.000000
    4       -6.408749   1.000000
    5       -5.331909   1.000000
    6       -5.331909   1.000000
    7       -5.212913   1.000000
    8       -5.212913   1.000000
    9        6.362340   0.000000
   10        6.362341   0.000000
   11        8.569996   0.000000
   12        8.570008   0.000000
   13       10.275795   0.000000
   14       10.275795   0.000000
   15       10.278349   0.000000
   16       10.278349   0.000000
   17       14.548350   0.000000
   18       14.548350   0.000000
   19       14.550629   0.000000
   20       14.550629   0.000000
   21       15.150798   0.000000
   22       15.150813   0.000000
   23       16.434435   0.000000
   24       16.434435   0.000000
   25       19.027526   0.000000
   26       19.027527   0.000000
   27       19.058700   0.000000
   28       19.058700   0.000000
   29       24.932025   0.000000
   30       24.932026   0.000000
   31       24.937213   0.000000
   32       24.937214   0.000000
   33       25.200917   0.000000
   34       25.200918   0.000000
   35       27.893032   0.000000
   36       27.893051   0.000000
   37       28.347413   0.000000
   38       28.347413   0.000000
   39       28.388316   0.000000
   40       28.388316   0.000000
   41       32.556190   0.000000
   42       32.556191   0.000000
   43       32.558662   0.000000
   44       32.558663   0.000000
   45       34.184254   0.000000
   46       34.184261   0.000000
   47       34.491989   0.000000
   48       34.491989   0.000000
   49       34.512334   0.000000
   50       34.512334   0.000000
   51       35.178438   0.000000
   52       35.178476   0.000000
   53       36.913220   0.000000
   54       36.913222   0.000000
   55       39.594705   0.000000
   56       39.594706   0.000000
   57       41.086182   0.000000
   58       41.086182   0.000000
   59       41.087935   0.000000
   60       41.087935   0.000000
   61       42.896646   0.000000
   62       42.896657   0.000000
   63       44.719198   0.000000
   64       44.719199   0.000000
   65       44.719220   0.000000
   66       44.719221   0.000000
   67       45.305919   0.000000
   68       45.305919   0.000000
   69       50.124577   0.000000
   70       50.124578   0.000000
   71       50.126437   0.000000
   72       50.126438   0.000000
   73       50.939708   0.000000
   74       50.939716   0.000000
   75       51.055842   0.000000
   76       51.055844   0.000000
   77       51.731821   0.000000
   78       51.731822   0.000000
   79       51.734406   0.000000
   80       51.734407   0.000000
   81       52.987443   0.000000
   82       52.987443   0.000000
   83       53.008187   0.000000
   84       53.008187   0.000000
   85       53.515012   0.000000
   86       53.515016   0.000000
   87       57.833240   0.000000
   88       57.833243   0.000000
   89       58.672861   0.000000
   90       58.672861   0.000000
   91       58.699105   0.000000
   92       58.699106   0.000000
   93       61.188053   0.000000
   94       61.188055   0.000000
   95       61.190589   0.000000
   96       61.190591   0.000000
   97       62.267611   0.000000
   98       62.267614   0.000000
   99       62.273122   0.000000
  100       62.273125   0.000000
  101       62.956297   0.000000
  102       62.956345   0.000000
  103       65.229003   0.000000
  104       65.229006   0.000000
  105       68.504213   0.000000
  106       68.504213   0.000000
  107       68.505503   0.000000
  108       68.505503   0.000000
  109       70.301861   0.000000
  110       70.301863   0.000000
  111       70.450854   0.000000
  112       70.450855   0.000000
  113       70.466024   0.000000
  114       70.466025   0.000000
  115       71.487217   0.000000
  116       71.487217   0.000000
  117       71.487952   0.000000
  118       71.487952   0.000000
  119       72.758755   0.000000
  120       72.758755   0.000000
  121       72.761883   0.000000
  122       72.761883   0.000000
  123       73.721901   0.000000
  124       73.721902   0.000000
  125       74.203615   0.000000
  126       74.203615   0.000000
  127       74.498124   0.000000
  128       74.498144   0.000000
 
 -0.3333333E+00 -0.3153597E-16 -0.5551115E-16  0.4629630E-02
    1      -19.711063   1.000000
    2      -19.711063   1.000000
    3       -6.127472   1.000000
    4       -6.127472   1.000000
    5       -5.295930   1.000000
    6       -5.295929   1.000000
    7       -5.178496   1.000000
    8       -5.178496   1.000000
    9        5.678701   0.000000
   10        5.678706   0.000000
   11        8.783865   0.000000
   12        8.783870   0.000000
   13       10.566112   0.000000
   14       10.566112   0.000000
   15       10.568661   0.000000
   16       10.568661   0.000000
   17       13.371089   0.000000
   18       13.371089   0.000000
   19       13.374805   0.000000
   20       13.374805   0.000000
   21       15.062342   0.000000
   22       15.062358   0.000000
   23       18.419222   0.000000
   24       18.419222   0.000000
   25       20.986498   0.000000
   26       20.986498   0.000000
   27       21.019311   0.000000
   28       21.019311   0.000000
   29       21.962759   0.000000
   30       21.962765   0.000000
   31       22.905902   0.000000
   32       22.905904   0.000000
   33       22.906765   0.000000
   34       22.906766   0.000000
   35       28.592883   0.000000
   36       28.592884   0.000000
   37       28.614176   0.000000
   38       28.614176   0.000000
   39       28.823945   0.000000
   40       28.823976   0.000000
   41       30.917922   0.000000
   42       30.917924   0.000000
   43       32.869639   0.000000
   44       32.869639   0.000000
   45       32.896471   0.000000
   46       32.896472   0.000000
   47       35.374271   0.000000
   48       35.374272   0.000000
   49       35.376313   0.000000
   50       35.376314   0.000000
   51       36.304056   0.000000
   52       36.304065   0.000000
   53       38.951526   0.000000
   54       38.951527   0.000000
   55       41.633590   0.000000
   56       41.633615   0.000000
   57       42.634599   0.000000
   58       42.634599   0.000000
   59       42.635878   0.000000
   60       42.635879   0.000000
   61       44.033896   0.000000
   62       44.033900   0.000000
   63       45.493265   0.000000
   64       45.493265   0.000000
   65       45.493785   0.000000
   66       45.493785   0.000000
   67       46.822068   0.000000
   68       46.822069   0.000000
   69       48.128970   0.000000
   70       48.128971   0.000000
   71       48.145368   0.000000
   72       48.145370   0.000000
   73       48.475055   0.000000
   74       48.475060   0.000000
   75       50.611554   0.000000
   76       50.611554   0.000000
   77       50.612260   0.000000
   78       50.612260   0.000000
   79       51.032204   0.000000
   80       51.032209   0.000000
   81       53.686014   0.000000
   82       53.686014   0.000000
   83       53.694243   0.000000
   84       53.694244   0.000000
   85       54.210381   0.000000
   86       54.210384   0.000000
   87       57.097831   0.000000
   88       57.097834   0.000000
   89       57.098451   0.000000
   90       57.098454   0.000000
   91       58.592607   0.000000
   92       58.592635   0.000000
   93       61.457348   0.000000
   94       61.457349   0.000000
   95       61.460243   0.000000
   96       61.460243   0.000000
   97       63.333575   0.000000
   98       63.333583   0.000000
   99       63.452798   0.000000
  100       63.452799   0.000000
  101       63.474831   0.000000
  102       63.474833   0.000000
  103       65.396650   0.000000
  104       65.396671   0.000000
  105       65.619691   0.000000
  106       65.619691   0.000000
  107       65.627314   0.000000
  108       65.627315   0.000000
  109       67.231521   0.000000
  110       67.231521   0.000000
  111       67.539832   0.000000
  112       67.539833   0.000000
  113       67.539923   0.000000
  114       67.539924   0.000000
  115       68.234800   0.000000
  116       68.234806   0.000000
  117       69.475206   0.000000
  118       69.475220   0.000000
  119       71.206199   0.000000
  120       71.206201   0.000000
  121       71.206646   0.000000
  122       71.206648   0.000000
  123       72.186674   0.000000
  124       72.186684   0.000000
  125       74.608546   0.000000
  126       74.608546   0.000000
  127       74.608749   0.000000
  128       74.608749   0.000000
 
 -0.1666667E+00 -0.1576799E-16 -0.2775558E-16  0.4629630E-02
    1      -19.808440   1.000000
    2      -19.808440   1.000000
    3       -5.518657   1.000000
    4       -5.518657   1.000000
    5       -5.207277   1.000000
    6       -5.207277   1.000000
    7       -5.106980   1.000000
    8       -5.106980   1.000000
    9        4.245647   0.000000
   10        4.245654   0.000000
   11        9.774625   0.000000
   12        9.774626   0.000000
   13       10.875794   0.000000
   14       10.875794   0.000000
   15       10.877777   0.000000
   16       10.877777   0.000000
   17       12.535367   0.000000
   18       12.535367   0.000000
   19       12.537048   0.000000
   20       12.537048   0.000000
   21       16.285371   0.000000
   22       16.285384   0.000000
   23       17.597665   0.000000
   24       17.597671   0.000000
   25       19.805981   0.000000
   26       19.805983   0.000000
   27       19.815270   0.000000
   28       19.815271   0.000000
   29       22.389126   0.000000
   30       22.389143   0.000000
   31       24.643035   0.000000
   32       24.643044   0.000000
   33       24.666171   0.000000
   34       24.666177   0.000000
   35       24.682714   0.000000
   36       24.682714   0.000000
   37       28.539666   0.000000
   38       28.539666   0.000000
   39       28.564074   0.000000
   40       28.564074   0.000000
   41       30.544189   0.000000
   42       30.544191   0.000000
   43       31.897339   0.000000
   44       31.897339   0.000000
   45       31.918810   0.000000
   46       31.918810   0.000000
   47       37.787263   0.000000
   48       37.787264   0.000000
   49       37.789717   0.000000
   50       37.789717   0.000000
   51       38.072301   0.000000
   52       38.072301   0.000000
   53       38.719374   0.000000
   54       38.719393   0.000000
   55       42.342681   0.000000
   56       42.342685   0.000000
   57       43.544935   0.000000
   58       43.544936   0.000000
   59       43.552002   0.000000
   60       43.552003   0.000000
   61       46.386480   0.000000
   62       46.386481   0.000000
   63       46.392041   0.000000
   64       46.392041   0.000000
   65       47.702599   0.000000
   66       47.702616   0.000000
   67       48.782306   0.000000
   68       48.782306   0.000000
   69       48.783260   0.000000
   70       48.783260   0.000000
   71       50.327999   0.000000
   72       50.327999   0.000000
   73       50.728616   0.000000
   74       50.728617   0.000000
   75       50.740316   0.000000
   76       50.740318   0.000000
   77       51.413415   0.000000
   78       51.413417   0.000000
   79       52.350984   0.000000
   80       52.350991   0.000000
   81       52.568031   0.000000
   82       52.568031   0.000000
   83       52.572326   0.000000
   84       52.572326   0.000000
   85       54.135412   0.000000
   86       54.135420   0.000000
   87       56.461523   0.000000
   88       56.461524   0.000000
   89       56.461738   0.000000
   90       56.461739   0.000000
   91       57.561318   0.000000
   92       57.561361   0.000000
   93       57.914716   0.000000
   94       57.914717   0.000000
   95       57.916065   0.000000
   96       57.916065   0.000000
   97       59.390651   0.000000
   98       59.390660   0.000000
   99       60.538015   0.000000
  100       60.538016   0.000000
  101       60.538390   0.000000
  102       60.538391   0.000000
  103       60.639838   0.000000
  104       60.639843   0.000000
  105       60.672697   0.000000
  106       60.672697   0.000000
  107       64.856001   0.000000
  108       64.856002   0.000000
  109       64.856349   0.000000
  110       64.856349   0.000000
  111       65.984058   0.000000
  112       65.984059   0.000000
  113       65.984098   0.000000
  114       65.984100   0.000000
  115       66.155962   0.000000
  116       66.155974   0.000000
  117       68.550509   0.000000
  118       68.550512   0.000000
  119       68.570546   0.000000
  120       68.570549   0.000000
  121       71.296183   0.000000
  122       71.296186   0.000000
  123       72.784548   0.000000
  124       72.784554   0.000000
  125       73.406233   0.000000
  126       73.406233   0.000000
  127       73.406371   0.000000
  128       73.406371   0.000000
 
  0.0000000E+00  0.1666667E+00  0.1387779E-16  0.4629630E-02
    1      -19.808440   1.000000
    2      -19.808440   1.000000
    3       -5.518657   1.000000
    4       -5.518657   1.000000
    5       -5.207277   1.000000
    6       -5.207277   1.000000
    7       -5.106980   1.000000
    8       -5.106980   1.000000
    9        4.245647   0.000000
   10        4.245654   0.000000
   11        9.774625   0.000000
   12        9.774626   0.000000
   13       10.875794   0.000000
   14       10.875794   0.000000
   15       10.877777   0.000000
   16       10.877777   0.000000
   17       12.535367   0.000000
   18       12.535367   0.000000
   19       12.537048   0.000000
   20       12.537048   0.000000
   21       16.285370   0.000000
   22       16.285383   0.000000
   23       17.597665   0.000000
   24       17.597671   0.000000
   25       19.805982   0.000000
   26       19.805983   0.000000
   27       19.815271   0.000000
   28       19.815271   0.000000
   29       22.389126   0.000000
   30       22.389143   0.000000
   31       24.643035   0.000000
   32       24.643044   0.000000
   33       24.666171   0.000000
   34       24.666178   0.000000
   35       24.682715   0.000000
   36       24.682715   0.000000
   37       28.539665   0.000000
   38       28.539665   0.000000
   39       28.564073   0.000000
   40       28.564073   0.000000
   41       30.544189   0.000000
   42       30.544191   0.000000
   43       31.897339   0.000000
   44       31.897339   0.000000
   45       31.918810   0.000000
   46       31.918810   0.000000
   47       37.787263   0.000000
   48       37.787263   0.000000
   49       37.789717   0.000000
   50       37.789717   0.000000
   51       38.072302   0.000000
   52       38.072302   0.000000
   53       38.719374   0.000000
   54       38.719393   0.000000
   55       42.342681   0.000000
   56       42.342684   0.000000
   57       43.544935   0.000000
   58       43.544935   0.000000
   59       43.552002   0.000000
   60       43.552002   0.000000
   61       46.386480   0.000000
   62       46.386481   0.000000
   63       46.392041   0.000000
   64       46.392042   0.000000
   65       47.702599   0.000000
   66       47.702616   0.000000
   67       48.782307   0.000000
   68       48.782307   0.000000
   69       48.783261   0.000000
   70       48.783261   0.000000
   71       50.328000   0.000000
   72       50.328000   0.000000
   73       50.728616   0.000000
   74       50.728617   0.000000
   75       50.740316   0.000000
   76       50.740318   0.000000
   77       51.413414   0.000000
   78       51.413416   0.000000
   79       52.350983   0.000000
   80       52.350990   0.000000
   81       52.568030   0.000000
   82       52.568031   0.000000
   83       52.572325   0.000000
   84       52.572326   0.000000
   85       54.135411   0.000000
   86       54.135419   0.000000
   87       56.461523   0.000000
   88       56.461523   0.000000
   89       56.461738   0.000000
   90       56.461739   0.000000
   91       57.561317   0.000000
   92       57.561360   0.000000
   93       57.914716   0.000000
   94       57.914717   0.000000
   95       57.916065   0.000000
   96       57.916066   0.000000
   97       59.390650   0.000000
   98       59.390659   0.000000
   99       60.538016   0.000000
  100       60.538017   0.000000
  101       60.538391   0.000000
  102       60.538391   0.000000
  103       60.639839   0.000000
  104       60.639843   0.000000
  105       60.672698   0.000000
  106       60.672698   0.000000
  107       64.856001   0.000000
  108       64.856002   0.000000
  109       64.856349   0.000000
  110       64.856350   0.000000
  111       65.984058   0.000000
  112       65.984059   0.000000
  113       65.984099   0.000000
  114       65.984100   0.000000
  115       66.155961   0.000000
  116       66.155974   0.000000
  117       68.550511   0.000000
  118       68.550512   0.000000
  119       68.570547   0.000000
  120       68.570548   0.000000
  121       71.296182   0.000000