   1   1   0   0
  0.6532254E+02  0.4520565E-09  0.4520565E-09  0.4520565E-09  0.1000000E-15
  1.000000000000000E-004
  CAR 
 Og_FCC                                  
     73.66026887    -49.71990917  301     -1.08755566      1.00000000
    -49.720  0.0000E+00  0.0000E+00
    -49.309  0.0000E+00  0.0000E+00
    -48.897  0.0000E+00  0.0000E+00
    -48.486  0.0000E+00  0.0000E+00
    -48.075  0.0000E+00  0.0000E+00
    -47.664  0.0000E+00  0.0000E+00
    -47.252  0.0000E+00  0.0000E+00
    -46.841  0.0000E+00  0.0000E+00
    -46.430  0.0000E+00  0.0000E+00
    -46.019  0.0000E+00  0.0000E+00
    -45.607  0.0000E+00  0.0000E+00
    -45.196  0.0000E+00  0.0000E+00
    -44.785  0.0000E+00  0.0000E+00
    -44.373  0.0000E+00  0.0000E+00
    -43.962  0.0000E+00  0.4000E+01
    -43.551  0.0000E+00  0.4000E+01
    -43.140  0.0000E+00  0.4000E+01
    -42.728  0.0000E+00  0.4000E+01
    -42.317  0.0000E+00  0.4000E+01
    -41.906  0.0000E+00  0.4000E+01
    -41.495  0.0000E+00  0.4000E+01
    -41.083  0.0000E+00  0.4000E+01
    -40.672  0.0000E+00  0.4000E+01
    -40.261  0.0000E+00  0.4000E+01
    -39.849  0.0000E+00  0.4000E+01
    -39.438  0.0000E+00  0.1000E+02
    -39.027  0.0000E+00  0.1000E+02
    -38.616  0.0000E+00  0.1000E+02
    -38.204  0.0000E+00  0.1000E+02
    -37.793  0.0000E+00  0.1000E+02
    -37.382  0.0000E+00  0.1000E+02
    -36.971  0.0000E+00  0.1000E+02
    -36.559  0.0000E+00  0.1000E+02
    -36.148  0.0000E+00  0.1000E+02
    -35.737  0.0000E+00  0.1000E+02
    -35.326  0.0000E+00  0.1000E+02
    -34.914  0.0000E+00  0.1000E+02
    -34.503  0.0000E+00  0.1000E+02
    -34.092  0.0000E+00  0.1000E+02
    -33.680  0.0000E+00  0.1000E+02
    -33.269  0.0000E+00  0.1000E+02
    -32.858  0.0000E+00  0.1000E+02
    -32.447  0.0000E+00  0.1000E+02
    -32.035  0.0000E+00  0.1000E+02
    -31.624  0.0000E+00  0.1000E+02
    -31.213  0.0000E+00  0.1000E+02
    -30.802  0.0000E+00  0.1000E+02
    -30.390  0.0000E+00  0.1000E+02
    -29.979  0.0000E+00  0.1000E+02
    -29.568  0.0000E+00  0.1000E+02
    -29.157  0.0000E+00  0.1000E+02
    -28.745  0.0000E+00  0.1000E+02
    -28.334  0.0000E+00  0.1000E+02
    -27.923  0.0000E+00  0.1000E+02
    -27.511  0.0000E+00  0.1000E+02
    -27.100  0.0000E+00  0.1000E+02
    -26.689  0.0000E+00  0.1000E+02
    -26.278  0.0000E+00  0.1000E+02
    -25.866  0.0000E+00  0.1000E+02
    -25.455  0.0000E+00  0.1000E+02
    -25.044  0.0000E+00  0.1000E+02
    -24.633  0.0000E+00  0.1000E+02
    -24.221  0.0000E+00  0.1000E+02
    -23.810  0.0000E+00  0.1000E+02
    -23.399  0.0000E+00  0.1000E+02
    -22.988  0.0000E+00  0.1000E+02
    -22.576  0.0000E+00  0.1000E+02
    -22.165  0.0000E+00  0.1000E+02
    -21.754  0.0000E+00  0.1000E+02
    -21.342  0.0000E+00  0.1000E+02
    -20.931  0.0000E+00  0.1000E+02
    -20.520  0.0000E+00  0.1000E+02
    -20.109  0.0000E+00  0.1000E+02
    -19.697  0.0000E+00  0.1000E+02
    -19.286  0.0000E+00  0.1000E+02
    -18.875  0.0000E+00  0.1000E+02
    -18.464  0.0000E+00  0.1000E+02
    -18.052  0.0000E+00  0.1000E+02
    -17.641  0.0000E+00  0.1000E+02
    -17.230  0.3985E+00  0.1071E+02
    -16.819  0.0000E+00  0.1200E+02
    -16.407  0.0000E+00  0.1200E+02
    -15.996  0.0000E+00  0.1200E+02
    -15.585  0.0000E+00  0.1200E+02
    -15.173  0.0000E+00  0.1200E+02
    -14.762  0.0000E+00  0.1200E+02
    -14.351  0.0000E+00  0.1200E+02
    -13.940  0.0000E+00  0.1200E+02
    -13.528  0.0000E+00  0.1200E+02
    -13.117  0.0000E+00  0.1200E+02
    -12.706  0.0000E+00  0.1200E+02
    -12.295  0.0000E+00  0.1200E+02
    -11.883  0.0000E+00  0.1200E+02
    -11.472  0.0000E+00  0.1200E+02
    -11.061  0.0000E+00  0.1200E+02
    -10.650  0.0000E+00  0.1200E+02
    -10.238  0.0000E+00  0.1200E+02
     -9.827  0.0000E+00  0.1200E+02
     -9.416  0.0000E+00  0.1200E+02
     -9.004  0.0000E+00  0.1200E+02
     -8.593  0.0000E+00  0.1200E+02
     -8.182  0.0000E+00  0.1200E+02
     -7.771  0.0000E+00  0.1200E+02
     -7.359  0.0000E+00  0.1200E+02
     -6.948  0.0000E+00  0.1200E+02
     -6.537  0.0000E+00  0.1200E+02
     -6.126  0.0000E+00  0.1200E+02
     -5.714  0.6754E-01  0.1203E+02
     -5.303  0.0000E+00  0.1386E+02
     -4.892  0.0000E+00  0.1400E+02
     -4.481  0.0000E+00  0.1400E+02
     -4.069  0.0000E+00  0.1400E+02
     -3.658  0.0000E+00  0.1400E+02
     -3.247  0.0000E+00  0.1400E+02
     -2.835  0.2702E+00  0.1414E+02
     -2.424  0.0000E+00  0.1575E+02
     -2.013  0.0000E+00  0.1678E+02
     -1.602  0.0000E+00  0.1778E+02
     -1.190  0.0000E+00  0.1800E+02
     -0.779  0.0000E+00  0.1800E+02
     -0.368  0.0000E+00  0.1800E+02
      0.043  0.0000E+00  0.1800E+02
      0.455  0.0000E+00  0.1800E+02
      0.866  0.0000E+00  0.1800E+02
      1.277  0.0000E+00  0.1800E+02
      1.688  0.0000E+00  0.1800E+02
      2.100  0.0000E+00  0.1800E+02
      2.511  0.0000E+00  0.1801E+02
      2.922  0.0000E+00  0.1801E+02
      3.334  0.0000E+00  0.1808E+02
      3.745  0.0000E+00  0.1814E+02
      4.156  0.0000E+00  0.1824E+02
      4.567  0.0000E+00  0.1867E+02
      4.979  0.0000E+00  0.1944E+02
      5.390  0.0000E+00  0.1981E+02
      5.801  0.0000E+00  0.2031E+02
      6.212  0.0000E+00  0.2086E+02
      6.624  0.0000E+00  0.2203E+02
      7.035  0.0000E+00  0.2232E+02
      7.446  0.0000E+00  0.2303E+02
      7.858  0.5393E+00  0.2426E+02
      8.269  0.0000E+00  0.2467E+02
      8.680  0.0000E+00  0.2550E+02
      9.091  0.0000E+00  0.2586E+02
      9.503  0.0000E+00  0.2670E+02
      9.914  0.0000E+00  0.2724E+02
     10.325  0.0000E+00  0.2793E+02
     10.736  0.0000E+00  0.2843E+02
     11.148  0.0000E+00  0.2890E+02
     11.559  0.0000E+00  0.3014E+02
     11.970  0.0000E+00  0.3058E+02
     12.381  0.0000E+00  0.3139E+02
     12.793  0.0000E+00  0.3229E+02
     13.204  0.0000E+00  0.3397E+02
     13.615  0.0000E+00  0.3453E+02
     14.027  0.0000E+00  0.3534E+02
     14.438  0.0000E+00  0.3575E+02
     14.849  0.1389E+00  0.3621E+02
     15.260  0.0000E+00  0.3808E+02
     15.672  0.0000E+00  0.3997E+02
     16.083  0.1513E-12  0.4158E+02
     16.494  0.0000E+00  0.4284E+02
     16.905  0.0000E+00  0.4414E+02
     17.317  0.0000E+00  0.4427E+02
     17.728  0.0000E+00  0.4504E+02
     18.139  0.5378E+00  0.4592E+02
     18.550  0.0000E+00  0.4714E+02
     18.962  0.0000E+00  0.4779E+02
     19.373  0.0000E+00  0.4895E+02
     19.784  0.2331E-04  0.4982E+02
     20.196  0.0000E+00  0.5082E+02
     20.607  0.0000E+00  0.5193E+02
     21.018  0.1808E-08  0.5329E+02
     21.429  0.0000E+00  0.5468E+02
     21.841  0.0000E+00  0.5571E+02
     22.252  0.0000E+00  0.5732E+02
     22.663  0.0000E+00  0.5775E+02
     23.074  0.0000E+00  0.5822E+02
     23.486  0.0000E+00  0.5911E+02
     23.897  0.0000E+00  0.5997E+02
     24.308  0.0000E+00  0.6132E+02
     24.719  0.1351E+00  0.6177E+02
     25.131  0.0000E+00  0.6325E+02
     25.542  0.0000E+00  0.6386E+02
     25.953  0.5403E+00  0.6538E+02
     26.365  0.0000E+00  0.6654E+02
     26.776  0.0000E+00  0.6772E+02
     27.187  0.0000E+00  0.6977E+02
     27.598  0.0000E+00  0.7088E+02
     28.010  0.0000E+00  0.7174E+02
     28.421  0.0000E+00  0.7241E+02
     28.832  0.0000E+00  0.7296E+02
     29.243  0.0000E+00  0.7369E+02
     29.655  0.5999E-16  0.7494E+02
     30.066  0.6754E+00  0.7600E+02
     30.477  0.0000E+00  0.7783E+02
     30.888  0.2702E+00  0.7931E+02
     31.300  0.1351E+00  0.8059E+02
     31.711  0.0000E+00  0.8184E+02
     32.122  0.0000E+00  0.8316E+02
     32.534  0.0000E+00  0.8416E+02
     32.945  0.0000E+00  0.8522E+02
     33.356  0.0000E+00  0.8653E+02
     33.767  0.0000E+00  0.8706E+02
     34.179  0.0000E+00  0.8807E+02
     34.590  0.0000E+00  0.8919E+02
     35.001  0.0000E+00  0.9005E+02
     35.412  0.0000E+00  0.9100E+02
     35.824  0.6754E-01  0.9236E+02
     36.235  0.0000E+00  0.9379E+02
     36.646  0.0000E+00  0.9491E+02
     37.057  0.0000E+00  0.9615E+02
     37.469  0.2702E+00  0.9765E+02
     37.880  0.0000E+00  0.9830E+02
     38.291  0.4213E-03  0.9962E+02
     38.703  0.0000E+00  0.1013E+03
     39.114  0.0000E+00  0.1025E+03
     39.525  0.5403E+00  0.1034E+03
     39.936  0.5403E+00  0.1051E+03
     40.348  0.0000E+00  0.1066E+03
     40.759  0.0000E+00  0.1080E+03
     41.170  0.0000E+00  0.1088E+03
     41.581  0.0000E+00  0.1096E+03
     41.993  0.0000E+00  0.1109E+03
     42.404  0.0000E+00  0.1124E+03
     42.815  0.0000E+00  0.1143E+03
     43.226  0.0000E+00  0.1154E+03
     43.638  0.0000E+00  0.1168E+03
     44.049  0.0000E+00  0.1185E+03
     44.460  0.0000E+00  0.1195E+03
     44.872  0.7770E-01  0.1205E+03
     45.283  0.0000E+00  0.1214E+03
     45.694  0.0000E+00  0.1223E+03
     46.105  0.0000E+00  0.1236E+03
     46.517  0.0000E+00  0.1247E+03
     46.928  0.0000E+00  0.1269E+03
     47.339  0.5403E+00  0.1281E+03
     47.750  0.0000E+00  0.1296E+03
     48.162  0.2541E-09  0.1311E+03
     48.573  0.0000E+00  0.1324E+03
     48.984  0.0000E+00  0.1338E+03
     49.396  0.5385E+00  0.1348E+03
     49.807  0.0000E+00  0.1369E+03
     50.218  0.0000E+00  0.1375E+03
     50.629  0.5403E+00  0.1390E+03
     51.041  0.5403E+00  0.1408E+03
     51.452  0.0000E+00  0.1419E+03
     51.863  0.3472E-02  0.1426E+03
     52.274  0.2702E+00  0.1444E+03
     52.686  0.0000E+00  0.1455E+03
     53.097  0.0000E+00  0.1473E+03
     53.508  0.1351E+00  0.1477E+03
     53.919  0.0000E+00  0.1494E+03
     54.331  0.0000E+00  0.1509E+03
     54.742  0.0000E+00  0.1526E+03
     55.153  0.0000E+00  0.1544E+03
     55.565  0.0000E+00  0.1558E+03
     55.976  0.5403E+00  0.1569E+03
     56.387  0.2702E+00  0.1590E+03
     56.798  0.0000E+00  0.1597E+03
     57.210  0.2700E+00  0.1608E+03
     57.621  0.0000E+00  0.1631E+03
     58.032  0.0000E+00  0.1653E+03
     58.443  0.1349E+00  0.1669E+03
     58.855  0.8692E-07  0.1687E+03
     59.266  0.0000E+00  0.1698E+03
     59.677  0.0000E+00  0.1707E+03
     60.088  0.3876E+00  0.1718E+03
     60.500  0.0000E+00  0.1735E+03
     60.911  0.0000E+00  0.1747E+03
     61.322  0.0000E+00  0.1764E+03
     61.734  0.7565E-08  0.1777E+03
     62.145  0.0000E+00  0.1795E+03
     62.556  0.0000E+00  0.1808E+03
     62.967  0.0000E+00  0.1826E+03
     63.379  0.0000E+00  0.1845E+03
     63.790  0.5401E+00  0.1860E+03
     64.201  0.0000E+00  0.1868E+03
     64.612  0.0000E+00  0.1885E+03
     65.024  0.2886E-01  0.1898E+03
     65.435  0.0000E+00  0.1910E+03
     65.846  0.0000E+00  0.1924E+03
     66.257  0.0000E+00  0.1931E+03
     66.669  0.1351E+00  0.1946E+03
     67.080  0.0000E+00  0.1952E+03
     67.491  0.0000E+00  0.1956E+03
     67.903  0.0000E+00  0.1958E+03
     68.314  0.0000E+00  0.1960E+03
     68.725  0.0000E+00  0.1960E+03
     69.136  0.0000E+00  0.1960E+03
     69.548  0.0000E+00  0.1960E+03
     69.959  0.0000E+00  0.1960E+03
     70.370  0.0000E+00  0.1960E+03
     70.781  0.0000E+00  0.1960E+03
     71.193  0.0000E+00  0.1960E+03
     71.604  0.0000E+00  0.1960E+03
     72.015  0.0000E+00  0.1960E+03
     72.426  0.0000E+00  0.1960E+03
     72.838  0.0000E+00  0.1960E+03
     73.249  0.0000E+00  0.1960E+03
     73.660  0.0000E+00  0.1960E+03
