Og_FCC                                  
           1
     4.520565    0.000000    0.000000
     2.260282    3.914924   -0.000000
     2.260282    1.304975    3.691026
   Rn
   1
Direct configuration=     1
   0.00000000  0.00000000  0.00000000
