   1   1   0   0
  0.2224118E+02  0.3156634E-09  0.3156634E-09  0.3156634E-09  0.1000000E-15
  1.000000000000000E-004
  CAR 
 Og_FCC                                  
     25.87192694    -42.60524461  301    -13.13152869      1.00000000
    -42.605  0.0000E+00  0.0000E+00
    -42.377  0.0000E+00  0.0000E+00
    -42.149  0.0000E+00  0.0000E+00
    -41.920  0.0000E+00  0.0000E+00
    -41.692  0.0000E+00  0.0000E+00
    -41.464  0.0000E+00  0.0000E+00
    -41.236  0.0000E+00  0.0000E+00
    -41.007  0.0000E+00  0.0000E+00
    -40.779  0.0000E+00  0.0000E+00
    -40.551  0.0000E+00  0.0000E+00
    -40.323  0.0000E+00  0.0000E+00
    -40.094  0.0000E+00  0.0000E+00
    -39.866  0.0000E+00  0.0000E+00
    -39.638  0.7241E-05  0.1653E-05
    -39.410  0.5504E+01  0.1256E+01
    -39.181  0.3258E+01  0.2000E+01
    -38.953  0.0000E+00  0.2000E+01
    -38.725  0.0000E+00  0.2000E+01
    -38.497  0.0000E+00  0.2000E+01
    -38.268  0.0000E+00  0.2000E+01
    -38.040  0.0000E+00  0.2000E+01
    -37.812  0.0000E+00  0.2000E+01
    -37.584  0.0000E+00  0.2000E+01
    -37.355  0.0000E+00  0.2000E+01
    -37.127  0.0000E+00  0.2000E+01
    -36.899  0.0000E+00  0.2000E+01
    -36.671  0.0000E+00  0.2000E+01
    -36.442  0.0000E+00  0.2000E+01
    -36.214  0.0000E+00  0.2000E+01
    -35.986  0.0000E+00  0.2000E+01
    -35.758  0.0000E+00  0.2000E+01
    -35.529  0.0000E+00  0.2000E+01
    -35.301  0.0000E+00  0.2000E+01
    -35.073  0.0000E+00  0.2000E+01
    -34.844  0.0000E+00  0.2000E+01
    -34.616  0.0000E+00  0.2000E+01
    -34.388  0.0000E+00  0.2000E+01
    -34.160  0.0000E+00  0.2000E+01
    -33.931  0.0000E+00  0.2000E+01
    -33.703  0.0000E+00  0.2000E+01
    -33.475  0.0000E+00  0.2000E+01
    -33.247  0.0000E+00  0.2000E+01
    -33.018  0.0000E+00  0.2000E+01
    -32.790  0.0000E+00  0.2000E+01
    -32.562  0.0000E+00  0.2000E+01
    -32.334  0.0000E+00  0.2000E+01
    -32.105  0.0000E+00  0.2000E+01
    -31.877  0.0000E+00  0.2000E+01
    -31.649  0.0000E+00  0.2000E+01
    -31.421  0.0000E+00  0.2000E+01
    -31.192  0.0000E+00  0.2000E+01
    -30.964  0.0000E+00  0.2000E+01
    -30.736  0.0000E+00  0.2000E+01
    -30.508  0.0000E+00  0.2000E+01
    -30.279  0.0000E+00  0.2000E+01
    -30.051  0.0000E+00  0.2000E+01
    -29.823  0.0000E+00  0.2000E+01
    -29.595  0.0000E+00  0.2000E+01
    -29.366  0.0000E+00  0.2000E+01
    -29.138  0.0000E+00  0.2000E+01
    -28.910  0.0000E+00  0.2000E+01
    -28.682  0.0000E+00  0.2000E+01
    -28.453  0.0000E+00  0.2000E+01
    -28.225  0.0000E+00  0.2000E+01
    -27.997  0.0000E+00  0.2000E+01
    -27.769  0.0000E+00  0.2000E+01
    -27.540  0.0000E+00  0.2000E+01
    -27.312  0.0000E+00  0.2000E+01
    -27.084  0.0000E+00  0.2000E+01
    -26.855  0.0000E+00  0.2000E+01
    -26.627  0.0000E+00  0.2000E+01
    -26.399  0.0000E+00  0.2000E+01
    -26.171  0.0000E+00  0.2000E+01
    -25.942  0.0000E+00  0.2000E+01
    -25.714  0.0000E+00  0.2000E+01
    -25.486  0.0000E+00  0.2000E+01
    -25.258  0.0000E+00  0.2000E+01
    -25.029  0.0000E+00  0.2000E+01
    -24.801  0.0000E+00  0.2000E+01
    -24.573  0.0000E+00  0.2000E+01
    -24.345  0.0000E+00  0.2000E+01
    -24.116  0.0000E+00  0.2000E+01
    -23.888  0.0000E+00  0.2000E+01
    -23.660  0.0000E+00  0.2000E+01
    -23.432  0.0000E+00  0.2000E+01
    -23.203  0.0000E+00  0.2000E+01
    -22.975  0.0000E+00  0.2000E+01
    -22.747  0.0000E+00  0.2000E+01
    -22.519  0.0000E+00  0.2000E+01
    -22.290  0.0000E+00  0.2000E+01
    -22.062  0.0000E+00  0.2000E+01
    -21.834  0.0000E+00  0.2000E+01
    -21.606  0.0000E+00  0.2000E+01
    -21.377  0.0000E+00  0.2000E+01
    -21.149  0.0000E+00  0.2000E+01
    -20.921  0.0000E+00  0.2000E+01
    -20.693  0.0000E+00  0.2000E+01
    -20.464  0.0000E+00  0.2000E+01
    -20.236  0.0000E+00  0.2000E+01
    -20.008  0.0000E+00  0.2000E+01
    -19.780  0.0000E+00  0.2000E+01
    -19.551  0.0000E+00  0.2000E+01
    -19.323  0.0000E+00  0.2000E+01
    -19.095  0.0000E+00  0.2000E+01
    -18.866  0.0000E+00  0.2000E+01
    -18.638  0.0000E+00  0.2000E+01
    -18.410  0.0000E+00  0.2000E+01
    -18.182  0.0000E+00  0.2000E+01
    -17.953  0.0000E+00  0.2000E+01
    -17.725  0.0000E+00  0.2000E+01
    -17.497  0.0000E+00  0.2000E+01
    -17.269  0.0000E+00  0.2000E+01
    -17.040  0.0000E+00  0.2000E+01
    -16.812  0.0000E+00  0.2000E+01
    -16.584  0.0000E+00  0.2000E+01
    -16.356  0.0000E+00  0.2000E+01
    -16.127  0.0000E+00  0.2000E+01
    -15.899  0.0000E+00  0.2000E+01
    -15.671  0.0000E+00  0.2000E+01
    -15.443  0.0000E+00  0.2000E+01
    -15.214  0.0000E+00  0.2000E+01
    -14.986  0.0000E+00  0.2000E+01
    -14.758  0.0000E+00  0.2000E+01
    -14.530  0.0000E+00  0.2000E+01
    -14.301  0.3505E-09  0.2000E+01
    -14.073  0.3845E+00  0.2088E+01
    -13.845  0.8914E+01  0.4122E+01
    -13.617  0.1422E+02  0.7368E+01
    -13.388  0.2738E+01  0.7993E+01
    -13.160  0.3147E-01  0.8000E+01
    -12.932  0.0000E+00  0.8000E+01
    -12.704  0.0000E+00  0.8000E+01
    -12.475  0.0000E+00  0.8000E+01
    -12.247  0.0000E+00  0.8000E+01
    -12.019  0.0000E+00  0.8000E+01
    -11.791  0.0000E+00  0.8000E+01
    -11.562  0.0000E+00  0.8000E+01
    -11.334  0.0000E+00  0.8000E+01
    -11.106  0.0000E+00  0.8000E+01
    -10.877  0.0000E+00  0.8000E+01
    -10.649  0.0000E+00  0.8000E+01
    -10.421  0.0000E+00  0.8000E+01
    -10.193  0.0000E+00  0.8000E+01
     -9.964  0.0000E+00  0.8000E+01
     -9.736  0.0000E+00  0.8000E+01
     -9.508  0.0000E+00  0.8000E+01
     -9.280  0.0000E+00  0.8000E+01
     -9.051  0.0000E+00  0.8000E+01
     -8.823  0.0000E+00  0.8000E+01
     -8.595  0.0000E+00  0.8000E+01
     -8.367  0.0000E+00  0.8000E+01
     -8.138  0.0000E+00  0.8000E+01
     -7.910  0.0000E+00  0.8000E+01
     -7.682  0.0000E+00  0.8000E+01
     -7.454  0.0000E+00  0.8000E+01
     -7.225  0.0000E+00  0.8000E+01
     -6.997  0.0000E+00  0.8000E+01
     -6.769  0.0000E+00  0.8000E+01
     -6.541  0.0000E+00  0.8000E+01
     -6.312  0.0000E+00  0.8000E+01
     -6.084  0.0000E+00  0.8000E+01
     -5.856  0.0000E+00  0.8000E+01
     -5.628  0.0000E+00  0.8000E+01
     -5.399  0.0000E+00  0.8000E+01
     -5.171  0.0000E+00  0.8000E+01
     -4.943  0.0000E+00  0.8000E+01
     -4.715  0.0000E+00  0.8000E+01
     -4.486  0.0000E+00  0.8000E+01
     -4.258  0.0000E+00  0.8000E+01
     -4.030  0.0000E+00  0.8000E+01
     -3.802  0.0000E+00  0.8000E+01
     -3.573  0.0000E+00  0.8000E+01
     -3.345  0.0000E+00  0.8000E+01
     -3.117  0.0000E+00  0.8000E+01
     -2.888  0.0000E+00  0.8000E+01
     -2.660  0.0000E+00  0.8000E+01
     -2.432  0.0000E+00  0.8000E+01
     -2.204  0.0000E+00  0.8000E+01
     -1.975  0.0000E+00  0.8000E+01
     -1.747  0.0000E+00  0.8000E+01
     -1.519  0.0000E+00  0.8000E+01
     -1.291  0.0000E+00  0.8000E+01
     -1.062  0.0000E+00  0.8000E+01
     -0.834  0.0000E+00  0.8000E+01
     -0.606  0.0000E+00  0.8000E+01
     -0.378  0.0000E+00  0.8000E+01
     -0.149  0.0000E+00  0.8000E+01
      0.079  0.0000E+00  0.8000E+01
      0.307  0.0000E+00  0.8000E+01
      0.535  0.0000E+00  0.8000E+01
      0.764  0.4825E-06  0.8000E+01
      0.992  0.4004E-01  0.8009E+01
      1.220  0.5221E-03  0.8009E+01
      1.448  0.1297E-10  0.8009E+01
      1.677  0.1565E+00  0.8045E+01
      1.905  0.2297E+00  0.8097E+01
      2.133  0.1817E+00  0.8139E+01
      2.361  0.0000E+00  0.8139E+01
      2.590  0.0000E+00  0.8139E+01
      2.818  0.1139E-02  0.8139E+01
      3.046  0.4856E+00  0.8250E+01
      3.274  0.6956E-04  0.8250E+01
      3.503  0.9053E-02  0.8252E+01
      3.731  0.9645E+00  0.8472E+01
      3.959  0.3233E+00  0.8546E+01
      4.187  0.1211E-02  0.8546E+01
      4.416  0.1150E-10  0.8546E+01
      4.644  0.1198E+00  0.8574E+01
      4.872  0.1236E+00  0.8602E+01
      5.101  0.2079E-09  0.8602E+01
      5.329  0.5686E+00  0.8732E+01
      5.557  0.1252E+01  0.9017E+01
      5.785  0.1264E+00  0.9046E+01
      6.014  0.4277E-14  0.9046E+01
      6.242  0.9431E-01  0.9068E+01
      6.470  0.8792E+00  0.9269E+01
      6.698  0.1430E-01  0.9272E+01
      6.927  0.1167E+01  0.9538E+01
      7.155  0.1166E+00  0.9565E+01
      7.383  0.3161E-05  0.9565E+01
      7.611  0.4780E+00  0.9674E+01
      7.840  0.1035E+01  0.9910E+01
      8.068  0.6870E-01  0.9926E+01
      8.296  0.3725E-07  0.9926E+01
      8.524  0.1094E+01  0.1018E+02
      8.753  0.6287E+00  0.1032E+02
      8.981  0.8331E+00  0.1051E+02
      9.209  0.6997E-01  0.1053E+02
      9.437  0.4168E+00  0.1062E+02
      9.666  0.3702E-01  0.1063E+02
      9.894  0.1423E+01  0.1095E+02
     10.122  0.1291E-04  0.1095E+02
     10.350  0.1265E+01  0.1124E+02
     10.579  0.2060E+00  0.1129E+02
     10.807  0.6828E+00  0.1145E+02
     11.035  0.1179E+00  0.1147E+02
     11.263  0.3935E-02  0.1147E+02
     11.492  0.1077E+01  0.1172E+02
     11.720  0.1832E+01  0.1214E+02
     11.948  0.1476E-01  0.1214E+02
     12.176  0.9708E+00  0.1236E+02
     12.405  0.1047E+01  0.1260E+02
     12.633  0.9275E-01  0.1262E+02
     12.861  0.1946E+00  0.1267E+02
     13.090  0.1643E-04  0.1267E+02
     13.318  0.7180E+00  0.1283E+02
     13.546  0.1215E-01  0.1283E+02
     13.774  0.6976E-02  0.1283E+02
     14.003  0.9940E+00  0.1306E+02
     14.231  0.8684E+00  0.1326E+02
     14.459  0.5645E+00  0.1339E+02
     14.687  0.1937E-13  0.1339E+02
     14.916  0.1850E+00  0.1343E+02
     15.144  0.1600E+01  0.1380E+02
     15.372  0.7184E+00  0.1396E+02
     15.600  0.2552E+00  0.1402E+02
     15.829  0.2436E+00  0.1407E+02
     16.057  0.9726E+00  0.1430E+02
     16.285  0.8004E-02  0.1430E+02
     16.513  0.7737E+00  0.1447E+02
     16.742  0.9226E+00  0.1469E+02
     16.970  0.1207E+01  0.1496E+02
     17.198  0.1423E+01  0.1529E+02
     17.426  0.7774E+00  0.1546E+02
     17.655  0.1914E-01  0.1547E+02
     17.883  0.1100E+01  0.1572E+02
     18.111  0.1094E+01  0.1597E+02
     18.339  0.9471E+00  0.1618E+02
     18.568  0.3854E-02  0.1619E+02
     18.796  0.2901E-02  0.1619E+02
     19.024  0.1589E+01  0.1655E+02
     19.252  0.1317E+00  0.1658E+02
     19.481  0.1380E-01  0.1658E+02
     19.709  0.1640E+01  0.1696E+02
     19.937  0.5287E+00  0.1708E+02
     20.165  0.3847E+00  0.1716E+02
     20.394  0.6797E+00  0.1732E+02
     20.622  0.5209E-01  0.1733E+02
     20.850  0.6709E+00  0.1748E+02
     21.079  0.5906E+00  0.1762E+02
     21.307  0.1223E+00  0.1765E+02
     21.535  0.1678E+00  0.1769E+02
     21.763  0.4571E+00  0.1779E+02
     21.992  0.4008E+00  0.1788E+02
     22.220  0.2298E+00  0.1793E+02
     22.448  0.1988E+00  0.1798E+02
     22.676  0.6635E-01  0.1799E+02
     22.905  0.2361E-01  0.1800E+02
     23.133  0.4040E-06  0.1800E+02
     23.361  0.0000E+00  0.1800E+02
     23.589  0.0000E+00  0.1800E+02
     23.818  0.0000E+00  0.1800E+02
     24.046  0.0000E+00  0.1800E+02
     24.274  0.0000E+00  0.1800E+02
     24.502  0.0000E+00  0.1800E+02
     24.731  0.0000E+00  0.1800E+02
     24.959  0.0000E+00  0.1800E+02
     25.187  0.0000E+00  0.1800E+02
     25.415  0.0000E+00  0.1800E+02
     25.644  0.0000E+00  0.1800E+02
     25.872  0.0000E+00  0.1800E+02
