   1   1   0   0
  0.1860393E+02  0.2974221E-09  0.2974221E-09  0.2974221E-09  0.1000000E-15
  1.000000000000000E-004
  CAR 
 Og_FCC                                  
     27.94627554    -42.31071372  301    -12.30512456      1.00000000
    -42.311  0.0000E+00  0.0000E+00
    -42.077  0.0000E+00  0.0000E+00
    -41.842  0.0000E+00  0.0000E+00
    -41.608  0.0000E+00  0.0000E+00
    -41.374  0.0000E+00  0.0000E+00
    -41.140  0.0000E+00  0.0000E+00
    -40.906  0.0000E+00  0.0000E+00
    -40.671  0.0000E+00  0.0000E+00
    -40.437  0.0000E+00  0.0000E+00
    -40.203  0.0000E+00  0.0000E+00
    -39.969  0.0000E+00  0.0000E+00
    -39.735  0.0000E+00  0.0000E+00
    -39.500  0.0000E+00  0.0000E+00
    -39.266  0.4980E-06  0.1166E-06
    -39.032  0.1632E+01  0.3822E+00
    -38.798  0.6908E+01  0.2000E+01
    -38.564  0.1763E-04  0.2000E+01
    -38.329  0.0000E+00  0.2000E+01
    -38.095  0.0000E+00  0.2000E+01
    -37.861  0.0000E+00  0.2000E+01
    -37.627  0.0000E+00  0.2000E+01
    -37.393  0.0000E+00  0.2000E+01
    -37.159  0.0000E+00  0.2000E+01
    -36.924  0.0000E+00  0.2000E+01
    -36.690  0.0000E+00  0.2000E+01
    -36.456  0.0000E+00  0.2000E+01
    -36.222  0.0000E+00  0.2000E+01
    -35.988  0.0000E+00  0.2000E+01
    -35.753  0.0000E+00  0.2000E+01
    -35.519  0.0000E+00  0.2000E+01
    -35.285  0.0000E+00  0.2000E+01
    -35.051  0.0000E+00  0.2000E+01
    -34.817  0.0000E+00  0.2000E+01
    -34.582  0.0000E+00  0.2000E+01
    -34.348  0.0000E+00  0.2000E+01
    -34.114  0.0000E+00  0.2000E+01
    -33.880  0.0000E+00  0.2000E+01
    -33.646  0.0000E+00  0.2000E+01
    -33.411  0.0000E+00  0.2000E+01
    -33.177  0.0000E+00  0.2000E+01
    -32.943  0.0000E+00  0.2000E+01
    -32.709  0.0000E+00  0.2000E+01
    -32.475  0.0000E+00  0.2000E+01
    -32.241  0.0000E+00  0.2000E+01
    -32.006  0.0000E+00  0.2000E+01
    -31.772  0.0000E+00  0.2000E+01
    -31.538  0.0000E+00  0.2000E+01
    -31.304  0.0000E+00  0.2000E+01
    -31.070  0.0000E+00  0.2000E+01
    -30.835  0.0000E+00  0.2000E+01
    -30.601  0.0000E+00  0.2000E+01
    -30.367  0.0000E+00  0.2000E+01
    -30.133  0.0000E+00  0.2000E+01
    -29.899  0.0000E+00  0.2000E+01
    -29.664  0.0000E+00  0.2000E+01
    -29.430  0.0000E+00  0.2000E+01
    -29.196  0.0000E+00  0.2000E+01
    -28.962  0.0000E+00  0.2000E+01
    -28.728  0.0000E+00  0.2000E+01
    -28.494  0.0000E+00  0.2000E+01
    -28.259  0.0000E+00  0.2000E+01
    -28.025  0.0000E+00  0.2000E+01
    -27.791  0.0000E+00  0.2000E+01
    -27.557  0.0000E+00  0.2000E+01
    -27.323  0.0000E+00  0.2000E+01
    -27.088  0.0000E+00  0.2000E+01
    -26.854  0.0000E+00  0.2000E+01
    -26.620  0.0000E+00  0.2000E+01
    -26.386  0.0000E+00  0.2000E+01
    -26.152  0.0000E+00  0.2000E+01
    -25.917  0.0000E+00  0.2000E+01
    -25.683  0.0000E+00  0.2000E+01
    -25.449  0.0000E+00  0.2000E+01
    -25.215  0.0000E+00  0.2000E+01
    -24.981  0.0000E+00  0.2000E+01
    -24.746  0.0000E+00  0.2000E+01
    -24.512  0.0000E+00  0.2000E+01
    -24.278  0.0000E+00  0.2000E+01
    -24.044  0.0000E+00  0.2000E+01
    -23.810  0.0000E+00  0.2000E+01
    -23.576  0.0000E+00  0.2000E+01
    -23.341  0.0000E+00  0.2000E+01
    -23.107  0.0000E+00  0.2000E+01
    -22.873  0.0000E+00  0.2000E+01
    -22.639  0.0000E+00  0.2000E+01
    -22.405  0.0000E+00  0.2000E+01
    -22.170  0.0000E+00  0.2000E+01
    -21.936  0.0000E+00  0.2000E+01
    -21.702  0.0000E+00  0.2000E+01
    -21.468  0.0000E+00  0.2000E+01
    -21.234  0.0000E+00  0.2000E+01
    -20.999  0.0000E+00  0.2000E+01
    -20.765  0.0000E+00  0.2000E+01
    -20.531  0.0000E+00  0.2000E+01
    -20.297  0.0000E+00  0.2000E+01
    -20.063  0.0000E+00  0.2000E+01
    -19.828  0.0000E+00  0.2000E+01
    -19.594  0.0000E+00  0.2000E+01
    -19.360  0.0000E+00  0.2000E+01
    -19.126  0.0000E+00  0.2000E+01
    -18.892  0.0000E+00  0.2000E+01
    -18.658  0.0000E+00  0.2000E+01
    -18.423  0.0000E+00  0.2000E+01
    -18.189  0.0000E+00  0.2000E+01
    -17.955  0.0000E+00  0.2000E+01
    -17.721  0.0000E+00  0.2000E+01
    -17.487  0.0000E+00  0.2000E+01
    -17.252  0.0000E+00  0.2000E+01
    -17.018  0.0000E+00  0.2000E+01
    -16.784  0.0000E+00  0.2000E+01
    -16.550  0.0000E+00  0.2000E+01
    -16.316  0.0000E+00  0.2000E+01
    -16.081  0.0000E+00  0.2000E+01
    -15.847  0.0000E+00  0.2000E+01
    -15.613  0.0000E+00  0.2000E+01
    -15.379  0.0000E+00  0.2000E+01
    -15.145  0.0000E+00  0.2000E+01
    -14.910  0.0000E+00  0.2000E+01
    -14.676  0.0000E+00  0.2000E+01
    -14.442  0.4440E-10  0.2000E+01
    -14.208  0.1050E+00  0.2025E+01
    -13.974  0.6688E+00  0.2181E+01
    -13.740  0.4762E+01  0.3296E+01
    -13.505  0.3109E+01  0.4024E+01
    -13.271  0.2530E+01  0.4617E+01
    -13.037  0.1000E+02  0.6959E+01
    -12.803  0.3805E+01  0.7850E+01
    -12.569  0.6382E+00  0.8000E+01
    -12.334  0.6275E-03  0.8000E+01
    -12.100  0.0000E+00  0.8000E+01
    -11.866  0.0000E+00  0.8000E+01
    -11.632  0.0000E+00  0.8000E+01
    -11.398  0.0000E+00  0.8000E+01
    -11.163  0.0000E+00  0.8000E+01
    -10.929  0.0000E+00  0.8000E+01
    -10.695  0.0000E+00  0.8000E+01
    -10.461  0.0000E+00  0.8000E+01
    -10.227  0.0000E+00  0.8000E+01
     -9.992  0.0000E+00  0.8000E+01
     -9.758  0.0000E+00  0.8000E+01
     -9.524  0.0000E+00  0.8000E+01
     -9.290  0.0000E+00  0.8000E+01
     -9.056  0.0000E+00  0.8000E+01
     -8.822  0.0000E+00  0.8000E+01
     -8.587  0.0000E+00  0.8000E+01
     -8.353  0.0000E+00  0.8000E+01
     -8.119  0.0000E+00  0.8000E+01
     -7.885  0.0000E+00  0.8000E+01
     -7.651  0.0000E+00  0.8000E+01
     -7.416  0.0000E+00  0.8000E+01
     -7.182  0.0000E+00  0.8000E+01
     -6.948  0.0000E+00  0.8000E+01
     -6.714  0.0000E+00  0.8000E+01
     -6.480  0.0000E+00  0.8000E+01
     -6.245  0.0000E+00  0.8000E+01
     -6.011  0.0000E+00  0.8000E+01
     -5.777  0.0000E+00  0.8000E+01
     -5.543  0.0000E+00  0.8000E+01
     -5.309  0.0000E+00  0.8000E+01
     -5.075  0.0000E+00  0.8000E+01
     -4.840  0.0000E+00  0.8000E+01
     -4.606  0.0000E+00  0.8000E+01
     -4.372  0.0000E+00  0.8000E+01
     -4.138  0.0000E+00  0.8000E+01
     -3.904  0.0000E+00  0.8000E+01
     -3.669  0.0000E+00  0.8000E+01
     -3.435  0.0000E+00  0.8000E+01
     -3.201  0.0000E+00  0.8000E+01
     -2.967  0.0000E+00  0.8000E+01
     -2.733  0.0000E+00  0.8000E+01
     -2.498  0.0000E+00  0.8000E+01
     -2.264  0.0000E+00  0.8000E+01
     -2.030  0.0000E+00  0.8000E+01
     -1.796  0.0000E+00  0.8000E+01
     -1.562  0.0000E+00  0.8000E+01
     -1.327  0.0000E+00  0.8000E+01
     -1.093  0.0000E+00  0.8000E+01
     -0.859  0.0000E+00  0.8000E+01
     -0.625  0.0000E+00  0.8000E+01
     -0.391  0.0000E+00  0.8000E+01
     -0.157  0.0000E+00  0.8000E+01
      0.078  0.0000E+00  0.8000E+01
      0.312  0.0000E+00  0.8000E+01
      0.546  0.0000E+00  0.8000E+01
      0.780  0.0000E+00  0.8000E+01
      1.014  0.0000E+00  0.8000E+01
      1.249  0.0000E+00  0.8000E+01
      1.483  0.3402E-15  0.8000E+01
      1.717  0.5844E-02  0.8001E+01
      1.951  0.3369E-01  0.8009E+01
      2.185  0.0000E+00  0.8009E+01
      2.420  0.1124E-14  0.8009E+01
      2.654  0.3899E-01  0.8018E+01
      2.888  0.2780E+00  0.8083E+01
      3.122  0.2365E+00  0.8139E+01
      3.356  0.1323E-04  0.8139E+01
      3.591  0.0000E+00  0.8139E+01
      3.825  0.6107E-12  0.8139E+01
      4.059  0.1678E+00  0.8178E+01
      4.293  0.3066E+00  0.8250E+01
      4.527  0.1053E-15  0.8250E+01
      4.761  0.5239E-01  0.8262E+01
      4.996  0.9022E+00  0.8474E+01
      5.230  0.3106E+00  0.8546E+01
      5.464  0.9502E-06  0.8546E+01
      5.698  0.4522E-13  0.8546E+01
      5.932  0.6208E-01  0.8561E+01
      6.167  0.1751E+00  0.8602E+01
      6.401  0.6467E-13  0.8602E+01
      6.635  0.2077E+00  0.8650E+01
      6.869  0.1586E+01  0.9022E+01
      7.103  0.1039E+00  0.9046E+01
      7.338  0.0000E+00  0.9046E+01
      7.572  0.1930E-04  0.9046E+01
      7.806  0.9433E+00  0.9267E+01
      8.040  0.5568E-02  0.9269E+01
      8.274  0.1088E+01  0.9523E+01
      8.509  0.1724E+00  0.9564E+01
      8.743  0.4522E-02  0.9565E+01
      8.977  0.6012E-03  0.9565E+01
      9.211  0.6764E+00  0.9723E+01
      9.445  0.8649E+00  0.9926E+01
      9.679  0.1774E-08  0.9926E+01
      9.914  0.3799E+00  0.1001E+02
     10.148  0.1837E+00  0.1006E+02
     10.382  0.8598E+00  0.1026E+02
     10.616  0.1015E+01  0.1050E+02
     10.850  0.5240E-01  0.1051E+02
     11.085  0.9600E-01  0.1053E+02
     11.319  0.3785E+00  0.1062E+02
     11.553  0.9333E+00  0.1084E+02
     11.787  0.4900E+00  0.1095E+02
     12.021  0.2724E+00  0.1102E+02
     12.256  0.1151E+01  0.1129E+02
     12.490  0.3158E+00  0.1136E+02
     12.724  0.4745E+00  0.1147E+02
     12.958  0.3719E-03  0.1147E+02
     13.192  0.7035E-01  0.1149E+02
     13.426  0.1812E+01  0.1191E+02
     13.661  0.9644E+00  0.1214E+02
     13.895  0.5177E+00  0.1226E+02
     14.129  0.5478E+00  0.1239E+02
     14.363  0.9509E+00  0.1261E+02
     14.597  0.2337E+00  0.1267E+02
     14.832  0.3500E-02  0.1267E+02
     15.066  0.2107E+00  0.1272E+02
     15.300  0.2886E+00  0.1278E+02
     15.534  0.2124E+00  0.1283E+02
     15.768  0.2007E-04  0.1283E+02
     16.003  0.9435E+00  0.1305E+02
     16.237  0.2131E+00  0.1310E+02
     16.471  0.7412E+00  0.1328E+02
     16.705  0.4631E+00  0.1339E+02
     16.939  0.1136E-01  0.1339E+02
     17.174  0.2972E+00  0.1346E+02
     17.408  0.6212E+00  0.1360E+02
     17.642  0.1770E+01  0.1402E+02
     17.876  0.2194E+00  0.1407E+02
     18.110  0.1835E-01  0.1407E+02
     18.344  0.7918E-04  0.1407E+02
     18.579  0.9468E+00  0.1430E+02
     18.813  0.2014E-02  0.1430E+02
     19.047  0.2228E+00  0.1435E+02
     19.281  0.9795E+00  0.1458E+02
     19.515  0.5552E+00  0.1471E+02
     19.750  0.2168E+01  0.1522E+02
     19.984  0.1074E+01  0.1547E+02
     20.218  0.2993E+00  0.1554E+02
     20.452  0.1145E+01  0.1581E+02
     20.686  0.1148E+01  0.1607E+02
     20.921  0.1911E-04  0.1607E+02
     21.155  0.9499E-01  0.1610E+02
     21.389  0.3901E+00  0.1619E+02
     21.623  0.6691E+00  0.1634E+02
     21.857  0.1020E+01  0.1658E+02
     22.092  0.1572E-02  0.1658E+02
     22.326  0.6309E+00  0.1673E+02
     22.560  0.5454E+00  0.1686E+02
     22.794  0.1194E+01  0.1714E+02
     23.028  0.5644E+00  0.1727E+02
     23.262  0.3846E+00  0.1736E+02
     23.497  0.1728E+00  0.1740E+02
     23.731  0.3392E+00  0.1748E+02
     23.965  0.3055E+00  0.1755E+02
     24.199  0.9617E+00  0.1778E+02
     24.433  0.6815E-05  0.1778E+02
     24.668  0.7599E-02  0.1778E+02
     24.902  0.9413E+00  0.1800E+02
     25.136  0.1183E-04  0.1800E+02
     25.370  0.0000E+00  0.1800E+02
     25.604  0.0000E+00  0.1800E+02
     25.839  0.0000E+00  0.1800E+02
     26.073  0.0000E+00  0.1800E+02
     26.307  0.0000E+00  0.1800E+02
     26.541  0.0000E+00  0.1800E+02
     26.775  0.0000E+00  0.1800E+02
     27.010  0.0000E+00  0.1800E+02
     27.244  0.0000E+00  0.1800E+02
     27.478  0.0000E+00  0.1800E+02
     27.712  0.0000E+00  0.1800E+02
     27.946  0.0000E+00  0.1800E+02
