    1    1    1    1
  0.2224118E+02  0.3156634E-09  0.3156634E-09  0.3156634E-09  0.1000000E-15
  1.000000000000000E-004
  CAR 
 Og_FCC                                  
      8    216     18
 
  0.0000000E+00  0.0000000E+00  0.0000000E+00  0.4629630E-02
    1      -39.487015   1.000000
    2      -39.486905   1.000000
    3      -13.497498   1.000000
    4      -13.497464   1.000000
    5      -13.399019   1.000000
    6      -13.398936   1.000000
    7      -13.398923   1.000000
    8      -13.398892   1.000000
    9        0.913039   0.000000
   10        0.913046   0.000000
   11       19.138198   0.000000
   12       19.138205   0.000000
   13       19.138405   0.000000
   14       19.138416   0.000000
   15       19.138427   0.000000
   16       19.138440   0.000000
   17       20.850691   0.000000
   18       20.850695   0.000000
 
  0.1666667E+00 -0.1387779E-16 -0.6938894E-17  0.4629630E-02
    1      -39.492646   1.000000
    2      -39.492538   1.000000
    3      -13.968250   1.000000
    4      -13.968152   1.000000
    5      -13.722821   1.000000
    6      -13.722816   1.000000
    7      -13.664846   1.000000
    8      -13.664845   1.000000
    9        1.678230   0.000000
   10        1.678241   0.000000
   11       14.979921   0.000000
   12       14.979930   0.000000
   13       18.887535   0.000000
   14       18.887549   0.000000
   15       18.889419   0.000000
   16       18.889425   0.000000
   17       20.990690   0.000000
   18       21.770986   0.000000
 
  0.3333333E+00  0.0000000E+00 -0.1387779E-16  0.4629630E-02
    1      -39.429703   1.000000
    2      -39.429592   1.000000
    3      -13.734369   1.000000
    4      -13.734289   1.000000
    5      -13.548782   1.000000
    6      -13.548777   1.000000
    7      -13.494225   1.000000
    8      -13.494224   1.000000
    9        3.864626   0.000000
   10        3.864649   0.000000
   11       10.643918   0.000000
   12       10.643938   0.000000
   13       18.127519   0.000000
   14       18.127519   0.000000
   15       18.128629   0.000000
   16       18.128632   0.000000
   17       19.775137   0.000000
   18       19.816173   0.000000
 
  0.5000000E+00  0.0000000E+00 -0.5551115E-16  0.4629630E-02
    1      -39.431723   1.000000
    2      -39.431614   1.000000
    3      -13.987569   1.000000
    4      -13.987495   1.000000
    5      -13.838534   1.000000
    6      -13.838526   1.000000
    7      -13.785450   1.000000
    8      -13.785449   1.000000
    9        6.818255   0.000000
   10        6.818305   0.000000
   11        6.946881   0.000000
   12        6.946882   0.000000
   13       17.708936   0.000000
   14       17.708945   0.000000
   15       17.709190   0.000000
   16       17.709195   0.000000
   17       19.530139   0.000000
   18       19.556031   0.000000
 
 -0.3333333E+00  0.0000000E+00  0.1387779E-16  0.4629630E-02
    1      -39.429703   1.000000
    2      -39.429592   1.000000
    3      -13.734369   1.000000
    4      -13.734289   1.000000
    5      -13.548782   1.000000
    6      -13.548777   1.000000
    7      -13.494225   1.000000
    8      -13.494224   1.000000
    9        3.864626   0.000000
   10        3.864649   0.000000
   11       10.643918   0.000000
   12       10.643938   0.000000
   13       18.127517   0.000000
   14       18.127931   0.000000
   15       18.128226   0.000000
   16       18.128630   0.000000
   17       19.775135   0.000000
   18       22.579092   0.000000
 
 -0.1666667E+00  0.1387779E-16  0.6938894E-17  0.4629630E-02
    1      -39.492640   1.000000
    2      -39.492533   1.000000
    3      -13.968231   1.000000
    4      -13.968133   1.000000
    5      -13.722812   1.000000
    6      -13.722808   1.000000
    7      -13.664838   1.000000
    8      -13.664837   1.000000
    9        1.678229   0.000000
   10        1.678240   0.000000
   11       14.979922   0.000000
   12       14.979930   0.000000
   13       18.887538   0.000000
   14       18.887563   0.000000
   15       18.889413   0.000000
   16       18.889418   0.000000
   17       20.999232   0.000000
   18       21.603027   0.000000
 
  0.0000000E+00  0.1666667E+00  0.6938894E-17  0.4629630E-02
    1      -39.492645   1.000000
    2      -39.492537   1.000000
    3      -13.968249   1.000000
    4      -13.968152   1.000000
    5      -13.722836   1.000000
    6      -13.722801   1.000000
    7      -13.664864   1.000000
    8      -13.664827   1.000000
    9        1.678231   0.000000
   10        1.678242   0.000000
   11       14.979927   0.000000
   12       14.979936   0.000000
   13       18.887529   0.000000
   14       18.887749   0.000000
   15       18.889213   0.000000
   16       18.889420   0.000000
   17       20.990758   0.000000
   18       21.224687   0.000000
 
  0.1666667E+00  0.1666667E+00 -0.1387779E-16  0.4629630E-02
    1      -39.470170   1.000000
    2      -39.470061   1.000000
    3      -13.784251   1.000000
    4      -13.784158   1.000000
    5      -13.603322   1.000000
    6      -13.603293   1.000000
    7      -13.550067   1.000000
    8      -13.550035   1.000000
    9        1.928374   0.000000
   10        1.928386   0.000000
   11       15.720227   0.000000
   12       15.720230   0.000000
   13       17.808635   0.000000
   14       17.808640   0.000000
   15       17.813759   0.000000
   16       17.813764   0.000000
   17       18.062437   0.000000
   18       18.062446   0.000000
 
  0.3333333E+00  0.1666667E+00 -0.2775558E-16  0.4629630E-02
    1      -39.449942   1.000000
    2      -39.449833   1.000000
    3      -13.980646   1.000000
    4      -13.980560   1.000000
    5      -13.808719   1.000000
    6      -13.808673   1.000000
    7      -13.750609   1.000000
    8      -13.750567   1.000000
    9        3.585915   0.000000
   10        3.585937   0.000000
   11       12.270286   0.000000
   12       12.270300   0.000000
   13       15.349569   0.000000
   14       15.349579   0.000000
   15       17.215427   0.000000
   16       17.215430   0.000000
   17       18.941571   0.000000
   18       18.941572   0.000000
 
  0.5000000E+00  0.1666667E+00  0.0000000E+00  0.4629630E-02
    1      -39.419979   1.000000
    2      -39.419869   1.000000
    3      -13.973291   1.000000
    4      -13.973208   1.000000
    5      -13.780698   1.000000
    6      -13.780669   1.000000
    7      -13.723767   1.000000
    8      -13.723737   1.000000
    9        6.287735   0.000000
   10        6.287764   0.000000
   11        8.507742   0.000000
   12        8.507762   0.000000
   13       14.237933   0.000000
   14       14.237934   0.000000
   15       17.154793   0.000000
   16       17.154795   0.000000
   17       19.564615   0.000000
   18       19.564615   0.000000
 
 -0.3333333E+00  0.1666667E+00  0.6938894E-17  0.4629630E-02
    1      -39.418165   1.000000
    2      -39.418056   1.000000
    3      -13.897930   1.000000
    4      -13.897846   1.000000
    5      -13.670821   1.000000
    6      -13.670738   1.000000
    7      -13.566480   1.000000
    8      -13.566395   1.000000
    9        5.321253   0.000000
   10        5.321281   0.000000
   11        9.744810   0.000000
   12        9.744830   0.000000
   13       13.860862   0.000000
   14       13.860874   0.000000
   15       17.898537   0.000000
   16       17.898540   0.000000
   17       20.819144   0.000000
   18       21.041273   0.000000
 
 -0.1666667E+00  0.1666667E+00  0.7166211E-17  0.4629630E-02
    1      -39.460086   1.000000
    2      -39.459976   1.000000
    3      -13.891699   1.000000
    4      -13.891616   1.000000
    5      -13.791441   1.000000
    6      -13.791349   1.000000
    7      -13.681281   1.000000
    8      -13.681189   1.000000
    9        2.917930   0.000000
   10        2.917949   0.000000
   11       13.247019   0.000000
   12       13.247032   0.000000
   13       14.953476   0.000000
   14       14.953487   0.000000
   15       19.593857   0.000000
   16       19.593910   0.000000
   17       20.799188   0.000000
   18       21.038228   0.000000
 
  0.0000000E+00  0.3333333E+00 -0.1387779E-16  0.4629630E-02
    1      -39.429703   1.000000
    2      -39.429592   1.000000
    3      -13.734368   1.000000
    4      -13.734289   1.000000
    5      -13.548796   1.000000
    6      -13.548764   1.000000
    7      -13.494243   1.000000
    8      -13.494207   1.000000
    9        3.864627   0.000000
   10        3.864650   0.000000
   11       10.643923   0.000000
   12       10.643943   0.000000
   13       18.127507   0.000000
   14       18.127527   0.000000
   15       18.128612   0.000000
   16       18.128620   0.000000
   17       19.775186   0.000000
   18       20.000181   0.000000
 
  0.1666667E+00  0.3333333E+00  0.2775558E-16  0.4629630E-02
    1      -39.449942   1.000000
    2      -39.449833   1.000000
    3      -13.980645   1.000000
    4      -13.980560   1.000000
    5      -13.808723   1.000000
    6      -13.808670   1.000000
    7      -13.750614   1.000000
    8      -13.750563   1.000000
    9        3.585915   0.000000
   10        3.585937   0.000000
   11       12.270297   0.000000
   12       12.270312   0.000000
   13       15.349573   0.000000
   14       15.349582   0.000000
   15       17.215435   0.000000
   16       17.215439   0.000000
   17       18.941534   0.000000
   18       18.941535   0.000000
 
  0.3333333E+00  0.3333333E+00  0.0000000E+00  0.4629630E-02
    1      -39.427947   1.000000
    2      -39.427835   1.000000
    3      -13.955941   1.000000
    4      -13.955862   1.000000
    5      -13.804370   1.000000
    6      -13.804344   1.000000
    7      -13.753144   1.000000
    8      -13.753112   1.000000
    9        4.644679   0.000000
   10        4.644704   0.000000
   11       12.662694   0.000000
   12       12.662713   0.000000
   13       13.225622   0.000000
   14       13.225628   0.000000
   15       16.615946   0.000000
   16       16.615949   0.000000
   17       16.626321   0.000000
   18       16.626339   0.000000
 
  0.5000000E+00  0.3333333E+00  0.0000000E+00  0.4629630E-02
    1      -39.404155   1.000000
    2      -39.404045   1.000000
    3      -13.902550   1.000000
    4      -13.902477   1.000000
    5      -13.810239   1.000000
    6      -13.810159   1.000000
    7      -13.740140   1.000000
    8      -13.740060   1.000000
    9        6.775376   0.000000
   10        6.775404   0.000000
   11       10.317891   0.000000
   12       10.317916   0.000000
   13       11.535000   0.000000
   14       11.535014   0.000000
   15       16.508779   0.000000
   16       16.508792   0.000000
   17       16.943338   0.000000
   18       16.943339   0.000000
 
 -0.3333333E+00  0.3333333E+00  0.1433242E-16  0.4629630E-02
    1      -39.417204   1.000000
    2      -39.417092   1.000000
    3      -14.087462   1.000000
    4      -14.087377   1.000000
    5      -13.986256   1.000000
    6      -13.986170   1.000000
    7      -13.803452   1.000000
    8      -13.803356   1.000000
    9        7.537234   0.000000
   10        7.537267   0.000000
   11        9.723503   0.000000
   12        9.723533   0.000000
   13       10.290012   0.000000
   14       10.290017   0.000000
   15       16.916415   0.000000
   16       16.916422   0.000000
   17       18.254171   0.000000
   18       18.254172   0.000000
 
 -0.1666667E+00  0.3333333E+00 -0.6938894E-17  0.4629630E-02
    1      -39.418161   1.000000
    2      -39.418051   1.000000
    3      -13.897925   1.000000
    4      -13.897841   1.000000
    5      -13.670800   1.000000
    6      -13.670715   1.000000
    7      -13.566470   1.000000
    8      -13.566382   1.000000
    9        5.321253   0.000000
   10        5.321281   0.000000
   11        9.744815   0.000000
   12        9.744836   0.000000
   13       13.860857   0.000000
   14       13.860869   0.000000
   15       17.898553   0.000000
   16       17.898575   0.000000
   17       20.819152   0.000000
   18       22.038421   0.000000
 
  0.0000000E+00  0.5000000E+00 -0.5551115E-16  0.4629630E-02
    1      -39.431723   1.000000
    2      -39.431614   1.000000
    3      -13.987569   1.000000
    4      -13.987495   1.000000
    5      -13.838545   1.000000
    6      -13.838515   1.000000
    7      -13.785468   1.000000
    8      -13.785431   1.000000
    9        6.818221   0.000000
   10        6.818271   0.000000
   11        6.946923   0.000000
   12        6.946924   0.000000
   13       17.708928   0.000000
   14       17.709061   0.000000
   15       17.709184   0.000000
   16       17.731493   0.000000
   17       19.535767   0.000000
   18       20.316141   0.000000
 
  0.1666667E+00  0.5000000E+00 -0.2775558E-16  0.4629630E-02
    1      -39.419979   1.000000
    2      -39.419868   1.000000
    3      -13.973291   1.000000
    4      -13.973209   1.000000
    5      -13.780703   1.000000
    6      -13.780664   1.000000
    7      -13.723774   1.000000
    8      -13.723731   1.000000
    9        6.287730   0.000000
   10        6.287760   0.000000
   11        8.507760   0.000000
   12        8.507779   0.000000
   13       14.237918   0.000000
   14       14.237931   0.000000
   15       17.154806   0.000000
   16       17.154807   0.000000
   17       19.564599   0.000000
   18       19.564601   0.000000
 
  0.3333333E+00  0.5000000E+00 -0.5551115E-16  0.4629630E-02
    1      -39.404155   1.000000
    2      -39.404045   1.000000
    3      -13.902551   1.000000
    4      -13.902477   1.000000
    5      -13.810239   1.000000
    6      -13.810160   1.000000
    7      -13.740139   1.000000
    8      -13.740061   1.000000
    9        6.775371   0.000000
   10        6.775399   0.000000
   11       10.317926   0.000000
   12       10.317951   0.000000
   13       11.534977   0.000000
   14       11.534991   0.000000
   15       16.508794   0.000000
   16       16.508794   0.000000
   17       16.943326   0.000000
   18       16.943855   0.000000
 
  0.5000000E+00  0.5000000E+00 -0.1110223E-15  0.4629630E-02
    1      -39.388441   1.000000
    2      -39.388330   1.000000
    3      -13.957568   1.000000
    4      -13.957485   1.000000
    5      -13.601768   1.000000
    6      -13.601739   1.000000
    7      -13.543846   1.000000
    8      -13.543815   1.000000
    9        7.829314   0.000000
   10        7.829326   0.000000
   11        8.846089   0.000000
   12        8.846131   0.000000
   13       12.392122   0.000000
   14       12.392128   0.000000
   15       16.345997   0.000000
   16       16.346941   0.000000
   17       16.358197   0.000000
   18       16.362578   0.000000
 
 -0.3333333E+00  0.5000000E+00 -0.1387779E-16  0.4629630E-02
    1      -39.404155   1.000000
    2      -39.404045   1.000000
    3      -13.902551   1.000000
    4      -13.902477   1.000000
    5      -13.810241   1.000000
    6      -13.810161   1.000000
    7      -13.740140   1.000000
    8      -13.740062   1.000000
    9        6.775377   0.000000
   10        6.775404   0.000000
   11       10.317927   0.000000
   12       10.317952   0.000000
   13       11.534974   0.000000
   14       11.534988   0.000000
   15       16.508783   0.000000
   16       16.508793   0.000000
   17       16.943319   0.000000
   18       16.943985   0.000000
 
 -0.1666667E+00  0.5000000E+00  0.1387779E-16  0.4629630E-02
    1      -39.419974   1.000000
    2      -39.419863   1.000000
    3      -13.973287   1.000000
    4      -13.973205   1.000000
    5      -13.780687   1.000000
    6      -13.780648   1.000000
    7      -13.723760   1.000000
    8      -13.723718   1.000000
    9        6.287736   0.000000
   10        6.287766   0.000000
   11        8.507755   0.000000
   12        8.507775   0.000000
   13       14.237918   0.000000
   14       14.237931   0.000000
   15       17.154805   0.000000
   16       17.154807   0.000000
   17       19.564600   0.000000
   18       19.564602   0.000000
 
  0.0000000E+00 -0.3333333E+00  0.1387779E-16  0.4629630E-02
    1      -39.429703   1.000000
    2      -39.429592   1.000000
    3      -13.734368   1.000000
    4      -13.734289   1.000000
    5      -13.548796   1.000000
    6      -13.548764   1.000000
    7      -13.494243   1.000000
    8      -13.494207   1.000000
    9        3.864627   0.000000
   10        3.864650   0.000000
   11       10.643923   0.000000
   12       10.643943   0.000000
   13       18.127506   0.000000
   14       18.127508   0.000000
   15       18.128617   0.000000
   16       18.128619   0.000000
   17       19.775172   0.000000
   18       19.775203   0.000000
 
  0.1666667E+00 -0.3333333E+00  0.6938894E-17  0.4629630E-02
    1      -39.418166   1.000000
    2      -39.418056   1.000000
    3      -13.897930   1.000000
    4      -13.897846   1.000000
    5      -13.670822   1.000000
    6      -13.670738   1.000000
    7      -13.566481   1.000000
    8      -13.566394   1.000000
    9        5.321254   0.000000
   10        5.321281   0.000000
   11        9.744816   0.000000
   12        9.744836   0.000000
   13       13.860856   0.000000
   14       13.860867   0.000000
   15       17.898549   0.000000
   16       17.898552   0.000000
   17       20.845296   0.000000
   18       21.126717   0.000000
 
  0.3333333E+00 -0.3333333E+00 -0.1433242E-16  0.4629630E-02
    1      -39.417204   1.000000
    2      -39.417092   1.000000
    3      -14.087462   1.000000
    4      -14.087377   1.000000
    5      -13.986256   1.000000
    6      -13.986170   1.000000
    7      -13.803452   1.000000
    8      -13.803356   1.000000
    9        7.537234   0.000000
   10        7.537267   0.000000
   11        9.723503   0.000000
   12        9.723533   0.000000
   13       10.290012   0.000000
   14       10.290017   0.000000
   15       16.916415   0.000000
   16       16.916422   0.000000
   17       18.254171   0.000000
   18       18.254172   0.000000
 
  0.5000000E+00 -0.3333333E+00 -0.1387779E-16  0.4629630E-02
    1      -39.404155   1.000000
    2      -39.404045   1.000000
    3      -13.902551   1.000000
    4      -13.902478   1.000000
    5      -13.810241   1.000000
    6      -13.810161   1.000000
    7      -13.740141   1.000000
    8      -13.740061   1.000000
    9        6.775382   0.000000
   10        6.775410   0.000000
   11       10.317891   0.000000
   12       10.317917   0.000000
   13       11.534997   0.000000
   14       11.535011   0.000000
   15       16.508782   0.000000
   16       16.508788   0.000000
   17       16.943331   0.000000
   18       16.943333   0.000000
 
 -0.3333333E+00 -0.3333333E+00  0.0000000E+00  0.4629630E-02
    1      -39.427947   1.000000
    2      -39.427835   1.000000
    3      -13.955941   1.000000
    4      -13.955862   1.000000
    5      -13.804370   1.000000
    6      -13.804344   1.000000
    7      -13.753144   1.000000
    8      -13.753112   1.000000
    9        4.644679   0.000000
   10        4.644704   0.000000
   11       12.662694   0.000000
   12       12.662713   0.000000
   13       13.225622   0.000000
   14       13.225628   0.000000
   15       16.615946   0.000000
   16       16.615987   0.000000
   17       16.626321   0.000000
   18       16.626686   0.000000
 
 -0.1666667E+00 -0.3333333E+00 -0.2775558E-16  0.4629630E-02
    1      -39.449937   1.000000
    2      -39.449828   1.000000
    3      -13.980636   1.000000
    4      -13.980550   1.000000
    5      -13.808709   1.000000
    6      -13.808657   1.000000
    7      -13.750603   1.000000
    8      -13.750551   1.000000
    9        3.585915   0.000000
   10        3.585936   0.000000
   11       12.270297   0.000000
   12       12.270311   0.000000
   13       15.349571   0.000000
   14       15.349583   0.000000
   15       17.215435   0.000000
   16       17.215439   0.000000
   17       18.941535   0.000000
   18       18.941537   0.000000
 
  0.0000000E+00 -0.1666667E+00 -0.6938894E-17  0.4629630E-02
    1      -39.492640   1.000000
    2      -39.492532   1.000000
    3      -13.968230   1.000000
    4      -13.968132   1.000000
    5      -13.722827   1.000000
    6      -13.722793   1.000000
    7      -13.664857   1.000000
    8      -13.664819   1.000000
    9        1.678230   0.000000
   10        1.678241   0.000000
   11       14.979928   0.000000
   12       14.979936   0.000000
   13       18.887530   0.000000
   14       18.887718   0.000000
   15       18.889257   0.000000
   16       18.889419   0.000000
   17       20.990874   0.000000
   18       22.031010   0.000000
 
  0.1666667E+00 -0.1666667E+00 -0.7166211E-17  0.4629630E-02
    1      -39.460086   1.000000
    2      -39.459976   1.000000
    3      -13.891699   1.000000
    4      -13.891616   1.000000
    5      -13.791441   1.000000
    6      -13.791349   1.000000
    7      -13.681281   1.000000
    8      -13.681189   1.000000
    9        2.917930   0.000000
   10        2.917949   0.000000
   11       13.247019   0.000000
   12       13.247032   0.000000
   13       14.953477   0.000000
   14       14.953486   0.000000
   15       19.593857   0.000000
   16       19.594874   0.000000
   17       20.798109   0.000000
   18       21.970283   0.000000
 
  0.3333333E+00 -0.1666667E+00 -0.6938894E-17  0.4629630E-02
    1      -39.418160   1.000000
    2      -39.418051   1.000000
    3      -13.897926   1.000000
    4      -13.897842   1.000000
    5      -13.670798   1.000000
    6      -13.670715   1.000000
    7      -13.566469   1.000000
    8      -13.566383   1.000000
    9        5.321253   0.000000
   10        5.321281   0.000000
   11        9.744809   0.000000
   12        9.744830   0.000000
   13       13.860863   0.000000
   14       13.860876   0.000000
   15       17.898536   0.000000
   16       17.898539   0.000000
   17       20.819363   0.000000
   18       20.920236   0.000000
 
  0.5000000E+00 -0.1666667E+00  0.0000000E+00  0.4629630E-02
    1      -39.419974   1.000000
    2      -39.419864   1.000000
    3      -13.973287   1.000000
    4      -13.973205   1.000000
    5      -13.780682   1.000000
    6      -13.780653   1.000000
    7      -13.723754   1.000000
    8      -13.723724   1.000000
    9        6.287741   0.000000
   10        6.287771   0.000000
   11        8.507738   0.000000
   12        8.507757   0.000000
   13       14.237927   0.000000
   14       14.237940   0.000000
   15       17.154795   0.000000
   16       17.154855   0.000000
   17       19.564672   0.000000
   18       20.274237   0.000000
 
 -0.3333333E+00 -0.1666667E+00  0.2775558E-16  0.4629630E-02
    1      -39.449937   1.000000
    2      -39.449828   1.000000
    3      -13.980636   1.000000
    4      -13.980550   1.000000
    5      -13.808705   1.000000
    6      -13.808660   1.000000
    7      -13.750598   1.000000
    8      -13.750556   1.000000
    9        3.585915   0.000000
   10        3.585936   0.000000
   11       12.270286   0.000000
   12       12.270300   0.000000
   13       15.349568   0.000000
   14       15.349580   0.000000
   15       17.215427   0.000000
   16       17.215430   0.000000
   17       18.941573   0.000000
   18       18.943456   0.000000
 
 -0.1666667E+00 -0.1666667E+00  0.1387779E-16  0.4629630E-02
    1      -39.470161   1.000000
    2      -39.470052   1.000000
    3      -13.784225   1.000000
    4      -13.784132   1.000000
    5      -13.603303   1.000000
    6      -13.603274   1.000000
    7      -13.550049   1.000000
    8      -13.550017   1.000000
    9        1.928371   0.000000
   10        1.928384   0.000000
   11       15.720226   0.000000
   12       15.720232   0.000000
   13       17.808634   0.000000
   14       17.808635   0.000000
   15       17.813763   0.000000
   16       17.813764   0.000000
   17       18.062437   0.000000
   18       18.062446   0.000000
 
  0.0000000E+00  0.0000000E+00  0.1666667E+00  0.4629630E-02
    1      -39.492645   1.000000
    2      -39.492538   1.000000
    3      -13.968250   1.000000
    4      -13.968153   1.000000
    5      -13.722847   1.000000
    6      -13.722790   1.000000
    7      -13.664876   1.000000
    8      -13.664815   1.000000
    9        1.678231   0.000000
   10        1.678242   0.000000
   11       14.979929   0.000000
   12       14.979937   0.000000
   13       18.887529   0.000000
   14       18.887635   0.000000
   15       18.889318   0.000000
   16       18.889419   0.000000
   17       20.990852   0.000000
   18       22.435540   0.000000
 
  0.1666667E+00 -0.1387779E-16  0.1666667E+00  0.4629630E-02
    1      -39.470168   1.000000
    2      -39.470062   1.000000
    3      -13.784250   1.000000
    4      -13.784159   1.000000
    5      -13.603331   1.000000
    6      -13.603285   1.000000
    7      -13.550078   1.000000
    8      -13.550025   1.000000
    9        1.928374   0.000000
   10        1.928386   0.000000
   11       15.720246   0.000000
   12       15.720253   0.000000
   13       17.808624   0.000000
   14       17.808625   0.000000
   15       17.813753   0.000000
   16       17.813753   0.000000
   17       18.062436   0.000000
   18       18.062438   0.000000
 
  0.3333333E+00  0.0000000E+00  0.1666667E+00  0.4629630E-02
    1      -39.449942   1.000000
    2      -39.449833   1.000000
    3      -13.980646   1.000000
    4      -13.980561   1.000000
    5      -13.808720   1.000000
    6      -13.808672   1.000000
    7      -13.750613   1.000000
    8      -13.750564   1.000000
    9        3.585917   0.000000
   10        3.585939   0.000000
   11       12.270293   0.000000
   12       12.270308   0.000000
   13       15.349550   0.000000
   14       15.349561   0.000000
   15       17.215461   0.000000
   16       17.215465   0.000000
   17       18.941534   0.000000
   18       18.941535   0.000000
 
  0.5000000E+00  0.0000000E+00  0.1666667E+00  0.4629630E-02
    1      -39.419977   1.000000
    2      -39.419869   1.000000
    3      -13.973291   1.000000
    4      -13.973209   1.000000
    5      -13.780697   1.000000
    6      -13.780668   1.000000
    7      -13.723768   1.000000
    8      -13.723736   1.000000
    9        6.287734   0.000000
   10        6.287764   0.000000
   11        8.507741   0.000000
   12        8.507761   0.000000
   13       14.237916   0.000000
   14       14.237929   0.000000
   15       17.154842   0.000000
   16       17.154844   0.000000
   17       19.564557   0.000000
   18       19.564557   0.000000
 
 -0.3333333E+00  0.0000000E+00  0.1666667E+00  0.4629630E-02
    1      -39.418166   1.000000
    2      -39.418057   1.000000
    3      -13.897930   1.000000
    4      -13.897846   1.000000
    5      -13.670819   1.000000
    6      -13.670738   1.000000
    7      -13.566481   1.000000
    8      -13.566395   1.000000
    9        5.321252   0.000000
   10        5.321279   0.000000
   11        9.744806   0.000000
   12        9.744827   0.000000
   13       13.860861   0.000000
   14       13.860873   0.000000
   15       17.898595   0.000000
   16       17.898598   0.000000
   17       20.819074   0.000000
   18       21.502025   0.000000
 
 -0.1666667E+00  0.1387779E-16  0.1666667E+00  0.4629630E-02
    1      -39.460084   1.000000
    2      -39.459977   1.000000
    3      -13.891695   1.000000
    4      -13.891618   1.000000
    5      -13.791438   1.000000
    6      -13.791353   1.000000
    7      -13.681282   1.000000
    8      -13.681189   1.000000
    9        2.917926   0.000000
   10        2.917945   0.000000
   11       13.247003   0.000000
   12       13.247015   0.000000
   13       14.953502   0.000000
   14       14.953508   0.000000
   15       19.593921   0.000000
   16       19.593991   0.000000
   17       20.801817   0.000000
   18       21.119041   0.000000
 
  0.0000000E+00  0.1666667E+00  0.1666667E+00  0.4629630E-02
    1      -39.470167   1.000000
    2      -39.470061   1.000000
    3      -13.784250   1.000000
    4      -13.784161   1.000000
    5      -13.603343   1.000000
    6      -13.603271   1.000000
    7      -13.550093   1.000000
    8      -13.550009   1.000000
    9        1.928374   0.000000
   10        1.928386   0.000000
   11       15.720226   0.000000
   12       15.720232   0.000000
   13       17.808634   0.000000
   14       17.808635   0.000000
   15       17.813762   0.000000
   16       17.813763   0.000000
   17       18.062434   0.000000
   18       18.062444   0.000000
 
  0.1666667E+00  0.1666667E+00  0.1666667E+00  0.4629630E-02
    1      -39.492646   1.000000
    2      -39.492537   1.000000
    3      -13.968183   1.000000
    4      -13.968089   1.000000
    5      -13.722896   1.000000
    6      -13.722804   1.000000
    7      -13.664931   1.000000
    8      -13.664832   1.000000
    9        1.678234   0.000000
   10        1.678245   0.000000
   11       14.979933   0.000000
   12       14.979941   0.000000
   13       18.887538   0.000000
   14       18.888097   0.000000
   15       18.888945   0.000000
   16       18.889427   0.000000
   17       20.990711   0.000000
   18       21.887347   0.000000
 
  0.3333333E+00  0.1666667E+00  0.1666667E+00  0.4629630E-02
    1      -39.460082   1.000000
    2      -39.459975   1.000000
    3      -13.891640   1.000000
    4      -13.891580   1.000000
    5      -13.791426   1.000000
    6      -13.791362   1.000000
    7      -13.681337   1.000000
    8      -13.681240   1.000000
    9        2.917933   0.000000
   10        2.917952   0.000000
   11       13.247022   0.000000
   12       13.247032   0.000000
   13       14.953475   0.000000
   14       14.953487   0.000000
   15       19.593903   0.000000
   16       19.593910   0.000000
   17       20.819137   0.000000
   18       20.858920   0.000000
 
  0.5000000E+00  0.1666667E+00  0.1666667E+00  0.4629630E-02
    1      -39.418166   1.000000
    2      -39.418056   1.000000
    3      -13.897933   1.000000
    4      -13.897850   1.000000
    5      -13.670777   1.000000