    1    1    1    1
  0.1860393E+02  0.2974221E-09  0.2974221E-09  0.2974221E-09  0.1000000E-15
  1.000000000000000E-004
  CAR 
 Og_FCC                                  
      8    216     18
 
  0.0000000E+00  0.0000000E+00  0.0000000E+00  0.4629630E-02
    1      -39.117214   1.000000
    2      -39.117213   1.000000
    3      -13.113216   1.000000
    4      -13.113216   1.000000
    5      -13.010739   1.000000
    6      -13.010739   1.000000
    7      -13.010725   1.000000
    8      -13.010724   1.000000
    9        1.753976   0.000000
   10        1.753976   0.000000
   11       21.634424   0.000000
   12       21.634424   0.000000
   13       21.634649   0.000000
   14       21.634649   0.000000
   15       21.634659   0.000000
   16       21.634659   0.000000
   17       23.673058   0.000000
   18       23.673058   0.000000
 
  0.1666667E+00  0.0000000E+00  0.6938894E-17  0.4629630E-02
    1      -39.066986   1.000000
    2      -39.066984   1.000000
    3      -13.184613   1.000000
    4      -13.184612   1.000000
    5      -12.730804   1.000000
    6      -12.730803   1.000000
    7      -12.670451   1.000000
    8      -12.670450   1.000000
    9        2.694729   0.000000
   10        2.694729   0.000000
   11       17.186713   0.000000
   12       17.186713   0.000000
   13       21.463248   0.000000
   14       21.463248   0.000000
   15       21.465028   0.000000
   16       21.465028   0.000000
   17       23.913886   0.000000
   18       23.913886   0.000000
 
  0.3333333E+00 -0.2775558E-16  0.0000000E+00  0.4629630E-02
    1      -39.024756   1.000000
    2      -39.024755   1.000000
    3      -13.771064   1.000000
    4      -13.771063   1.000000
    5      -13.137571   1.000000
    6      -13.137570   1.000000
    7      -13.073489   1.000000
    8      -13.073488   1.000000
    9        5.069827   0.000000
   10        5.069827   0.000000
   11       12.386906   0.000000
   12       12.386906   0.000000
   13       20.544004   0.000000
   14       20.544004   0.000000
   15       20.545103   0.000000
   16       20.545103   0.000000
   17       22.478057   0.000000
   18       22.478057   0.000000
 
  0.5000000E+00  0.0000000E+00 -0.2775558E-16  0.4629630E-02
    1      -39.002605   1.000000
    2      -39.002603   1.000000
    3      -14.222881   1.000000
    4      -14.222881   1.000000
    5      -13.224969   1.000000
    6      -13.224968   1.000000
    7      -13.159450   1.000000
    8      -13.159450   1.000000
    9        8.202791   0.000000
   10        8.202791   0.000000
   11        8.441264   0.000000
   12        8.441264   0.000000
   13       20.040556   0.000000
   14       20.040556   0.000000
   15       20.040831   0.000000
   16       20.040831   0.000000
   17       22.176643   0.000000
   18       22.176643   0.000000
 
 -0.3333333E+00  0.2775558E-16  0.0000000E+00  0.4629630E-02
    1      -39.024756   1.000000
    2      -39.024755   1.000000
    3      -13.771064   1.000000
    4      -13.771063   1.000000
    5      -13.137571   1.000000
    6      -13.137570   1.000000
    7      -13.073489   1.000000
    8      -13.073488   1.000000
    9        5.069827   0.000000
   10        5.069827   0.000000
   11       12.386906   0.000000
   12       12.386906   0.000000
   13       20.544004   0.000000
   14       20.544004   0.000000
   15       20.545103   0.000000
   16       20.545103   0.000000
   17       22.478057   0.000000
   18       22.478057   0.000000
 
 -0.1666667E+00  0.0000000E+00 -0.6938894E-17  0.4629630E-02
    1      -39.066984   1.000000
    2      -39.066982   1.000000
    3      -13.184603   1.000000
    4      -13.184603   1.000000
    5      -12.730800   1.000000
    6      -12.730800   1.000000
    7      -12.670447   1.000000
    8      -12.670447   1.000000
    9        2.694728   0.000000
   10        2.694729   0.000000
   11       17.186713   0.000000
   12       17.186713   0.000000
   13       21.463248   0.000000
   14       21.463248   0.000000
   15       21.465028   0.000000
   16       21.465028   0.000000
   17       23.913887   0.000000
   18       23.913887   0.000000
 
  0.0000000E+00  0.1666667E+00  0.6938894E-17  0.4629630E-02
    1      -39.066986   1.000000
    2      -39.066984   1.000000
    3      -13.184613   1.000000
    4      -13.184612   1.000000
    5      -12.730804   1.000000
    6      -12.730803   1.000000
    7      -12.670451   1.000000
    8      -12.670451   1.000000
    9        2.694729   0.000000
   10        2.694729   0.000000
   11       17.186712   0.000000
   12       17.186712   0.000000
   13       21.463247   0.000000
   14       21.463247   0.000000
   15       21.465027   0.000000
   16       21.465027   0.000000
   17       23.913887   0.000000
   18       23.913887   0.000000
 
  0.1666667E+00  0.1666667E+00  0.0000000E+00  0.4629630E-02
    1      -39.066683   1.000000
    2      -39.066682   1.000000
    3      -13.174907   1.000000
    4      -13.174906   1.000000
    5      -12.959495   1.000000
    6      -12.959495   1.000000
    7      -12.903878   1.000000
    8      -12.903878   1.000000
    9        2.985529   0.000000
   10        2.985529   0.000000
   11       17.825798   0.000000
   12       17.825798   0.000000
   13       20.460093   0.000000
   14       20.460093   0.000000
   15       20.465429   0.000000
   16       20.465429   0.000000
   17       20.491888   0.000000
   18       20.491888   0.000000
 
  0.3333333E+00  0.1666667E+00  0.2775558E-16  0.4629630E-02
    1      -39.023141   1.000000
    2      -39.023140   1.000000
    3      -13.638814   1.000000
    4      -13.638813   1.000000
    5      -13.142149   1.000000
    6      -13.142148   1.000000
    7      -13.077840   1.000000
    8      -13.077840   1.000000
    9        4.817908   0.000000
   10        4.817908   0.000000
   11       14.214657   0.000000
   12       14.214657   0.000000
   13       17.446872   0.000000
   14       17.446872   0.000000
   15       19.845658   0.000000
   16       19.845658   0.000000
   17       21.720368   0.000000
   18       21.720368   0.000000
 
  0.5000000E+00  0.1666667E+00  0.5551115E-16  0.4629630E-02
    1      -38.971195   1.000000
    2      -38.971193   1.000000
    3      -13.958909   1.000000
    4      -13.958909   1.000000
    5      -13.031426   1.000000
    6      -13.031426   1.000000
    7      -12.969163   1.000000
    8      -12.969163   1.000000
    9        7.716832   0.000000
   10        7.716832   0.000000
   11       10.194399   0.000000
   12       10.194399   0.000000
   13       16.264210   0.000000
   14       16.264210   0.000000
   15       19.705997   0.000000
   16       19.705997   0.000000
   17       22.664715   0.000000
   18       22.664715   0.000000
 
 -0.3333333E+00  0.1666667E+00 -0.2081668E-16  0.4629630E-02
    1      -38.990313   1.000000
    2      -38.990311   1.000000
    3      -13.912060   1.000000
    4      -13.912060   1.000000
    5      -13.223706   1.000000
    6      -13.223706   1.000000
    7      -13.018953   1.000000
    8      -13.018953   1.000000
    9        6.662422   0.000000
   10        6.662422   0.000000
   11       11.479859   0.000000
   12       11.479859   0.000000
   13       15.913160   0.000000
   14       15.913160   0.000000
   15       20.380172   0.000000
   16       20.380172   0.000000
   17       24.045855   0.000000
   18       24.045855   0.000000
 
 -0.1666667E+00  0.1666667E+00 -0.5503056E-17  0.4629630E-02
    1      -39.038280   1.000000
    2      -39.038279   1.000000
    3      -13.489288   1.000000
    4      -13.489288   1.000000
    5      -13.068112   1.000000
    6      -13.068111   1.000000
    7      -12.871427   1.000000
    8      -12.871427   1.000000
    9        4.072168   0.000000
   10        4.072168   0.000000
   11       15.295360   0.000000
   12       15.295360   0.000000
   13       17.183419   0.000000
   14       17.183419   0.000000
   15       22.207312   0.000000
   16       22.207312   0.000000
   17       23.508957   0.000000
   18       23.508957   0.000000
 
  0.0000000E+00  0.3333333E+00  0.1387779E-16  0.4629630E-02
    1      -39.024756   1.000000
    2      -39.024755   1.000000
    3      -13.771064   1.000000
    4      -13.771063   1.000000
    5      -13.137571   1.000000
    6      -13.137570   1.000000
    7      -13.073488   1.000000
    8      -13.073488   1.000000
    9        5.069827   0.000000
   10        5.069827   0.000000
   11       12.386906   0.000000
   12       12.386906   0.000000
   13       20.544003   0.000000
   14       20.544003   0.000000
   15       20.545102   0.000000
   16       20.545102   0.000000
   17       22.478057   0.000000
   18       22.478057   0.000000
 
  0.1666667E+00  0.3333333E+00  0.2775558E-16  0.4629630E-02
    1      -39.023141   1.000000
    2      -39.023140   1.000000
    3      -13.638814   1.000000
    4      -13.638813   1.000000
    5      -13.142148   1.000000
    6      -13.142148   1.000000
    7      -13.077840   1.000000
    8      -13.077840   1.000000
    9        4.817908   0.000000
   10        4.817908   0.000000
   11       14.214657   0.000000
   12       14.214657   0.000000
   13       17.446871   0.000000
   14       17.446871   0.000000
   15       19.845657   0.000000
   16       19.845657   0.000000
   17       21.720369   0.000000
   18       21.720369   0.000000
 
  0.3333333E+00  0.3333333E+00  0.2775558E-16  0.4629630E-02
    1      -38.990417   1.000000
    2      -38.990415   1.000000
    3      -13.730347   1.000000
    4      -13.730347   1.000000
    5      -13.165944   1.000000
    6      -13.165944   1.000000
    7      -13.104628   1.000000
    8      -13.104628   1.000000
    9        5.954981   0.000000
   10        5.954982   0.000000
   11       14.520493   0.000000
   12       14.520493   0.000000
   13       15.022815   0.000000
   14       15.022815   0.000000
   15       19.338620   0.000000
   16       19.338620   0.000000
   17       19.350195   0.000000
   18       19.350195   0.000000
 
  0.5000000E+00  0.3333333E+00  0.5551115E-16  0.4629630E-02
    1      -38.956379   1.000000
    2      -38.956378   1.000000
    3      -13.772925   1.000000
    4      -13.772925   1.000000
    5      -13.281922   1.000000
    6      -13.281922   1.000000
    7      -13.221527   1.000000
    8      -13.221527   1.000000
    9        8.198706   0.000000
   10        8.198707   0.000000
   11       12.104065   0.000000
   12       12.104065   0.000000
   13       13.363309   0.000000
   14       13.363309   0.000000
   15       19.181448   0.000000
   16       19.181448   0.000000
   17       19.664761   0.000000
   18       19.664761   0.000000
 
 -0.3333333E+00  0.3333333E+00 -0.3137409E-17  0.4629630E-02
    1      -38.958993   1.000000
    2      -38.958991   1.000000
    3      -13.674188   1.000000
    4      -13.674187   1.000000
    5      -13.571322   1.000000
    6      -13.571321   1.000000
    7      -13.192333   1.000000
    8      -13.192332   1.000000
    9        9.083641   0.000000
   10        9.083641   0.000000
   11       11.642251   0.000000
   12       11.642251   0.000000
   13       12.016478   0.000000
   14       12.016478   0.000000
   15       19.544662   0.000000
   16       19.544662   0.000000
   17       21.184495   0.000000
   18       21.184496   0.000000
 
 -0.1666667E+00  0.3333333E+00  0.0000000E+00  0.4629630E-02
    1      -38.990311   1.000000
    2      -38.990309   1.000000
    3      -13.912059   1.000000
    4      -13.912058   1.000000
    5      -13.223697   1.000000
    6      -13.223696   1.000000
    7      -13.018949   1.000000
    8      -13.018948   1.000000
    9        6.662422   0.000000
   10        6.662422   0.000000
   11       11.479859   0.000000
   12       11.479859   0.000000
   13       15.913161   0.000000
   14       15.913161   0.000000
   15       20.380171   0.000000
   16       20.380171   0.000000
   17       24.045857   0.000000
   18       24.045857   0.000000
 
  0.0000000E+00  0.5000000E+00  0.2775558E-16  0.4629630E-02
    1      -39.002605   1.000000
    2      -39.002603   1.000000
    3      -14.222882   1.000000
    4      -14.222881   1.000000
    5      -13.224969   1.000000
    6      -13.224968   1.000000
    7      -13.159450   1.000000
    8      -13.159450   1.000000
    9        8.202792   0.000000
   10        8.202792   0.000000
   11        8.441263   0.000000
   12        8.441263   0.000000
   13       20.040555   0.000000
   14       20.040555   0.000000
   15       20.040830   0.000000
   16       20.040830   0.000000
   17       22.176644   0.000000
   18       22.176644   0.000000
 
  0.1666667E+00  0.5000000E+00  0.5551115E-16  0.4629630E-02
    1      -38.971195   1.000000
    2      -38.971193   1.000000
    3      -13.958909   1.000000
    4      -13.958909   1.000000
    5      -13.031426   1.000000
    6      -13.031426   1.000000
    7      -12.969163   1.000000
    8      -12.969163   1.000000
    9        7.716832   0.000000
   10        7.716833   0.000000
   11       10.194399   0.000000
   12       10.194399   0.000000
   13       16.264210   0.000000
   14       16.264210   0.000000
   15       19.705996   0.000000
   16       19.705996   0.000000
   17       22.664715   0.000000
   18       22.664715   0.000000
 
  0.3333333E+00  0.5000000E+00  0.0000000E+00  0.4629630E-02
    1      -38.956379   1.000000
    2      -38.956378   1.000000
    3      -13.772925   1.000000
    4      -13.772925   1.000000
    5      -13.281922   1.000000
    6      -13.281922   1.000000
    7      -13.221527   1.000000
    8      -13.221527   1.000000
    9        8.198707   0.000000
   10        8.198707   0.000000
   11       12.104064   0.000000
   12       12.104064   0.000000
   13       13.363309   0.000000
   14       13.363309   0.000000
   15       19.181448   0.000000
   16       19.181448   0.000000
   17       19.664761   0.000000
   18       19.664762   0.000000
 
  0.5000000E+00  0.5000000E+00  0.0000000E+00  0.4629630E-02
    1      -38.957539   1.000000
    2      -38.957537   1.000000
    3      -14.006633   1.000000
    4      -14.006632   1.000000
    5      -13.359907   1.000000
    6      -13.359907   1.000000
    7      -13.297777   1.000000
    8      -13.297777   1.000000
    9        9.135032   0.000000
   10        9.135033   0.000000
   11       10.605573   0.000000
   12       10.605573   0.000000
   13       14.079161   0.000000
   14       14.079161   0.000000
   15       18.984047   0.000000
   16       18.984047   0.000000
   17       18.998469   0.000000
   18       18.998469   0.000000
 
 -0.3333333E+00  0.5000000E+00  0.1387779E-16  0.4629630E-02
    1      -38.956379   1.000000
    2      -38.956378   1.000000
    3      -13.772926   1.000000
    4      -13.772925   1.000000
    5      -13.281922   1.000000
    6      -13.281921   1.000000
    7      -13.221526   1.000000
    8      -13.221526   1.000000
    9        8.198708   0.000000
   10        8.198709   0.000000
   11       12.104064   0.000000
   12       12.104064   0.000000
   13       13.363309   0.000000
   14       13.363309   0.000000
   15       19.181448   0.000000
   16       19.181448   0.000000
   17       19.664759   0.000000
   18       19.664759   0.000000
 
 -0.1666667E+00  0.5000000E+00  0.5551115E-16  0.4629630E-02
    1      -38.971193   1.000000
    2      -38.971192   1.000000
    3      -13.958908   1.000000
    4      -13.958908   1.000000
    5      -13.031419   1.000000
    6      -13.031418   1.000000
    7      -12.969156   1.000000
    8      -12.969155   1.000000
    9        7.716835   0.000000
   10        7.716835   0.000000
   11       10.194397   0.000000
   12       10.194397   0.000000
   13       16.264210   0.000000
   14       16.264210   0.000000
   15       19.705996   0.000000
   16       19.705996   0.000000
   17       22.664715   0.000000
   18       22.664716   0.000000
 
  0.0000000E+00 -0.3333333E+00 -0.1387779E-16  0.4629630E-02
    1      -39.024756   1.000000
    2      -39.024755   1.000000
    3      -13.771064   1.000000
    4      -13.771063   1.000000
    5      -13.137571   1.000000
    6      -13.137570   1.000000
    7      -13.073488   1.000000
    8      -13.073488   1.000000
    9        5.069827   0.000000
   10        5.069827   0.000000
   11       12.386906   0.000000
   12       12.386906   0.000000
   13       20.544003   0.000000
   14       20.544003   0.000000
   15       20.545102   0.000000
   16       20.545102   0.000000
   17       22.478057   0.000000
   18       22.478057   0.000000
 
  0.1666667E+00 -0.3333333E+00 -0.1387779E-16  0.4629630E-02
    1      -38.990313   1.000000
    2      -38.990311   1.000000
    3      -13.912060   1.000000
    4      -13.912060   1.000000
    5      -13.223706   1.000000
    6      -13.223706   1.000000
    7      -13.018953   1.000000
    8      -13.018953   1.000000
    9        6.662422   0.000000
   10        6.662422   0.000000
   11       11.479859   0.000000
   12       11.479859   0.000000
   13       15.913160   0.000000
   14       15.913160   0.000000
   15       20.380171   0.000000
   16       20.380171   0.000000
   17       24.045855   0.000000
   18       24.045855   0.000000
 
  0.3333333E+00 -0.3333333E+00  0.3137409E-17  0.4629630E-02
    1      -38.958993   1.000000
    2      -38.958991   1.000000
    3      -13.674188   1.000000
    4      -13.674187   1.000000
    5      -13.571322   1.000000
    6      -13.571321   1.000000
    7      -13.192333   1.000000
    8      -13.192332   1.000000
    9        9.083641   0.000000
   10        9.083641   0.000000
   11       11.642251   0.000000
   12       11.642251   0.000000
   13       12.016478   0.000000
   14       12.016478   0.000000
   15       19.544662   0.000000
   16       19.544662   0.000000
   17       21.184495   0.000000
   18       21.184496   0.000000
 
  0.5000000E+00 -0.3333333E+00  0.2081668E-16  0.4629630E-02
    1      -38.956379   1.000000
    2      -38.956378   1.000000
    3      -13.772926   1.000000
    4      -13.772925   1.000000
    5      -13.281922   1.000000
    6      -13.281921   1.000000
    7      -13.221526   1.000000
    8      -13.221526   1.000000
    9        8.198708   0.000000
   10        8.198708   0.000000
   11       12.104065   0.000000
   12       12.104065   0.000000
   13       13.363308   0.000000
   14       13.363308   0.000000
   15       19.181448   0.000000
   16       19.181449   0.000000
   17       19.664759   0.000000
   18       19.664759   0.000000
 
 -0.3333333E+00 -0.3333333E+00 -0.2775558E-16  0.4629630E-02
    1      -38.990417   1.000000
    2      -38.990415   1.000000
    3      -13.730347   1.000000
    4      -13.730347   1.000000
    5      -13.165944   1.000000
    6      -13.165944   1.000000
    7      -13.104628   1.000000
    8      -13.104628   1.000000
    9        5.954981   0.000000
   10        5.954982   0.000000
   11       14.520493   0.000000
   12       14.520493   0.000000
   13       15.022815   0.000000
   14       15.022815   0.000000
   15       19.338620   0.000000
   16       19.338620   0.000000
   17       19.350195   0.000000
   18       19.350195   0.000000
 
 -0.1666667E+00 -0.3333333E+00 -0.2775558E-16  0.4629630E-02
    1      -39.023140   1.000000
    2      -39.023138   1.000000
    3      -13.638810   1.000000
    4      -13.638809   1.000000
    5      -13.142141   1.000000
    6      -13.142141   1.000000
    7      -13.077834   1.000000
    8      -13.077834   1.000000
    9        4.817908   0.000000
   10        4.817908   0.000000
   11       14.214657   0.000000
   12       14.214657   0.000000
   13       17.446871   0.000000
   14       17.446871   0.000000
   15       19.845657   0.000000
   16       19.845657   0.000000
   17       21.720369   0.000000
   18       21.720369   0.000000
 
  0.0000000E+00 -0.1666667E+00 -0.6938894E-17  0.4629630E-02
    1      -39.066984   1.000000
    2      -39.066982   1.000000
    3      -13.184603   1.000000
    4      -13.184603   1.000000
    5      -12.730800   1.000000
    6      -12.730800   1.000000
    7      -12.670447   1.000000
    8      -12.670447   1.000000
    9        2.694728   0.000000
   10        2.694729   0.000000
   11       17.186713   0.000000
   12       17.186713   0.000000
   13       21.463247   0.000000
   14       21.463247   0.000000
   15       21.465027   0.000000
   16       21.465027   0.000000
   17       23.913887   0.000000
   18       23.913887   0.000000
 
  0.1666667E+00 -0.1666667E+00  0.2192365E-16  0.4629630E-02
    1      -39.038280   1.000000
    2      -39.038279   1.000000
    3      -13.489288   1.000000
    4      -13.489288   1.000000
    5      -13.068112   1.000000
    6      -13.068111   1.000000
    7      -12.871427   1.000000
    8      -12.871427   1.000000
    9        4.072168   0.000000
   10        4.072168   0.000000
   11       15.295360   0.000000
   12       15.295360   0.000000
   13       17.183419   0.000000
   14       17.183419   0.000000
   15       22.207312   0.000000
   16       22.207312   0.000000
   17       23.508957   0.000000
   18       23.508957   0.000000
 
  0.3333333E+00 -0.1666667E+00  0.2775558E-16  0.4629630E-02
    1      -38.990311   1.000000
    2      -38.990309   1.000000
    3      -13.912059   1.000000
    4      -13.912058   1.000000
    5      -13.223697   1.000000
    6      -13.223696   1.000000
    7      -13.018949   1.000000
    8      -13.018948   1.000000
    9        6.662422   0.000000
   10        6.662422   0.000000
   11       11.479859   0.000000
   12       11.479859   0.000000
   13       15.913161   0.000000
   14       15.913161   0.000000
   15       20.380172   0.000000
   16       20.380172   0.000000
   17       24.045857   0.000000
   18       24.045858   0.000000
 
  0.5000000E+00 -0.1666667E+00  0.1387779E-16  0.4629630E-02
    1      -38.971193   1.000000
    2      -38.971192   1.000000
    3      -13.958908   1.000000
    4      -13.958908   1.000000
    5      -13.031419   1.000000
    6      -13.031418   1.000000
    7      -12.969156   1.000000
    8      -12.969155   1.000000
    9        7.716835   0.000000
   10        7.716835   0.000000
   11       10.194398   0.000000
   12       10.194398   0.000000
   13       16.264210   0.000000
   14       16.264210   0.000000
   15       19.705997   0.000000
   16       19.705997   0.000000
   17       22.664715   0.000000
   18       22.664715   0.000000
 
 -0.3333333E+00 -0.1666667E+00 -0.2775558E-16  0.4629630E-02
    1      -39.023140   1.000000
    2      -39.023138   1.000000
    3      -13.638810   1.000000
    4      -13.638809   1.000000
    5      -13.142141   1.000000
    6      -13.142141   1.000000
    7      -13.077834   1.000000
    8      -13.077834   1.000000
    9        4.817908   0.000000
   10        4.817908   0.000000
   11       14.214657   0.000000
   12       14.214657   0.000000
   13       17.446872   0.000000
   14       17.446872   0.000000
   15       19.845658   0.000000
   16       19.845658   0.000000
   17       21.720369   0.000000
   18       21.720369   0.000000
 
 -0.1666667E+00 -0.1666667E+00 -0.1387779E-16  0.4629630E-02
    1      -39.066680   1.000000
    2      -39.066678   1.000000
    3      -13.174892   1.000000
    4      -13.174891   1.000000
    5      -12.959486   1.000000
    6      -12.959486   1.000000
    7      -12.903868   1.000000
    8      -12.903868   1.000000
    9        2.985528   0.000000
   10        2.985528   0.000000
   11       17.825798   0.000000
   12       17.825798   0.000000
   13       20.460093   0.000000
   14       20.460093   0.000000
   15       20.465429   0.000000
   16       20.465429   0.000000
   17       20.491888   0.000000
   18       20.491888   0.000000
 
  0.0000000E+00  0.0000000E+00  0.1666667E+00  0.4629630E-02
    1      -39.066986   1.000000
    2      -39.066984   1.000000
    3      -13.184613   1.000000
    4      -13.184613   1.000000
    5      -12.730804   1.000000
    6      -12.730804   1.000000
    7      -12.670451   1.000000
    8      -12.670451   1.000000
    9        2.694729   0.000000
   10        2.694729   0.000000
   11       17.186715   0.000000
   12       17.186715   0.000000
   13       21.463240   0.000000
   14       21.463240   0.000000
   15       21.465020   0.000000
   16       21.465020   0.000000
   17       23.913897   0.000000
   18       23.913897   0.000000
 
  0.1666667E+00  0.0000000E+00  0.1666667E+00  0.4629630E-02
    1      -39.066683   1.000000
    2      -39.066682   1.000000
    3      -13.174907   1.000000
    4      -13.174906   1.000000
    5      -12.959496   1.000000
    6      -12.959495   1.000000
    7      -12.903878   1.000000
    8      -12.903877   1.000000
    9        2.985529   0.000000
   10        2.985529   0.000000
   11       17.825796   0.000000
   12       17.825796   0.000000
   13       20.460094   0.000000
   14       20.460094   0.000000
   15       20.465430   0.000000
   16       20.465430   0.000000
   17       20.491888   0.000000
   18       20.491888   0.000000
 
  0.3333333E+00 -0.2775558E-16  0.1666667E+00  0.4629630E-02
    1      -39.023141   1.000000
    2      -39.023140   1.000000
    3      -13.638814   1.000000
    4      -13.638813   1.000000
    5      -13.142149   1.000000
    6      -13.142148   1.000000
    7      -13.077840   1.000000
    8      -13.077840   1.000000
    9        4.817908   0.000000
   10        4.817908   0.000000
   11       14.214656   0.000000
   12       14.214656   0.000000
   13       17.446875   0.000000
   14       17.446875   0.000000
   15       19.845650   0.000000
   16       19.845650   0.000000
   17       21.720378   0.000000
   18       21.720378   0.000000
 
  0.5000000E+00  0.0000000E+00  0.1666667E+00  0.4629630E-02
    1      -38.971195   1.000000
    2      -38.971193   1.000000
    3      -13.958909   1.000000
    4      -13.958909   1.000000
    5      -13.031426   1.000000
    6      -13.031426   1.000000
    7      -12.969163   1.000000
    8      -12.969163   1.000000
    9        7.716832   0.000000
   10        7.716832   0.000000
   11       10.194398   0.000000
   12       10.194399   0.000000
   13       16.264211   0.000000
   14       16.264211   0.000000
   15       19.705990   0.000000
   16       19.705990   0.000000
   17       22.664725   0.000000
   18       22.664725   0.000000
 
 -0.3333333E+00  0.2775558E-16  0.1666667E+00  0.4629630E-02
    1      -38.990313   1.000000
    2      -38.990311   1.000000
    3      -13.912060   1.000000
    4      -13.912060   1.000000
    5      -13.223707   1.000000
    6      -13.223706   1.000000
    7      -13.018953   1.000000
    8      -13.018952   1.000000
    9        6.662422   0.000000
   10        6.662422   0.000000
   11       11.479859   0.000000
   12       11.479859   0.000000
   13       15.913160   0.000000
   14       15.913160   0.000000
   15       20.380166   0.000000
   16       20.380166   0.000000
   17       24.045867   0.000000
   18       24.045867   0.000000
 
 -0.1666667E+00  0.0000000E+00  0.1666667E+00  0.4629630E-02
    1      -39.038280   1.000000
    2      -39.038279   1.000000
    3      -13.489288   1.000000
    4      -13.489288   1.000000
    5      -13.068112   1.000000
    6      -13.068111   1.000000
    7      -12.871427   1.000000
    8      -12.871426   1.000000
    9        4.072167   0.000000
   10        4.072168   0.000000
   11       15.295363   0.000000
   12       15.295363   0.000000
   13       17.183416   0.000000
   14       17.183416   0.000000
   15       22.207307   0.000000
   16       22.207307   0.000000
   17       23.508947   0.000000
   18       23.508947   0.000000
 
  0.0000000E+00  0.1666667E+00  0.1666667E+00  0.4629630E-02
    1      -39.066683   1.000000
    2      -39.066682   1.000000
    3      -13.174907   1.000000
    4      -13.174906   1.000000
    5      -12.959496   1.000000
    6      -12.959495   1.000000
    7      -12.903878   1.000000
    8      -12.903877   1.000000
    9        2.985529   0.000000
   10        2.985529   0.000000
   11       17.825798   0.000000
   12       17.825798   0.000000
   13       20.460093   0.000000
   14       20.460093   0.000000
   15       20.465429   0.000000
   16       20.465429   0.000000
   17       20.491887   0.000000
   18       20.491887   0.000000
 
  0.1666667E+00  0.1666667E+00  0.1666667E+00  0.4629630E-02
    1      -39.066986   1.000000
    2      -39.066984   1.000000
    3      -13.184597   1.000000
    4      -13.184597   1.000000
    5      -12.730811   1.000000
    6      -12.730811   1.000000
    7      -12.670459   1.000000
    8      -12.670458   1.000000
    9        2.694730   0.000000
   10        2.694730   0.000000
   11       17.186715   0.000000
   12       17.186715   0.000000
   13       21.463251   0.000000
   14       21.463251   0.000000
   15       21.465031   0.000000
   16       21.465031   0.000000
   17       23.913887   0.000000
   18       23.913887   0.000000
 
  0.3333333E+00  0.1666667E+00  0.1666667E+00  0.4629630E-02
    1      -39.038280   1.000000
    2      -39.038279   1.000000
    3      -13.489268   1.000000
    4      -13.489268   1.000000
    5      -13.068118   1.000000
    6      -13.068117   1.000000
    7      -12.871442   1.000000
    8      -12.871441   1.000000
    9        4.072169   0.000000
   10        4.072170   0.000000
   11       15.295359   0.000000
   12       15.295359   0.000000
   13       17.183428   0.000000
   14       17.183428   0.000000
   15       22.207313   0.000000
   16       22.207313   0.000000
   17       23.508955   0.000000
   18       23.508955   0.000000
 
  0.5000000E+00  0.1666667E+00  0.1666667E+00  0.4629630E-02
    1      -38.990313   1.000000
    2      -38.990311   1.000000
    3      -13.912055   1.000000
    4      -13.912054   1.000000
    5      -13.223700   1.000000