   1   1   0   0
  0.6083477E+02  0.4414576E-09  0.4414576E-09  0.4414576E-09  0.1000000E-15
  1.000000000000000E-004
  CAR 
 Og_FCC                                  
     14.41363768    -46.53705856  301     -0.77324413      1.00000000
    -46.537  0.0000E+00  0.0000E+00
    -46.334  0.0000E+00  0.0000E+00
    -46.131  0.0000E+00  0.0000E+00
    -45.928  0.0000E+00  0.0000E+00
    -45.724  0.0000E+00  0.0000E+00
    -45.521  0.0000E+00  0.0000E+00
    -45.318  0.0000E+00  0.0000E+00
    -45.115  0.0000E+00  0.0000E+00
    -44.912  0.0000E+00  0.0000E+00
    -44.709  0.0000E+00  0.0000E+00
    -44.505  0.0000E+00  0.0000E+00
    -44.302  0.0000E+00  0.0000E+00
    -44.099  0.0000E+00  0.0000E+00
    -43.896  0.0000E+00  0.0000E+00
    -43.693  0.0000E+00  0.4000E+01
    -43.490  0.0000E+00  0.4000E+01
    -43.286  0.0000E+00  0.4000E+01
    -43.083  0.0000E+00  0.4000E+01
    -42.880  0.0000E+00  0.4000E+01
    -42.677  0.0000E+00  0.4000E+01
    -42.474  0.0000E+00  0.4000E+01
    -42.271  0.0000E+00  0.4000E+01
    -42.067  0.0000E+00  0.4000E+01
    -41.864  0.0000E+00  0.4000E+01
    -41.661  0.0000E+00  0.4000E+01
    -41.458  0.0000E+00  0.4000E+01
    -41.255  0.0000E+00  0.4000E+01
    -41.051  0.0000E+00  0.4000E+01
    -40.848  0.0000E+00  0.4000E+01
    -40.645  0.0000E+00  0.4000E+01
    -40.442  0.0000E+00  0.4000E+01
    -40.239  0.0000E+00  0.4000E+01
    -40.036  0.0000E+00  0.4000E+01
    -39.832  0.0000E+00  0.4000E+01
    -39.629  0.0000E+00  0.4000E+01
    -39.426  0.0000E+00  0.4000E+01
    -39.223  0.0000E+00  0.1000E+02
    -39.020  0.0000E+00  0.1000E+02
    -38.817  0.0000E+00  0.1000E+02
    -38.613  0.0000E+00  0.1000E+02
    -38.410  0.0000E+00  0.1000E+02
    -38.207  0.0000E+00  0.1000E+02
    -38.004  0.0000E+00  0.1000E+02
    -37.801  0.0000E+00  0.1000E+02
    -37.598  0.0000E+00  0.1000E+02
    -37.394  0.0000E+00  0.1000E+02
    -37.191  0.0000E+00  0.1000E+02
    -36.988  0.0000E+00  0.1000E+02
    -36.785  0.0000E+00  0.1000E+02
    -36.582  0.0000E+00  0.1000E+02
    -36.379  0.0000E+00  0.1000E+02
    -36.175  0.0000E+00  0.1000E+02
    -35.972  0.0000E+00  0.1000E+02
    -35.769  0.0000E+00  0.1000E+02
    -35.566  0.0000E+00  0.1000E+02
    -35.363  0.0000E+00  0.1000E+02
    -35.160  0.0000E+00  0.1000E+02
    -34.956  0.0000E+00  0.1000E+02
    -34.753  0.0000E+00  0.1000E+02
    -34.550  0.0000E+00  0.1000E+02
    -34.347  0.0000E+00  0.1000E+02
    -34.144  0.0000E+00  0.1000E+02
    -33.941  0.0000E+00  0.1000E+02
    -33.737  0.0000E+00  0.1000E+02
    -33.534  0.0000E+00  0.1000E+02
    -33.331  0.0000E+00  0.1000E+02
    -33.128  0.0000E+00  0.1000E+02
    -32.925  0.0000E+00  0.1000E+02
    -32.722  0.0000E+00  0.1000E+02
    -32.518  0.0000E+00  0.1000E+02
    -32.315  0.0000E+00  0.1000E+02
    -32.112  0.0000E+00  0.1000E+02
    -31.909  0.0000E+00  0.1000E+02
    -31.706  0.0000E+00  0.1000E+02
    -31.503  0.0000E+00  0.1000E+02
    -31.299  0.0000E+00  0.1000E+02
    -31.096  0.0000E+00  0.1000E+02
    -30.893  0.0000E+00  0.1000E+02
    -30.690  0.0000E+00  0.1000E+02
    -30.487  0.0000E+00  0.1000E+02
    -30.284  0.0000E+00  0.1000E+02
    -30.080  0.0000E+00  0.1000E+02
    -29.877  0.0000E+00  0.1000E+02
    -29.674  0.0000E+00  0.1000E+02
    -29.471  0.0000E+00  0.1000E+02
    -29.268  0.0000E+00  0.1000E+02
    -29.065  0.0000E+00  0.1000E+02
    -28.861  0.0000E+00  0.1000E+02
    -28.658  0.0000E+00  0.1000E+02
    -28.455  0.0000E+00  0.1000E+02
    -28.252  0.0000E+00  0.1000E+02
    -28.049  0.0000E+00  0.1000E+02
    -27.846  0.0000E+00  0.1000E+02
    -27.642  0.0000E+00  0.1000E+02
    -27.439  0.0000E+00  0.1000E+02
    -27.236  0.0000E+00  0.1000E+02
    -27.033  0.0000E+00  0.1000E+02
    -26.830  0.0000E+00  0.1000E+02
    -26.626  0.0000E+00  0.1000E+02
    -26.423  0.0000E+00  0.1000E+02
    -26.220  0.0000E+00  0.1000E+02
    -26.017  0.0000E+00  0.1000E+02
    -25.814  0.0000E+00  0.1000E+02
    -25.611  0.0000E+00  0.1000E+02
    -25.407  0.0000E+00  0.1000E+02
    -25.204  0.0000E+00  0.1000E+02
    -25.001  0.0000E+00  0.1000E+02
    -24.798  0.0000E+00  0.1000E+02
    -24.595  0.0000E+00  0.1000E+02
    -24.392  0.0000E+00  0.1000E+02
    -24.188  0.0000E+00  0.1000E+02
    -23.985  0.0000E+00  0.1000E+02
    -23.782  0.0000E+00  0.1000E+02
    -23.579  0.0000E+00  0.1000E+02
    -23.376  0.0000E+00  0.1000E+02
    -23.173  0.0000E+00  0.1000E+02
    -22.969  0.0000E+00  0.1000E+02
    -22.766  0.0000E+00  0.1000E+02
    -22.563  0.0000E+00  0.1000E+02
    -22.360  0.0000E+00  0.1000E+02
    -22.157  0.0000E+00  0.1000E+02
    -21.954  0.0000E+00  0.1000E+02
    -21.750  0.0000E+00  0.1000E+02
    -21.547  0.0000E+00  0.1000E+02
    -21.344  0.0000E+00  0.1000E+02
    -21.141  0.0000E+00  0.1000E+02
    -20.938  0.0000E+00  0.1000E+02
    -20.735  0.0000E+00  0.1000E+02
    -20.531  0.0000E+00  0.1000E+02
    -20.328  0.0000E+00  0.1000E+02
    -20.125  0.0000E+00  0.1000E+02
    -19.922  0.0000E+00  0.1000E+02
    -19.719  0.0000E+00  0.1000E+02
    -19.516  0.0000E+00  0.1000E+02
    -19.312  0.0000E+00  0.1000E+02
    -19.109  0.0000E+00  0.1000E+02
    -18.906  0.0000E+00  0.1000E+02
    -18.703  0.0000E+00  0.1000E+02
    -18.500  0.0000E+00  0.1000E+02
    -18.297  0.0000E+00  0.1000E+02
    -18.093  0.0000E+00  0.1000E+02
    -17.890  0.0000E+00  0.1000E+02
    -17.687  0.0000E+00  0.1000E+02
    -17.484  0.0000E+00  0.1000E+02
    -17.281  0.0000E+00  0.1000E+02
    -17.078  0.0000E+00  0.1000E+02
    -16.874  0.9948E+00  0.1105E+02
    -16.671  0.0000E+00  0.1200E+02
    -16.468  0.0000E+00  0.1200E+02
    -16.265  0.0000E+00  0.1200E+02
    -16.062  0.0000E+00  0.1200E+02
    -15.859  0.0000E+00  0.1200E+02
    -15.655  0.0000E+00  0.1200E+02
    -15.452  0.0000E+00  0.1200E+02
    -15.249  0.0000E+00  0.1200E+02
    -15.046  0.0000E+00  0.1200E+02
    -14.843  0.0000E+00  0.1200E+02
    -14.640  0.0000E+00  0.1200E+02
    -14.436  0.0000E+00  0.1200E+02
    -14.233  0.0000E+00  0.1200E+02
    -14.030  0.0000E+00  0.1200E+02
    -13.827  0.0000E+00  0.1200E+02
    -13.624  0.0000E+00  0.1200E+02
    -13.421  0.0000E+00  0.1200E+02
    -13.217  0.0000E+00  0.1200E+02
    -13.014  0.0000E+00  0.1200E+02
    -12.811  0.0000E+00  0.1200E+02
    -12.608  0.0000E+00  0.1200E+02
    -12.405  0.0000E+00  0.1200E+02
    -12.201  0.0000E+00  0.1200E+02
    -11.998  0.0000E+00  0.1200E+02
    -11.795  0.0000E+00  0.1200E+02
    -11.592  0.0000E+00  0.1200E+02
    -11.389  0.0000E+00  0.1200E+02
    -11.186  0.0000E+00  0.1200E+02
    -10.982  0.0000E+00  0.1200E+02
    -10.779  0.0000E+00  0.1200E+02
    -10.576  0.0000E+00  0.1200E+02
    -10.373  0.0000E+00  0.1200E+02
    -10.170  0.0000E+00  0.1200E+02
     -9.967  0.0000E+00  0.1200E+02
     -9.763  0.0000E+00  0.1200E+02
     -9.560  0.0000E+00  0.1200E+02
     -9.357  0.0000E+00  0.1200E+02
     -9.154  0.0000E+00  0.1200E+02
     -8.951  0.0000E+00  0.1200E+02
     -8.748  0.0000E+00  0.1200E+02
     -8.544  0.0000E+00  0.1200E+02
     -8.341  0.0000E+00  0.1200E+02
     -8.138  0.0000E+00  0.1200E+02
     -7.935  0.0000E+00  0.1200E+02
     -7.732  0.0000E+00  0.1200E+02
     -7.529  0.0000E+00  0.1200E+02
     -7.325  0.0000E+00  0.1200E+02
     -7.122  0.0000E+00  0.1200E+02
     -6.919  0.0000E+00  0.1200E+02
     -6.716  0.0000E+00  0.1200E+02
     -6.513  0.0000E+00  0.1200E+02
     -6.310  0.0000E+00  0.1200E+02
     -6.106  0.0000E+00  0.1200E+02
     -5.903  0.0000E+00  0.1200E+02
     -5.700  0.0000E+00  0.1200E+02
     -5.497  0.0000E+00  0.1200E+02
     -5.294  0.0000E+00  0.1320E+02
     -5.091  0.0000E+00  0.1366E+02
     -4.887  0.0000E+00  0.1391E+02
     -4.684  0.0000E+00  0.1399E+02
     -4.481  0.0000E+00  0.1400E+02
     -4.278  0.0000E+00  0.1400E+02
     -4.075  0.0000E+00  0.1400E+02
     -3.872  0.0000E+00  0.1400E+02
     -3.668  0.0000E+00  0.1400E+02
     -3.465  0.0000E+00  0.1400E+02
     -3.262  0.0000E+00  0.1400E+02
     -3.059  0.0000E+00  0.1400E+02
     -2.856  0.0000E+00  0.1400E+02
     -2.653  0.0000E+00  0.1400E+02
     -2.449  0.0000E+00  0.1501E+02
     -2.246  0.0000E+00  0.1562E+02
     -2.043  0.5788E-01  0.1567E+02
     -1.840  0.3444E+00  0.1619E+02
     -1.637  0.0000E+00  0.1693E+02
     -1.434  0.3059E-15  0.1710E+02
     -1.230  0.6888E+00  0.1774E+02
     -1.027  0.0000E+00  0.1794E+02
     -0.824  0.0000E+00  0.1800E+02
     -0.621  0.0000E+00  0.1800E+02
     -0.418  0.0000E+00  0.1800E+02
     -0.215  0.0000E+00  0.1800E+02
     -0.011  0.0000E+00  0.1800E+02
      0.192  0.0000E+00  0.1800E+02
      0.395  0.0000E+00  0.1800E+02
      0.598  0.0000E+00  0.1800E+02
      0.801  0.0000E+00  0.1800E+02
      1.004  0.0000E+00  0.1800E+02
      1.208  0.0000E+00  0.1800E+02
      1.411  0.0000E+00  0.1800E+02
      1.614  0.0000E+00  0.1800E+02
      1.817  0.0000E+00  0.1800E+02
      2.020  0.0000E+00  0.1800E+02
      2.223  0.0000E+00  0.1800E+02
      2.427  0.0000E+00  0.1800E+02
      2.630  0.0000E+00  0.1800E+02
      2.833  0.0000E+00  0.1801E+02
      3.036  0.0000E+00  0.1801E+02
      3.239  0.0000E+00  0.1801E+02
      3.443  0.0000E+00  0.1801E+02
      3.646  0.0000E+00  0.1805E+02
      3.849  0.0000E+00  0.1809E+02
      4.052  0.0000E+00  0.1809E+02
      4.255  0.0000E+00  0.1809E+02
      4.458  0.2296E+00  0.1820E+02
      4.662  0.0000E+00  0.1829E+02
      4.865  0.0000E+00  0.1850E+02
      5.068  0.6888E+00  0.1867E+02
      5.271  0.0000E+00  0.1923E+02
      5.474  0.1722E+00  0.1941E+02
      5.677  0.0000E+00  0.1969E+02
      5.881  0.0000E+00  0.1983E+02
      6.084  0.0000E+00  0.2028E+02
      6.287  0.0000E+00  0.2042E+02
      6.490  0.0000E+00  0.2070E+02
      6.693  0.0000E+00  0.2105E+02
      6.896  0.0000E+00  0.2147E+02
      7.100  0.1722E+00  0.2185E+02
      7.303  0.0000E+00  0.2199E+02
      7.506  0.5591E+00  0.2220E+02
      7.709  0.0000E+00  0.2272E+02
      7.912  0.0000E+00  0.2327E+02
      8.115  0.0000E+00  0.2367E+02
      8.319  0.6888E+00  0.2405E+02
      8.522  0.0000E+00  0.2432E+02
      8.725  0.0000E+00  0.2471E+02
      8.928  0.0000E+00  0.2495E+02
      9.131  0.0000E+00  0.2530E+02
      9.334  0.0000E+00  0.2569E+02
      9.538  0.0000E+00  0.2569E+02
      9.741  0.0000E+00  0.2586E+02
      9.944  0.6848E-02  0.2643E+02
     10.147  0.0000E+00  0.2660E+02
     10.350  0.0000E+00  0.2667E+02
     10.553  0.0000E+00  0.2681E+02
     10.757  0.1340E-01  0.2723E+02
     10.960  0.0000E+00  0.2730E+02
     11.163  0.0000E+00  0.2765E+02
     11.366  0.0000E+00  0.2783E+02
     11.569  0.0000E+00  0.2797E+02
     11.772  0.0000E+00  0.2800E+02
     11.976  0.0000E+00  0.2800E+02
     12.179  0.0000E+00  0.2800E+02
     12.382  0.0000E+00  0.2800E+02
     12.585  0.0000E+00  0.2800E+02
     12.788  0.0000E+00  0.2800E+02
     12.991  0.0000E+00  0.2800E+02
     13.195  0.0000E+00  0.2800E+02
     13.398  0.0000E+00  0.2800E+02
     13.601  0.0000E+00  0.2800E+02
     13.804  0.0000E+00  0.2800E+02
     14.007  0.0000E+00  0.2800E+02
     14.210  0.0000E+00  0.2800E+02
     14.414  0.0000E+00  0.2800E+02
