   1   1   0   0
  0.1628488E+02  0.2845115E-09  0.2845115E-09  0.2845115E-09  0.1000000E-15
  1.000000000000000E-004
  CAR 
 Og_FCC                                  
     40.39759274    -18.48401974  301    -14.50951090      1.00000000
    -18.484  0.0000E+00  0.0000E+00
    -18.288  0.0000E+00  0.0000E+00
    -18.091  0.0000E+00  0.0000E+00
    -17.895  0.0000E+00  0.0000E+00
    -17.699  0.0000E+00  0.0000E+00
    -17.503  0.0000E+00  0.0000E+00
    -17.306  0.0000E+00  0.0000E+00
    -17.110  0.0000E+00  0.0000E+00
    -16.914  0.0000E+00  0.0000E+00
    -16.718  0.0000E+00  0.0000E+00
    -16.521  0.0000E+00  0.0000E+00
    -16.325  0.0000E+00  0.0000E+00
    -16.129  0.0000E+00  0.0000E+00
    -15.932  0.0000E+00  0.0000E+00
    -15.736  0.0000E+00  0.5831E-02
    -15.540  0.0000E+00  0.8746E-01
    -15.344  0.0000E+00  0.1574E+00
    -15.147  0.0000E+00  0.3440E+00
    -14.951  0.0000E+00  0.6589E+00
    -14.755  0.0000E+00  0.1195E+01
    -14.559  0.0000E+00  0.2000E+01
    -14.362  0.0000E+00  0.2000E+01
    -14.166  0.0000E+00  0.2000E+01
    -13.970  0.0000E+00  0.2000E+01
    -13.773  0.0000E+00  0.2000E+01
    -13.577  0.0000E+00  0.2000E+01
    -13.381  0.0000E+00  0.2000E+01
    -13.185  0.0000E+00  0.2000E+01
    -12.988  0.0000E+00  0.2000E+01
    -12.792  0.0000E+00  0.2000E+01
    -12.596  0.0000E+00  0.2000E+01
    -12.400  0.0000E+00  0.2000E+01
    -12.203  0.0000E+00  0.2000E+01
    -12.007  0.0000E+00  0.2000E+01
    -11.811  0.0000E+00  0.2000E+01
    -11.614  0.0000E+00  0.2000E+01
    -11.418  0.0000E+00  0.2000E+01
    -11.222  0.0000E+00  0.2000E+01
    -11.026  0.0000E+00  0.2000E+01
    -10.829  0.0000E+00  0.2000E+01
    -10.633  0.0000E+00  0.2000E+01
    -10.437  0.0000E+00  0.2000E+01
    -10.241  0.0000E+00  0.2000E+01
    -10.044  0.0000E+00  0.2000E+01
     -9.848  0.0000E+00  0.2000E+01
     -9.652  0.0000E+00  0.2000E+01
     -9.456  0.0000E+00  0.2000E+01
     -9.259  0.0000E+00  0.2000E+01
     -9.063  0.0000E+00  0.2000E+01
     -8.867  0.0000E+00  0.2000E+01
     -8.670  0.0000E+00  0.2000E+01
     -8.474  0.0000E+00  0.2000E+01
     -8.278  0.0000E+00  0.2000E+01
     -8.082  0.0000E+00  0.2000E+01
     -7.885  0.0000E+00  0.2000E+01
     -7.689  0.0000E+00  0.2000E+01
     -7.493  0.0000E+00  0.2000E+01
     -7.297  0.0000E+00  0.2000E+01
     -7.100  0.0000E+00  0.2000E+01
     -6.904  0.0000E+00  0.2000E+01
     -6.708  0.0000E+00  0.2000E+01
     -6.511  0.0000E+00  0.2000E+01
     -6.315  0.0000E+00  0.2000E+01
     -6.119  0.0000E+00  0.2000E+01
     -5.923  0.0000E+00  0.2000E+01
     -5.726  0.0000E+00  0.2000E+01
     -5.530  0.0000E+00  0.2000E+01
     -5.334  0.0000E+00  0.2000E+01
     -5.138  0.0000E+00  0.2000E+01
     -4.941  0.0000E+00  0.2000E+01
     -4.745  0.0000E+00  0.2000E+01
     -4.549  0.0000E+00  0.2000E+01
     -4.352  0.0000E+00  0.2000E+01
     -4.156  0.0000E+00  0.2000E+01
     -3.960  0.0000E+00  0.2000E+01
     -3.764  0.0000E+00  0.2000E+01
     -3.567  0.0000E+00  0.2000E+01
     -3.371  0.0000E+00  0.2000E+01
     -3.175  0.0000E+00  0.2000E+01
     -2.979  0.0000E+00  0.2000E+01
     -2.782  0.0000E+00  0.2000E+01
     -2.586  0.0000E+00  0.2000E+01
     -2.390  0.0000E+00  0.2000E+01
     -2.193  0.0000E+00  0.2000E+01
     -1.997  0.0000E+00  0.2000E+01
     -1.801  0.0000E+00  0.2000E+01
     -1.605  0.0000E+00  0.2000E+01
     -1.408  0.0000E+00  0.2000E+01
     -1.212  0.0000E+00  0.2000E+01
     -1.016  0.0000E+00  0.2000E+01
     -0.820  0.0000E+00  0.2000E+01
     -0.623  0.0000E+00  0.2000E+01
     -0.427  0.0000E+00  0.2000E+01
     -0.231  0.0000E+00  0.2000E+01
     -0.034  0.0000E+00  0.2000E+01
      0.162  0.0000E+00  0.2000E+01
      0.358  0.0000E+00  0.2000E+01
      0.554  0.0000E+00  0.2000E+01
      0.751  0.0000E+00  0.2000E+01
      0.947  0.0000E+00  0.2000E+01
      1.143  0.0000E+00  0.2000E+01
      1.339  0.0000E+00  0.2000E+01
      1.536  0.0000E+00  0.2000E+01
      1.732  0.0000E+00  0.2000E+01
      1.928  0.0000E+00  0.2000E+01
      2.125  0.0000E+00  0.2000E+01
      2.321  0.0000E+00  0.2000E+01
      2.517  0.0000E+00  0.2000E+01
      2.713  0.0000E+00  0.2000E+01
      2.910  0.0000E+00  0.2000E+01
      3.106  0.0000E+00  0.2000E+01
      3.302  0.0000E+00  0.2047E+01
      3.498  0.5131E+00  0.2194E+01
      3.695  0.0000E+00  0.2805E+01
      3.891  0.0000E+00  0.2985E+01
      4.087  0.0000E+00  0.2985E+01
      4.284  0.0000E+00  0.3125E+01
      4.480  0.0000E+00  0.3475E+01
      4.676  0.0000E+00  0.3510E+01
      4.872  0.0000E+00  0.3510E+01
      5.069  0.0000E+00  0.3650E+01
      5.265  0.0000E+00  0.3790E+01
      5.461  0.0000E+00  0.3860E+01
      5.657  0.0000E+00  0.3860E+01
      5.854  0.0000E+00  0.3860E+01
      6.050  0.0000E+00  0.3860E+01
      6.246  0.0000E+00  0.3860E+01
      6.443  0.0000E+00  0.4000E+01
      6.639  0.0000E+00  0.4000E+01
      6.835  0.0000E+00  0.4000E+01
      7.031  0.0000E+00  0.4140E+01
      7.228  0.0000E+00  0.4140E+01
      7.424  0.0000E+00  0.4140E+01
      7.620  0.0000E+00  0.4140E+01
      7.816  0.0000E+00  0.4280E+01
      8.013  0.0000E+00  0.4280E+01
      8.209  0.0000E+00  0.4280E+01
      8.405  0.0000E+00  0.4350E+01
      8.602  0.0000E+00  0.4420E+01
      8.798  0.0000E+00  0.4700E+01
      8.994  0.0000E+00  0.4700E+01
      9.190  0.0000E+00  0.4700E+01
      9.387  0.0000E+00  0.4840E+01
      9.583  0.0000E+00  0.4840E+01
      9.779  0.0000E+00  0.4980E+01
      9.975  0.0000E+00  0.5120E+01
     10.172  0.0000E+00  0.5259E+01
     10.368  0.4063E-10  0.5259E+01
     10.564  0.0000E+00  0.5446E+01
     10.761  0.0000E+00  0.5446E+01
     10.957  0.0000E+00  0.5761E+01
     11.153  0.0000E+00  0.5761E+01
     11.349  0.0000E+00  0.5901E+01
     11.546  0.0000E+00  0.5901E+01
     11.742  0.0000E+00  0.5901E+01
     11.938  0.0000E+00  0.5901E+01
     12.134  0.0000E+00  0.5901E+01
     12.331  0.0000E+00  0.5901E+01
     12.527  0.0000E+00  0.5971E+01
     12.723  0.1603E-01  0.6254E+01
     12.920  0.0000E+00  0.6297E+01
     13.116  0.0000E+00  0.6297E+01
     13.312  0.0000E+00  0.6297E+01
     13.508  0.0000E+00  0.6507E+01
     13.705  0.0000E+00  0.6717E+01
     13.901  0.0000E+00  0.6717E+01
     14.097  0.7130E+00  0.6997E+01
     14.293  0.3007E+00  0.7126E+01
     14.490  0.0000E+00  0.7277E+01
     14.686  0.0000E+00  0.7277E+01
     14.882  0.0000E+00  0.7487E+01
     15.078  0.0000E+00  0.7487E+01
     15.275  0.0000E+00  0.7487E+01
     15.471  0.0000E+00  0.7487E+01
     15.667  0.0000E+00  0.7522E+01
     15.864  0.0000E+00  0.7557E+01
     16.060  0.0000E+00  0.7557E+01
     16.256  0.7130E+00  0.7837E+01
     16.452  0.7130E+00  0.8327E+01
     16.649  0.0000E+00  0.8327E+01
     16.845  0.0000E+00  0.8327E+01
     17.041  0.0000E+00  0.8408E+01
     17.237  0.7130E+00  0.8688E+01
     17.434  0.0000E+00  0.8758E+01
     17.630  0.0000E+00  0.8898E+01
     17.826  0.5264E-03  0.8968E+01
     18.023  0.0000E+00  0.9248E+01
     18.219  0.0000E+00  0.9388E+01
     18.415  0.0000E+00  0.9388E+01
     18.611  0.0000E+00  0.9481E+01
     18.808  0.0000E+00  0.9691E+01
     19.004  0.0000E+00  0.9784E+01
     19.200  0.0000E+00  0.9784E+01
     19.396  0.0000E+00  0.9924E+01
     19.593  0.0000E+00  0.1006E+02
     19.789  0.0000E+00  0.1016E+02
     19.985  0.0000E+00  0.1016E+02
     20.182  0.0000E+00  0.1019E+02
     20.378  0.0000E+00  0.1019E+02
     20.574  0.6544E-01  0.1021E+02
     20.770  0.0000E+00  0.1042E+02
     20.967  0.0000E+00  0.1042E+02
     21.163  0.0000E+00  0.1056E+02
     21.359  0.0000E+00  0.1084E+02
     21.555  0.0000E+00  0.1084E+02
     21.752  0.0000E+00  0.1115E+02
     21.948  0.0000E+00  0.1115E+02
     22.144  0.0000E+00  0.1129E+02
     22.341  0.0000E+00  0.1153E+02
     22.537  0.0000E+00  0.1153E+02
     22.733  0.0000E+00  0.1160E+02
     22.929  0.0000E+00  0.1188E+02
     23.126  0.0000E+00  0.1216E+02
     23.322  0.0000E+00  0.1224E+02
     23.518  0.0000E+00  0.1224E+02
     23.714  0.0000E+00  0.1224E+02
     23.911  0.0000E+00  0.1224E+02
     24.107  0.4441E-01  0.1231E+02
     24.303  0.0000E+00  0.1254E+02
     24.500  0.0000E+00  0.1272E+02
     24.696  0.0000E+00  0.1290E+02
     24.892  0.0000E+00  0.1290E+02
     25.088  0.0000E+00  0.1290E+02
     25.285  0.0000E+00  0.1325E+02
     25.481  0.0000E+00  0.1325E+02
     25.677  0.0000E+00  0.1334E+02
     25.873  0.0000E+00  0.1376E+02
     26.070  0.1009E-14  0.1376E+02
     26.266  0.0000E+00  0.1390E+02
     26.462  0.0000E+00  0.1404E+02
     26.659  0.0000E+00  0.1418E+02
     26.855  0.0000E+00  0.1418E+02
     27.051  0.0000E+00  0.1425E+02
     27.247  0.1059E-11  0.1425E+02
     27.444  0.0000E+00  0.1443E+02
     27.640  0.0000E+00  0.1443E+02
     27.836  0.0000E+00  0.1443E+02
     28.032  0.0000E+00  0.1464E+02
     28.229  0.0000E+00  0.1467E+02
     28.425  0.0000E+00  0.1467E+02
     28.621  0.0000E+00  0.1481E+02
     28.818  0.0000E+00  0.1509E+02
     29.014  0.0000E+00  0.1544E+02
     29.210  0.0000E+00  0.1544E+02
     29.406  0.0000E+00  0.1544E+02
     29.603  0.0000E+00  0.1544E+02
     29.799  0.0000E+00  0.1558E+02
     29.995  0.0000E+00  0.1558E+02
     30.191  0.0000E+00  0.1558E+02
     30.388  0.0000E+00  0.1558E+02
     30.584  0.0000E+00  0.1558E+02
     30.780  0.0000E+00  0.1558E+02
     30.977  0.0000E+00  0.1558E+02
     31.173  0.0000E+00  0.1558E+02
     31.369  0.0000E+00  0.1558E+02
     31.565  0.0000E+00  0.1558E+02
     31.762  0.0000E+00  0.1572E+02
     31.958  0.0000E+00  0.1572E+02
     32.154  0.0000E+00  0.1572E+02
     32.350  0.0000E+00  0.1586E+02
     32.547  0.0000E+00  0.1586E+02
     32.743  0.0000E+00  0.1586E+02
     32.939  0.0000E+00  0.1586E+02
     33.136  0.0000E+00  0.1586E+02
     33.332  0.0000E+00  0.1586E+02
     33.528  0.0000E+00  0.1590E+02
     33.724  0.0000E+00  0.1590E+02
     33.921  0.0000E+00  0.1590E+02
     34.117  0.0000E+00  0.1590E+02
     34.313  0.0000E+00  0.1590E+02
     34.509  0.0000E+00  0.1590E+02
     34.706  0.0000E+00  0.1590E+02
     34.902  0.0000E+00  0.1590E+02
     35.098  0.0000E+00  0.1590E+02
     35.295  0.0000E+00  0.1597E+02
     35.491  0.0000E+00  0.1597E+02
     35.687  0.0000E+00  0.1597E+02
     35.883  0.0000E+00  0.1597E+02
     36.080  0.0000E+00  0.1597E+02
     36.276  0.0000E+00  0.1597E+02
     36.472  0.0000E+00  0.1597E+02
     36.668  0.0000E+00  0.1597E+02
     36.865  0.0000E+00  0.1597E+02
     37.061  0.0000E+00  0.1597E+02
     37.257  0.0000E+00  0.1597E+02
     37.454  0.0000E+00  0.1597E+02
     37.650  0.0000E+00  0.1597E+02
     37.846  0.0000E+00  0.1600E+02
     38.042  0.0000E+00  0.1600E+02
     38.239  0.0000E+00  0.1600E+02
     38.435  0.0000E+00  0.1600E+02
     38.631  0.0000E+00  0.1600E+02
     38.827  0.0000E+00  0.1600E+02
     39.024  0.0000E+00  0.1600E+02
     39.220  0.0000E+00  0.1600E+02
     39.416  0.0000E+00  0.1600E+02
     39.613  0.0000E+00  0.1600E+02
     39.809  0.0000E+00  0.1600E+02
     40.005  0.0000E+00  0.1600E+02
     40.201  0.0000E+00  0.1600E+02
     40.398  0.0000E+00  0.1600E+02
