    1    1    1    1
  0.1628488E+02  0.2845115E-09  0.2845115E-09  0.2845115E-09  0.1000000E-15
  1.000000000000000E-004
  CAR 
 Og_FCC                                  
      2    172      8
 
  0.0000000E+00  0.0000000E+00  0.0000000E+00  0.2915452E-02
    1      -15.807583   1.000000
    2        3.750312   0.000000
    3       20.704252   0.000000
    4       20.704252   0.000000
    5       20.704297   0.000000
    6       24.010703   0.000000
    7       24.010703   0.000000
    8       24.010777   0.000000
 
  0.1428571E+00  0.1387779E-16  0.6938894E-17  0.5830904E-02
    1      -15.634588   1.000000
    2        3.630573   0.000000
    3       16.929092   0.000000
    4       19.750662   0.000000
    5       19.750709   0.000000
    6       24.050626   0.000000
    7       25.595423   0.000000
    8       25.595467   0.000000
 
  0.2857143E+00  0.5551115E-16  0.2775558E-16  0.5830904E-02
    1      -15.264351   1.000000
    2        3.330598   0.000000
    3       12.724281   0.000000
    4       18.818721   0.000000
    5       18.818767   0.000000
    6       24.107925   0.000000
    7       24.107999   0.000000
    8       24.337826   0.000000
 
  0.4285714E+00  0.2775558E-16  0.0000000E+00  0.5830904E-02
    1      -14.919488   1.000000
    2        3.134941   0.000000
    3       10.405259   0.000000
    4       18.540433   0.000000
    5       18.540474   0.000000
    6       22.290780   0.000000
    7       22.290868   0.000000
    8       23.177079   0.000000
 
  0.0000000E+00  0.1428571E+00  0.0000000E+00  0.5830904E-02
    1      -15.634588   1.000000
    2        3.630573   0.000000
    3       16.929092   0.000000
    4       19.750662   0.000000
    5       19.750709   0.000000
    6       24.050625   0.000000
    7       25.595423   0.000000
    8       25.595467   0.000000
 
  0.1428571E+00  0.1428571E+00  0.2775558E-16  0.5830904E-02
    1      -15.591695   1.000000
    2        3.613383   0.000000
    3       17.693949   0.000000
    4       17.693990   0.000000
    5       20.044899   0.000000
    6       21.713622   0.000000
    7       23.312416   0.000000
    8       28.198189   0.000000
 
  0.2857143E+00  0.1428571E+00  0.5551115E-16  0.5830904E-02
    1      -15.296300   1.000000
    2        3.502684   0.000000
    3       13.695792   0.000000
    4       16.447671   0.000000
    5       19.382188   0.000000
    6       21.116501   0.000000
    7       23.050346   0.000000
    8       28.544516   0.000000
 
  0.4285714E+00  0.1428571E+00  0.0000000E+00  0.5830904E-02
    1      -14.930629   1.000000
    2        3.536260   0.000000
    3       10.372521   0.000000
    4       16.233987   0.000000
    5       17.232113   0.000000
    6       21.227635   0.000000
    7       26.075352   0.000000
    8       26.582861   0.000000
 
 -0.4285714E+00  0.1428571E+00  0.1387779E-16  0.5830904E-02
    1      -14.806414   1.000000
    2        3.602774   0.000000
    3        9.305615   0.000000
    4       16.251239   0.000000
    5       17.052064   0.000000
    6       21.266242   0.000000
    7       24.517304   0.000000
    8       28.725092   0.000000
 
 -0.2857143E+00  0.1428571E+00 -0.5551115E-16  0.5830904E-02
    1      -15.038100   1.000000
    2        3.498043   0.000000
    3       10.894768   0.000000
    4       16.295995   0.000000
    5       18.773985   0.000000
    6       22.187919   0.000000
    7       24.154071   0.000000
    8       27.252287   0.000000
 
 -0.1428571E+00  0.1428571E+00  0.3358555E-17  0.5830904E-02
    1      -15.405553   1.000000
    2        3.506456   0.000000
    3       14.252611   0.000000
    4       17.245424   0.000000
    5       20.648812   0.000000
    6       24.378688   0.000000
    7       24.422224   0.000000
    8       25.211919   0.000000
 
  0.0000000E+00  0.2857143E+00  0.0000000E+00  0.5830904E-02
    1      -15.264351   1.000000
    2        3.330598   0.000000
    3       12.724281   0.000000
    4       18.818721   0.000000
    5       18.818767   0.000000
    6       24.107925   0.000000
    7       24.107999   0.000000
    8       24.337826   0.000000
 
  0.1428571E+00  0.2857143E+00  0.0000000E+00  0.5830904E-02
    1      -15.296300   1.000000
    2        3.502684   0.000000
    3       13.695792   0.000000
    4       16.447671   0.000000
    5       19.382188   0.000000
    6       21.116501   0.000000
    7       23.050346   0.000000
    8       28.544516   0.000000
 
  0.2857143E+00  0.2857143E+00  0.8326673E-16  0.5830904E-02
    1      -15.097874   1.000000
    2        3.717037   0.000000
    3       14.843668   0.000000
    4       14.843711   0.000000
    5       15.784967   0.000000
    6       17.029274   0.000000
    7       24.633354   0.000000
    8       33.422650   0.000000
 
  0.4285714E+00  0.2857143E+00 -0.2775558E-16  0.5830904E-02
    1      -14.821847   1.000000
    2        4.171755   0.000000
    3       10.848328   0.000000
    4       13.992366   0.000000
    5       14.293573   0.000000
    6       19.487636   0.000000
    7       25.220227   0.000000
    8       31.687530   0.000000
 
 -0.4285714E+00  0.2857143E+00 -0.2081668E-16  0.5830904E-02
    1      -14.671409   1.000000
    2        5.020397   0.000000
    3        7.732850   0.000000
    4       13.480180   0.000000
    5       14.825843   0.000000
    6       22.746714   0.000000
    7       26.292030   0.000000
    8       29.648681   0.000000
 
 -0.2857143E+00  0.2857143E+00 -0.1640708E-16  0.5830904E-02
    1      -14.780174   1.000000
    2        4.389690   0.000000
    3        8.344557   0.000000
    4       14.312364   0.000000
    5       16.409326   0.000000
    6       22.687329   0.000000
    7       27.952884   0.000000
    8       28.869635   0.000000
 
 -0.1428571E+00  0.2857143E+00 -0.6938894E-17  0.5830904E-02
    1      -15.038100   1.000000
    2        3.498043   0.000000
    3       10.894768   0.000000
    4       16.295995   0.000000
    5       18.773985   0.000000
    6       22.187919   0.000000
    7       24.154071   0.000000
    8       27.252287   0.000000
 
  0.0000000E+00  0.4285714E+00  0.2775558E-16  0.5830904E-02
    1      -14.919488   1.000000
    2        3.134941   0.000000
    3       10.405259   0.000000
    4       18.540433   0.000000
    5       18.540474   0.000000
    6       22.290780   0.000000
    7       22.290868   0.000000
    8       23.177078   0.000000
 
  0.1428571E+00  0.4285714E+00  0.2775558E-16  0.5830904E-02
    1      -14.930629   1.000000
    2        3.536260   0.000000
    3       10.372520   0.000000
    4       16.233987   0.000000
    5       17.232113   0.000000
    6       21.227635   0.000000
    7       26.075352   0.000000
    8       26.582861   0.000000
 
  0.2857143E+00  0.4285714E+00  0.8326673E-16  0.5830904E-02
    1      -14.821847   1.000000
    2        4.171755   0.000000
    3       10.848328   0.000000
    4       13.992366   0.000000
    5       14.293573   0.000000
    6       19.487636   0.000000
    7       25.220226   0.000000
    8       31.687530   0.000000
 
  0.4285714E+00  0.4285714E+00  0.5551115E-16  0.5830904E-02
    1      -14.679122   1.000000
    2        4.655530   0.000000
    3       10.889875   0.000000
    4       13.384367   0.000000
    5       13.384412   0.000000
    6       15.517326   0.000000
    7       27.370501   0.000000
    8       37.721110   0.000000
 
 -0.4285714E+00  0.4285714E+00  0.7110042E-17  0.5830904E-02
    1      -14.617494   1.000000
    2        5.351931   0.000000
    3        8.582805   0.000000
    4       12.373816   0.000000
    5       13.564468   0.000000
    6       18.774339   0.000000
    7       26.994809   0.000000
    8       35.216212   0.000000
 
 -0.2857143E+00  0.4285714E+00 -0.1387779E-16  0.5830904E-02
    1      -14.671409   1.000000
    2        5.020397   0.000000
    3        7.732849   0.000000
    4       13.480180   0.000000
    5       14.825843   0.000000
    6       22.746714   0.000000
    7       26.292030   0.000000
    8       29.648681   0.000000
 
 -0.1428571E+00  0.4285714E+00 -0.1387779E-16  0.5830904E-02
    1      -14.806414   1.000000
    2        3.602774   0.000000
    3        9.305615   0.000000
    4       16.251239   0.000000
    5       17.052064   0.000000
    6       21.266242   0.000000
    7       24.517304   0.000000
    8       28.725092   0.000000
 
  0.0000000E+00  0.0000000E+00  0.1428571E+00  0.5830904E-02
    1      -15.634588   1.000000
    2        3.630573   0.000000
    3       16.929092   0.000000
    4       19.750662   0.000000
    5       19.750709   0.000000
    6       24.050626   0.000000
    7       25.595423   0.000000
    8       25.595467   0.000000
 
  0.1428571E+00  0.1387779E-16  0.1428571E+00  0.5830904E-02
    1      -15.591695   1.000000
    2        3.613383   0.000000
    3       17.693949   0.000000
    4       17.693990   0.000000
    5       20.044899   0.000000
    6       21.713622   0.000000
    7       23.312416   0.000000
    8       28.198161   0.000000
 
  0.2857143E+00  0.5551115E-16  0.1428571E+00  0.5830904E-02
    1      -15.296300   1.000000
    2        3.502684   0.000000
    3       13.695792   0.000000
    4       16.447671   0.000000
    5       19.382188   0.000000
    6       21.116501   0.000000
    7       23.050346   0.000000
    8       28.544516   0.000000
 
  0.4285714E+00  0.2775558E-16  0.1428571E+00  0.5830904E-02
    1      -14.930629   1.000000
    2        3.536260   0.000000
    3       10.372521   0.000000
    4       16.233987   0.000000
    5       17.232113   0.000000
    6       21.227635   0.000000
    7       26.075352   0.000000
    8       26.582861   0.000000
 
 -0.4285714E+00 -0.2775558E-16  0.1428571E+00  0.5830904E-02
    1      -14.806414   1.000000
    2        3.602774   0.000000
    3        9.305615   0.000000
    4       16.251239   0.000000
    5       17.052064   0.000000
    6       21.266242   0.000000
    7       24.517303   0.000000
    8       28.725092   0.000000
 
 -0.2857143E+00 -0.5551115E-16  0.1428571E+00  0.5830904E-02
    1      -15.038100   1.000000
    2        3.498042   0.000000
    3       10.894768   0.000000
    4       16.295995   0.000000
    5       18.773985   0.000000
    6       22.187919   0.000000
    7       24.154071   0.000000
    8       27.252287   0.000000
 
 -0.1428571E+00 -0.1387779E-16  0.1428571E+00  0.5830904E-02
    1      -15.405553   1.000000
    2        3.506456   0.000000
    3       14.252611   0.000000
    4       17.245424   0.000000
    5       20.648812   0.000000
    6       24.378688   0.000000
    7       24.422224   0.000000
    8       25.211918   0.000000
 
  0.0000000E+00  0.1428571E+00  0.1428571E+00  0.5830904E-02
    1      -15.591695   1.000000
    2        3.613383   0.000000
    3       17.693949   0.000000
    4       17.693990   0.000000
    5       20.044899   0.000000
    6       21.713622   0.000000
    7       23.312416   0.000000
    8       28.198166   0.000000
 
  0.1428571E+00  0.1428571E+00  0.1428571E+00  0.5830904E-02
    1      -15.634587   1.000000
    2        3.630569   0.000000
    3       16.929133   0.000000
    4       19.750666   0.000000
    5       19.750666   0.000000
    6       24.050681   0.000000
    7       25.595406   0.000000
    8       25.595406   0.000000
 
  0.2857143E+00  0.1428571E+00  0.1428571E+00  0.5830904E-02
    1      -15.405553   1.000000
    2        3.506451   0.000000
    3       14.252613   0.000000
    4       17.245465   0.000000
    5       20.648796   0.000000
    6       24.378744   0.000000
    7       24.422245   0.000000
    8       25.211830   0.000000
 
  0.4285714E+00  0.1428571E+00  0.1428571E+00  0.5830904E-02
    1      -15.038100   1.000000
    2        3.498038   0.000000
    3       10.894759   0.000000
    4       16.296055   0.000000
    5       18.773955   0.000000
    6       22.187946   0.000000
    7       24.154006   0.000000
    8       27.252335   0.000000
 
 -0.4285714E+00  0.1428571E+00  0.1428571E+00  0.5830904E-02
    1      -14.806415   1.000000
    2        3.602773   0.000000
    3        9.305608   0.000000
    4       16.251294   0.000000
    5       17.052026   0.000000
    6       21.266264   0.000000
    7       24.517245   0.000000
    8       28.725140   0.000000
 
 -0.2857143E+00  0.1428571E+00  0.1428571E+00  0.5830904E-02
    1      -14.930629   1.000000
    2        3.536263   0.000000
    3       10.372520   0.000000
    4       16.233945   0.000000
    5       17.232157   0.000000
    6       21.227653   0.000000
    7       26.075299   0.000000
    8       26.582852   0.000000
 
 -0.1428571E+00  0.1428571E+00  0.1428571E+00  0.5830904E-02
    1      -15.296300   1.000000
    2        3.502686   0.000000
    3       13.695801   0.000000
    4       16.447628   0.000000
    5       19.382223   0.000000
    6       21.116509   0.000000
    7       23.050335   0.000000
    8       28.544473   0.000000
 
  0.0000000E+00  0.2857143E+00  0.1428571E+00  0.5830904E-02
    1      -15.296300   1.000000
    2        3.502684   0.000000
    3       13.695792   0.000000
    4       16.447671   0.000000
    5       19.382188   0.000000
    6       21.116501   0.000000
    7       23.050346   0.000000
    8       28.544516   0.000000
 
  0.1428571E+00  0.2857143E+00  0.1428571E+00  0.5830904E-02
    1      -15.405553   1.000000
    2        3.506451   0.000000
    3       14.252614   0.000000
    4       17.245465   0.000000
    5       20.648796   0.000000
    6       24.378744   0.000000
    7       24.422245   0.000000
    8       25.211830   0.000000
 
  0.2857143E+00  0.2857143E+00  0.1428571E+00  0.5830904E-02
    1      -15.296300   1.000000
    2        3.502678   0.000000
    3       13.695828   0.000000
    4       16.447630   0.000000
    5       19.382217   0.000000
    6       21.116524   0.000000
    7       23.050310   0.000000
    8       28.544457   0.000000
 
  0.4285714E+00  0.2857143E+00  0.1428571E+00  0.5830904E-02
    1      -14.987811   1.000000
    2        3.761098   0.000000
    3       11.307548   0.000000
    4       14.094214   0.000000
    5       18.130169   0.000000
    6       22.041555   0.000000
    7       22.756710   0.000000
    8       28.767301   0.000000
 
 -0.4285714E+00  0.2857143E+00  0.1428571E+00  0.5830904E-02
    1      -14.748556   1.000000
    2        4.411590   0.000000
    3        8.718724   0.000000
    4       12.626211   0.000000
    5       17.828697   0.000000
    6       21.696388   0.000000
    7       25.841233   0.000000
    8       28.925399   0.000000
 
 -0.2857143E+00  0.2857143E+00  0.1428571E+00  0.5830904E-02
    1      -14.748556   1.000000
    2        4.411595   0.000000
    3        8.718725   0.000000
    4       12.626198   0.000000
    5       17.828701   0.000000
    6       21.696391   0.000000
    7       25.841213   0.000000
    8       28.925421   0.000000
 
 -0.1428571E+00  0.2857143E+00  0.1428571E+00  0.5830904E-02
    1      -14.987811   1.000000
    2        3.761107   0.000000
    3       11.307546   0.000000
    4       14.094187   0.000000
    5       18.130176   0.000000
    6       22.041558   0.000000
    7       22.756698   0.000000
    8       28.767336   0.000000
 
  0.0000000E+00  0.4285714E+00  0.1428571E+00  0.5830904E-02
    1      -14.930629   1.000000
    2        3.536260   0.000000
    3       10.372520   0.000000
    4       16.233987   0.000000
    5       17.232113   0.000000
    6       21.227635   0.000000
    7       26.075352   0.000000
    8       26.582861   0.000000
 
  0.1428571E+00  0.4285714E+00  0.1428571E+00  0.5830904E-02
    1      -15.038100   1.000000
    2        3.498039   0.000000
    3       10.894759   0.000000
    4       16.296055   0.000000
    5       18.773955   0.000000
    6       22.187946   0.000000
    7       24.154006   0.000000
    8       27.252335   0.000000
 
  0.2857143E+00  0.4285714E+00  0.1428571E+00  0.5830904E-02
    1      -14.987811   1.000000
    2        3.761098   0.000000
    3       11.307548   0.000000
    4       14.094213   0.000000
    5       18.130169   0.000000
    6       22.041555   0.000000
    7       22.756710   0.000000
    8       28.767301   0.000000
 
  0.4285714E+00  0.4285714E+00  0.1428571E+00  0.5830904E-02
    1      -14.821847   1.000000
    2        4.171748   0.000000
    3       10.848340   0.000000
    4       13.992410   0.000000
    5       14.293529   0.000000
    6       19.487641   0.000000
    7       25.220230   0.000000
    8       31.687469   0.000000
 
 -0.4285714E+00  0.4285714E+00  0.1428571E+00  0.5830904E-02
    1      -14.660374   1.000000
    2        5.136169   0.000000
    3        9.706947   0.000000
    4        9.817932   0.000000
    5       16.277603   0.000000
    6       20.575056   0.000000
    7       25.146878   0.000000
    8       32.245821   0.000000
 
 -0.2857143E+00  0.4285714E+00  0.1428571E+00  0.5830904E-02
    1      -14.629198   1.000000
    2        6.426170   0.000000
    3        6.848942   0.000000
    4       10.156746   0.000000
    5       17.444222   0.000000
    6       23.014784   0.000000
    7       25.851088   0.000000
    8       28.000954   0.000000
 
 -0.1428571E+00  0.4285714E+00  0.1428571E+00  0.5830904E-02
    1      -14.748556   1.000000
    2        4.411593   0.000000
    3        8.718737   0.000000
    4       12.626185   0.000000
    5       17.828695   0.000000
    6       21.696398   0.000000
    7       25.841185   0.000000
    8       28.925464   0.000000
 
  0.0000000E+00 -0.4285714E+00  0.1428571E+00  0.5830904E-02
    1      -14.806414   1.000000
    2        3.602774   0.000000
    3        9.305615   0.000000
    4       16.251239   0.000000
    5       17.052064   0.000000
    6       21.266242   0.000000
    7       24.517304   0.000000
    8       28.725092   0.000000
 
  0.1428571E+00 -0.4285714E+00  0.1428571E+00  0.5830904E-02
    1      -14.806415   1.000000
    2        3.602774   0.000000
    3        9.305608   0.000000
    4       16.251294   0.000000
    5       17.052026   0.000000
    6       21.266265   0.000000
    7       24.517245   0.000000
    8       28.725140   0.000000
 
  0.2857143E+00 -0.4285714E+00  0.1428571E+00  0.5830904E-02
    1      -14.748556   1.000000
    2        4.411590   0.000000
    3        8.718724   0.000000
    4       12.626211   0.000000
    5       17.828696   0.000000
    6       21.696388   0.000000
    7       25.841233   0.000000
    8       28.925399   0.000000
 
  0.4285714E+00 -0.4285714E+00  0.1428571E+00  0.5830904E-02
    1      -14.660374   1.000000
    2        5.136169   0.000000
    3        9.706947   0.000000
    4        9.817932   0.000000
    5       16.277603   0.000000
    6       20.575056   0.000000
    7       25.146878   0.000000
    8       32.245821   0.000000
 
 -0.4285714E+00 -0.4285714E+00  0.1428571E+00  0.5830904E-02
    1      -14.617494   1.000000
    2        5.351931   0.000000
    3        8.582790   0.000000
    4       12.373877   0.000000
    5       13.564424   0.000000
    6       18.774343   0.000000
    7       26.994815   0.000000
    8       35.216148   0.000000
 
 -0.2857143E+00 -0.4285714E+00  0.1428571E+00  0.5830904E-02
    1      -14.660374   1.000000
    2        5.136177   0.000000
    3        9.706935   0.000000
    4        9.817932   0.000000
    5       16.277604   0.000000
    6       20.575057   0.000000
    7       25.146870   0.000000
    8       32.245819   0.000000
 
 -0.1428571E+00 -0.4285714E+00  0.1428571E+00  0.5830904E-02
    1      -14.748556   1.000000
    2        4.411593   0.000000
    3        8.718737   0.000000
    4       12.626185   0.000000
    5       17.828695   0.000000
    6       21.696398   0.000000
    7       25.841185   0.000000
    8       28.925464   0.000000
 
  0.0000000E+00 -0.2857143E+00  0.1428571E+00  0.5830904E-02
    1      -15.038100   1.000000
    2        3.498043   0.000000
    3       10.894768   0.000000
    4       16.295995   0.000000
    5       18.773985   0.000000
    6       22.187919   0.000000
    7       24.154071   0.000000
    8       27.252287   0.000000
 
  0.1428571E+00 -0.2857143E+00  0.1428571E+00  0.5830904E-02
    1      -14.930629   1.000000
    2        3.536263   0.000000
    3       10.372519   0.000000
    4       16.233945   0.000000
    5       17.232157   0.000000
    6       21.227653   0.000000
    7       26.075299   0.000000
    8       26.582852   0.000000
 
  0.2857143E+00 -0.2857143E+00  0.1428571E+00  0.5830904E-02
    1      -14.748556   1.000000
    2        4.411595   0.000000
    3        8.718725   0.000000
    4       12.626198   0.000000
    5       17.828700   0.000000
    6       21.696391   0.000000
    7       25.841213   0.000000
    8       28.925421   0.000000
 
  0.4285714E+00 -0.2857143E+00  0.1428571E+00  0.5830904E-02
    1      -14.629198   1.000000
    2        6.426170   0.000000
    3        6.848942   0.000000
    4       10.156746   0.000000
    5       17.444221   0.000000
    6       23.014784   0.000000
    7       25.851088   0.000000
    8       28.000954   0.000000
 
 -0.4285714E+00 -0.2857143E+00  0.1428571E+00  0.5830904E-02
    1      -14.660374   1.000000
    2        5.136177   0.000000
    3        9.706935   0.000000
    4        9.817932   0.000000
    5       16.277604   0.000000
    6       20.575058   0.000000
    7       25.146870   0.000000
    8       32.245819   0.000000
 
 -0.2857143E+00 -0.2857143E+00  0.1428571E+00  0.5830904E-02
    1      -14.821847   1.000000
    2        4.171759   0.000000
    3       10.848313   0.000000
    4       13.992422   0.000000
    5       14.293529   0.000000
    6       19.487638   0.000000
    7       25.220228   0.000000
    8       31.687478   0.000000
 
 -0.1428571E+00 -0.2857143E+00  0.1428571E+00  0.5830904E-02
    1      -14.987811   1.000000
    2        3.761107   0.000000
    3       11.307546   0.000000
    4       14.094187   0.000000
    5       18.130176   0.000000
    6       22.041558   0.000000
    7       22.756698   0.000000
    8       28.767335   0.000000
 
  0.0000000E+00 -0.1428571E+00  0.1428571E+00  0.5830904E-02
    1      -15.405553   1.000000
    2        3.506456   0.000000
    3       14.252611   0.000000
    4       17.245424   0.000000
    5       20.648812   0.000000
    6       24.378688   0.000000
    7       24.422224   0.000000
    8       25.211918   0.000000
 
  0.1428571E+00 -0.1428571E+00  0.1428571E+00  0.5830904E-02
    1      -15.296300   1.000000
    2        3.502687   0.000000
    3       13.695801   0.000000
    4       16.447628   0.000000
    5       19.382223   0.000000
    6       21.116509   0.000000
    7       23.050335   0.000000
    8       28.544473   0.000000
 
  0.2857143E+00 -0.1428571E+00  0.1428571E+00  0.5830904E-02
    1      -14.987811   1.000000
    2        3.761107   0.000000
    3       11.307546   0.000000
    4       14.094187   0.000000
    5       18.130176   0.000000
    6       22.041558   0.000000
    7       22.756698   0.000000
    8       28.767336   0.000000
 
  0.4285714E+00 -0.1428571E+00  0.1428571E+00  0.5830904E-02
    1      -14.748556   1.000000
    2        4.411593   0.000000
    3        8.718737   0.000000
    4       12.626185   0.000000
    5       17.828695   0.000000
    6       21.696399   0.000000
    7       25.841185   0.000000
    8       28.925464   0.000000
 
 -0.4285714E+00 -0.1428571E+00  0.1428571E+00  0.5830904E-02
    1      -14.748556   1.000000
    2        4.411593   0.000000
    3        8.718737   0.000000
    4       12.626185   0.000000
    5       17.828695   0.000000
    6       21.696399   0.000000
    7       25.841185   0.000000
    8       28.925464   0.000000
 
 -0.2857143E+00 -0.1428571E+00  0.1428571E+00  0.5830904E-02
    1      -14.987811   1.000000
    2        3.761107   0.000000
    3       11.307546   0.000000
    4       14.094187   0.000000
    5       18.130176   0.000000
    6       22.041558   0.000000
    7       22.756698   0.000000
    8       28.767335   0.000000
 
 -0.1428571E+00 -0.1428571E+00  0.1428571E+00  0.5830904E-02
    1      -15.296300   1.000000
    2        3.502686   0.000000
    3       13.695801   0.000000
    4       16.447628   0.000000
    5       19.382223   0.000000
    6       21.116509   0.000000
    7       23.050335   0.000000
    8       28.544473   0.000000
 
  0.0000000E+00  0.0000000E+00  0.2857143E+00  0.5830904E-02
    1      -15.264351   1.000000
    2        3.330598   0.000000
    3       12.724281   0.000000
    4       18.818721   0.000000
    5       18.818767   0.000000
    6       24.107925   0.000000
    7       24.107999   0.000000
    8       24.337826   0.000000
 
  0.1428571E+00  0.1387779E-16  0.2857143E+00  0.5830904E-02
    1      -15.296300   1.000000
    2        3.502684   0.000000
    3       13.695792   0.000000
    4       16.447671   0.000000
    5       19.382188   0.000000
    6       21.116501   0.000000
    7       23.050346   0.000000
    8       28.544516   0.000000
 
  0.2857143E+00  0.5551115E-16  0.2857143E+00  0.5830904E-02
    1      -15.097874   1.000000
    2        3.717037   0.000000
    3       14.843668   0.000000
    4       14.843711   0.000000
    5       15.784967   0.000000
    6       17.029274   0.000000
    7       24.633354   0.000000
    8       33.422623   0.000000
 
  0.4285714E+00  0.2775558E-16  0.2857143E+00  0.5830904E-02
    1      -14.821847   1.000000
    2        4.171755   0.000000
    3       10.848328   0.000000
    4       13.992366   0.000000
    5       14.293573   0.000000
    6       19.487636   0.000000
    7       25.220227   0.000000
    8       31.687530   0.000000
 
 -0.4285714E+00 -0.2775558E-16  0.2857143E+00  0.5830904E-02
    1      -14.671409   1.000000
    2        5.020397   0.000000
    3        7.732850   0.000000
    4       13.480180   0.000000
    5       14.825843   0.000000
    6       22.746714   0.000000
    7       26.292030   0.000000
    8       29.648681   0.000000
 
 -0.2857143E+00 -0.5551115E-16  0.2857143E+00  0.5830904E-02
    1      -14.780174   1.000000
    2        4.389690   0.000000
    3        8.344557   0.000000
    4       14.312364   0.000000
    5       16.409325   0.000000
    6       22.687330   0.000000
    7       27.952883   0.000000
    8       28.869635   0.000000
 
 -0.1428571E+00 -0.1387779E-16  0.2857143E+00  0.5830904E-02
    1      -15.038100   1.000000
    2        3.498042   0.000000
    3       10.894768   0.000000
    4       16.295995   0.000000
    5       18.773985   0.000000
    6       22.187919   0.000000
    7       24.154070   0.000000
    8       27.252287   0.000000
 
  0.0000000E+00  0.1428571E+00  0.2857143E+00  0.5830904E-02
    1      -15.296300   1.000000
    2        3.502684   0.000000
    3       13.695792   0.000000
    4       16.447671   0.000000
    5       19.382188   0.000000
    6       21.116501   0.000000
    7       23.050346   0.000000
    8       28.544516   0.000000
 
  0.1428571E+00  0.1428571E+00  0.2857143E+00  0.5830904E-02
    1      -15.405553   1.000000
    2        3.506451   0.000000
    3       14.252613   0.000000
    4       17.245465   0.000000
    5       20.648796   0.000000
    6       24.378744   0.000000
    7       24.422245   0.000000
    8       25.211830   0.000000
 
  0.2857143E+00  0.1428571E+00  0.2857143E+00  0.5830904E-02
    1      -15.296300   1.000000
    2        3.502678   0.000000
    3       13.695828   0.000000
    4       16.447630   0.000000
    5       19.382217   0.000000
    6       21.116524   0.000000
    7       23.050311   0.000000
    8       28.544457   0.000000
 
  0.4285714E+00  0.1428571E+00  0.2857143E+00  0.5830904E-02
    1      -14.987811   1.000000
    2        3.761098   0.000000
    3       11.307548   0.000000
    4       14.094214   0.000000
    5       18.130169   0.000000
    6       22.041555   0.000000
    7       22.756710   0.000000
    8       28.767301   0.000000
 
 -0.4285714E+00  0.1428571E+00  0.2857143E+00  0.5830904E-02
    1      -14.748556   1.000000
    2        4.411590   0.000000
    3        8.718724   0.000000
    4       12.626211   0.000000
    5       17.828696   0.000000
    6       21.696388   0.000000
    7       25.841233   0.000000
    8       28.925399   0.000000
 
 -0.2857143E+00  0.1428571E+00  0.2857143E+00  0.5830904E-02
    1      -14.748556   1.000000
    2        4.411595   0.000000
    3        8.718725   0.000000
    4       12.626198   0.000000
    5       17.828700   0.000000
    6       21.696391   0.000000
    7       25.841213   0.000000
    8       28.925420   0.000000
 
 -0.1428571E+00  0.1428571E+00  0.2857143E+00  0.5830904E-02
    1      -14.987811   1.000000
    2        3.761107   0.000000
    3       11.307546   0.000000
    4       14.094187   0.000000
    5       18.130176   0.000000
    6       22.041558   0.000000
    7       22.756698   0.000000
    8       28.767335   0.000000
 
  0.0000000E+00  0.2857143E+00  0.2857143E+00  0.5830904E-02
    1      -15.097874   1.000000
    2        3.717037   0.000000
    3       14.843668   0.000000
    4       14.843711   0.000000
    5       15.784967   0.000000
    6       17.029274   0.000000
    7       24.633354   0.000000
    8       33.422620   0.000000
 
  0.1428571E+00  0.2857143E+00  0.2857143E+00  0.5830904E-02
    1      -15.296300   1.000000
    2        3.502678   0.000000
    3       13.695828   0.000000
    4       16.447630   0.000000
    5       19.382217   0.000000
    6       21.116524   0.000000
    7       23.050310   0.000000
    8       28.544457   0.000000
 
  0.2857143E+00  0.2857143E+00  0.2857143E+00  0.5830904E-02
    1      -15.264350   1.000000
    2        3.330584   0.000000
    3       12.724327   0.000000
    4       18.818729   0.000000
    5       18.818730   0.000000
    6       24.107905   0.000000
    7       24.107906   0.000000
    8       24.337977   0.000000
 