 vasp.5.4.4.18Apr17-6-g9f103f2a35 (build Nov 03 2018 10:20:46) complex          
  
 executed on             LinuxIFC date 2018.12.14  08:01:25
 running on   32 total cores
 distrk:  each k-point on   16 cores,    2 groups
 distr:  one band on NCORES_PER_BAND=   4 cores,    4 groups


--------------------------------------------------------------------------------------------------------


 INCAR:
 POTCAR:    PAW_PBE He_GW 13May2007               

 ----------------------------------------------------------------------------- 
|                                                                             |
|           W    W    AA    RRRRR   N    N  II  N    N   GGGG   !!!           |
|           W    W   A  A   R    R  NN   N  II  NN   N  G    G  !!!           |
|           W    W  A    A  R    R  N N  N  II  N N  N  G       !!!           |
|           W WW W  AAAAAA  RRRRR   N  N N  II  N  N N  G  GGG   !            |
|           WW  WW  A    A  R   R   N   NN  II  N   NN  G    G                |
|           W    W  A    A  R    R  N    N  II  N    N   GGGG   !!!           |
|                                                                             |
|      You have enabled k-point parallelism (KPAR>1).                         |
|      This developmental code was originally  written by Paul Kent at ORNL,  |
|      and carefully double checked in Vienna.                                |
|      GW as well as linear response parallelism added by Martijn Marsman     |
|      and Georg Kresse.                                                      |
|      Carefully verify results versus KPAR=1.                                |
|      Report problems to Paul Kent and Vienna.                               |
|                                                                             |
 ----------------------------------------------------------------------------- 

 POTCAR:    PAW_PBE He_GW 13May2007               
   VRHFIN =He: 1s                                                               
   LEXCH  = PE                                                                  
   EATOM  =    78.7251 eV,    5.7861 Ry                                         
                                                                                
   TITEL  = PAW_PBE He_GW 13May2007                                             
   LULTRA =        F    use ultrasoft PP ?                                      
   IUNSCR =        0    unscreen: 0-lin 1-nonlin 2-no                           
   RPACOR =    0.000    partial core radius                                     
   POMASS =    4.000; ZVAL   =    2.000    mass and valenz                      
   RCORE  =    1.200    outmost cutoff radius                                   
   RWIGS  =    1.200; RWIGS  =    0.635    wigner-seitz radius (au A)           
   ENMAX  =  405.780; ENMIN  =  304.335 eV                                      
   RCLOC  =    0.703    cutoff for local pot                                    
   LCOR   =        T    correct aug charges                                     
   LPAW   =        T    paw PP                                                  
   EAUG   = 1514.192                                                            
   RMAX   =    1.224    core radius for proj-oper                               
   RAUG   =    1.200    factor for augmentation sphere                          
   RDEP   =    1.261    radius for radial grids                                 
   RDEPT  =    1.051    core radius for aug-charge                              
                                                                                
   Atomic configuration                                                         
    3 entries                                                                   
     n  l   j            E        occ.                                          
     1  0  0.50       -15.7639   2.0000                                         
     2  1  0.50        -2.8912   0.0000                                         
     3  2  1.50        -2.8912   0.0000                                         
   Description                                                                  
     l       E           TYP  RCUT    TYP  RCUT                                 
     0    -15.7638891     23  1.200                                             
     0     27.2116520     23  1.200                                             
     1     -6.8029130     23  1.200                                             
     1     81.6349560     23  1.200                                             
     1    476.2039100     23  1.200                                             
     2     -6.8029130     23  1.200                                             
  local pseudopotential read in
  kinetic energy density of atom read in
  atomic valenz-charges read in
  non local Contribution for L=           0  read in
    real space projection operators read in
  non local Contribution for L=           0  read in
    real space projection operators read in
  non local Contribution for L=           1  read in
    real space projection operators read in
  non local Contribution for L=           1  read in
    real space projection operators read in
  non local Contribution for L=           1  read in
    real space projection operators read in
  non local Contribution for L=           2  read in
    real space projection operators read in
    PAW grid and wavefunctions read in
 
   number of l-projection  operators is LMAX  =           6
   number of lm-projection operators is LMMAX =          16
 
  PAW_PBE He_GW 13May2007               :
 energy of atom  1       EATOM=  -78.7251
 kinetic energy error for atom=    0.3139 (will be added to EATOM!!)
 
 
 POSCAR: He_FCC                                  
  positions in direct lattice
  velocities in cartesian coordinates
 exchange correlation table for  LEXCH =        8
   RHO(1)=    0.500       N(1)  =     2000
   RHO(2)=  100.500       N(2)  =     4000
 


--------------------------------------------------------------------------------------------------------


 ion  position               nearest neighbor table
   1  0.000  0.000  0.000-
 

IMPORTANT INFORMATION: All symmetrisations will be switched off!
NOSYMM: (Re-)initialisation of all symmetry stuff for point group C_1.

 
 
 KPOINTS: k-points                                

Automatic generation of k-mesh.
Space group operators:
 irot       det(A)        alpha          n_x          n_y          n_z        tau_x        tau_y        tau_z
    1     1.000000     0.000000     1.000000     0.000000     0.000000     0.000000     0.000000     0.000000
 
 Subroutine IBZKPT returns following result:
 ===========================================
 
 Found    172 irreducible k-points:
 
 Following reciprocal coordinates:
            Coordinates               Weight
  0.000000  0.000000  0.000000      1.000000
  0.142857  0.000000  0.000000      2.000000
  0.285714  0.000000  0.000000      2.000000
  0.428571  0.000000  0.000000      2.000000
  0.000000  0.142857  0.000000      2.000000
  0.142857  0.142857  0.000000      2.000000
  0.285714  0.142857  0.000000      2.000000
  0.428571  0.142857  0.000000      2.000000
 -0.428571  0.142857  0.000000      2.000000
 -0.285714  0.142857 -0.000000      2.000000
 -0.142857  0.142857  0.000000      2.000000
  0.000000  0.285714  0.000000      2.000000
  0.142857  0.285714  0.000000      2.000000
  0.285714  0.285714  0.000000      2.000000
  0.428571  0.285714 -0.000000      2.000000
 -0.428571  0.285714 -0.000000      2.000000
 -0.285714  0.285714 -0.000000      2.000000
 -0.142857  0.285714 -0.000000      2.000000
  0.000000  0.428571  0.000000      2.000000
  0.142857  0.428571  0.000000      2.000000
  0.285714  0.428571  0.000000      2.000000
  0.428571  0.428571  0.000000      2.000000
 -0.428571  0.428571  0.000000      2.000000
 -0.285714  0.428571 -0.000000      2.000000
 -0.142857  0.428571 -0.000000      2.000000
  0.000000  0.000000  0.142857      2.000000
  0.142857  0.000000  0.142857      2.000000
  0.285714  0.000000  0.142857      2.000000
  0.428571  0.000000  0.142857      2.000000
 -0.428571 -0.000000  0.142857      2.000000
 -0.285714 -0.000000  0.142857      2.000000
 -0.142857 -0.000000  0.142857      2.000000
  0.000000  0.142857  0.142857      2.000000
  0.142857  0.142857  0.142857      2.000000
  0.285714  0.142857  0.142857      2.000000
  0.428571  0.142857  0.142857      2.000000
 -0.428571  0.142857  0.142857      2.000000
 -0.285714  0.142857  0.142857      2.000000
 -0.142857  0.142857  0.142857      2.000000
  0.000000  0.285714  0.142857      2.000000
  0.142857  0.285714  0.142857      2.000000
  0.285714  0.285714  0.142857      2.000000
  0.428571  0.285714  0.142857      2.000000
 -0.428571  0.285714  0.142857      2.000000
 -0.285714  0.285714  0.142857      2.000000
 -0.142857  0.285714  0.142857      2.000000
  0.000000  0.428571  0.142857      2.000000
  0.142857  0.428571  0.142857      2.000000
  0.285714  0.428571  0.142857      2.000000
  0.428571  0.428571  0.142857      2.000000
 -0.428571  0.428571  0.142857      2.000000
 -0.285714  0.428571  0.142857      2.000000
 -0.142857  0.428571  0.142857      2.000000
  0.000000 -0.428571  0.142857      2.000000
  0.142857 -0.428571  0.142857      2.000000
  0.285714 -0.428571  0.142857      2.000000
  0.428571 -0.428571  0.142857      2.000000
 -0.428571 -0.428571  0.142857      2.000000
 -0.285714 -0.428571  0.142857      2.000000
 -0.142857 -0.428571  0.142857      2.000000
  0.000000 -0.285714  0.142857      2.000000
  0.142857 -0.285714  0.142857      2.000000
  0.285714 -0.285714  0.142857      2.000000
  0.428571 -0.285714  0.142857      2.000000
 -0.428571 -0.285714  0.142857      2.000000
 -0.285714 -0.285714  0.142857      2.000000
 -0.142857 -0.285714  0.142857      2.000000
  0.000000 -0.142857  0.142857      2.000000
  0.142857 -0.142857  0.142857      2.000000
  0.285714 -0.142857  0.142857      2.000000
  0.428571 -0.142857  0.142857      2.000000
 -0.428571 -0.142857  0.142857      2.000000
 -0.285714 -0.142857  0.142857      2.000000
 -0.142857 -0.142857  0.142857      2.000000
  0.000000  0.000000  0.285714      2.000000
  0.142857  0.000000  0.285714      2.000000
  0.285714  0.000000  0.285714      2.000000
  0.428571  0.000000  0.285714      2.000000
 -0.428571 -0.000000  0.285714      2.000000
 -0.285714 -0.000000  0.285714      2.000000
 -0.142857 -0.000000  0.285714      2.000000
  0.000000  0.142857  0.285714      2.000000
  0.142857  0.142857  0.285714      2.000000
  0.285714  0.142857  0.285714      2.000000
  0.428571  0.142857  0.285714      2.000000
 -0.428571  0.142857  0.285714      2.000000
 -0.285714  0.142857  0.285714      2.000000
 -0.142857  0.142857  0.285714      2.000000
  0.000000  0.285714  0.285714      2.000000
  0.142857  0.285714  0.285714      2.000000
  0.285714  0.285714  0.285714      2.000000
  0.428571  0.285714  0.285714      2.000000
 -0.428571  0.285714  0.285714      2.000000
 -0.285714  0.285714  0.285714      2.000000
 -0.142857  0.285714  0.285714      2.000000
  0.000000  0.428571  0.285714      2.000000
  0.142857  0.428571  0.285714      2.000000
  0.285714  0.428571  0.285714      2.000000
  0.428571  0.428571  0.285714      2.000000
 -0.428571  0.428571  0.285714      2.000000
 -0.285714  0.428571  0.285714      2.000000
 -0.142857  0.428571  0.285714      2.000000
  0.000000 -0.428571  0.285714      2.000000
  0.142857 -0.428571  0.285714      2.000000
  0.285714 -0.428571  0.285714      2.000000
  0.428571 -0.428571  0.285714      2.000000
 -0.428571 -0.428571  0.285714      2.000000
 -0.285714 -0.428571  0.285714      2.000000
 -0.142857 -0.428571  0.285714      2.000000
  0.000000 -0.285714  0.285714      2.000000
  0.142857 -0.285714  0.285714      2.000000
  0.285714 -0.285714  0.285714      2.000000
  0.428571 -0.285714  0.285714      2.000000
 -0.428571 -0.285714  0.285714      2.000000
 -0.285714 -0.285714  0.285714      2.000000
 -0.142857 -0.285714  0.285714      2.000000
  0.000000 -0.142857  0.285714      2.000000
  0.142857 -0.142857  0.285714      2.000000
  0.285714 -0.142857  0.285714      2.000000
  0.428571 -0.142857  0.285714      2.000000
 -0.428571 -0.142857  0.285714      2.000000
 -0.285714 -0.142857  0.285714      2.000000
 -0.142857 -0.142857  0.285714      2.000000
  0.000000  0.000000  0.428571      2.000000
  0.142857  0.000000  0.428571      2.000000
  0.285714  0.000000  0.428571      2.000000
  0.428571  0.000000  0.428571      2.000000
 -0.428571 -0.000000  0.428571      2.000000
 -0.285714 -0.000000  0.428571      2.000000
 -0.142857 -0.000000  0.428571      2.000000
  0.000000  0.142857  0.428571      2.000000
  0.142857  0.142857  0.428571      2.000000
  0.285714  0.142857  0.428571      2.000000
  0.428571  0.142857  0.428571      2.000000
 -0.428571  0.142857  0.428571      2.000000
 -0.285714  0.142857  0.428571      2.000000
 -0.142857  0.142857  0.428571      2.000000
  0.000000  0.285714  0.428571      2.000000
  0.142857  0.285714  0.428571      2.000000
  0.285714  0.285714  0.428571      2.000000
  0.428571  0.285714  0.428571      2.000000
 -0.428571  0.285714  0.428571      2.000000
 -0.285714  0.285714  0.428571      2.000000
 -0.142857  0.285714  0.428571      2.000000
  0.000000  0.428571  0.428571      2.000000
  0.142857  0.428571  0.428571      2.000000
  0.285714  0.428571  0.428571      2.000000
  0.428571  0.428571  0.428571      2.000000
 -0.428571  0.428571  0.428571      2.000000
 -0.285714  0.428571  0.428571      2.000000
 -0.142857  0.428571  0.428571      2.000000
  0.000000 -0.428571  0.428571      2.000000
  0.142857 -0.428571  0.428571      2.000000
  0.285714 -0.428571  0.428571      2.000000
  0.428571 -0.428571  0.428571      2.000000
 -0.428571 -0.428571  0.428571      2.000000
 -0.285714 -0.428571  0.428571      2.000000
 -0.142857 -0.428571  0.428571      2.000000
  0.000000 -0.285714  0.428571      2.000000
  0.142857 -0.285714  0.428571      2.000000
  0.285714 -0.285714  0.428571      2.000000
  0.428571 -0.285714  0.428571      2.000000
 -0.428571 -0.285714  0.428571      2.000000
 -0.285714 -0.285714  0.428571      2.000000
 -0.142857 -0.285714  0.428571      2.000000
  0.000000 -0.142857  0.428571      2.000000
  0.142857 -0.142857  0.428571      2.000000
  0.285714 -0.142857  0.428571      2.000000
  0.428571 -0.142857  0.428571      2.000000
 -0.428571 -0.142857  0.428571      2.000000
 -0.285714 -0.142857  0.428571      2.000000
 -0.142857 -0.142857  0.428571      2.000000
 
 Following cartesian coordinates:
            Coordinates               Weight
  0.000000  0.000000  0.000000      1.000000
  0.050211 -0.028990 -0.020499      2.000000
  0.100423 -0.057979 -0.040997      2.000000
  0.150634 -0.086969 -0.061496      2.000000
  0.000000  0.057979 -0.020499      2.000000
  0.050211  0.028990 -0.040997      2.000000
  0.100423  0.000000 -0.061496      2.000000
  0.150634 -0.028990 -0.081995      2.000000
 -0.150634  0.144948  0.040997      2.000000
 -0.100423  0.115958  0.020499      2.000000
 -0.050211  0.086969 -0.000000      2.000000
  0.000000  0.115958 -0.040997      2.000000
  0.050211  0.086969 -0.061496      2.000000
  0.100423  0.057979 -0.081995      2.000000
  0.150634  0.028990 -0.102494      2.000000
 -0.150634  0.202927  0.020499      2.000000
 -0.100423  0.173937 -0.000000      2.000000
 -0.050211  0.144948 -0.020499      2.000000
  0.000000  0.173937 -0.061496      2.000000
  0.050211  0.144948 -0.081995      2.000000
  0.100423  0.115958 -0.102494      2.000000
  0.150634  0.086969 -0.122992      2.000000
 -0.150634  0.260906 -0.000000      2.000000
 -0.100423  0.231916 -0.020499      2.000000
 -0.050211  0.202927 -0.040997      2.000000
  0.000000  0.000000  0.061496      2.000000
  0.050211 -0.028990  0.040997      2.000000
  0.100423 -0.057979  0.020499      2.000000
  0.150634 -0.086969  0.000000      2.000000
 -0.150634  0.086969  0.122992      2.000000
 -0.100423  0.057979  0.102494      2.000000
 -0.050211  0.028990  0.081995      2.000000
  0.000000  0.057979  0.040997      2.000000
  0.050211  0.028990  0.020499      2.000000
  0.100423  0.000000  0.000000      2.000000
  0.150634 -0.028990 -0.020499      2.000000
 -0.150634  0.144948  0.102494      2.000000
 -0.100423  0.115958  0.081995      2.000000
 -0.050211  0.086969  0.061496      2.000000
  0.000000  0.115958  0.020499      2.000000
  0.050211  0.086969 -0.000000      2.000000
  0.100423  0.057979 -0.020499      2.000000
  0.150634  0.028990 -0.040997      2.000000
 -0.150634  0.202927  0.081995      2.000000
 -0.100423  0.173937  0.061496      2.000000
 -0.050211  0.144948  0.040997      2.000000
  0.000000  0.173937 -0.000000      2.000000
  0.050211  0.144948 -0.020499      2.000000
  0.100423  0.115958 -0.040997      2.000000
  0.150634  0.086969 -0.061496      2.000000
 -0.150634  0.260906  0.061496      2.000000
 -0.100423  0.231916  0.040997      2.000000
 -0.050211  0.202927  0.020499      2.000000
  0.000000 -0.173937  0.122992      2.000000
  0.050211 -0.202927  0.102494      2.000000
  0.100423 -0.231916  0.081995      2.000000
  0.150634 -0.260906  0.061496      2.000000
 -0.150634 -0.086969  0.184488      2.000000
 -0.100423 -0.115958  0.163990      2.000000
 -0.050211 -0.144948  0.143491      2.000000
  0.000000 -0.115958  0.102494      2.000000
  0.050211 -0.144948  0.081995      2.000000
  0.100423 -0.173937  0.061496      2.000000
  0.150634 -0.202927  0.040997      2.000000
 -0.150634 -0.028990  0.163990      2.000000
 -0.100423 -0.057979  0.143491      2.000000
 -0.050211 -0.086969  0.122992      2.000000
  0.000000 -0.057979  0.081995      2.000000
  0.050211 -0.086969  0.061496      2.000000
  0.100423 -0.115958  0.040997      2.000000
  0.150634 -0.144948  0.020499      2.000000
 -0.150634  0.028990  0.143491      2.000000
 -0.100423  0.000000  0.122992      2.000000
 -0.050211 -0.028990  0.102494      2.000000
  0.000000  0.000000  0.122992      2.000000
  0.050211 -0.028990  0.102494      2.000000
  0.100423 -0.057979  0.081995      2.000000
  0.150634 -0.086969  0.061496      2.000000
 -0.150634  0.086969  0.184488      2.000000
 -0.100423  0.057979  0.163990      2.000000
 -0.050211  0.028990  0.143491      2.000000
  0.000000  0.057979  0.102494      2.000000
  0.050211  0.028990  0.081995      2.000000
  0.100423  0.000000  0.061496      2.000000
  0.150634 -0.028990  0.040997      2.000000
 -0.150634  0.144948  0.163990      2.000000
 -0.100423  0.115958  0.143491      2.000000
 -0.050211  0.086969  0.122992      2.000000
  0.000000  0.115958  0.081995      2.000000
  0.050211  0.086969  0.061496      2.000000
  0.100423  0.057979  0.040997      2.000000
  0.150634  0.028990  0.020499      2.000000
 -0.150634  0.202927  0.143491      2.000000
 -0.100423  0.173937  0.122992      2.000000
 -0.050211  0.144948  0.102494      2.000000
  0.000000  0.173937  0.061496      2.000000
  0.050211  0.144948  0.040997      2.000000
  0.100423  0.115958  0.020499      2.000000
  0.150634  0.086969 -0.000000      2.000000
 -0.150634  0.260906  0.122992      2.000000
 -0.100423  0.231916  0.102494      2.000000
 -0.050211  0.202927  0.081995      2.000000
  0.000000 -0.173937  0.184488      2.000000
  0.050211 -0.202927  0.163990      2.000000
  0.100423 -0.231916  0.143491      2.000000
  0.150634 -0.260906  0.122992      2.000000
 -0.150634 -0.086969  0.245985      2.000000
 -0.100423 -0.115958  0.225486      2.000000
 -0.050211 -0.144948  0.204987      2.000000
  0.000000 -0.115958  0.163990      2.000000
  0.050211 -0.144948  0.143491      2.000000
  0.100423 -0.173937  0.122992      2.000000
  0.150634 -0.202927  0.102494      2.000000
 -0.150634 -0.028990  0.225486      2.000000
 -0.100423 -0.057979  0.204987      2.000000
 -0.050211 -0.086969  0.184488      2.000000
  0.000000 -0.057979  0.143491      2.000000
  0.050211 -0.086969  0.122992      2.000000
  0.100423 -0.115958  0.102494      2.000000
  0.150634 -0.144948  0.081995      2.000000
 -0.150634  0.028990  0.204987      2.000000
 -0.100423  0.000000  0.184488      2.000000
 -0.050211 -0.028990  0.163990      2.000000
  0.000000  0.000000  0.184488      2.000000
  0.050211 -0.028990  0.163990      2.000000
  0.100423 -0.057979  0.143491      2.000000
  0.150634 -0.086969  0.122992      2.000000
 -0.150634  0.086969  0.245985      2.000000
 -0.100423  0.057979  0.225486      2.000000
 -0.050211  0.028990  0.204987      2.000000
  0.000000  0.057979  0.163990      2.000000
  0.050211  0.028990  0.143491      2.000000
  0.100423  0.000000  0.122992      2.000000
  0.150634 -0.028990  0.102494      2.000000
 -0.150634  0.144948  0.225486      2.000000
 -0.100423  0.115958  0.204987      2.000000
 -0.050211  0.086969  0.184488      2.000000
  0.000000  0.115958  0.143491      2.000000
  0.050211  0.086969  0.122992      2.000000
  0.100423  0.057979  0.102494      2.000000
  0.150634  0.028990  0.081995      2.000000
 -0.150634  0.202927  0.204987      2.000000
 -0.100423  0.173937  0.184488      2.000000
 -0.050211  0.144948  0.163990      2.000000
  0.000000  0.173937  0.122992      2.000000
  0.050211  0.144948  0.102494      2.000000
  0.100423  0.115958  0.081995      2.000000
  0.150634  0.086969  0.061496      2.000000
 -0.150634  0.260906  0.184488      2.000000
 -0.100423  0.231916  0.163990      2.000000
 -0.050211  0.202927  0.143491      2.000000
  0.000000 -0.173937  0.245985      2.000000
  0.050211 -0.202927  0.225486      2.000000
  0.100423 -0.231916  0.204987      2.000000
  0.150634 -0.260906  0.184488      2.000000
 -0.150634 -0.086969  0.307481      2.000000
 -0.100423 -0.115958  0.286982      2.000000
 -0.050211 -0.144948  0.266483      2.000000
  0.000000 -0.115958  0.225486      2.000000
  0.050211 -0.144948  0.204987      2.000000
  0.100423 -0.173937  0.184488      2.000000
  0.150634 -0.202927  0.163990      2.000000
 -0.150634 -0.028990  0.286982      2.000000
 -0.100423 -0.057979  0.266483      2.000000
 -0.050211 -0.086969  0.245985      2.000000
  0.000000 -0.057979  0.204987      2.000000
  0.050211 -0.086969  0.184488      2.000000
  0.100423 -0.115958  0.163990      2.000000
  0.150634 -0.144948  0.143491      2.000000
 -0.150634  0.028990  0.266483      2.000000
 -0.100423  0.000000  0.245985      2.000000
 -0.050211 -0.028990  0.225486      2.000000
 


--------------------------------------------------------------------------------------------------------




 Dimension of arrays:
   k-points           NKPTS =    172   k-points in BZ     NKDIM =    172   number of bands    NBANDS=      8
   number of dos      NEDOS =    301   number of ions     NIONS =      1
   non local maximal  LDIM  =      6   non local SUM 2l+1 LMDIM =     16
   total plane-waves  NPLWV =   4096
   max r-space proj   IRMAX =      1   max aug-charges    IRDMAX=  14265
   dimension x,y,z NGX =    16 NGY =   16 NGZ =   16
   dimension x,y,z NGXF=    32 NGYF=   32 NGZF=   32
   support grid    NGXF=    64 NGYF=   64 NGZF=   64
   ions per type =               1
   NGX,Y,Z   is equivalent  to a cutoff of   9.35,  9.35,  9.35 a.u.
   NGXF,Y,Z  is equivalent  to a cutoff of  18.70, 18.70, 18.70 a.u.

 SYSTEM =  Og_FCC                                  
 POSCAR =  He_FCC                                  

 Startparameter for this run:
   NWRITE =      2    write-flag & timer
   PREC   = accura    normal or accurate (medium, high low for compatibility)
   ISTART =      0    job   : 0-new  1-cont  2-samecut
   ICHARG =      2    charge: 1-file 2-atom 10-const
   ISPIN  =      1    spin polarized calculation?
   LNONCOLLINEAR =      F non collinear calculations
   LSORBIT =      F    spin-orbit coupling
   INIWAV =      1    electr: 0-lowe 1-rand  2-diag
   LASPH  =      F    aspherical Exc in radial PAW
   METAGGA=      F    non-selfconsistent MetaGGA calc.

 Electronic Relaxation 1
   ENCUT  =  300.0 eV  22.05 Ry    4.70 a.u.   4.02  4.02  4.02*2*pi/ulx,y,z
   ENINI  =  300.0     initial cutoff
   ENAUG  = 1514.2 eV  augmentation charge cutoff
   NELM   =     50;   NELMIN=  2; NELMDL= -5     # of ELM steps 
   EDIFF  = 0.1E-07   stopping-criterion for ELM
   LREAL  =      F    real-space projection
   NLSPLINE    = F    spline interpolate recip. space projectors
   LCOMPAT=      F    compatible to vasp.4.4
   GGA_COMPAT  = F    GGA compatible to vasp.4.4-vasp.4.6
   LMAXPAW     = -100 max onsite density
   LMAXMIX     =    2 max onsite mixed and CHGCAR
   VOSKOWN=      0    Vosko Wilk Nusair interpolation
   ROPT   =    0.00000
 Ionic relaxation
   EDIFFG = 0.1E-04   stopping-criterion for IOM
   NSW    =      1    number of steps for IOM
   NBLOCK =      1;   KBLOCK =      1    inner block; outer block 
   IBRION =     -1    ionic relax: 0-MD 1-quasi-New 2-CG
   NFREE  =      5    steps in history (QN), initial steepest desc. (CG)
   ISIF   =      3    stress and relaxation
   IWAVPR =     10    prediction:  0-non 1-charg 2-wave 3-comb
   ISYM   =      0    0-nonsym 1-usesym 2-fastsym
   LCORR  =      T    Harris-Foulkes like correction to forces

   POTIM  = 0.1000    time-step for ionic-motion
   TEIN   =    0.0    initial temperature
   TEBEG  =    0.0;   TEEND  =   0.0 temperature during run
   SMASS  =  -3.00    Nose mass-parameter (am)
   estimated Nose-frequenzy (Omega)   =  0.10E-29 period in steps =****** mass=  -0.185E-27a.u.
   SCALEE = 1.0000    scale energy and forces
   NPACO  =    256;   APACO  = 16.0  distance and # of slots for P.C.
   PSTRESS=    0.0 pullay stress

  Mass of Ions in am
   POMASS =   4.00
  Ionic Valenz
   ZVAL   =   2.00
  Atomic Wigner-Seitz radii
   RWIGS  =  -1.00
  virtual crystal weights 
   VCA    =   1.00
   NELECT =       2.0000    total number of electrons
   NUPDOWN=      -1.0000    fix difference up-down

 DOS related values:
   EMIN   =  10.00;   EMAX   =-10.00  energy-range for DOS
   EFERMI =   0.00
   ISMEAR =     0;   SIGMA  =   0.00  broadening in eV -4-tet -1-fermi 0-gaus

 Electronic relaxation 2 (details)
   IALGO  =     38    algorithm
   LDIAG  =      T    sub-space diagonalisation (order eigenvalues)
   LSUBROT=      F    optimize rotation matrix (better conditioning)
   TURBO    =      0    0=normal 1=particle mesh
   IRESTART =      0    0=no restart 2=restart with 2 vectors
   NREBOOT  =      0    no. of reboots
   NMIN     =      0    reboot dimension
   EREF     =   0.00    reference energy to select bands
   IMIX   =      4    mixing-type and parameters
     AMIX     =   0.40;   BMIX     =  1.00
     AMIX_MAG =   1.60;   BMIX_MAG =  1.00
     AMIN     =   0.10
     WC   =   100.;   INIMIX=   1;  MIXPRE=   1;  MAXMIX=  50

 Intra band minimization:
   WEIMIN = 0.0000     energy-eigenvalue tresh-hold
   EBREAK =  0.31E-09  absolut break condition
   DEPER  =   0.30     relativ break condition  

   TIME   =   0.40     timestep for ELM

  volume/ion in A,a.u.               =      16.28       109.90
  Fermi-wavevector in a.u.,A,eV,Ry     =   0.813748  1.537761  9.009588  0.662186
  Thomas-Fermi vector in A             =   1.923530
 
 Write flags
   LWAVE        =      T    write WAVECAR
   LDOWNSAMPLE  =      F    k-point downsampling of WAVECAR
   LCHARG       =      F    write CHGCAR
   LVTOT        =      F    write LOCPOT, total local potential
   LVHAR        =      F    write LOCPOT, Hartree potential only
   LELF         =      F    write electronic localiz. function (ELF)
   LORBIT       =      0    0 simple, 1 ext, 2 COOP (PROOUT), +10 PAW based schemes


 Dipole corrections
   LMONO  =      F    monopole corrections only (constant potential shift)
   LDIPOL =      F    correct potential (dipole corrections)
   IDIPOL =      0    1-x, 2-y, 3-z, 4-all directions 
   EPSILON=  1.0000000 bulk dielectric constant

 Exchange correlation treatment:
   GGA     =    PE    GGA type
   LEXCH   =     8    internal setting for exchange type
   VOSKOWN=      0    Vosko Wilk Nusair interpolation
   LHFCALC =     F    Hartree Fock is set to
   LHFONE  =     F    Hartree Fock one center treatment
   AEXX    =    0.0000 exact exchange contribution

 Linear response parameters
   LEPSILON=     F    determine dielectric tensor
   LRPA    =     F    only Hartree local field effects (RPA)
   LNABLA  =     F    use nabla operator in PAW spheres
   LVEL    =     F    velocity operator in full k-point grid
   LINTERFAST=   F  fast interpolation
   KINTER  =     0    interpolate to denser k-point grid
   CSHIFT  =0.1000    complex shift for real part using Kramers Kronig
   OMEGAMAX=  -1.0    maximum frequency
   DEG_THRESHOLD= 0.2000000E-02 threshold for treating states as degnerate
   RTIME   =   -0.100 relaxation time in fs
  (WPLASMAI=    0.000 imaginary part of plasma frequency in eV, 0.658/RTIME)
   DFIELD  = 0.0000000 0.0000000 0.0000000 field for delta impulse in time
 
 Orbital magnetization related:
   ORBITALMAG=     F  switch on orbital magnetization
   LCHIMAG   =     F  perturbation theory with respect to B field
   DQ        =  0.001000  dq finite difference perturbation B field
   LLRAUG    =     F  two centre corrections for induced B field



--------------------------------------------------------------------------------------------------------


 Static calculation
 charge density and potential will be updated during run
 non-spin polarized calculation
 Variant of blocked Davidson
 Davidson routine will perform the subspace rotation
 perform sub-space diagonalisation
    after iterative eigenvector-optimisation
 modified Broyden-mixing scheme, WC =      100.0
 initial mixing is a Kerker type mixing with AMIX =  0.4000 and BMIX =      1.0000
 Hartree-type preconditioning will be used
 using additional bands            7
 reciprocal scheme for non local part
 calculate Harris-corrections to forces 
   (improved forces if not selfconsistent)
 use gradient corrections 
 use of overlap-Matrix (Vanderbilt PP)
 Gauss-broadening in eV      SIGMA  =   0.00


--------------------------------------------------------------------------------------------------------


  energy-cutoff  :      300.00
  volume of cell :       16.28
      direct lattice vectors                 reciprocal lattice vectors
     2.845115027  0.000000000  0.000000000     0.351479638 -0.202926864 -0.143490961
     1.422557513  2.463941890  0.000000000     0.000000000  0.405853727 -0.143490961
     1.422557513  0.821313963  2.323026692     0.000000000  0.000000000  0.430472884

  length of vectors
     2.845115027  2.845115027  2.845115027     0.430472884  0.430472884  0.430472884


 
 k-points in units of 2pi/SCALE and weight: k-points                                
   0.00000000  0.00000000  0.00000000       0.003
   0.05021138 -0.02898955 -0.02049871       0.006
   0.10042275 -0.05797910 -0.04099742       0.006
   0.15063413 -0.08696866 -0.06149613       0.006
   0.00000000  0.05797910 -0.02049871       0.006
   0.05021138  0.02898955 -0.04099742       0.006
   0.10042275  0.00000000 -0.06149613       0.006
   0.15063413 -0.02898955 -0.08199484       0.006
  -0.15063413  0.14494776  0.04099742       0.006
  -0.10042275  0.11595821  0.02049871       0.006
  -0.05021138  0.08696866 -0.00000000       0.006
   0.00000000  0.11595821 -0.04099742       0.006
   0.05021138  0.08696866 -0.06149613       0.006
   0.10042275  0.05797910 -0.08199484       0.006
   0.15063413  0.02898955 -0.10249354       0.006
  -0.15063413  0.20292686  0.02049871       0.006
  -0.10042275  0.17393731 -0.00000000       0.006
  -0.05021138  0.14494776 -0.02049871       0.006
   0.00000000  0.17393731 -0.06149613       0.006
   0.05021138  0.14494776 -0.08199484       0.006
   0.10042275  0.11595821 -0.10249354       0.006
   0.15063413  0.08696866 -0.12299225       0.006
  -0.15063413  0.26090597 -0.00000000       0.006
  -0.10042275  0.23191642 -0.02049871       0.006
  -0.05021138  0.20292686 -0.04099742       0.006
   0.00000000  0.00000000  0.06149613       0.006
   0.05021138 -0.02898955  0.04099742       0.006
   0.10042275 -0.05797910  0.02049871       0.006
   0.15063413 -0.08696866  0.00000000       0.006
  -0.15063413  0.08696866  0.12299225       0.006
  -0.10042275  0.05797910  0.10249354       0.006
  -0.05021138  0.02898955  0.08199484       0.006
   0.00000000  0.05797910  0.04099742       0.006
   0.05021138  0.02898955  0.02049871       0.006
   0.10042275  0.00000000  0.00000000       0.006
   0.15063413 -0.02898955 -0.02049871       0.006
  -0.15063413  0.14494776  0.10249354       0.006
  -0.10042275  0.11595821  0.08199484       0.006
  -0.05021138  0.08696866  0.06149613       0.006
   0.00000000  0.11595821  0.02049871       0.006
   0.05021138  0.08696866 -0.00000000       0.006
   0.10042275  0.05797910 -0.02049871       0.006
   0.15063413  0.02898955 -0.04099742       0.006
  -0.15063413  0.20292686  0.08199484       0.006
  -0.10042275  0.17393731  0.06149613       0.006
  -0.05021138  0.14494776  0.04099742       0.006
   0.00000000  0.17393731 -0.00000000       0.006
   0.05021138  0.14494776 -0.02049871       0.006
   0.10042275  0.11595821 -0.04099742       0.006
   0.15063413  0.08696866 -0.06149613       0.006
  -0.15063413  0.26090597  0.06149613       0.006
  -0.10042275  0.23191642  0.04099742       0.006
  -0.05021138  0.20292686  0.02049871       0.006
   0.00000000 -0.17393731  0.12299225       0.006
   0.05021138 -0.20292686  0.10249354       0.006
   0.10042275 -0.23191642  0.08199484       0.006
   0.15063413 -0.26090597  0.06149613       0.006
  -0.15063413 -0.08696866  0.18448838       0.006
  -0.10042275 -0.11595821  0.16398967       0.006
  -0.05021138 -0.14494776  0.14349096       0.006
   0.00000000 -0.11595821  0.10249354       0.006
   0.05021138 -0.14494776  0.08199484       0.006
   0.10042275 -0.17393731  0.06149613       0.006
   0.15063413 -0.20292686  0.04099742       0.006
  -0.15063413 -0.02898955  0.16398967       0.006
  -0.10042275 -0.05797910  0.14349096       0.006
  -0.05021138 -0.08696866  0.12299225       0.006
   0.00000000 -0.05797910  0.08199484       0.006
   0.05021138 -0.08696866  0.06149613       0.006
   0.10042275 -0.11595821  0.04099742       0.006
   0.15063413 -0.14494776  0.02049871       0.006
  -0.15063413  0.02898955  0.14349096       0.006
  -0.10042275  0.00000000  0.12299225       0.006
  -0.05021138 -0.02898955  0.10249354       0.006
   0.00000000  0.00000000  0.12299225       0.006
   0.05021138 -0.02898955  0.10249354       0.006
   0.10042275 -0.05797910  0.08199484       0.006
   0.15063413 -0.08696866  0.06149613       0.006
  -0.15063413  0.08696866  0.18448838       0.006
  -0.10042275  0.05797910  0.16398967       0.006
  -0.05021138  0.02898955  0.14349096       0.006
   0.00000000  0.05797910  0.10249354       0.006
   0.05021138  0.02898955  0.08199484       0.006
   0.10042275  0.00000000  0.06149613       0.006
   0.15063413 -0.02898955  0.04099742       0.006
  -0.15063413  0.14494776  0.16398967       0.006
  -0.10042275  0.11595821  0.14349096       0.006
  -0.05021138  0.08696866  0.12299225       0.006
   0.00000000  0.11595821  0.08199484       0.006
   0.05021138  0.08696866  0.06149613       0.006
   0.10042275  0.05797910  0.04099742       0.006
   0.15063413  0.02898955  0.02049871       0.006
  -0.15063413  0.20292686  0.14349096       0.006
  -0.10042275  0.17393731  0.12299225       0.006
  -0.05021138  0.14494776  0.10249354       0.006
   0.00000000  0.17393731  0.06149613       0.006
   0.05021138  0.14494776  0.04099742       0.006
   0.10042275  0.11595821  0.02049871       0.006
   0.15063413  0.08696866 -0.00000000       0.006
  -0.15063413  0.26090597  0.12299225       0.006
  -0.10042275  0.23191642  0.10249354       0.006
  -0.05021138  0.20292686  0.08199484       0.006
   0.00000000 -0.17393731  0.18448838       0.006
   0.05021138 -0.20292686  0.16398967       0.006
   0.10042275 -0.23191642  0.14349096       0.006
   0.15063413 -0.26090597  0.12299225       0.006
  -0.15063413 -0.08696866  0.24598451       0.006
  -0.10042275 -0.11595821  0.22548580       0.006
  -0.05021138 -0.14494776  0.20498709       0.006
   0.00000000 -0.11595821  0.16398967       0.006
   0.05021138 -0.14494776  0.14349096       0.006
   0.10042275 -0.17393731  0.12299225       0.006
   0.15063413 -0.20292686  0.10249354       0.006
  -0.15063413 -0.02898955  0.22548580       0.006
  -0.10042275 -0.05797910  0.20498709       0.006
  -0.05021138 -0.08696866  0.18448838       0.006
   0.00000000 -0.05797910  0.14349096       0.006
   0.05021138 -0.08696866  0.12299225       0.006
   0.10042275 -0.11595821  0.10249354       0.006
   0.15063413 -0.14494776  0.08199484       0.006
  -0.15063413  0.02898955  0.20498709       0.006
  -0.10042275  0.00000000  0.18448838       0.006
  -0.05021138 -0.02898955  0.16398967       0.006
   0.00000000  0.00000000  0.18448838       0.006
   0.05021138 -0.02898955  0.16398967       0.006
   0.10042275 -0.05797910  0.14349096       0.006
   0.15063413 -0.08696866  0.12299225       0.006
  -0.15063413  0.08696866  0.24598451       0.006
  -0.10042275  0.05797910  0.22548580       0.006
  -0.05021138  0.02898955  0.20498709       0.006
   0.00000000  0.05797910  0.16398967       0.006
   0.05021138  0.02898955  0.14349096       0.006
   0.10042275  0.00000000  0.12299225       0.006
   0.15063413 -0.02898955  0.10249354       0.006
  -0.15063413  0.14494776  0.22548580       0.006
  -0.10042275  0.11595821  0.20498709       0.006
  -0.05021138  0.08696866  0.18448838       0.006
   0.00000000  0.11595821  0.14349096       0.006
   0.05021138  0.08696866  0.12299225       0.006
   0.10042275  0.05797910  0.10249354       0.006
   0.15063413  0.02898955  0.08199484       0.006
  -0.15063413  0.20292686  0.20498709       0.006
  -0.10042275  0.17393731  0.18448838       0.006
  -0.05021138  0.14494776  0.16398967       0.006
   0.00000000  0.17393731  0.12299225       0.006
   0.05021138  0.14494776  0.10249354       0.006
   0.10042275  0.11595821  0.08199484       0.006
   0.15063413  0.08696866  0.06149613       0.006
  -0.15063413  0.26090597  0.18448838       0.006
  -0.10042275  0.23191642  0.16398967       0.006
  -0.05021138  0.20292686  0.14349096       0.006
   0.00000000 -0.17393731  0.24598451       0.006
   0.05021138 -0.20292686  0.22548580       0.006
   0.10042275 -0.23191642  0.20498709       0.006
   0.15063413 -0.26090597  0.18448838       0.006
  -0.15063413 -0.08696866  0.30748063       0.006
  -0.10042275 -0.11595821  0.28698192       0.006
  -0.05021138 -0.14494776  0.26648321       0.006
   0.00000000 -0.11595821  0.22548580       0.006
   0.05021138 -0.14494776  0.20498709       0.006
   0.10042275 -0.17393731  0.18448838       0.006
   0.15063413 -0.20292686  0.16398967       0.006
  -0.15063413 -0.02898955  0.28698192       0.006
  -0.10042275 -0.05797910  0.26648321       0.006
  -0.05021138 -0.08696866  0.24598451       0.006
   0.00000000 -0.05797910  0.20498709       0.006
   0.05021138 -0.08696866  0.18448838       0.006
   0.10042275 -0.11595821  0.16398967       0.006
   0.15063413 -0.14494776  0.14349096       0.006
  -0.15063413  0.02898955  0.26648321       0.006
  -0.10042275  0.00000000  0.24598451       0.006
  -0.05021138 -0.02898955  0.22548580       0.006
 
 k-points in reciprocal lattice and weights: k-points                                
   0.00000000  0.00000000  0.00000000       0.003
   0.14285714  0.00000000  0.00000000       0.006
   0.28571429  0.00000000  0.00000000       0.006
   0.42857143  0.00000000  0.00000000       0.006
   0.00000000  0.14285714  0.00000000       0.006
   0.14285714  0.14285714  0.00000000       0.006
   0.28571429  0.14285714  0.00000000       0.006
   0.42857143  0.14285714  0.00000000       0.006
  -0.42857143  0.14285714  0.00000000       0.006
  -0.28571429  0.14285714 -0.00000000       0.006
  -0.14285714  0.14285714  0.00000000       0.006
   0.00000000  0.28571429  0.00000000       0.006
   0.14285714  0.28571429  0.00000000       0.006
   0.28571429  0.28571429  0.00000000       0.006
   0.42857143  0.28571429 -0.00000000       0.006
  -0.42857143  0.28571429 -0.00000000       0.006
  -0.28571429  0.28571429 -0.00000000       0.006
  -0.14285714  0.28571429 -0.00000000       0.006
   0.00000000  0.42857143  0.00000000       0.006
   0.14285714  0.42857143  0.00000000       0.006
   0.28571429  0.42857143  0.00000000       0.006
   0.42857143  0.42857143  0.00000000       0.006
  -0.42857143  0.42857143  0.00000000       0.006
  -0.28571429  0.42857143 -0.00000000       0.006
  -0.14285714  0.42857143 -0.00000000       0.006
   0.00000000  0.00000000  0.14285714       0.006
   0.14285714  0.00000000  0.14285714       0.006
   0.28571429  0.00000000  0.14285714       0.006
   0.42857143  0.00000000  0.14285714       0.006
  -0.42857143 -0.00000000  0.14285714       0.006
  -0.28571429 -0.00000000  0.14285714       0.006
  -0.14285714 -0.00000000  0.14285714       0.006
   0.00000000  0.14285714  0.14285714       0.006
   0.14285714  0.14285714  0.14285714       0.006
   0.28571429  0.14285714  0.14285714       0.006
   0.42857143  0.14285714  0.14285714       0.006
  -0.42857143  0.14285714  0.14285714       0.006
  -0.28571429  0.14285714  0.14285714       0.006
  -0.14285714  0.14285714  0.14285714       0.006
   0.00000000  0.28571429  0.14285714       0.006
   0.14285714  0.28571429  0.14285714       0.006
   0.28571429  0.28571429  0.14285714       0.006
   0.42857143  0.28571429  0.14285714       0.006
  -0.42857143  0.28571429  0.14285714       0.006
  -0.28571429  0.28571429  0.14285714       0.006
  -0.14285714  0.28571429  0.14285714       0.006
   0.00000000  0.42857143  0.14285714       0.006
   0.14285714  0.42857143  0.14285714       0.006
   0.28571429  0.42857143  0.14285714       0.006
   0.42857143  0.42857143  0.14285714       0.006
  -0.42857143  0.42857143  0.14285714       0.006
  -0.28571429  0.42857143  0.14285714       0.006
  -0.14285714  0.42857143  0.14285714       0.006
   0.00000000 -0.42857143  0.14285714       0.006
   0.14285714 -0.42857143  0.14285714       0.006
   0.28571429 -0.42857143  0.14285714       0.006
   0.42857143 -0.42857143  0.14285714       0.006
  -0.42857143 -0.42857143  0.14285714       0.006
  -0.28571429 -0.42857143  0.14285714       0.006
  -0.14285714 -0.42857143  0.14285714       0.006
   0.00000000 -0.28571429  0.14285714       0.006
   0.14285714 -0.28571429  0.14285714       0.006
   0.28571429 -0.28571429  0.14285714       0.006
   0.42857143 -0.28571429  0.14285714       0.006
  -0.42857143 -0.28571429  0.14285714       0.006
  -0.28571429 -0.28571429  0.14285714       0.006
  -0.14285714 -0.28571429  0.14285714       0.006
   0.00000000 -0.14285714  0.14285714       0.006
   0.14285714 -0.14285714  0.14285714       0.006
   0.28571429 -0.14285714  0.14285714       0.006
   0.42857143 -0.14285714  0.14285714       0.006
  -0.42857143 -0.14285714  0.14285714       0.006
  -0.28571429 -0.14285714  0.14285714       0.006
  -0.14285714 -0.14285714  0.14285714       0.006
   0.00000000  0.00000000  0.28571429       0.006
   0.14285714  0.00000000  0.28571429       0.006
   0.28571429  0.00000000  0.28571429       0.006
   0.42857143  0.00000000  0.28571429       0.006
  -0.42857143 -0.00000000  0.28571429       0.006
  -0.28571429 -0.00000000  0.28571429       0.006
  -0.14285714 -0.00000000  0.28571429       0.006
   0.00000000  0.14285714  0.28571429       0.006
   0.14285714  0.14285714  0.28571429       0.006
   0.28571429  0.14285714  0.28571429       0.006
   0.42857143  0.14285714  0.28571429       0.006
  -0.42857143  0.14285714  0.28571429       0.006
  -0.28571429  0.14285714  0.28571429       0.006
  -0.14285714  0.14285714  0.28571429       0.006
   0.00000000  0.28571429  0.28571429       0.006
   0.14285714  0.28571429  0.28571429       0.006
   0.28571429  0.28571429  0.28571429       0.006
   0.42857143  0.28571429  0.28571429       0.006
  -0.42857143  0.28571429  0.28571429       0.006
  -0.28571429  0.28571429  0.28571429       0.006
  -0.14285714  0.28571429  0.28571429       0.006
   0.00000000  0.42857143  0.28571429       0.006
   0.14285714  0.42857143  0.28571429       0.006
   0.28571429  0.42857143  0.28571429       0.006
   0.42857143  0.42857143  0.28571429       0.006
  -0.42857143  0.42857143  0.28571429       0.006
  -0.28571429  0.42857143  0.28571429       0.006
  -0.14285714  0.42857143  0.28571429       0.006
   0.00000000 -0.42857143  0.28571429       0.006
   0.14285714 -0.42857143  0.28571429       0.006
   0.28571429 -0.42857143  0.28571429       0.006
   0.42857143 -0.42857143  0.28571429       0.006
  -0.42857143 -0.42857143  0.28571429       0.006
  -0.28571429 -0.42857143  0.28571429       0.006
  -0.14285714 -0.42857143  0.28571429       0.006
   0.00000000 -0.28571429  0.28571429       0.006
   0.14285714 -0.28571429  0.28571429       0.006
   0.28571429 -0.28571429  0.28571429       0.006
   0.42857143 -0.28571429  0.28571429       0.006
  -0.42857143 -0.28571429  0.28571429       0.006
  -0.28571429 -0.28571429  0.28571429       0.006
  -0.14285714 -0.28571429  0.28571429       0.006
   0.00000000 -0.14285714  0.28571429       0.006
   0.14285714 -0.14285714  0.28571429       0.006
   0.28571429 -0.14285714  0.28571429       0.006
   0.42857143 -0.14285714  0.28571429       0.006
  -0.42857143 -0.14285714  0.28571429       0.006
  -0.28571429 -0.14285714  0.28571429       0.006
  -0.14285714 -0.14285714  0.28571429       0.006
   0.00000000  0.00000000  0.42857143       0.006
   0.14285714  0.00000000  0.42857143       0.006
   0.28571429  0.00000000  0.42857143       0.006
   0.42857143  0.00000000  0.42857143       0.006
  -0.42857143 -0.00000000  0.42857143       0.006
  -0.28571429 -0.00000000  0.42857143       0.006
  -0.14285714 -0.00000000  0.42857143       0.006
   0.00000000  0.14285714  0.42857143       0.006
   0.14285714  0.14285714  0.42857143       0.006
   0.28571429  0.14285714  0.42857143       0.006
   0.42857143  0.14285714  0.42857143       0.006
  -0.42857143  0.14285714  0.42857143       0.006
  -0.28571429  0.14285714  0.42857143       0.006
  -0.14285714  0.14285714  0.42857143       0.006
   0.00000000  0.28571429  0.42857143       0.006
   0.14285714  0.28571429  0.42857143       0.006
   0.28571429  0.28571429  0.42857143       0.006
   0.42857143  0.28571429  0.42857143       0.006
  -0.42857143  0.28571429  0.42857143       0.006
  -0.28571429  0.28571429  0.42857143       0.006
  -0.14285714  0.28571429  0.42857143       0.006
   0.00000000  0.42857143  0.42857143       0.006
   0.14285714  0.42857143  0.42857143       0.006
   0.28571429  0.42857143  0.42857143       0.006
   0.42857143  0.42857143  0.42857143       0.006
  -0.42857143  0.42857143  0.42857143       0.006
  -0.28571429  0.42857143  0.42857143       0.006
  -0.14285714  0.42857143  0.42857143       0.006
   0.00000000 -0.42857143  0.42857143       0.006
   0.14285714 -0.42857143  0.42857143       0.006
   0.28571429 -0.42857143  0.42857143       0.006
   0.42857143 -0.42857143  0.42857143       0.006
  -0.42857143 -0.42857143  0.42857143       0.006
  -0.28571429 -0.42857143  0.42857143       0.006
  -0.14285714 -0.42857143  0.42857143       0.006
   0.00000000 -0.28571429  0.42857143       0.006
   0.14285714 -0.28571429  0.42857143       0.006
   0.28571429 -0.28571429  0.42857143       0.006
   0.42857143 -0.28571429  0.42857143       0.006
  -0.42857143 -0.28571429  0.42857143       0.006
  -0.28571429 -0.28571429  0.42857143       0.006
  -0.14285714 -0.28571429  0.42857143       0.006
   0.00000000 -0.14285714  0.42857143       0.006
   0.14285714 -0.14285714  0.42857143       0.006
   0.28571429 -0.14285714  0.42857143       0.006
   0.42857143 -0.14285714  0.42857143       0.006
  -0.42857143 -0.14285714  0.42857143       0.006
  -0.28571429 -0.14285714  0.42857143       0.006
  -0.14285714 -0.14285714  0.42857143       0.006
 
 position of ions in fractional coordinates (direct lattice) 
   0.00000000  0.00000000  0.00000000
 
 position of ions in cartesian coordinates  (Angst):
   0.00000000  0.00000000  0.00000000
 


--------------------------------------------------------------------------------------------------------


 k-point  1 :   0.0000 0.0000 0.0000  plane waves:     181
 k-point  2 :   0.1429 0.0000 0.0000  plane waves:     178
 k-point  3 :   0.2857 0.0000 0.0000  plane waves:     192
 k-point  4 :   0.4286 0.0000 0.0000  plane waves:     189
 k-point  5 :   0.0000 0.1429 0.0000  plane waves:     178
 k-point  6 :   0.1429 0.1429 0.0000  plane waves:     185
 k-point  7 :   0.2857 0.1429 0.0000  plane waves:     196
 k-point  8 :   0.4286 0.1429 0.0000  plane waves:     192
 k-point  9 :  -0.4286 0.1429 0.0000  plane waves:     189
 k-point 10 :  -0.2857 0.1429-0.0000  plane waves:     191
 k-point 11 :  -0.1429 0.1429 0.0000  plane waves:     186
 k-point 12 :   0.0000 0.2857 0.0000  plane waves:     192
 k-point 13 :   0.1429 0.2857 0.0000  plane waves:     196
 k-point 14 :   0.2857 0.2857 0.0000  plane waves:     194
 k-point 15 :   0.4286 0.2857-0.0000  plane waves:     193
 k-point 16 :  -0.4286 0.2857-0.0000  plane waves:     191
 k-point 17 :  -0.2857 0.2857-0.0000  plane waves:     194
 k-point 18 :  -0.1429 0.2857-0.0000  plane waves:     191
 k-point 19 :   0.0000 0.4286 0.0000  plane waves:     189
 k-point 20 :   0.1429 0.4286 0.0000  plane waves:     192
 k-point 21 :   0.2857 0.4286 0.0000  plane waves:     193
 k-point 22 :   0.4286 0.4286 0.0000  plane waves:     194
 k-point 23 :  -0.4286 0.4286 0.0000  plane waves:     196
 k-point 24 :  -0.2857 0.4286-0.0000  plane waves:     191
 k-point 25 :  -0.1429 0.4286-0.0000  plane waves:     189
 k-point 26 :   0.0000 0.0000 0.1429  plane waves:     178
 k-point 27 :   0.1429 0.0000 0.1429  plane waves:     185
 k-point 28 :   0.2857 0.0000 0.1429  plane waves:     196
 k-point 29 :   0.4286 0.0000 0.1429  plane waves:     192
 k-point 30 :  -0.4286-0.0000 0.1429  plane waves:     189
 k-point 31 :  -0.2857-0.0000 0.1429  plane waves:     191
 k-point 32 :  -0.1429-0.0000 0.1429  plane waves:     186
 k-point 33 :   0.0000 0.1429 0.1429  plane waves:     185
 k-point 34 :   0.1429 0.1429 0.1429  plane waves:     178
 k-point 35 :   0.2857 0.1429 0.1429  plane waves:     186
 k-point 36 :   0.4286 0.1429 0.1429  plane waves:     191
 k-point 37 :  -0.4286 0.1429 0.1429  plane waves:     189
 k-point 38 :  -0.2857 0.1429 0.1429  plane waves:     192
 k-point 39 :  -0.1429 0.1429 0.1429  plane waves:     196
 k-point 40 :   0.0000 0.2857 0.1429  plane waves:     196
 k-point 41 :   0.1429 0.2857 0.1429  plane waves:     186
 k-point 42 :   0.2857 0.2857 0.1429  plane waves:     196
 k-point 43 :   0.4286 0.2857 0.1429  plane waves:     190
 k-point 44 :  -0.4286 0.2857 0.1429  plane waves:     194
 k-point 45 :  -0.2857 0.2857 0.1429  plane waves:     194
 k-point 46 :  -0.1429 0.2857 0.1429  plane waves:     190
 k-point 47 :   0.0000 0.4286 0.1429  plane waves:     192
 k-point 48 :   0.1429 0.4286 0.1429  plane waves:     191
 k-point 49 :   0.2857 0.4286 0.1429  plane waves:     190
 k-point 50 :   0.4286 0.4286 0.1429  plane waves:     193
 k-point 51 :  -0.4286 0.4286 0.1429  plane waves:     196
 k-point 52 :  -0.2857 0.4286 0.1429  plane waves:     197
 k-point 53 :  -0.1429 0.4286 0.1429  plane waves:     194
 k-point 54 :   0.0000-0.4286 0.1429  plane waves:     189
 k-point 55 :   0.1429-0.4286 0.1429  plane waves:     189
 k-point 56 :   0.2857-0.4286 0.1429  plane waves:     194
 k-point 57 :   0.4286-0.4286 0.1429  plane waves:     196
 k-point 58 :  -0.4286-0.4286 0.1429  plane waves:     196
 k-point 59 :  -0.2857-0.4286 0.1429  plane waves:     196
 k-point 60 :  -0.1429-0.4286 0.1429  plane waves:     194
 k-point 61 :   0.0000-0.2857 0.1429  plane waves:     191
 k-point 62 :   0.1429-0.2857 0.1429  plane waves:     192
 k-point 63 :   0.2857-0.2857 0.1429  plane waves:     194
 k-point 64 :   0.4286-0.2857 0.1429  plane waves:     197
 k-point 65 :  -0.4286-0.2857 0.1429  plane waves:     196
 k-point 66 :  -0.2857-0.2857 0.1429  plane waves:     193
 k-point 67 :  -0.1429-0.2857 0.1429  plane waves:     190
 k-point 68 :   0.0000-0.1429 0.1429  plane waves:     186
 k-point 69 :   0.1429-0.1429 0.1429  plane waves:     196
 k-point 70 :   0.2857-0.1429 0.1429  plane waves:     190
 k-point 71 :   0.4286-0.1429 0.1429  plane waves:     194
 k-point 72 :  -0.4286-0.1429 0.1429  plane waves:     194
 k-point 73 :  -0.2857-0.1429 0.1429  plane waves:     190
 k-point 74 :  -0.1429-0.1429 0.1429  plane waves:     196
 k-point 75 :   0.0000 0.0000 0.2857  plane waves:     192
 k-point 76 :   0.1429 0.0000 0.2857  plane waves:     196
 k-point 77 :   0.2857 0.0000 0.2857  plane waves:     194
 k-point 78 :   0.4286 0.0000 0.2857  plane waves:     193
 k-point 79 :  -0.4286-0.0000 0.2857  plane waves:     191
 k-point 80 :  -0.2857-0.0000 0.2857  plane waves:     194
 k-point 81 :  -0.1429-0.0000 0.2857  plane waves:     191
 k-point 82 :   0.0000 0.1429 0.2857  plane waves:     196
 k-point 83 :   0.1429 0.1429 0.2857  plane waves:     186
 k-point 84 :   0.2857 0.1429 0.2857  plane waves:     196
 k-point 85 :   0.4286 0.1429 0.2857  plane waves:     190
 k-point 86 :  -0.4286 0.1429 0.2857  plane waves:     194
 k-point 87 :  -0.2857 0.1429 0.2857  plane waves:     194
 k-point 88 :  -0.1429 0.1429 0.2857  plane waves:     190
 k-point 89 :   0.0000 0.2857 0.2857  plane waves:     194
 k-point 90 :   0.1429 0.2857 0.2857  plane waves:     196
 k-point 91 :   0.2857 0.2857 0.2857  plane waves:     192
 k-point 92 :   0.4286 0.2857 0.2857  plane waves:     191
 k-point 93 :  -0.4286 0.2857 0.2857  plane waves:     194
 k-point 94 :  -0.2857 0.2857 0.2857  plane waves:     191
 k-point 95 :  -0.1429 0.2857 0.2857  plane waves:     193
 k-point 96 :   0.0000 0.4286 0.2857  plane waves:     193
 k-point 97 :   0.1429 0.4286 0.2857  plane waves:     190
 k-point 98 :   0.2857 0.4286 0.2857  plane waves:     191
 k-point 99 :   0.4286 0.4286 0.2857  plane waves:     192
 k-point ** :  -0.4286 0.4286 0.2857  plane waves:     194
 k-point ** :  -0.2857 0.4286 0.2857  plane waves:     197
 k-point ** :  -0.1429 0.4286 0.2857  plane waves:     196
 k-point ** :   0.0000-0.4286 0.2857  plane waves:     191
 k-point ** :   0.1429-0.4286 0.2857  plane waves:     194
 k-point ** :   0.2857-0.4286 0.2857  plane waves:     194
 k-point ** :   0.4286-0.4286 0.2857  plane waves:     194
 k-point ** :  -0.4286-0.4286 0.2857  plane waves:     191
 k-point ** :  -0.2857-0.4286 0.2857  plane waves:     197
 k-point ** :  -0.1429-0.4286 0.2857  plane waves:     197
 k-point ** :   0.0000-0.2857 0.2857  plane waves:     194
 k-point ** :   0.1429-0.2857 0.2857  plane waves:     194
 k-point ** :   0.2857-0.2857 0.2857  plane waves:     191
 k-point ** :   0.4286-0.2857 0.2857  plane waves:     197
 k-point ** :  -0.4286-0.2857 0.2857  plane waves:     197
 k-point ** :  -0.2857-0.2857 0.2857  plane waves:     191
 k-point ** :  -0.1429-0.2857 0.2857  plane waves:     194
 k-point ** :   0.0000-0.1429 0.2857  plane waves:     191
 k-point ** :   0.1429-0.1429 0.2857  plane waves:     190
 k-point ** :   0.2857-0.1429 0.2857  plane waves:     193
 k-point ** :   0.4286-0.1429 0.2857  plane waves:     196
 k-point ** :  -0.4286-0.1429 0.2857  plane waves:     197
 k-point ** :  -0.2857-0.1429 0.2857  plane waves:     194
 k-point ** :  -0.1429-0.1429 0.2857  plane waves:     192
 k-point ** :   0.0000 0.0000 0.4286  plane waves:     189
 k-point ** :   0.1429 0.0000 0.4286  plane waves:     192
 k-point ** :   0.2857 0.0000 0.4286  plane waves:     193
 k-point ** :   0.4286 0.0000 0.4286  plane waves:     194
 k-point ** :  -0.4286-0.0000 0.4286  plane waves:     196
 k-point ** :  -0.2857-0.0000 0.4286  plane waves:     191
 k-point ** :  -0.1429-0.0000 0.4286  plane waves:     189
 k-point ** :   0.0000 0.1429 0.4286  plane waves:     192
 k-point ** :   0.1429 0.1429 0.4286  plane waves:     191
 k-point ** :   0.2857 0.1429 0.4286  plane waves:     190
 k-point ** :   0.4286 0.1429 0.4286  plane waves:     193
 k-point ** :  -0.4286 0.1429 0.4286  plane waves:     196
 k-point ** :  -0.2857 0.1429 0.4286  plane waves:     197
 k-point ** :  -0.1429 0.1429 0.4286  plane waves:     194
 k-point ** :   0.0000 0.2857 0.4286  plane waves:     193
 k-point ** :   0.1429 0.2857 0.4286  plane waves:     190
 k-point ** :   0.2857 0.2857 0.4286  plane waves:     191
 k-point ** :   0.4286 0.2857 0.4286  plane waves:     192
 k-point ** :  -0.4286 0.2857 0.4286  plane waves:     194
 k-point ** :  -0.2857 0.2857 0.4286  plane waves:     197
 k-point ** :  -0.1429 0.2857 0.4286  plane waves:     196
 k-point ** :   0.0000 0.4286 0.4286  plane waves:     194
 k-point ** :   0.1429 0.4286 0.4286  plane waves:     193
 k-point ** :   0.2857 0.4286 0.4286  plane waves:     192
 k-point ** :   0.4286 0.4286 0.4286  plane waves:     189
 k-point ** :  -0.4286 0.4286 0.4286  plane waves:     189
 k-point ** :  -0.2857 0.4286 0.4286  plane waves:     191
 k-point ** :  -0.1429 0.4286 0.4286  plane waves:     196
 k-point ** :   0.0000-0.4286 0.4286  plane waves:     196
 k-point ** :   0.1429-0.4286 0.4286  plane waves:     196
 k-point ** :   0.2857-0.4286 0.4286  plane waves:     194
 k-point ** :   0.4286-0.4286 0.4286  plane waves:     189
 k-point ** :  -0.4286-0.4286 0.4286  plane waves:     189
 k-point ** :  -0.2857-0.4286 0.4286  plane waves:     194
 k-point ** :  -0.1429-0.4286 0.4286  plane waves:     196
 k-point ** :   0.0000-0.2857 0.4286  plane waves:     191
 k-point ** :   0.1429-0.2857 0.4286  plane waves:     197
 k-point ** :   0.2857-0.2857 0.4286  plane waves:     197
 k-point ** :   0.4286-0.2857 0.4286  plane waves:     191
 k-point ** :  -0.4286-0.2857 0.4286  plane waves:     194
 k-point ** :  -0.2857-0.2857 0.4286  plane waves:     194
 k-point ** :  -0.1429-0.2857 0.4286  plane waves:     194
 k-point ** :   0.0000-0.1429 0.4286  plane waves:     189
 k-point ** :   0.1429-0.1429 0.4286  plane waves:     194
 k-point ** :   0.2857-0.1429 0.4286  plane waves:     196
 k-point ** :   0.4286-0.1429 0.4286  plane waves:     196
 k-point ** :  -0.4286-0.1429 0.4286  plane waves:     196
 k-point ** :  -0.2857-0.1429 0.4286  plane waves:     194
 k-point ** :  -0.1429-0.1429 0.4286  plane waves:     189

 maximum and minimum number of plane-waves per node :        55       40

 maximum number of plane-waves:       197
 maximum index in each direction: 
   IXMAX=    4   IYMAX=    4   IZMAX=    4
   IXMIN=   -4   IYMIN=   -4   IZMIN=   -4


 parallel 3D FFT for wavefunctions:
    minimum data exchange during FFTs selected (reduces bandwidth)
 parallel 3D FFT for charge:
    minimum data exchange during FFTs selected (reduces bandwidth)


 total amount of memory used by VASP MPI-rank0    32464. kBytes
=======================================================================

   base      :      30000. kBytes
   nonl-proj :       1233. kBytes
   fftplans  :        627. kBytes
   grid      :        196. kBytes
   one-center:         12. kBytes
   wavefun   :        396. kBytes
 
     INWAV:  cpu time    0.0000: real time    0.0001
 Broyden mixing: mesh for mixing (old mesh)
   NGX =  9   NGY =  9   NGZ =  9
  (NGX  = 32   NGY  = 32   NGZ  = 32)
  gives a total of    729 points

 initial charge density was supplied:
 charge density of overlapping atoms calculated
 number of electron       2.0000000 magnetization 
 keeping initial charge density in first step


--------------------------------------------------------------------------------------------------------


 Maximum index for augmentation-charges          661 (set IRDMAX)


--------------------------------------------------------------------------------------------------------


 First call to EWALD:  gamma=   0.699
 Maximum number of real-space cells 3x 3x 3
 Maximum number of reciprocal cells 3x 3x 3

    FEWALD:  cpu time    0.0021: real time    0.0021


--------------------------------------- Iteration      1(   1)  ---------------------------------------


    POTLOK:  cpu time    0.0067: real time    0.0073
    SETDIJ:  cpu time    0.0037: real time    0.0037
     EDDAV:  cpu time    0.1221: real time    0.1223
       DOS:  cpu time    0.0005: real time    0.0003
    --------------------------------------------
      LOOP:  cpu time    0.1330: real time    0.1336

 eigenvalue-minimisations  :  2920
 total energy-change (2. order) : 0.9766849E-01  (-0.2503986E+02)
 number of electron       2.0000000 magnetization 
 augmentation part        2.0000000 magnetization 

 Free energy of the ion-electron system (eV)
  ---------------------------------------------------
  alpha Z        PSCENC =         0.62263337
  Ewald energy   TEWEN  =       -32.81689722
  -Hartree energ DENC   =       -23.23826789
  -exchange      EXHF   =         0.00000000
  -V(xc)+E(xc)   XCENC  =         7.73038514
  PAW double counting   =        45.69252117      -47.19906635
  entropy T*S    EENTRO =        -0.00000000
  eigenvalues    EBANDS =       -29.10487359
  atomic energy  EATOM  =        78.41123386
  Solvation  Ediel_sol  =         0.00000000
  ---------------------------------------------------
  free energy    TOTEN  =         0.09766849 eV

  energy without entropy =        0.09766849  energy(sigma->0) =        0.09766849


--------------------------------------------------------------------------------------------------------




--------------------------------------- Iteration      1(   2)  ---------------------------------------


     EDDAV:  cpu time    0.1513: real time    0.1544
       DOS:  cpu time    0.0003: real time    0.0003
    --------------------------------------------
      LOOP:  cpu time    0.1516: real time    0.1547

 eigenvalue-minimisations  :  3752
 total energy-change (2. order) :-0.1803033E+00  (-0.1803033E+00)
 number of electron       2.0000000 magnetization 
 augmentation part        2.0000000 magnetization 

 Free energy of the ion-electron system (eV)
  ---------------------------------------------------
  alpha Z        PSCENC =         0.62263337
  Ewald energy   TEWEN  =       -32.81689722
  -Hartree energ DENC   =       -23.23826789
  -exchange      EXHF   =         0.00000000
  -V(xc)+E(xc)   XCENC  =         7.73038514
  PAW double counting   =        45.69252117      -47.19906635
  entropy T*S    EENTRO =         0.00000000
  eigenvalues    EBANDS =       -29.28517688
  atomic energy  EATOM  =        78.41123386
  Solvation  Ediel_sol  =         0.00000000
  ---------------------------------------------------
  free energy    TOTEN  =        -0.08263480 eV

  energy without entropy =       -0.08263480  energy(sigma->0) =       -0.08263480


--------------------------------------------------------------------------------------------------------




--------------------------------------- Iteration      1(   3)  ---------------------------------------


     EDDAV:  cpu time    0.1166: real time    0.1170
       DOS:  cpu time    0.0007: real time    0.0003
    --------------------------------------------
      LOOP:  cpu time    0.1174: real time    0.1172

 eigenvalue-minimisations  :  3032
 total energy-change (2. order) :-0.9889609E-04  (-0.9889609E-04)
 number of electron       2.0000000 magnetization 
 augmentation part        2.0000000 magnetization 

 Free energy of the ion-electron system (eV)
  ---------------------------------------------------
  alpha Z        PSCENC =         0.62263337
  Ewald energy   TEWEN  =       -32.81689722
  -Hartree energ DENC   =       -23.23826789
  -exchange      EXHF   =         0.00000000
  -V(xc)+E(xc)   XCENC  =         7.73038514
  PAW double counting   =        45.69252117      -47.19906635
  entropy T*S    EENTRO =         0.00000000
  eigenvalues    EBANDS =       -29.28527578
  atomic energy  EATOM  =        78.41123386
  Solvation  Ediel_sol  =         0.00000000
  ---------------------------------------------------
  free energy    TOTEN  =        -0.08273370 eV

  energy without entropy =       -0.08273370  energy(sigma->0) =       -0.08273370


--------------------------------------------------------------------------------------------------------




--------------------------------------- Iteration      1(   4)  ---------------------------------------


     EDDAV:  cpu time    0.1608: real time    0.1616
       DOS:  cpu time    0.0007: real time    0.0003
    --------------------------------------------
      LOOP:  cpu time    0.1615: real time    0.1618

 eigenvalue-minimisations  :  4056
 total energy-change (2. order) :-0.1127507E-06  (-0.1127506E-06)
 number of electron       2.0000000 magnetization 
 augmentation part        2.0000000 magnetization 

 Free energy of the ion-electron system (eV)
  ---------------------------------------------------
  alpha Z        PSCENC =         0.62263337
  Ewald energy   TEWEN  =       -32.81689722
  -Hartree energ DENC   =       -23.23826789
  -exchange      EXHF   =         0.00000000
  -V(xc)+E(xc)   XCENC  =         7.73038514
  PAW double counting   =        45.69252117      -47.19906635
  entropy T*S    EENTRO =         0.00000000
  eigenvalues    EBANDS =       -29.28527589
  atomic energy  EATOM  =        78.41123386
  Solvation  Ediel_sol  =         0.00000000
  ---------------------------------------------------
  free energy    TOTEN  =        -0.08273381 eV

  energy without entropy =       -0.08273381  energy(sigma->0) =       -0.08273381


--------------------------------------------------------------------------------------------------------




--------------------------------------- Iteration      1(   5)  ---------------------------------------


     EDDAV:  cpu time    0.1172: real time    0.1179
       DOS:  cpu time    0.0006: real time    0.0003
    CHARGE:  cpu time    0.0041: real time    0.0044
    MIXING:  cpu time    0.0006: real time    0.0006
    --------------------------------------------
      LOOP:  cpu time    0.1224: real time    0.1232

 eigenvalue-minimisations  :  3064
 total energy-change (2. order) :-0.1620037E-10  (-0.1620175E-10)
 number of electron       2.0000001 magnetization 
 augmentation part        0.2981106 magnetization 

 Broyden mixing:
  rms(total) = 0.87271E-01    rms(broyden)= 0.84317E-01
  rms(prec ) = 0.16011E+00
  weight for this iteration     100.00

 Free energy of the ion-electron system (eV)
  ---------------------------------------------------
  alpha Z        PSCENC =         0.62263337
  Ewald energy   TEWEN  =       -32.81689722
  -Hartree energ DENC   =       -23.23826789
  -exchange      EXHF   =         0.00000000
  -V(xc)+E(xc)   XCENC  =         7.73038514
  PAW double counting   =        45.69252117      -47.19906635
  entropy T*S    EENTRO =         0.00000000
  eigenvalues    EBANDS =       -29.28527589
  atomic energy  EATOM  =        78.41123386
  Solvation  Ediel_sol  =         0.00000000
  ---------------------------------------------------
  free energy    TOTEN  =        -0.08273381 eV

  energy without entropy =       -0.08273381  energy(sigma->0) =       -0.08273381


--------------------------------------------------------------------------------------------------------




--------------------------------------- Iteration      1(   6)  ---------------------------------------


    POTLOK:  cpu time    0.0024: real time    0.0026
    SETDIJ:  cpu time    0.0037: real time    0.0034
     EDDAV:  cpu time    0.1113: real time    0.1118
       DOS:  cpu time    0.0007: real time    0.0003
    CHARGE:  cpu time    0.0049: real time    0.0049
    MIXING:  cpu time    0.0002: real time    0.0005
    --------------------------------------------
      LOOP:  cpu time    0.1233: real time    0.1235

 eigenvalue-minimisations  :  2848
 total energy-change (2. order) : 0.6153210E-02  (-0.5134425E-03)
 number of electron       2.0000001 magnetization 
 augmentation part        0.2989687 magnetization 

 Broyden mixing:
  rms(total) = 0.45864E-01    rms(broyden)= 0.45684E-01
  rms(prec ) = 0.82571E-01
  weight for this iteration     100.00

 eigenvalues of (default mixing * dielectric matrix)
  average eigenvalue GAMMA=   2.1516
  2.1516

 Free energy of the ion-electron system (eV)
  ---------------------------------------------------
  alpha Z        PSCENC =         0.62263337
  Ewald energy   TEWEN  =       -32.81689722
  -Hartree energ DENC   =       -22.95921931
  -exchange      EXHF   =         0.00000000
  -V(xc)+E(xc)   XCENC  =         7.69172805
  PAW double counting   =        46.49567451      -47.94561878
  entropy T*S    EENTRO =         0.00000000
  eigenvalues    EBANDS =       -29.57611509
  atomic energy  EATOM  =        78.41123386
  Solvation  Ediel_sol  =         0.00000000
  ---------------------------------------------------
  free energy    TOTEN  =        -0.07658060 eV

  energy without entropy =       -0.07658060  energy(sigma->0) =       -0.07658060


--------------------------------------------------------------------------------------------------------




--------------------------------------- Iteration      1(   7)  ---------------------------------------


    POTLOK:  cpu time    0.0027: real time    0.0026
    SETDIJ:  cpu time    0.0031: real time    0.0034
     EDDAV:  cpu time    0.1088: real time    0.1092
       DOS:  cpu time    0.0007: real time    0.0003
    CHARGE:  cpu time    0.0049: real time    0.0049
    MIXING:  cpu time    0.0000: real time    0.0004
    --------------------------------------------
      LOOP:  cpu time    0.1203: real time    0.1207

 eigenvalue-minimisations  :  2808
 total energy-change (2. order) :-0.3134107E-02  (-0.4536341E-03)
 number of electron       2.0000001 magnetization 
 augmentation part        0.2997308 magnetization 

 Broyden mixing:
  rms(total) = 0.60332E-02    rms(broyden)= 0.60238E-02
  rms(prec ) = 0.12287E-01
  weight for this iteration     100.00

 eigenvalues of (default mixing * dielectric matrix)
  average eigenvalue GAMMA=   2.1549
  1.9232  2.3865

 Free energy of the ion-electron system (eV)
  ---------------------------------------------------
  alpha Z        PSCENC =         0.62263337
  Ewald energy   TEWEN  =       -32.81689722
  -Hartree energ DENC   =       -22.71893384
  -exchange      EXHF   =         0.00000000
  -V(xc)+E(xc)   XCENC  =         7.65769100
  PAW double counting   =        47.70656107      -49.09938969
  entropy T*S    EENTRO =         0.00000000
  eigenvalues    EBANDS =       -29.84261326
  atomic energy  EATOM  =        78.41123386
  Solvation  Ediel_sol  =         0.00000000
  ---------------------------------------------------
  free energy    TOTEN  =        -0.07971471 eV

  energy without entropy =       -0.07971471  energy(sigma->0) =       -0.07971471


--------------------------------------------------------------------------------------------------------




--------------------------------------- Iteration      1(   8)  ---------------------------------------


    POTLOK:  cpu time    0.0024: real time    0.0026
    SETDIJ:  cpu time    0.0033: real time    0.0033
     EDDAV:  cpu time    0.1269: real time    0.1271
       DOS:  cpu time    0.0003: real time    0.0003
    CHARGE:  cpu time    0.0049: real time    0.0049
    MIXING:  cpu time    0.0003: real time    0.0004
    --------------------------------------------
      LOOP:  cpu time    0.1382: real time    0.1385

 eigenvalue-minimisations  :  3304
 total energy-change (2. order) :-0.6885551E-04  (-0.7465811E-05)
 number of electron       2.0000001 magnetization 
 augmentation part        0.2996778 magnetization 

 Broyden mixing:
  rms(total) = 0.43089E-03    rms(broyden)= 0.42337E-03
  rms(prec ) = 0.89141E-03
  weight for this iteration     100.00

 eigenvalues of (default mixing * dielectric matrix)
  average eigenvalue GAMMA=   1.8169
  0.9961  1.9308  2.5236

 Free energy of the ion-electron system (eV)
  ---------------------------------------------------
  alpha Z        PSCENC =         0.62263337
  Ewald energy   TEWEN  =       -32.81689722
  -Hartree energ DENC   =       -22.76209476
  -exchange      EXHF   =         0.00000000
  -V(xc)+E(xc)   XCENC  =         7.66598389
  PAW double counting   =        48.21965291      -49.60999734
  entropy T*S    EENTRO =         0.00000000
  eigenvalues    EBANDS =       -29.81029827
  atomic energy  EATOM  =        78.41123386
  Solvation  Ediel_sol  =         0.00000000
  ---------------------------------------------------
  free energy    TOTEN  =        -0.07978356 eV

  energy without entropy =       -0.07978356  energy(sigma->0) =       -0.07978356


--------------------------------------------------------------------------------------------------------




--------------------------------------- Iteration      1(   9)  ---------------------------------------


    POTLOK:  cpu time    0.0024: real time    0.0026
    SETDIJ:  cpu time    0.0033: real time    0.0033
     EDDAV:  cpu time    0.1459: real time    0.1460
       DOS:  cpu time    0.0007: real time    0.0003
    CHARGE:  cpu time    0.0049: real time    0.0049
    MIXING:  cpu time    0.0000: real time    0.0004
    --------------------------------------------
      LOOP:  cpu time    0.1574: real time    0.1575

 eigenvalue-minimisations  :  3608
 total energy-change (2. order) :-0.2402600E-06  (-0.9400867E-07)
 number of electron       2.0000001 magnetization 
 augmentation part        0.2996735 magnetization 

 Broyden mixing:
  rms(total) = 0.93562E-04    rms(broyden)= 0.91171E-04
  rms(prec ) = 0.21641E-03
  weight for this iteration     100.00

 eigenvalues of (default mixing * dielectric matrix)
  average eigenvalue GAMMA=   2.1455
  1.0001  2.0031  2.4536  3.1252

 Free energy of the ion-electron system (eV)
  ---------------------------------------------------
  alpha Z        PSCENC =         0.62263337
  Ewald energy   TEWEN  =       -32.81689722
  -Hartree energ DENC   =       -22.76491752
  -exchange      EXHF   =         0.00000000
  -V(xc)+E(xc)   XCENC  =         7.66656688
  PAW double counting   =        48.25135021      -49.64137599
  entropy T*S    EENTRO =         0.00000000
  eigenvalues    EBANDS =       -29.80837740
  atomic energy  EATOM  =        78.41123386
  Solvation  Ediel_sol  =         0.00000000
  ---------------------------------------------------
  free energy    TOTEN  =        -0.07978380 eV

  energy without entropy =       -0.07978380  energy(sigma->0) =       -0.07978380


--------------------------------------------------------------------------------------------------------




--------------------------------------- Iteration      1(  10)  ---------------------------------------


    POTLOK:  cpu time    0.0029: real time    0.0026
    SETDIJ:  cpu time    0.0032: real time    0.0034
     EDDAV:  cpu time    0.1184: real time    0.1188
       DOS:  cpu time    0.0003: real time    0.0003
    --------------------------------------------
      LOOP:  cpu time    0.1245: real time    0.1251

 eigenvalue-minimisations  :  3064
 total energy-change (2. order) :-0.2428649E-08  (-0.7185251E-08)
 number of electron       2.0000001 magnetization 
 augmentation part        0.2996735 magnetization 

 Free energy of the ion-electron system (eV)
  ---------------------------------------------------
  alpha Z        PSCENC =         0.62263337
  Ewald energy   TEWEN  =       -32.81689722
  -Hartree energ DENC   =       -22.76385142
  -exchange      EXHF   =         0.00000000
  -V(xc)+E(xc)   XCENC  =         7.66642830
  PAW double counting   =        48.23648492      -49.62621507
  entropy T*S    EENTRO =         0.00000000
  eigenvalues    EBANDS =       -29.80960054
  atomic energy  EATOM  =        78.41123386
  Solvation  Ediel_sol  =         0.00000000
  ---------------------------------------------------
  free energy    TOTEN  =        -0.07978381 eV

  energy without entropy =       -0.07978381  energy(sigma->0) =       -0.07978381


--------------------------------------------------------------------------------------------------------




 average (electrostatic) potential at core
  the test charge radii are     0.5871
  (the norm of the test charge is              1.0000)
       1 -50.9135
 
 
 
 E-fermi : -14.5095     XC(G=0):  -5.2991     alpha+bet : -0.9963


 k-point     1 :       0.0000    0.0000    0.0000
  band No.  band energies     occupation 
      1     -15.8076      2.00000
      2       3.7503      0.00000
      3      20.7043      0.00000
      4      20.7043      0.00000
      5      20.7043      0.00000
      6      24.0107      0.00000
      7      24.0107      0.00000
      8      24.0108      0.00000

 k-point     2 :       0.1429    0.0000    0.0000
  band No.  band energies     occupation 
      1     -15.6346      2.00000
      2       3.6306      0.00000
      3      16.9291      0.00000
      4      19.7507      0.00000
      5      19.7507      0.00000
      6      24.0506      0.00000
      7      25.5954      0.00000
      8      25.5955      0.00000

 k-point     3 :       0.2857    0.0000    0.0000
  band No.  band energies     occupation 
      1     -15.2644      2.00000
      2       3.3306      0.00000
      3      12.7243      0.00000
      4      18.8187      0.00000
      5      18.8188      0.00000
      6      24.1079      0.00000
      7      24.1080      0.00000
      8      24.3378      0.00000

 k-point     4 :       0.4286    0.0000    0.0000
  band No.  band energies     occupation 
      1     -14.9195      2.00000
      2       3.1349      0.00000
      3      10.4053      0.00000
      4      18.5404      0.00000
      5      18.5405      0.00000
      6      22.2908      0.00000
      7      22.2909      0.00000
      8      23.1771      0.00000

 k-point     5 :       0.0000    0.1429    0.0000
  band No.  band energies     occupation 
      1     -15.6346      2.00000
      2       3.6306      0.00000
      3      16.9291      0.00000
      4      19.7507      0.00000
      5      19.7507      0.00000
      6      24.0506      0.00000
      7      25.5954      0.00000
      8      25.5955      0.00000

 k-point     6 :       0.1429    0.1429    0.0000
  band No.  band energies     occupation 
      1     -15.5917      2.00000
      2       3.6134      0.00000
      3      17.6939      0.00000
      4      17.6940      0.00000
      5      20.0449      0.00000
      6      21.7136      0.00000
      7      23.3124      0.00000
      8      28.1982      0.00000

 k-point     7 :       0.2857    0.1429    0.0000
  band No.  band energies     occupation 
      1     -15.2963      2.00000
      2       3.5027      0.00000
      3      13.6958      0.00000
      4      16.4477      0.00000
      5      19.3822      0.00000
      6      21.1165      0.00000
      7      23.0503      0.00000
      8      28.5445      0.00000

 k-point     8 :       0.4286    0.1429    0.0000
  band No.  band energies     occupation 
      1     -14.9306      2.00000
      2       3.5363      0.00000
      3      10.3725      0.00000
      4      16.2340      0.00000
      5      17.2321      0.00000
      6      21.2276      0.00000
      7      26.0754      0.00000
      8      26.5829      0.00000

 k-point     9 :      -0.4286    0.1429    0.0000
  band No.  band energies     occupation 
      1     -14.8064      2.00000
      2       3.6028      0.00000
      3       9.3056      0.00000
      4      16.2512      0.00000
      5      17.0521      0.00000
      6      21.2662      0.00000
      7      24.5173      0.00000
      8      28.7251      0.00000

 k-point    10 :      -0.2857    0.1429   -0.0000
  band No.  band energies     occupation 
      1     -15.0381      2.00000
      2       3.4980      0.00000
      3      10.8948      0.00000
[...]
   56.582933    0.948350    0.948756    0.948388    0.000143   -0.000171   -0.000158
   57.225921    0.950148    0.950499    0.950168    0.000122   -0.000153   -0.000144
   57.868909    0.951823    0.952132    0.951831    0.000106   -0.000138   -0.000132
   58.511897    0.953392    0.953668    0.953391    0.000093   -0.000126   -0.000122
   59.154885    0.954867    0.955116    0.954859    0.000083   -0.000116   -0.000113
   59.797873    0.956257    0.956483    0.956244    0.000075   -0.000107   -0.000105
   60.440860    0.957571    0.957779    0.957555    0.000068   -0.000100   -0.000098
   61.083848    0.958815    0.959008    0.958797    0.000062   -0.000093   -0.000092
   61.726836    0.959997    0.960175    0.959977    0.000057   -0.000087   -0.000087
   62.369824    0.961120    0.961286    0.961098    0.000053   -0.000082   -0.000082
   63.012812    0.962189    0.962345    0.962167    0.000049   -0.000077   -0.000078
   63.655800    0.963208    0.963355    0.963185    0.000046   -0.000073   -0.000074

  frequency dependent IMAGINARY DIELECTRIC FUNCTION (independent particle, no local field effects) current-current (2nd set in vasprun.xml)
     E(ev)      X         Y         Z        XY        YZ        ZX
  --------------------------------------------------------------------------------------------------------------
    0.000000    0.579101    0.578835    0.579262    0.023858    0.007293   -0.004324
    0.642988    0.058008    0.057981    0.058024    0.002386    0.000729   -0.000432
    1.285976    0.029152    0.029139    0.029160    0.001194    0.000365   -0.000216
    1.928964    0.019602    0.019593    0.019607    0.000797    0.000244   -0.000144
    2.571952    0.014880    0.014873    0.014884    0.000598    0.000183   -0.000108
    3.214939    0.012092    0.012087    0.012095    0.000480    0.000147   -0.000087
    3.857927    0.010274    0.010270    0.010277    0.000401    0.000123   -0.000072
    4.500915    0.009014    0.009010    0.009017    0.000344    0.000106   -0.000062
    5.143903    0.008107    0.008103    0.008109    0.000302    0.000093   -0.000054
    5.786891    0.007438    0.007435    0.007440    0.000269    0.000083   -0.000048
    6.429879    0.006942    0.006940    0.006944    0.000243    0.000075   -0.000044
    7.072867    0.006578    0.006575    0.006579    0.000222    0.000069   -0.000040
    7.715855    0.006318    0.006316    0.006320    0.000205    0.000063   -0.000037
    8.358842    0.006148    0.006146    0.006150    0.000190    0.000059   -0.000034
    9.001830    0.006059    0.006057    0.006060    0.000177    0.000055   -0.000032
    9.644818    0.006046    0.006044    0.006047    0.000167    0.000052   -0.000029
   10.287806    0.006112    0.006110    0.006113    0.000157    0.000049   -0.000028
   10.930794    0.006263    0.006262    0.006265    0.000149    0.000047   -0.000026
   11.573782    0.006516    0.006514    0.006517    0.000142    0.000044   -0.000025
   12.216770    0.006892    0.006891    0.006893    0.000135    0.000043   -0.000024
   12.859758    0.007434    0.007432    0.007435    0.000130    0.000041   -0.000023
   13.502745    0.008206    0.008204    0.008207    0.000125    0.000039   -0.000022
   14.145733    0.009324    0.009323    0.009325    0.000120    0.000038   -0.000021
   14.788721    0.010999    0.010998    0.011000    0.000116    0.000037   -0.000020
   15.431709    0.013662    0.013661    0.013663    0.000112    0.000036   -0.000019
   16.074697    0.018316    0.018315    0.018317    0.000109    0.000035   -0.000018
   16.717685    0.027879    0.027878    0.027880    0.000106    0.000034   -0.000018
   17.360673    0.055277    0.055276    0.055278    0.000104    0.000034   -0.000017
   18.003661    0.399091    0.399090    0.399092    0.000101    0.000033   -0.000017
   18.646648    1.186052    1.186049    1.186051    0.000100    0.000033   -0.000015
   19.289636    1.120460    1.120456    1.120458    0.000099    0.000033   -0.000015
   19.932624    0.739516    0.739512    0.739514    0.000098    0.000033   -0.000014
   20.575612    0.093851    0.093849    0.093851    0.000095    0.000032   -0.000014
   21.218600    0.233388    0.233386    0.233388    0.000094    0.000031   -0.000014
   21.861588    0.084796    0.084795    0.084798    0.000091    0.000030   -0.000015
   22.504576    0.216095    0.216094    0.216096    0.000090    0.000031   -0.000014
   23.147564    0.446721    0.446722    0.446725    0.000088    0.000030   -0.000015
   23.790551    0.124649    0.124647    0.124649    0.000090    0.000031   -0.000013
   24.433539    0.560518    0.560514    0.560516    0.000091    0.000032   -0.000011
   25.076527    0.095639    0.095649    0.095654    0.000079    0.000027   -0.000020
   25.719515    0.315091    0.315091    0.315094    0.000087    0.000030   -0.000014
   26.362503    0.256764    0.256764    0.256766    0.000087    0.000031   -0.000013
   27.005491    0.105815    0.105815    0.105817    0.000088    0.000032   -0.000012
   27.648479    0.102067    0.102066    0.102069    0.000088    0.000032   -0.000012
   28.291467    0.146522    0.146521    0.146524    0.000089    0.000033   -0.000012
   28.934454    0.342066    0.342066    0.342069    0.000090    0.000033   -0.000012
   29.577442    0.378633    0.378634    0.378637    0.000090    0.000034   -0.000012
   30.220430    0.055084    0.055083    0.055085    0.000092    0.000035   -0.000011
   30.863418    0.206975    0.206974    0.206977    0.000093    0.000036   -0.000011
   31.506406    0.150189    0.150191    0.150196    0.000092    0.000036   -0.000013
   32.149394    0.225250    0.225242    0.225244    0.000103    0.000041   -0.000007
   32.792382    0.106170    0.106167    0.106171    0.000101    0.000040   -0.000010
   33.435370    0.333539    0.333537    0.333541    0.000103    0.000042   -0.000009
   34.078357    0.244813    0.244810    0.244814    0.000107    0.000044   -0.000009
   34.721345    0.084597    0.084595    0.084600    0.000110    0.000046   -0.000009
   35.364333    0.203691    0.203688    0.203693    0.000116    0.000050   -0.000008
   36.007321    0.270194    0.270190    0.270196    0.000122    0.000053   -0.000007
   36.650309    0.120042    0.120038    0.120044    0.000128    0.000058   -0.000007
   37.293297    0.181144    0.181140    0.181147    0.000137    0.000063   -0.000005
   37.936285    0.065865    0.065878    0.065891    0.000131    0.000063   -0.000015
   38.579273    0.029949    0.029942    0.029953    0.000161    0.000078   -0.000002
   39.222260    0.077294    0.077285    0.077297    0.000179    0.000089    0.000001
   39.865248    0.173167    0.173158    0.173174    0.000200    0.000102    0.000002
   40.508236    0.183431    0.183420    0.183442    0.000231    0.000122    0.000006
   41.151224    0.082940    0.082923    0.082956    0.000278    0.000151    0.000012
   41.794212    0.026016    0.025988    0.026043    0.000357    0.000199    0.000022
   42.437200    0.045392    0.045335    0.045448    0.000515    0.000292    0.000040
   43.080188    0.015579    0.015383    0.015771    0.000973    0.000532    0.000072
   43.723176    0.163873    0.156991    0.170477    0.005872    0.000141   -0.001663
   44.366163    0.044977    0.044706    0.045248   -0.000866   -0.000800   -0.000326
   45.009151    0.003664    0.003605    0.003731   -0.000431   -0.000374   -0.000155
   45.652139    0.002362    0.002341    0.002400   -0.000278   -0.000244   -0.000111
   46.295127    0.010998    0.010993    0.011033   -0.000202   -0.000178   -0.000089
   46.938115    0.009301    0.009312    0.009353   -0.000162   -0.000128   -0.000066
   47.581103    0.001290    0.001349    0.001420   -0.000152   -0.000042    0.000005
   48.224091    0.001842    0.002424    0.002885   -0.000322    0.000748    0.000955
   48.867079    0.001847    0.002410    0.002859   -0.000105    0.000784    0.001297
   49.510067    0.003056    0.003097    0.003164   -0.000010   -0.000015    0.000115
   50.153054    0.002868    0.002851    0.002891    0.000012   -0.000095   -0.000018
   50.796042    0.000674    0.000610    0.000654    0.000038   -0.000136   -0.000086
   51.439030    0.000619    0.000425    0.000519    0.000074   -0.000193   -0.000174
   52.082018    0.002535    0.000919    0.001623   -0.000098   -0.000287   -0.000460
   52.725006    0.002433    0.000855    0.001541   -0.001162    0.000772    0.000652
   53.367994    0.000436    0.000252    0.000335   -0.000300    0.000192    0.000214
   54.010982    0.000244    0.000179    0.000210   -0.000176    0.000096    0.000126
   54.653970    0.000179    0.000147    0.000163   -0.000127    0.000059    0.000088
   55.296957    0.000145    0.000127    0.000137   -0.000101    0.000040    0.000067
   55.939945    0.000124    0.000111    0.000118   -0.000084    0.000028    0.000053
   56.582933    0.000108    0.000099    0.000104   -0.000073    0.000021    0.000044
   57.225921    0.000095    0.000089    0.000093   -0.000064    0.000016    0.000037
   57.868909    0.000085    0.000081    0.000084   -0.000057    0.000012    0.000032
   58.511897    0.000077    0.000073    0.000076   -0.000052    0.000009    0.000028
   59.154885    0.000070    0.000067    0.000069   -0.000047    0.000007    0.000025
   59.797873    0.000064    0.000061    0.000063   -0.000044    0.000006    0.000022
   60.440860    0.000058    0.000056    0.000058   -0.000040    0.000005    0.000020
   61.083848    0.000054    0.000052    0.000053   -0.000037    0.000004    0.000018
   61.726836    0.000049    0.000048    0.000049   -0.000035    0.000003    0.000017
   62.369824    0.000046    0.000044    0.000045   -0.000033    0.000002    0.000015
   63.012812    0.000042    0.000041    0.000042   -0.000031    0.000002    0.000014
   63.655800    0.000039    0.000038    0.000039   -0.000029    0.000001    0.000013

  frequency dependent      REAL DIELECTRIC FUNCTION (independent particle, no local field effects) current-current (2nd set in vasprun.xml)
     E(ev)        X           Y           Z          XY          YZ          ZX
  --------------------------------------------------------------------------------------------------------------
    0.000000    1.186161    1.186075    1.186212   -0.000013    0.000042    0.000046
    0.642988    1.186317    1.186232    1.186369   -0.000013    0.000042    0.000046
    1.285976    1.186794    1.186708    1.186845   -0.000013    0.000042    0.000046
    1.928964    1.187594    1.187508    1.187646   -0.000013    0.000042    0.000046
    2.571952    1.188728    1.188642    1.188780   -0.000013    0.000042    0.000046
    3.214939    1.190209    1.190123    1.190261   -0.000013    0.000042    0.000046
    3.857927    1.192057    1.191971    1.192109   -0.000013    0.000042    0.000046
    4.500915    1.194295    1.194208    1.194347   -0.000013    0.000043    0.000046
    5.143903    1.196953    1.196867    1.197006   -0.000013    0.000043    0.000047
    5.786891    1.200071    1.199984    1.200123   -0.000013    0.000043    0.000047
    6.429879    1.203694    1.203607    1.203747   -0.000013    0.000043    0.000047
    7.072867    1.207881    1.207793    1.207934   -0.000013    0.000043    0.000047
    7.715855    1.212705    1.212617    1.212758   -0.000013    0.000043    0.000047
    8.358842    1.218256    1.218168    1.218310   -0.000013    0.000043    0.000047
    9.001830    1.224648    1.224559    1.224702   -0.000013    0.000044    0.000048
    9.644818    1.232027    1.231938    1.232082   -0.000013    0.000044    0.000048
   10.287806    1.240581    1.240491    1.240635   -0.000014    0.000044    0.000048
   10.930794    1.250555    1.250465    1.250610   -0.000014    0.000044    0.000048
   11.573782    1.262281    1.262190    1.262337   -0.000014    0.000044    0.000049
   12.216770    1.276212    1.276120    1.276268   -0.000014    0.000045    0.000049
   12.859758    1.292987    1.292895    1.293044   -0.000014    0.000045    0.000049
   13.502745    1.313547    1.313454    1.313604   -0.000014    0.000045    0.000050
   14.145733    1.339326    1.339232    1.339384   -0.000014    0.000046    0.000050
   14.788721    1.372657    1.372562    1.372715   -0.000014    0.000046    0.000050
   15.431709    1.417620    1.417524    1.417679   -0.000014    0.000046    0.000051
   16.074697    1.482168    1.482071    1.482228   -0.000014    0.000047    0.000051
   16.717685    1.584540    1.584442    1.584600   -0.000014    0.000047    0.000052
   17.360673    1.780702    1.780603    1.780763   -0.000013    0.000048    0.000053
   18.003661    2.372088    2.371988    2.372150   -0.000013    0.000048    0.000053
   18.646648    1.480925    1.480822    1.480986   -0.000012    0.000049    0.000055
   19.289636    0.069626    0.069525    0.069692   -0.000015    0.000049    0.000053
   19.932624    0.251160    0.251058    0.251228   -0.000015    0.000049    0.000054
   20.575612    0.798700    0.798594    0.798766   -0.000013    0.000050    0.000056
   21.218600    0.850435    0.850345    0.850524   -0.000029    0.000045    0.000046
   21.861588    0.834107    0.833997    0.834175   -0.000013    0.000052    0.000057
   22.504576    0.781637    0.781528    0.781709   -0.000014    0.000052    0.000057
   23.147564    1.222035    1.221924    1.222109   -0.000015    0.000052    0.000057
   23.790551    0.846865    0.846750    0.846937   -0.000012    0.000054    0.000060
   24.433539    1.004276    1.004185    1.004383   -0.000035    0.000046    0.000045
   25.076527    0.880158    0.880025    0.880217   -0.000001    0.000061    0.000070
   25.719515    0.843848    0.843726    0.843926   -0.000012    0.000057    0.000063
   26.362503    0.737739    0.737615    0.737820   -0.000013    0.000058    0.000064
   27.005491    1.031203    1.031078    1.031289   -0.000014    0.000058    0.000064
   27.648479    0.906836    0.906706    0.906922   -0.000013    0.000060    0.000066
   28.291467    0.839352    0.839220    0.839442   -0.000013    0.000061    0.000067
   28.934454    1.272363    1.272232    1.272462   -0.000016    0.000060    0.000066
   29.577442    0.739008    0.738868    0.739104   -0.000012    0.000063    0.000070
   30.220430    0.871240    0.871097    0.871341   -0.000013    0.000064    0.000071
   30.863418    1.197943    1.197796    1.198049   -0.000013    0.000065    0.000072
   31.506406    0.915503    0.915358    0.915622   -0.000018    0.000064    0.000070
   32.149394    0.757800    0.757651    0.757926   -0.000019    0.000066    0.000071
   32.792382    0.812620    0.812457    0.812742   -0.000012    0.000070    0.000077
   33.435370    0.837210    0.837040    0.837338   -0.000010    0.000072    0.000080
   34.078357    0.771054    0.770876    0.771188   -0.000009    0.000074    0.000082
   34.721345    0.824381    0.824195    0.824524   -0.000008    0.000076    0.000085
   35.364333    0.892064    0.891869    0.892217   -0.000007    0.000077    0.000087
   36.007321    1.131374    1.131167    1.131537   -0.000004    0.000080    0.000090
   36.650309    0.692063    0.691845    0.692241   -0.000003    0.000081    0.000091
   37.293297    0.831918    0.831686    0.832113   -0.000001    0.000083    0.000093
   37.936285    0.761540    0.761297    0.761763   -0.000003    0.000082    0.000091
   38.579273    0.815481    0.815211    0.815721    0.000007    0.000085    0.000096
   39.222260    0.938798    0.938494    0.939059    0.000019    0.000088    0.000101
   39.865248    0.822770    0.822434    0.823075    0.000026    0.000086    0.000099
   40.508236    0.907333    0.906946    0.907690    0.000042    0.000083    0.000096
   41.151224    0.798879    0.798421    0.799315    0.000065    0.000074    0.000087
   41.794212    0.825295    0.824717    0.825852    0.000105    0.000054    0.000067
   42.437200    0.858286    0.857480    0.859076    0.000181   -0.000001    0.000013
   43.080188    0.877270    0.875838    0.878682    0.000363   -0.000205   -0.000178
   43.723176    0.846984    0.842593    0.851424   -0.002568   -0.003937   -0.001979
   44.366163    0.818753    0.820283    0.817342   -0.001019    0.000598    0.000839
   45.009151    0.866571    0.867277    0.866013   -0.000530    0.000520    0.000658
   45.652139    0.887495    0.887951    0.887257   -0.000408    0.000533    0.000663
   46.295127    0.912901    0.913263    0.912890   -0.000370    0.000608    0.000759
   46.938115    0.891211    0.891578    0.891462   -0.000375    0.000775    0.000978
   47.581103    0.904536    0.905079    0.905287   -0.000435    0.001184    0.001525
   48.224091    0.915009    0.916667    0.917877   -0.000730    0.003029    0.004042
   48.867079    0.915254    0.913009    0.911469    0.000246   -0.002727   -0.003726
   49.510067    0.927524    0.926357    0.925816   -0.000130   -0.000877   -0.001296
   50.153054    0.916375    0.915287    0.915056   -0.000261   -0.000437   -0.000737
   50.796042    0.925860    0.924557    0.924580   -0.000408   -0.000203   -0.000480
   51.439030    0.931480    0.929495    0.929907   -0.000704    0.000035   -0.000296
   52.082018    0.939681    0.934451    0.936327   -0.002064    0.000810    0.000122
   52.725006    0.928261    0.933338    0.930817    0.001716   -0.000932   -0.000393
   53.367994    0.935642    0.937444    0.936371    0.000652   -0.000477   -0.000323
   54.010982    0.939172    0.940248    0.939517    0.000392   -0.000339   -0.000264
   54.653970    0.941908    0.942672    0.942100    0.000278   -0.000269   -0.000225
   55.296957    0.944273    0.944863    0.944385    0.000213   -0.000225   -0.000197
   55.939945    0.946397    0.946878    0.946464    0.000172   -0.000194   -0.000176
   56.582933    0.948341    0.948747    0.948380    0.000143   -0.000171   -0.000158
   57.225921    0.950139    0.950490    0.950160    0.000122   -0.000153   -0.000144
   57.868909    0.951815    0.952124    0.951823    0.000106   -0.000138   -0.000132
   58.511897    0.953384    0.953660    0.953383    0.000094   -0.000126   -0.000122
   59.154885    0.954859    0.955108    0.954851    0.000083   -0.000116   -0.000113
   59.797873    0.956249    0.956476    0.956237    0.000075   -0.000107   -0.000105
   60.440860    0.957563    0.957771    0.957548    0.000068   -0.000099   -0.000098
   61.083848    0.958808    0.959000    0.958790    0.000062   -0.000093   -0.000092
   61.726836    0.959990    0.960168    0.959970    0.000057   -0.000087   -0.000087
   62.369824    0.961113    0.961279    0.961092    0.000053   -0.000082   -0.000082
   63.012812    0.962182    0.962338    0.962160    0.000049   -0.000077   -0.000078
   63.655800    0.963201    0.963348    0.963179    0.000046   -0.000073   -0.000074
 
 The outermost node in the dielectric function lies at epsilon=  -1.0


--------------------------------------------------------------------------------------------------------


    OPTICS:  cpu time    0.0857: real time    0.0876
    4ORBIT:  cpu time    0.0000: real time    0.0000

 total amount of memory used by VASP MPI-rank0    32464. kBytes
=======================================================================

   base      :      30000. kBytes
   nonl-proj :       1233. kBytes
   fftplans  :        627. kBytes
   grid      :        196. kBytes
   one-center:         12. kBytes
   wavefun   :        396. kBytes
 
  
  
 General timing and accounting informations for this job:
 ========================================================
  
                  Total CPU time used (sec):        5.346
                            User time (sec):        2.771
                          System time (sec):        2.576
                         Elapsed time (sec):        3.077
  
                   Maximum memory used (kb):       67268.
                   Average memory used (kb):           0.
  
                          Minor page faults:        15434
                          Major page faults:            0
                 Voluntary context switches:         8062
