   1   1   0   0
  0.6532254E+02  0.4520565E-09  0.4520565E-09  0.4520565E-09  0.1000000E-15
  1.000000000000000E-004
  CAR 
 Og_FCC                                  
     52.58070678    -48.71625149  301     -1.27550937      1.00000000
    -48.716  0.0000E+00  0.0000E+00
    -48.379  0.0000E+00  0.0000E+00
    -48.041  0.0000E+00  0.0000E+00
    -47.703  0.0000E+00  0.0000E+00
    -47.366  0.0000E+00  0.0000E+00
    -47.028  0.0000E+00  0.0000E+00
    -46.690  0.0000E+00  0.0000E+00
    -46.353  0.0000E+00  0.0000E+00
    -46.015  0.0000E+00  0.0000E+00
    -45.677  0.0000E+00  0.0000E+00
    -45.340  0.0000E+00  0.0000E+00
    -45.002  0.0000E+00  0.0000E+00
    -44.664  0.0000E+00  0.0000E+00
    -44.327  0.0000E+00  0.0000E+00
    -43.989  0.0000E+00  0.4000E+01
    -43.651  0.0000E+00  0.4000E+01
    -43.314  0.0000E+00  0.4000E+01
    -42.976  0.0000E+00  0.4000E+01
    -42.638  0.0000E+00  0.4000E+01
    -42.301  0.0000E+00  0.4000E+01
    -41.963  0.0000E+00  0.4000E+01
    -41.625  0.0000E+00  0.4000E+01
    -41.288  0.0000E+00  0.4000E+01
    -40.950  0.0000E+00  0.4000E+01
    -40.612  0.0000E+00  0.4000E+01
    -40.275  0.0000E+00  0.4000E+01
    -39.937  0.0000E+00  0.4000E+01
    -39.600  0.0000E+00  0.1000E+02
    -39.262  0.0000E+00  0.1000E+02
    -38.924  0.0000E+00  0.1000E+02
    -38.587  0.0000E+00  0.1000E+02
    -38.249  0.0000E+00  0.1000E+02
    -37.911  0.0000E+00  0.1000E+02
    -37.574  0.0000E+00  0.1000E+02
    -37.236  0.0000E+00  0.1000E+02
    -36.898  0.0000E+00  0.1000E+02
    -36.561  0.0000E+00  0.1000E+02
    -36.223  0.0000E+00  0.1000E+02
    -35.885  0.0000E+00  0.1000E+02
    -35.548  0.0000E+00  0.1000E+02
    -35.210  0.0000E+00  0.1000E+02
    -34.872  0.0000E+00  0.1000E+02
    -34.535  0.0000E+00  0.1000E+02
    -34.197  0.0000E+00  0.1000E+02
    -33.859  0.0000E+00  0.1000E+02
    -33.522  0.0000E+00  0.1000E+02
    -33.184  0.0000E+00  0.1000E+02
    -32.846  0.0000E+00  0.1000E+02
    -32.509  0.0000E+00  0.1000E+02
    -32.171  0.0000E+00  0.1000E+02
    -31.833  0.0000E+00  0.1000E+02
    -31.496  0.0000E+00  0.1000E+02
    -31.158  0.0000E+00  0.1000E+02
    -30.820  0.0000E+00  0.1000E+02
    -30.483  0.0000E+00  0.1000E+02
    -30.145  0.0000E+00  0.1000E+02
    -29.807  0.0000E+00  0.1000E+02
    -29.470  0.0000E+00  0.1000E+02
    -29.132  0.0000E+00  0.1000E+02
    -28.795  0.0000E+00  0.1000E+02
    -28.457  0.0000E+00  0.1000E+02
    -28.119  0.0000E+00  0.1000E+02
    -27.782  0.0000E+00  0.1000E+02
    -27.444  0.0000E+00  0.1000E+02
    -27.106  0.0000E+00  0.1000E+02
    -26.769  0.0000E+00  0.1000E+02
    -26.431  0.0000E+00  0.1000E+02
    -26.093  0.0000E+00  0.1000E+02
    -25.756  0.0000E+00  0.1000E+02
    -25.418  0.0000E+00  0.1000E+02
    -25.080  0.0000E+00  0.1000E+02
    -24.743  0.0000E+00  0.1000E+02
    -24.405  0.0000E+00  0.1000E+02
    -24.067  0.0000E+00  0.1000E+02
    -23.730  0.0000E+00  0.1000E+02
    -23.392  0.0000E+00  0.1000E+02
    -23.054  0.0000E+00  0.1000E+02
    -22.717  0.0000E+00  0.1000E+02
    -22.379  0.0000E+00  0.1000E+02
    -22.041  0.0000E+00  0.1000E+02
    -21.704  0.0000E+00  0.1000E+02
    -21.366  0.0000E+00  0.1000E+02
    -21.028  0.0000E+00  0.1000E+02
    -20.691  0.0000E+00  0.1000E+02
    -20.353  0.0000E+00  0.1000E+02
    -20.015  0.0000E+00  0.1000E+02
    -19.678  0.0000E+00  0.1000E+02
    -19.340  0.0000E+00  0.1000E+02
    -19.002  0.0000E+00  0.1000E+02
    -18.665  0.0000E+00  0.1000E+02
    -18.327  0.0000E+00  0.1000E+02
    -17.990  0.0000E+00  0.1000E+02
    -17.652  0.0000E+00  0.1000E+02
    -17.314  0.0000E+00  0.1009E+02
    -16.977  0.0000E+00  0.1200E+02
    -16.639  0.0000E+00  0.1200E+02
    -16.301  0.0000E+00  0.1200E+02
    -15.964  0.0000E+00  0.1200E+02
    -15.626  0.0000E+00  0.1200E+02
    -15.288  0.0000E+00  0.1200E+02
    -14.951  0.0000E+00  0.1200E+02
    -14.613  0.0000E+00  0.1200E+02
    -14.275  0.0000E+00  0.1200E+02
    -13.938  0.0000E+00  0.1200E+02
    -13.600  0.0000E+00  0.1200E+02
    -13.262  0.0000E+00  0.1200E+02
    -12.925  0.0000E+00  0.1200E+02
    -12.587  0.0000E+00  0.1200E+02
    -12.249  0.0000E+00  0.1200E+02
    -11.912  0.0000E+00  0.1200E+02
    -11.574  0.0000E+00  0.1200E+02
    -11.236  0.0000E+00  0.1200E+02
    -10.899  0.0000E+00  0.1200E+02
    -10.561  0.0000E+00  0.1200E+02
    -10.223  0.0000E+00  0.1200E+02
     -9.886  0.0000E+00  0.1200E+02
     -9.548  0.0000E+00  0.1200E+02
     -9.210  0.0000E+00  0.1200E+02
     -8.873  0.0000E+00  0.1200E+02
     -8.535  0.0000E+00  0.1200E+02
     -8.197  0.0000E+00  0.1200E+02
     -7.860  0.0000E+00  0.1200E+02
     -7.522  0.0000E+00  0.1200E+02
     -7.184  0.0000E+00  0.1200E+02
     -6.847  0.0000E+00  0.1200E+02
     -6.509  0.0000E+00  0.1200E+02
     -6.172  0.0000E+00  0.1200E+02
     -5.834  0.0000E+00  0.1200E+02
     -5.496  0.0000E+00  0.1362E+02
     -5.159  0.0000E+00  0.1399E+02
     -4.821  0.0000E+00  0.1400E+02
     -4.483  0.0000E+00  0.1400E+02
     -4.146  0.0000E+00  0.1400E+02
     -3.808  0.0000E+00  0.1400E+02
     -3.470  0.0000E+00  0.1400E+02
     -3.133  0.0000E+00  0.1400E+02
     -2.795  0.3784E+00  0.1451E+02
     -2.457  0.0000E+00  0.1562E+02
     -2.120  0.0000E+00  0.1640E+02
     -1.782  0.0000E+00  0.1742E+02
     -1.444  0.0000E+00  0.1794E+02
     -1.107  0.0000E+00  0.1800E+02
     -0.769  0.0000E+00  0.1800E+02
     -0.431  0.0000E+00  0.1800E+02
     -0.094  0.0000E+00  0.1800E+02
      0.244  0.0000E+00  0.1800E+02
      0.582  0.0000E+00  0.1800E+02
      0.919  0.0000E+00  0.1800E+02
      1.257  0.0000E+00  0.1800E+02
      1.595  0.0000E+00  0.1800E+02
      1.932  0.0000E+00  0.1800E+02
      2.270  0.0000E+00  0.1800E+02
      2.608  0.0000E+00  0.1801E+02
      2.945  0.0000E+00  0.1801E+02
      3.283  0.0000E+00  0.1809E+02
      3.621  0.0000E+00  0.1809E+02
      3.958  0.0000E+00  0.1816E+02
      4.296  0.0000E+00  0.1843E+02
      4.633  0.0000E+00  0.1853E+02
      4.971  0.8169E-01  0.1926E+02
      5.309  0.0000E+00  0.1969E+02
      5.646  0.0000E+00  0.2010E+02
      5.984  0.0000E+00  0.2070E+02
      6.322  0.2082E-14  0.2105E+02
      6.659  0.0000E+00  0.2182E+02
      6.997  0.4144E+00  0.2218E+02
      7.335  0.0000E+00  0.2322E+02
      7.672  0.0000E+00  0.2381E+02
      8.010  0.4144E+00  0.2460E+02
      8.348  0.0000E+00  0.2488E+02
      8.685  0.0000E+00  0.2541E+02
      9.023  0.1030E+00  0.2586E+02
      9.361  0.8045E-01  0.2645E+02
      9.698  0.0000E+00  0.2676E+02
     10.036  0.0000E+00  0.2702E+02
     10.374  0.0000E+00  0.2788E+02
     10.711  0.0000E+00  0.2834E+02
     11.049  0.3752E+00  0.2913E+02
     11.387  0.7919E-08  0.3005E+02
     11.724  0.0000E+00  0.3042E+02
     12.062  0.4144E+00  0.3101E+02
     12.400  0.0000E+00  0.3133E+02
     12.737  0.0000E+00  0.3170E+02
     13.075  0.0000E+00  0.3282E+02
     13.413  0.0000E+00  0.3408E+02
     13.750  0.0000E+00  0.3514E+02
     14.088  0.4634E-03  0.3536E+02
     14.426  0.0000E+00  0.3651E+02
     14.763  0.2844E-11  0.3682E+02
     15.101  0.0000E+00  0.3808E+02
     15.438  0.0000E+00  0.3841E+02
     15.776  0.0000E+00  0.3930E+02
     16.114  0.8289E+00  0.4057E+02
     16.451  0.4144E+00  0.4191E+02
     16.789  0.0000E+00  0.4397E+02
     17.127  0.0000E+00  0.4480E+02
     17.464  0.0000E+00  0.4505E+02
     17.802  0.0000E+00  0.4568E+02
     18.140  0.0000E+00  0.4620E+02
     18.477  0.0000E+00  0.4659E+02
     18.815  0.5824E-05  0.4727E+02
     19.153  0.0000E+00  0.4822E+02
     19.490  0.0000E+00  0.4928E+02
     19.828  0.0000E+00  0.4967E+02
     20.166  0.0000E+00  0.5086E+02
     20.503  0.0000E+00  0.5157E+02
     20.841  0.0000E+00  0.5290E+02
     21.179  0.0000E+00  0.5373E+02
     21.516  0.1381E+00  0.5480E+02
     21.854  0.1227E-01  0.5607E+02
     22.192  0.0000E+00  0.5683E+02
     22.529  0.0000E+00  0.5715E+02
     22.867  0.0000E+00  0.5781E+02
     23.205  0.0000E+00  0.5849E+02
     23.542  0.0000E+00  0.5948E+02
     23.880  0.0000E+00  0.6033E+02
     24.218  0.0000E+00  0.6069E+02
     24.555  0.1312E-01  0.6134E+02
     24.893  0.4144E+00  0.6230E+02
     25.231  0.0000E+00  0.6342E+02
     25.568  0.1194E-14  0.6434E+02
     25.906  0.0000E+00  0.6513E+02
     26.243  0.0000E+00  0.6609E+02
     26.581  0.0000E+00  0.6720E+02
     26.919  0.0000E+00  0.6901E+02
     27.256  0.0000E+00  0.6953E+02
     27.594  0.0000E+00  0.7068E+02
     27.932  0.1846E-10  0.7170E+02
     28.269  0.4144E+00  0.7245E+02
     28.607  0.0000E+00  0.7263E+02
     28.945  0.0000E+00  0.7291E+02
     29.282  0.0000E+00  0.7394E+02
     29.620  0.4144E+00  0.7474E+02
     29.958  0.0000E+00  0.7638E+02
     30.295  0.0000E+00  0.7694E+02
     30.633  0.0000E+00  0.7820E+02
     30.971  0.0000E+00  0.7965E+02
     31.308  0.0000E+00  0.8043E+02
     31.646  0.0000E+00  0.8161E+02
     31.984  0.8009E-01  0.8251E+02
     32.321  0.0000E+00  0.8359E+02
     32.659  0.0000E+00  0.8401E+02
     32.997  0.0000E+00  0.8544E+02
     33.334  0.0000E+00  0.8633E+02
     33.672  0.4144E+00  0.8700E+02
     34.010  0.0000E+00  0.8763E+02
     34.347  0.0000E+00  0.8874E+02
     34.685  0.0000E+00  0.8935E+02
     35.023  0.0000E+00  0.9048E+02
     35.360  0.0000E+00  0.9073E+02
     35.698  0.0000E+00  0.9198E+02
     36.036  0.4218E-12  0.9303E+02
     36.373  0.0000E+00  0.9388E+02
     36.711  0.0000E+00  0.9569E+02
     37.049  0.0000E+00  0.9648E+02
     37.386  0.1381E+00  0.9718E+02
     37.724  0.1017E+00  0.9785E+02
     38.061  0.4144E+00  0.9896E+02
     38.399  0.0000E+00  0.1001E+03
     38.737  0.4144E+00  0.1010E+03
     39.074  0.0000E+00  0.1024E+03
     39.412  0.0000E+00  0.1037E+03
     39.750  0.2072E+00  0.1045E+03
     40.087  0.0000E+00  0.1053E+03
     40.425  0.8289E+00  0.1065E+03
     40.763  0.0000E+00  0.1076E+03
     41.100  0.4144E+00  0.1086E+03
     41.438  0.2578E+00  0.1098E+03
     41.776  0.0000E+00  0.1111E+03
     42.113  0.2088E-13  0.1121E+03
     42.451  0.4144E+00  0.1130E+03
     42.789  0.0000E+00  0.1140E+03
     43.126  0.0000E+00  0.1148E+03
     43.464  0.0000E+00  0.1161E+03
     43.802  0.0000E+00  0.1176E+03
     44.139  0.1003E+00  0.1182E+03
     44.477  0.0000E+00  0.1187E+03
     44.815  0.0000E+00  0.1195E+03
     45.152  0.0000E+00  0.1208E+03
     45.490  0.4144E+00  0.1217E+03
     45.828  0.0000E+00  0.1229E+03
     46.165  0.0000E+00  0.1237E+03
     46.503  0.0000E+00  0.1252E+03
     46.841  0.5335E-13  0.1259E+03
     47.178  0.0000E+00  0.1266E+03
     47.516  0.0000E+00  0.1271E+03
     47.854  0.2613E-06  0.1277E+03
     48.191  0.0000E+00  0.1280E+03
     48.529  0.0000E+00  0.1280E+03
     48.866  0.0000E+00  0.1280E+03
     49.204  0.0000E+00  0.1280E+03
     49.542  0.0000E+00  0.1280E+03
     49.879  0.0000E+00  0.1280E+03
     50.217  0.0000E+00  0.1280E+03
     50.555  0.0000E+00  0.1280E+03
     50.892  0.0000E+00  0.1280E+03
     51.230  0.0000E+00  0.1280E+03
     51.568  0.0000E+00  0.1280E+03
     51.905  0.0000E+00  0.1280E+03
     52.243  0.0000E+00  0.1280E+03
     52.581  0.0000E+00  0.1280E+03
