    1    1    1    1
  0.6532254E+02  0.4520565E-09  0.4520565E-09  0.4520565E-09  0.1000000E-15
  1.000000000000000E-004
  CAR 
 Og_FCC                                  
     18    343    128
 
  0.0000000E+00  0.0000000E+00  0.0000000E+00  0.2915452E-02
    1      -44.111844   1.000000
    2      -44.111844   1.000000
    3      -44.111843   1.000000
    4      -44.111843   1.000000
    5      -39.707681   1.000000
    6      -39.707681   1.000000
    7      -39.707309   1.000000
    8      -39.707309   1.000000
    9      -39.707308   1.000000
   10      -39.707307   1.000000
   11      -17.360751   1.000000
   12      -17.360751   1.000000
   13       -5.083923   1.000000
   14       -5.083923   1.000000
   15       -1.374109   1.000000
   16       -1.374109   1.000000
   17       -1.374109   1.000000
   18       -1.374109   1.000000
   19        2.422732   0.000000
   20        2.422732   0.000000
   21        7.618659   0.000000
   22        7.618659   0.000000
   23        7.618660   0.000000
   24        7.618660   0.000000
   25        7.774454   0.000000
   26        7.774454   0.000000
   27        9.437526   0.000000
   28        9.437526   0.000000
   29       10.056355   0.000000
   30       10.056355   0.000000
   31       10.056355   0.000000
   32       10.056355   0.000000
   33       11.390081   0.000000
   34       11.390081   0.000000
   35       11.486122   0.000000
   36       11.486122   0.000000
   37       11.486122   0.000000
   38       11.486122   0.000000
   39       13.963144   0.000000
   40       13.963146   0.000000
   41       18.244093   0.000000
   42       18.244093   0.000000
   43       18.276477   0.000000
   44       18.276477   0.000000
   45       18.276478   0.000000
   46       18.276478   0.000000
   47       20.689528   0.000000
   48       20.689528   0.000000
   49       22.070217   0.000000
   50       22.070217   0.000000
   51       22.070218   0.000000
   52       22.070218   0.000000
   53       23.022273   0.000000
   54       23.022274   0.000000
   55       24.188592   0.000000
   56       24.188593   0.000000
   57       24.188593   0.000000
   58       24.188593   0.000000
   59       24.349601   0.000000
   60       24.349602   0.000000
   61       24.541417   0.000000
   62       24.541417   0.000000
   63       25.180024   0.000000
   64       25.180024   0.000000
   65       25.180024   0.000000
   66       25.180024   0.000000
   67       25.327983   0.000000
   68       25.327983   0.000000
   69       25.327984   0.000000
   70       25.327984   0.000000
   71       26.737101   0.000000
   72       26.737103   0.000000
   73       32.773535   0.000000
   74       32.773536   0.000000
   75       32.802931   0.000000
   76       32.802931   0.000000
   77       32.802931   0.000000
   78       32.802931   0.000000
   79       34.526051   0.000000
   80       34.526052   0.000000
   81       34.526052   0.000000
   82       34.526052   0.000000
   83       34.741008   0.000000
   84       34.741008   0.000000
   85       35.327635   0.000000
   86       35.327636   0.000000
   87       35.327636   0.000000
   88       35.327636   0.000000
   89       35.327636   0.000000
   90       35.327636   0.000000
   91       35.765651   0.000000
   92       35.765651   0.000000
   93       35.765652   0.000000
   94       35.765652   0.000000
   95       35.948558   0.000000
   96       35.948558   0.000000
   97       36.161396   0.000000
   98       36.161397   0.000000
   99       36.161397   0.000000
  100       36.161398   0.000000
  101       38.113556   0.000000
  102       38.113557   0.000000
  103       38.113557   0.000000
  104       38.113558   0.000000
  105       38.141698   0.000000
  106       38.141698   0.000000
  107       38.509621   0.000000
  108       38.509624   0.000000
  109       38.833264   0.000000
  110       38.833264   0.000000
  111       38.833264   0.000000
  112       38.833264   0.000000
  113       40.828108   0.000000
  114       40.828109   0.000000
  115       40.842443   0.000000
  116       40.842443   0.000000
  117       40.842444   0.000000
  118       40.842444   0.000000
  119       41.086548   0.000000
  120       41.086549   0.000000
  121       41.802695   0.000000
  122       41.802696   0.000000
  123       42.121968   0.000000
  124       42.121968   0.000000
  125       42.121969   0.000000
  126       42.121969   0.000000
  127       42.137237   0.000000
  128       42.137238   0.000000
 
  0.1428571E+00  0.1290130E-17 -0.6938894E-17  0.2915452E-02
    1      -44.111812   1.000000
    2      -44.111812   1.000000
    3      -44.111762   1.000000
    4      -44.111762   1.000000
    5      -39.708066   1.000000
    6      -39.708066   1.000000
    7      -39.707834   1.000000
    8      -39.707834   1.000000
    9      -39.707818   1.000000
   10      -39.707817   1.000000
   11      -17.337413   1.000000
   12      -17.337412   1.000000
   13       -5.183703   1.000000
   14       -5.183703   1.000000
   15       -1.769360   1.000000
   16       -1.769360   1.000000
   17       -1.425194   1.000000
   18       -1.425194   1.000000
   19        3.053401   0.000000
   20        3.053401   0.000000
   21        7.051040   0.000000
   22        7.051040   0.000000
   23        7.776536   0.000000
   24        7.776536   0.000000
   25        7.915600   0.000000
   26        7.915600   0.000000
   27        9.395921   0.000000
   28        9.395921   0.000000
   29        9.459064   0.000000
   30        9.459064   0.000000
   31       10.256857   0.000000
   32       10.256858   0.000000
   33       11.146765   0.000000
   34       11.146765   0.000000
   35       12.650800   0.000000
   36       12.650800   0.000000
   37       12.702967   0.000000
   38       12.702967   0.000000
   39       15.278596   0.000000
   40       15.278598   0.000000
   41       17.513266   0.000000
   42       17.513266   0.000000
   43       17.588506   0.000000
   44       17.588506   0.000000
   45       18.311218   0.000000
   46       18.311218   0.000000
   47       19.220158   0.000000
   48       19.220158   0.000000
   49       20.939657   0.000000
   50       20.939657   0.000000
   51       21.539165   0.000000
   52       21.539166   0.000000
   53       22.731982   0.000000
   54       22.731982   0.000000
   55       23.585326   0.000000
   56       23.585326   0.000000
   57       23.701395   0.000000
   58       23.701395   0.000000
   59       23.767149   0.000000
   60       23.767149   0.000000
   61       24.852555   0.000000
   62       24.852555   0.000000
   63       25.048088   0.000000
   64       25.048088   0.000000
   65       25.683726   0.000000
   66       25.683726   0.000000
   67       26.208937   0.000000
   68       26.208937   0.000000
   69       26.813888   0.000000
   70       26.813888   0.000000
   71       29.258388   0.000000
   72       29.258389   0.000000
   73       31.759885   0.000000
   74       31.759885   0.000000
   75       31.830709   0.000000
   76       31.830710   0.000000
   77       32.068013   0.000000
   78       32.068013   0.000000
   79       32.075966   0.000000
   80       32.075966   0.000000
   81       32.881713   0.000000
   82       32.881713   0.000000
   83       33.095784   0.000000
   84       33.095784   0.000000
   85       34.705598   0.000000
   86       34.705598   0.000000
   87       34.856202   0.000000
   88       34.856202   0.000000
   89       35.457030   0.000000
   90       35.457030   0.000000
   91       35.541838   0.000000
   92       35.541838   0.000000
   93       36.009105   0.000000
   94       36.009105   0.000000
   95       36.172754   0.000000
   96       36.172754   0.000000
   97       36.262796   0.000000
   98       36.262796   0.000000
   99       36.275338   0.000000
  100       36.275338   0.000000
  101       36.655456   0.000000
  102       36.655456   0.000000
  103       37.909775   0.000000
  104       37.909775   0.000000
  105       38.322628   0.000000
  106       38.322629   0.000000
  107       38.438622   0.000000
  108       38.438622   0.000000
  109       39.894939   0.000000
  110       39.894940   0.000000
  111       40.033563   0.000000
  112       40.033563   0.000000
  113       40.037904   0.000000
  114       40.037904   0.000000
  115       41.536970   0.000000
  116       41.536970   0.000000
  117       41.588216   0.000000
  118       41.588216   0.000000
  119       42.118511   0.000000
  120       42.118512   0.000000
  121       42.988563   0.000000
  122       42.988563   0.000000
  123       43.221573   0.000000
  124       43.221574   0.000000
  125       43.433426   0.000000
  126       43.433427   0.000000
  127       43.473452   0.000000
  128       43.473453   0.000000
 
  0.2857143E+00  0.3033584E-16 -0.1387779E-16  0.2915452E-02
    1      -44.111764   1.000000
    2      -44.111764   1.000000
    3      -44.111626   1.000000
    4      -44.111626   1.000000
    5      -39.707864   1.000000
    6      -39.707864   1.000000
    7      -39.707311   1.000000
    8      -39.707311   1.000000
    9      -39.707117   1.000000
   10      -39.707117   1.000000
   11      -17.281488   1.000000
   12      -17.281487   1.000000
   13       -5.419141   1.000000
   14       -5.419141   1.000000
   15       -2.375647   1.000000
   16       -2.375647   1.000000
   17       -1.534683   1.000000
   18       -1.534683   1.000000
   19        3.991059   0.000000
   20        3.991060   0.000000
   21        6.929837   0.000000
   22        6.929838   0.000000
   23        7.631394   0.000000
   24        7.631394   0.000000
   25        7.800779   0.000000
   26        7.800779   0.000000
   27        9.608478   0.000000
   28        9.608479   0.000000
   29        9.673807   0.000000
   30        9.673807   0.000000
   31        9.801513   0.000000
   32        9.801513   0.000000
   33       13.281932   0.000000
   34       13.281932   0.000000
   35       14.643447   0.000000
   36       14.643447   0.000000
   37       14.689250   0.000000
   38       14.689250   0.000000
   39       15.400091   0.000000
   40       15.400091   0.000000
   41       15.693336   0.000000
   42       15.693336   0.000000
   43       16.184706   0.000000
   44       16.184706   0.000000
   45       17.732627   0.000000
   46       17.732629   0.000000
   47       18.417392   0.000000
   48       18.417392   0.000000
   49       20.526717   0.000000
   50       20.526717   0.000000
   51       21.188410   0.000000
   52       21.188410   0.000000
   53       21.925658   0.000000
   54       21.925658   0.000000
   55       22.787398   0.000000
   56       22.787398   0.000000
   57       23.033003   0.000000
   58       23.033003   0.000000
   59       23.517859   0.000000
   60       23.517860   0.000000
   61       25.092593   0.000000
   62       25.092593   0.000000
   63       25.309777   0.000000
   64       25.309778   0.000000
   65       25.930026   0.000000
   66       25.930027   0.000000
   67       26.746161   0.000000
   68       26.746161   0.000000
   69       27.228860   0.000000
   70       27.228860   0.000000
   71       27.990236   0.000000
   72       27.990236   0.000000
   73       30.362931   0.000000
   74       30.362931   0.000000
   75       30.483622   0.000000
   76       30.483622   0.000000
   77       30.554926   0.000000
   78       30.554927   0.000000
   79       31.365688   0.000000
   80       31.365688   0.000000
   81       31.480289   0.000000
   82       31.480290   0.000000
   83       31.690080   0.000000
   84       31.690080   0.000000
   85       33.599244   0.000000
   86       33.599245   0.000000
   87       34.389845   0.000000
   88       34.389845   0.000000
   89       34.555212   0.000000
   90       34.555213   0.000000
   91       35.105563   0.000000
   92       35.105563   0.000000
   93       35.180311   0.000000
   94       35.180311   0.000000
   95       36.429416   0.000000
   96       36.429416   0.000000
   97       36.748287   0.000000
   98       36.748287   0.000000
   99       36.755952   0.000000
  100       36.755952   0.000000
  101       37.333395   0.000000
  102       37.333395   0.000000
  103       38.206175   0.000000
  104       38.206176   0.000000
  105       39.235425   0.000000
  106       39.235425   0.000000
  107       39.487864   0.000000
  108       39.487864   0.000000
  109       40.124791   0.000000
  110       40.124793   0.000000
  111       40.802575   0.000000
  112       40.802575   0.000000
  113       40.928808   0.000000
  114       40.928808   0.000000
  115       43.754259   0.000000
  116       43.754260   0.000000
  117       44.330929   0.000000
  118       44.330929   0.000000
  119       44.529446   0.000000
  120       44.529446   0.000000
  121       44.885047   0.000000
  122       44.885048   0.000000
  123       45.267259   0.000000
  124       45.267259   0.000000
  125       45.346621   0.000000
  126       45.346622   0.000000
  127       45.683511   0.000000
  128       45.683512   0.000000
 
  0.4285714E+00  0.8713712E-16  0.2775558E-16  0.2915452E-02
    1      -44.111725   1.000000
    2      -44.111725   1.000000
    3      -44.111530   1.000000
    4      -44.111530   1.000000
    5      -39.707893   1.000000
    6      -39.707893   1.000000
    7      -39.706964   1.000000
    8      -39.706964   1.000000
    9      -39.706844   1.000000
   10      -39.706844   1.000000
   11      -17.235885   1.000000
   12      -17.235884   1.000000
   13       -5.617553   1.000000
   14       -5.617553   1.000000
   15       -2.718436   1.000000
   16       -2.718436   1.000000
   17       -1.617715   1.000000
   18       -1.617715   1.000000
   19        4.234011   0.000000
   20        4.234011   0.000000
   21        7.301604   0.000000
   22        7.301604   0.000000
   23        7.456148   0.000000
   24        7.456148   0.000000
   25        7.679524   0.000000
   26        7.679525   0.000000
   27        9.529943   0.000000
   28        9.529944   0.000000
   29       11.174891   0.000000
   30       11.174891   0.000000
   31       11.317830   0.000000
   32       11.317830   0.000000
   33       13.084584   0.000000
   34       13.084584   0.000000
   35       13.396027   0.000000
   36       13.396027   0.000000
   37       13.521356   0.000000
   38       13.521356   0.000000
   39       15.817916   0.000000
   40       15.817916   0.000000
   41       16.519708   0.000000
   42       16.519708   0.000000
   43       16.549388   0.000000
   44       16.549388   0.000000
   45       18.505769   0.000000
   46       18.505769   0.000000
   47       19.767015   0.000000
   48       19.767016   0.000000
   49       20.491577   0.000000
   50       20.491578   0.000000
   51       20.830100   0.000000
   52       20.830100   0.000000
   53       20.957304   0.000000
   54       20.957304   0.000000
   55       21.509205   0.000000
   56       21.509205   0.000000
   57       22.208117   0.000000
   58       22.208117   0.000000
   59       23.676185   0.000000
   60       23.676185   0.000000
   61       24.834507   0.000000
   62       24.834508   0.000000
   63       25.467246   0.000000
   64       25.467246   0.000000
   65       25.492243   0.000000
   66       25.492243   0.000000
   67       26.261809   0.000000
   68       26.261809   0.000000
   69       26.391583   0.000000
   70       26.391583   0.000000
   71       27.038156   0.000000
   72       27.038156   0.000000
   73       27.945186   0.000000
   74       27.945187   0.000000
   75       29.717100   0.000000
   76       29.717101   0.000000
   77       29.778728   0.000000
   78       29.778728   0.000000
   79       29.814684   0.000000
   80       29.814684   0.000000
   81       30.830851   0.000000
   82       30.830851   0.000000
   83       31.146533   0.000000
   84       31.146533   0.000000
   85       34.098999   0.000000
   86       34.098999   0.000000
   87       34.182411   0.000000
   88       34.182411   0.000000
   89       34.568291   0.000000
   90       34.568293   0.000000
   91       34.856398   0.000000
   92       34.856398   0.000000
   93       35.004281   0.000000
   94       35.004281   0.000000
   95       37.105270   0.000000
   96       37.105270   0.000000
   97       37.383031   0.000000
   98       37.383032   0.000000
   99       37.686693   0.000000
  100       37.686693   0.000000
  101       37.807757   0.000000
  102       37.807758   0.000000
  103       40.592661   0.000000
  104       40.592661   0.000000
  105       40.731480   0.000000
  106       40.731480   0.000000
  107       40.783333   0.000000
  108       40.783333   0.000000
  109       41.296031   0.000000
  110       41.296033   0.000000
  111       42.712286   0.000000
  112       42.712286   0.000000
  113       42.802849   0.000000
  114       42.802849   0.000000
  115       42.907615   0.000000
  116       42.907616   0.000000
  117       45.293366   0.000000
  118       45.293367   0.000000
  119       45.534392   0.000000
  120       45.534392   0.000000
  121       46.301568   0.000000
  122       46.301569   0.000000
  123       46.607346   0.000000
  124       46.607346   0.000000
  125       46.685707   0.000000
  126       46.685707   0.000000
  127       47.856784   0.000000
  128       47.856785   0.000000
 
 -0.4285714E+00 -0.8713712E-16 -0.2775558E-16  0.2915452E-02
    1      -44.111725   1.000000
    2      -44.111725   1.000000
    3      -44.111530   1.000000
    4      -44.111530   1.000000
    5      -39.707893   1.000000
    6      -39.707893   1.000000
    7      -39.706964   1.000000
    8      -39.706964   1.000000
    9      -39.706844   1.000000
   10      -39.706844   1.000000
   11      -17.235885   1.000000
   12      -17.235884   1.000000
   13       -5.617553   1.000000
   14       -5.617553   1.000000
   15       -2.718436   1.000000
   16       -2.718436   1.000000
   17       -1.617715   1.000000
   18       -1.617715   1.000000
   19        4.234011   0.000000
   20        4.234011   0.000000
   21        7.301604   0.000000
   22        7.301604   0.000000
   23        7.456148   0.000000
   24        7.456148   0.000000
   25        7.679524   0.000000
   26        7.679525   0.000000
   27        9.529943   0.000000
   28        9.529944   0.000000
   29       11.174891   0.000000
   30       11.174891   0.000000
   31       11.317830   0.000000
   32       11.317830   0.000000
   33       13.084584   0.000000
   34       13.084584   0.000000
   35       13.396027   0.000000
   36       13.396027   0.000000
   37       13.521356   0.000000
   38       13.521356   0.000000
   39       15.817916   0.000000
   40       15.817916   0.000000
   41       16.519708   0.000000
   42       16.519708   0.000000
   43       16.549388   0.000000
   44       16.549388   0.000000
   45       18.505769   0.000000
   46       18.505769   0.000000
   47       19.767015   0.000000
   48       19.767016   0.000000
   49       20.491578   0.000000
   50       20.491578   0.000000
   51       20.830100   0.000000
   52       20.830100   0.000000
   53       20.957304   0.000000
   54       20.957304   0.000000
   55       21.509205   0.000000
   56       21.509205   0.000000
   57       22.208117   0.000000
   58       22.208117   0.000000
   59       23.676185   0.000000
   60       23.676185   0.000000
   61       24.834507   0.000000
   62       24.834508   0.000000
   63       25.467246   0.000000
   64       25.467246   0.000000
   65       25.492243   0.000000
   66       25.492243   0.000000
   67       26.261809   0.000000
   68       26.261809   0.000000
   69       26.391583   0.000000
   70       26.391583   0.000000
   71       27.038156   0.000000
   72       27.038156   0.000000
   73       27.945186   0.000000
   74       27.945187   0.000000
   75       29.717100   0.000000
   76       29.717101   0.000000
   77       29.778728   0.000000
   78       29.778728   0.000000
   79       29.814684   0.000000
   80       29.814684   0.000000
   81       30.830851   0.000000
   82       30.830851   0.000000
   83       31.146533   0.000000
   84       31.146533   0.000000
   85       34.098999   0.000000
   86       34.098999   0.000000
   87       34.182411   0.000000
   88       34.182411   0.000000
   89       34.568291   0.000000
   90       34.568293   0.000000
   91       34.856398   0.000000
   92       34.856398   0.000000
   93       35.004281   0.000000
   94       35.004281   0.000000
   95       37.105270   0.000000
   96       37.105270   0.000000
   97       37.383031   0.000000
   98       37.383032   0.000000
   99       37.686693   0.000000
  100       37.686693   0.000000
  101       37.807757   0.000000
  102       37.807758   0.000000
  103       40.592661   0.000000
  104       40.592661   0.000000
  105       40.731480   0.000000
  106       40.731480   0.000000
  107       40.783333   0.000000
  108       40.783333   0.000000
  109       41.296031   0.000000
  110       41.296033   0.000000
  111       42.712286   0.000000
  112       42.712286   0.000000
  113       42.802849   0.000000
  114       42.802849   0.000000
  115       42.907615   0.000000
  116       42.907616   0.000000
  117       45.293366   0.000000
  118       45.293367   0.000000
  119       45.534392   0.000000
  120       45.534392   0.000000
  121       46.301568   0.000000
  122       46.301569   0.000000
  123       46.607346   0.000000
  124       46.607346   0.000000
  125       46.685707   0.000000
  126       46.685707   0.000000
  127       47.856784   0.000000
  128       47.856785   0.000000
 
 -0.2857143E+00 -0.3033584E-16  0.1387779E-16  0.2915452E-02
    1      -44.111764   1.000000
    2      -44.111764   1.000000
    3      -44.111626   1.000000
    4      -44.111626   1.000000
    5      -39.707864   1.000000
    6      -39.707864   1.000000
    7      -39.707311   1.000000
    8      -39.707311   1.000000
    9      -39.707117   1.000000
   10      -39.707117   1.000000
   11      -17.281488   1.000000
   12      -17.281487   1.000000
   13       -5.419141   1.000000
   14       -5.419141   1.000000
   15       -2.375647   1.000000
   16       -2.375647   1.000000
   17       -1.534683   1.000000
   18       -1.534683   1.000000
   19        3.991059   0.000000
   20        3.991060   0.000000
   21        6.929837   0.000000
   22        6.929838   0.000000
   23        7.631394   0.000000
   24        7.631394   0.000000
   25        7.800779   0.000000
   26        7.800779   0.000000
   27        9.608478   0.000000
   28        9.608479   0.000000
   29        9.673807   0.000000
   30        9.673807   0.000000
   31        9.801513   0.000000
   32        9.801513   0.000000
   33       13.281932   0.000000
   34       13.281932   0.000000
   35       14.643447   0.000000
   36       14.643447   0.000000
   37       14.689250   0.000000
   38       14.689250   0.000000
   39       15.400091   0.000000
   40       15.400091   0.000000
   41       15.693336   0.000000
   42       15.693336   0.000000
   43       16.184706   0.000000
   44       16.184706   0.000000
   45       17.732627   0.000000
   46       17.732629   0.000000
   47       18.417392   0.000000
   48       18.417392   0.000000
   49       20.526717   0.000000
   50       20.526717   0.000000
   51       21.188410   0.000000
   52       21.188410   0.000000
   53       21.925658   0.000000
   54       21.925658   0.000000
   55       22.787398   0.000000
   56       22.787398   0.000000
   57       23.033003   0.000000
   58       23.033003   0.000000
   59       23.517859   0.000000
   60       23.517860   0.000000
   61       25.092593   0.000000
   62       25.092593   0.000000
   63       25.309777   0.000000
   64       25.309778   0.000000
   65       25.930026   0.000000
   66       25.930027   0.000000
   67       26.746161   0.000000
   68       26.746161   0.000000
   69       27.228860   0.000000
   70       27.228860   0.000000
   71       27.990236   0.000000
   72       27.990236   0.000000
   73       30.362931   0.000000
   74       30.362931   0.000000
   75       30.483622   0.000000
   76       30.483622   0.000000
   77       30.554926   0.000000
   78       30.554927   0.000000
   79       31.365688   0.000000
   80       31.365688   0.000000
   81       31.480289   0.000000
   82       31.480290   0.000000
   83       31.690080   0.000000
   84       31.690080   0.000000
   85       33.599244   0.000000
   86       33.599245   0.000000
   87       34.389845   0.000000
   88       34.389845   0.000000
   89       34.555212   0.000000
   90       34.555213   0.000000
   91       35.105563   0.000000
   92       35.105563   0.000000
   93       35.180311   0.000000
   94       35.180311   0.000000
   95       36.429416   0.000000
   96       36.429416   0.000000
   97       36.748287   0.000000
   98       36.748287   0.000000
   99       36.755952   0.000000
  100       36.755952   0.000000
  101       37.333395   0.000000
  102       37.333395   0.000000
  103       38.206175   0.000000
  104       38.206176   0.000000
  105       39.235425   0.000000
  106       39.235425   0.000000
  107       39.487864   0.000000
  108       39.487864   0.000000
  109       40.124791   0.000000
  110       40.124793   0.000000
  111       40.802575   0.000000
  112       40.802575   0.000000
  113       40.928808   0.000000
  114       40.928808   0.000000
  115       43.754259   0.000000
  116       43.754260   0.000000
  117       44.330929   0.000000
  118       44.330929   0.000000
  119       44.529446   0.000000
  120       44.529446   0.000000
  121       44.885047   0.000000
  122       44.885048   0.000000
  123       45.267259   0.000000
  124       45.267259   0.000000
  125       45.346621   0.000000
  126       45.346622   0.000000
  127       45.683511   0.000000
  128       45.683512   0.000000
 
 -0.1428571E+00 -0.1516792E-16  0.6938894E-17  0.2915452E-02
    1      -44.111812   1.000000
    2      -44.111812   1.000000
    3      -44.111762   1.000000
    4      -44.111762   1.000000
    5      -39.708066   1.000000
    6      -39.708066   1.000000
    7      -39.707834   1.000000
    8      -39.707834   1.000000
    9      -39.707818   1.000000
   10      -39.707817   1.000000
   11      -17.337413   1.000000
   12      -17.337412   1.000000
   13       -5.183703   1.000000
   14       -5.183703   1.000000
   15       -1.769360   1.000000
   16       -1.769360   1.000000
   17       -1.425194   1.000000
   18       -1.425194   1.000000
   19        3.053401   0.000000
   20        3.053401   0.000000
   21        7.051040   0.000000
   22        7.051040   0.000000
   23        7.776536   0.000000
   24        7.776536   0.000000
   25        7.915600   0.000000
   26        7.915600   0.000000
   27        9.395921   0.000000
   28        9.395921   0.000000
   29        9.459064   0.000000
   30        9.459064   0.000000
   31       10.256857   0.000000
   32       10.256858   0.000000
   33       11.146765   0.000000
   34       11.146765   0.000000
   35       12.650800   0.000000
   36       12.650800   0.000000
   37       12.702967   0.000000
   38       12.702967   0.000000
   39       15.278596   0.000000
   40       15.278598   0.000000
   41       17.513266   0.000000
   42       17.513266   0.000000
   43       17.588506   0.000000
   44       17.588506   0.000000
   45       18.311218   0.000000
   46       18.311218   0.000000
   47       19.220158   0.000000
   48       19.220158   0.000000
   49       20.939657   0.000000
   50       20.939657   0.000000
   51       21.539165   0.000000
   52       21.539166   0.000000
   53       22.731982   0.000000
   54       22.731982   0.000000
   55       23.585326   0.000000
   56       23.585326   0.000000
   57       23.701395   0.000000
   58       23.701395   0.000000
   59       23.767149   0.000000
   60       23.767149   0.000000
   61       24.852555   0.000000
   62       24.852555   0.000000
   63       25.048088   0.000000
   64       25.048088   0.000000
   65       25.683726   0.000000
   66       25.683726   0.000000
   67       26.208936   0.000000
   68       26.208937   0.000000
   69       26.813888   0.000000
   70       26.813888   0.000000
   71       29.258388   0.000000
   72       29.258389   0.000000
   73       31.759885   0.000000
   74       31.759885   0.000000
   75       31.830709   0.000000
   76       31.830710   0.000000
   77       32.068013   0.000000
   78       32.068013   0.000000
   79       32.075966   0.000000
   80       32.075966   0.000000
   81       32.881713   0.000000
   82       32.881713   0.000000
   83       33.095784   0.000000
   84       33.095784   0.000000
   85       34.705598   0.000000
   86       34.705598   0.000000
   87       34.856202   0.000000
   88       34.856202   0.000000
   89       35.457030   0.000000
   90       35.457030   0.000000
   91       35.541838   0.000000
   92       35.541838   0.000000
   93       36.009105   0.000000
   94       36.009105   0.000000
   95       36.172754   0.000000
   96       36.172754   0.000000
   97       36.262796   0.000000
   98       36.262796   0.000000
   99       36.275338   0.000000
  100       36.275338   0.000000
  101       36.655456   0.000000
  102       36.655456   0.000000
  103       37.909775   0.000000
  104       37.909775   0.000000
  105       38.322628   0.000000
  106       38.322629   0.000000
  107       38.438622   0.000000
  108       38.438622   0.000000
  109       39.894939   0.000000
  110       39.894940   0.000000
  111       40.033563   0.000000
  112       40.033563   0.000000
  113       40.037904   0.000000
  114       40.037904   0.000000
  115       41.536970   0.000000
  116       41.536970   0.000000
  117       41.588216   0.000000
  118       41.588216   0.000000
  119       42.118511   0.000000
  120       42.118512   0.000000
  121       42.988563   0.000000