       N       E                     dE             d eps       ncg     rms          rms(c)
DIA:   1    -0.179716618802E+01   -0.17972E+01    0.00000E+00     0   0.000E+00
DIA:   2    -0.179716618802E+01   -0.90949E-12    0.00000E+00     0   0.000E+00
DIA:   3    -0.179716618801E+01    0.50022E-11    0.00000E+00     0   0.000E+00
DIA:   4    -0.179716618802E+01   -0.72760E-11    0.00000E+00     0   0.000E+00
DIA:   5    -0.179716618802E+01    0.45475E-12    0.00000E+00     0   0.000E+00    0.236E-05
DIA:   6    -0.179716619081E+01   -0.27871E-08    0.00000E+00     0   0.000E+00
   1 F= -.20029361E+01 E0= -.20029361E+01  d E =0.000000E+00  mag=     0.0000     0.0000     0.0000
 imaginary and real dielectric function
