Og_FCC                                  
           1
     4.579774    0.000000    0.000000
     2.289887    3.966201   -0.000000
     2.289887    1.322067    3.739370
   Og
   1
Direct configuration=     1
   0.00000000  0.00000000  0.00000000
