    1    1    1    1
  0.5789729E+02  0.4342346E-09  0.4342346E-09  0.4342346E-09  0.1000000E-15
  1.000000000000000E-004
  CAR 
 Og_FCC                                  
     18    216    256
 
  0.0000000E+00  0.0000000E+00  0.0000000E+00  0.4629630E-02
    1      -30.471045   1.000000
    2      -30.470983   1.000000
    3      -30.470833   1.000000
    4      -30.470770   1.000000
    5      -23.804709   1.000000
    6      -23.804264   1.000000
    7      -23.804018   1.000000
    8      -23.803570   1.000000
    9      -23.803444   1.000000
   10      -23.802651   1.000000
   11      -20.209524   1.000000
   12      -20.208752   1.000000
   13       -6.915573   1.000000
   14       -6.914532   1.000000
   15        3.712258   1.000000
   16        3.712645   1.000000
   17        3.958520   0.999762
   18        3.958584   0.999668
   19        3.963398   0.000332
   20        3.963461   0.000238
   21       10.878200   0.000000
   22       10.878392   0.000000
   23       10.878976   0.000000
   24       10.879169   0.000000
   25       11.115668   0.000000
   26       11.116234   0.000000
   27       11.302429   0.000000
   28       11.303874   0.000000
   29       13.214853   0.000000
   30       13.217886   0.000000
   31       13.519594   0.000000
   32       13.519743   0.000000
   33       13.520644   0.000000
   34       13.520793   0.000000
   35       14.353915   0.000000
   36       14.355325   0.000000
   37       14.356271   0.000000
   38       14.357681   0.000000
   39       16.260502   0.000000
   40       16.260796   0.000000
   41       20.396153   0.000000
   42       20.396441   0.000000
   43       20.397080   0.000000
   44       20.397449   0.000000
   45       20.398088   0.000000
   46       20.398376   0.000000
   47       22.956821   0.000000
   48       22.957610   0.000000
   49       26.244593   0.000000
   50       26.244725   0.000000
   51       26.246634   0.000000
   52       26.246768   0.000000
   53       26.449501   0.000000
   54       26.450202   0.000000
   55       27.768784   0.000000
   56       27.770492   0.000000
   57       29.416048   0.000000
   58       29.416917   0.000000
   59       29.417553   0.000000
   60       29.418425   0.000000
   61       30.178135   0.000000
   62       30.178766   0.000000
   63       30.343132   0.000000
   64       30.343484   0.000000
   65       30.344233   0.000000
   66       30.344589   0.000000
   67       30.787757   0.000000
   68       30.787859   0.000000
   69       31.610853   0.000000
   70       31.611001   0.000000
   71       31.612123   0.000000
   72       31.612271   0.000000
   73       37.790828   0.000000
   74       37.791545   0.000000
   75       37.791600   0.000000
   76       37.792041   0.000000
   77       37.792096   0.000000
   78       37.792813   0.000000
   79       38.585667   0.000000
   80       38.587089   0.000000
   81       38.618525   0.000000
   82       38.618719   0.000000
   83       38.619097   0.000000
   84       38.621701   0.000000
   85       38.622079   0.000000
   86       38.622273   0.000000
   87       41.120236   0.000000
   88       41.120551   0.000000
   89       41.120798   0.000000
   90       41.121116   0.000000
   91       41.305571   0.000000
   92       41.306061   0.000000
   93       42.577734   0.000000
   94       42.578473   0.000000
   95       42.856755   0.000000
   96       42.857833   0.000000
   97       42.858442   0.000000
   98       42.859518   0.000000
   99       43.169144   0.000000
  100       43.169532   0.000000
  101       43.170002   0.000000
  102       43.170389   0.000000
  103       44.061081   0.000000
  104       44.061131   0.000000
  105       44.063312   0.000000
  106       44.063363   0.000000
  107       44.139462   0.000000
  108       44.140042   0.000000
  109       44.140862   0.000000
  110       44.141443   0.000000
  111       44.331695   0.000000
  112       44.332646   0.000000
  113       45.276526   0.000000
  114       45.277263   0.000000
  115       45.684205   0.000000
  116       45.685693   0.000000
  117       46.139715   0.000000
  118       46.139820   0.000000
  119       46.140953   0.000000
  120       46.141058   0.000000
  121       46.665544   0.000000
  122       46.665614   0.000000
  123       47.026321   0.000000
  124       47.026436   0.000000
  125       47.026934   0.000000
  126       47.027049   0.000000
  127       47.155590   0.000000
  128       47.156724   0.000000
  129       51.447550   0.000000
  130       51.448002   0.000000
  131       51.448035   0.000000
  132       51.449246   0.000000
  133       51.449279   0.000000
  134       51.449731   0.000000
  135       54.145048   0.000000
  136       54.147151   0.000000
  137       54.315791   0.000000
  138       54.315926   0.000000
  139       54.317160   0.000000
  140       54.317295   0.000000
  141       58.426011   0.000000
  142       58.426663   0.000000
  143       58.486777   0.000000
  144       58.486825   0.000000
  145       58.487648   0.000000
  146       58.487695   0.000000
  147       59.142463   0.000000
  148       59.142944   0.000000
  149       65.406581   0.000000
  150       65.407389   0.000000
  151       66.032242   0.000000
  152       66.032460   0.000000
  153       66.033595   0.000000
  154       66.033810   0.000000
  155       66.103473   0.000000
  156       66.103701   0.000000
  157       66.353792   0.000000
  158       66.354256   0.000000
  159       66.354829   0.000000
  160       66.355293   0.000000
  161       67.563238   0.000000
  162       67.563952   0.000000
  163       67.564672   0.000000
  164       67.565386   0.000000
  165       68.035013   0.000000
  166       68.035043   0.000000
  167       68.035267   0.000000
  168       68.037286   0.000000
  169       68.037510   0.000000
  170       68.037540   0.000000
  171       70.350216   0.000000
  172       70.351319   0.000000
  173       72.352203   0.000000
  174       72.352342   0.000000
  175       72.353936   0.000000
  176       72.354075   0.000000
  177       72.850392   0.000000
  178       72.851540   0.000000
  179       72.852357   0.000000
  180       72.853505   0.000000
  181       74.067999   0.000000
  182       74.068495   0.000000
  183       74.068514   0.000000
  184       74.069208   0.000000
  185       74.069227   0.000000
  186       74.069722   0.000000
  187       74.165000   0.000000
  188       74.165198   0.000000
  189       74.165789   0.000000
  190       74.166463   0.000000
  191       74.167054   0.000000
  192       74.167252   0.000000
  193       74.288962   0.000000
  194       74.289316   0.000000
  195       74.449122   0.000000
  196       74.449837   0.000000
  197       76.588905   0.000000
  198       76.590133   0.000000
  199       76.649242   0.000000
  200       76.649348   0.000000
  201       76.650834   0.000000
  202       76.650940   0.000000
  203       77.085748   0.000000
  204       77.085952   0.000000
  205       77.086776   0.000000
  206       77.086980   0.000000
  207       77.233324   0.000000
  208       77.234020   0.000000
  209       77.301698   0.000000
  210       77.302044   0.000000
  211       78.011843   0.000000
  212       78.012861   0.000000
  213       78.430132   0.000000
  214       78.431393   0.000000
  215       78.431658   0.000000
  216       78.432918   0.000000
  217       78.515289   0.000000
  218       78.515701   0.000000
  219       78.515755   0.000000
  220       78.517027   0.000000
  221       78.517081   0.000000
  222       78.517493   0.000000
  223       80.074551   0.000000
  224       80.074710   0.000000
  225       80.075592   0.000000
  226       80.075750   0.000000
  227       80.532371   0.000000
  228       80.532868   0.000000
  229       82.293207   0.000000
  230       82.293341   0.000000
  231       82.293687   0.000000
  232       82.293822   0.000000
  233       82.709837   0.000000
  234       82.710513   0.000000
  235       82.830436   0.000000
  236       82.830618   0.000000
  237       82.853417   0.000000
  238       82.854629   0.000000
  239       82.855086   0.000000
  240       82.856298   0.000000
  241       85.888576   0.000000
  242       85.889993   0.000000
  243       86.325015   0.000000
  244       86.325125   0.000000
  245       86.325769   0.000000
  246       86.325878   0.000000
  247       88.151453   0.000000
  248       88.151773   0.000000
  249       88.152329   0.000000
  250       88.152651   0.000000
  251       88.187716   0.000000
  252       88.187832   0.000000
  253       88.187987   0.000000
  254       88.189280   0.000000
  255       88.189436   0.000000
  256       88.189551   0.000000
 
  0.1666667E+00  0.1566927E-17  0.2081668E-16  0.4629630E-02
    1      -30.449621   1.000000
    2      -30.449468   1.000000
    3      -30.447644   1.000000
    4      -30.447374   1.000000
    5      -23.789810   1.000000
    6      -23.788678   1.000000
    7      -23.788391   1.000000
    8      -23.788157   1.000000
    9      -23.787300   1.000000
   10      -23.786531   1.000000
   11      -20.181846   1.000000
   12      -20.181074   1.000000
   13       -7.006575   1.000000
   14       -7.005559   1.000000
   15        2.191276   1.000000
   16        2.194374   1.000000
   17        3.802151   1.000000
   18        3.806707   1.000000
   19        5.528307   0.000000
   20        5.529767   0.000000
   21        9.815155   0.000000
   22        9.816394   0.000000
   23       11.051752   0.000000
   24       11.052400   0.000000
   25       11.375007   0.000000
   26       11.375161   0.000000
   27       12.162100   0.000000
   28       12.162641   0.000000
   29       12.503392   0.000000
   30       12.505082   0.000000
   31       12.674653   0.000000
   32       12.676796   0.000000
   33       13.774455   0.000000
   34       13.776201   0.000000
   35       15.886689   0.000000
   36       15.888039   0.000000
   37       16.037829   0.000000
   38       16.040563   0.000000
   39       18.037855   0.000000
   40       18.037954   0.000000
   41       19.916120   0.000000
   42       19.917911   0.000000
   43       20.049679   0.000000
   44       20.051821   0.000000
   45       20.484907   0.000000
   46       20.485291   0.000000
   47       21.800476   0.000000
   48       21.800828   0.000000
   49       25.034445   0.000000
   50       25.035538   0.000000
   51       25.660221   0.000000
   52       25.662433   0.000000
   53       25.967496   0.000000
   54       25.969166   0.000000
   55       27.171512   0.000000
   56       27.172896   0.000000
   57       27.841329   0.000000
   58       27.841628   0.000000
   59       28.706809   0.000000
   60       28.707552   0.000000
   61       30.196392   0.000000
   62       30.198732   0.000000
   63       30.282440   0.000000
   64       30.283518   0.000000
   65       30.906294   0.000000
   66       30.907352   0.000000
   67       31.000026   0.000000
   68       31.000214   0.000000
   69       32.924927   0.000000
   70       32.926788   0.000000
   71       35.326575   0.000000
   72       35.327224   0.000000
   73       35.468999   0.000000
   74       35.470261   0.000000
   75       36.529208   0.000000
   76       36.530462   0.000000
   77       36.542625   0.000000
   78       36.542854   0.000000
   79       36.943317   0.000000
   80       36.944180   0.000000
   81       38.346670   0.000000
   82       38.347363   0.000000
   83       39.144624   0.000000
   84       39.147516   0.000000
   85       39.342192   0.000000
   86       39.342952   0.000000
   87       39.532350   0.000000
   88       39.532670   0.000000
   89       39.546256   0.000000
   90       39.546877   0.000000
   91       40.428065   0.000000
   92       40.428290   0.000000
   93       40.574701   0.000000
   94       40.575711   0.000000
   95       41.388695   0.000000
   96       41.389965   0.000000
   97       41.589778   0.000000
   98       41.590737   0.000000
   99       42.722968   0.000000
  100       42.723531   0.000000
  101       43.213732   0.000000
  102       43.213930   0.000000
  103       43.323753   0.000000
  104       43.324071   0.000000
  105       44.154291   0.000000
  106       44.154914   0.000000
  107       44.675790   0.000000
  108       44.675933   0.000000
  109       44.770423   0.000000
  110       44.771941   0.000000
  111       44.908356   0.000000
  112       44.909332   0.000000
  113       46.557182   0.000000
  114       46.558472   0.000000
  115       47.133168   0.000000
  116       47.133641   0.000000
  117       47.552098   0.000000
  118       47.552966   0.000000
  119       48.444673   0.000000
  120       48.445340   0.000000
  121       49.353526   0.000000
  122       49.353905   0.000000
  123       49.386007   0.000000
  124       49.387158   0.000000
  125       50.411018   0.000000
  126       50.412223   0.000000
  127       51.587065   0.000000
  128       51.587255   0.000000
  129       52.051196   0.000000
  130       52.052019   0.000000
  131       52.507129   0.000000
  132       52.508502   0.000000
  133       52.565123   0.000000
  134       52.565308   0.000000
  135       53.839448   0.000000
  136       53.839668   0.000000
  137       54.061109   0.000000
  138       54.061611   0.000000
  139       54.181894   0.000000
  140       54.183180   0.000000
  141       57.546715   0.000000
  142       57.547664   0.000000
  143       59.434769   0.000000
  144       59.435777   0.000000
  145       59.505535   0.000000
  146       59.506513   0.000000
  147       60.566111   0.000000
  148       60.566216   0.000000
  149       62.234379   0.000000
  150       62.235746   0.000000
  151       62.654760   0.000000
  152       62.656302   0.000000
  153       63.702557   0.000000
  154       63.703286   0.000000
  155       63.806546   0.000000
  156       63.808602   0.000000
  157       65.384739   0.000000
  158       65.385811   0.000000
  159       65.522565   0.000000
  160       65.523438   0.000000
  161       66.014178   0.000000
  162       66.014318   0.000000
  163       67.046094   0.000000
  164       67.048177   0.000000
  165       67.116192   0.000000
  166       67.116870   0.000000
  167       69.433597   0.000000
  168       69.433744   0.000000
  169       69.739855   0.000000
  170       69.740151   0.000000
  171       69.909652   0.000000
  172       69.911075   0.000000
  173       70.450359   0.000000
  174       70.450835   0.000000
  175       70.457315   0.000000
  176       70.457800   0.000000
  177       70.726787   0.000000
  178       70.726939   0.000000
  179       71.223311   0.000000
  180       71.224366   0.000000
  181       71.230118   0.000000
  182       71.230651   0.000000
  183       71.708734   0.000000
  184       71.710195   0.000000
  185       72.602503   0.000000
  186       72.603042   0.000000
  187       72.892352   0.000000
  188       72.894070   0.000000
  189       73.966135   0.000000
  190       73.966297   0.000000
  191       74.197391   0.000000
  192       74.197645   0.000000
  193       75.353660   0.000000
  194       75.354448   0.000000
  195       75.495689   0.000000
  196       75.497102   0.000000
  197       75.737372   0.000000
  198       75.738487   0.000000
  199       76.520435   0.000000
  200       76.522120   0.000000
  201       76.622075   0.000000
  202       76.622643   0.000000
  203       78.001089   0.000000
  204       78.002014   0.000000
  205       78.057847   0.000000
  206       78.060440   0.000000
  207       78.212956   0.000000
  208       78.212983   0.000000
  209       78.382700   0.000000
  210       78.383504   0.000000
  211       78.515015   0.000000
  212       78.515646   0.000000
  213       78.666069   0.000000
  214       78.666258   0.000000
  215       78.977608   0.000000
  216       78.978702   0.000000
  217       79.606904   0.000000
  218       79.607059   0.000000
  219       79.646580   0.000000
  220       79.647572   0.000000
  221       80.050358   0.000000
  222       80.050756   0.000000
  223       80.827954   0.000000
  224       80.829570   0.000000
  225       81.219480   0.000000
  226       81.222129   0.000000
  227       81.238722   0.000000
  228       81.239761   0.000000
  229       82.890720   0.000000
  230       82.892035   0.000000
  231       83.148675   0.000000
  232       83.148770   0.000000
  233       83.495531   0.000000
  234       83.495751   0.000000
  235       83.523632   0.000000
  236       83.524782   0.000000
  237       84.319377   0.000000
  238       84.319519   0.000000
  239       84.541871   0.000000
  240       84.542235   0.000000
  241       84.727701   0.000000
  242       84.728214   0.000000
  243       85.751221   0.000000
  244       85.751361   0.000000
  245       85.917949   0.000000
  246       85.918490   0.000000
  247       86.655029   0.000000
  248       86.655272   0.000000
  249       86.824249   0.000000
  250       86.825246   0.000000
  251       87.960270   0.000000
  252       87.960732   0.000000
  253       88.254623   0.000000
  254       88.256969   0.000000
  255       88.520102   0.000000
  256       88.520475   0.000000
 
  0.3333333E+00  0.3133854E-17  0.0000000E+00  0.4629630E-02
    1      -30.460609   1.000000
    2      -30.460457   1.000000
    3      -30.455000   1.000000
    4      -30.454730   1.000000
    5      -23.794590   1.000000
    6      -23.793968   1.000000
    7      -23.792751   1.000000
    8      -23.792659   1.000000
    9      -23.791203   1.000000
   10      -23.790070   1.000000
   11      -20.126484   1.000000
   12      -20.125711   1.000000
   13       -7.189588   1.000000
   14       -7.188628   1.000000
   15        1.095607   1.000000
   16        1.098988   1.000000
   17        3.521907   1.000000
   18        3.526101   1.000000
   19        6.211437   0.000000
   20        6.211498   0.000000
   21       10.411908   0.000000
   22       10.412776   0.000000
   23       10.606254   0.000000
   24       10.606913   0.000000
   25       11.039244   0.000000
   26       11.039617   0.000000
   27       11.277685   0.000000
   28       11.277802   0.000000
   29       13.305409   0.000000
   30       13.305855   0.000000
   31       13.574216   0.000000
   32       13.575621   0.000000
   33       16.652331   0.000000
   34       16.654256   0.000000
   35       17.704936   0.000000
   36       17.706747   0.000000
   37       17.956447   0.000000
   38       17.959440   0.000000
   39       18.322138   0.000000
   40       18.323755   0.000000
   41       18.758155   0.000000
   42       18.760188   0.000000
   43       19.058410   0.000000
   44       19.060621   0.000000
   45       20.619659   0.000000
   46       20.620076   0.000000
   47       21.151432   0.000000
   48       21.151573   0.000000
   49       23.984084   0.000000
   50       23.984456   0.000000
   51       25.230603   0.000000
   52       25.232197   0.000000
   53       25.323898   0.000000
   54       25.325528   0.000000
   55       26.398370   0.000000
   56       26.399388   0.000000
   57       27.083173   0.000000
   58       27.083281   0.000000
   59       27.639665   0.000000
   60       27.640447   0.000000
   61       29.627263   0.000000
   62       29.627368   0.000000
   63       31.024847   0.000000
   64       31.027394   0.000000
   65       31.462313   0.000000
   66       31.462422   0.000000
   67       31.903983   0.000000
   68       31.904853   0.000000
   69       32.062980   0.000000
   70       32.064636   0.000000
   71       32.185977   0.000000
   72       32.186412   0.000000
   73       33.689393   0.000000
   74       33.690737   0.000000
   75       33.847954   0.000000
   76       33.848589   0.000000
   77       34.923533   0.000000
   78       34.924875   0.000000
   79       35.706050   0.000000
   80       35.708314   0.000000
   81       36.027413   0.000000
   82       36.028109   0.000000
   83       36.473460   0.000000
   84       36.474921   0.000000
   85       39.337715   0.000000
   86       39.339496   0.000000
   87       39.371597   0.000000
   88       39.372365   0.000000
   89       40.110787   0.000000
   90       40.110973   0.000000
   91       40.686966   0.000000
   92       40.687450   0.000000
   93       40.900641   0.000000
   94       40.901578   0.000000
   95       42.097668   0.000000
   96       42.098225   0.000000
   97       42.853548   0.000000
   98       42.853667   0.000000
   99       43.086033   0.000000
  100       43.087257   0.000000
  101       43.885891   0.000000
  102       43.887205   0.000000
  103       44.708270   0.000000
  104       44.708463   0.000000
  105       44.948582   0.000000
  106       44.949257   0.000000
  107       46.002074   0.000000
  108       46.002246   0.000000
  109       46.457615   0.000000
  110       46.458972   0.000000
  111       46.519908   0.000000
  112       46.521268   0.000000
  113       47.096018   0.000000
  114       47.096757   0.000000
  115       49.705436   0.000000
  116       49.705828   0.000000
  117       51.172943   0.000000
  118       51.173586   0.000000
  119       51.434439   0.000000
  120       51.435476   0.000000
  121       51.958893   0.000000
  122       51.959315   0.000000
  123       52.012148   0.000000
  124       52.012677   0.000000
  125       52.277873   0.000000
  126       52.278365   0.000000
  127       52.597579   0.000000
  128       52.598204   0.000000
  129       53.642714   0.000000
  130       53.643470   0.000000
  131       54.254240   0.000000
  132       54.254866   0.000000
  133       54.331374   0.000000
  134       54.332328   0.000000
  135       55.180086   0.000000
  136       55.180771   0.000000
  137       55.653070   0.000000
  138       55.655363   0.000000
  139       55.863769   0.000000
  140       55.864347   0.000000
  141       56.061010   0.000000
  142       56.062962   0.000000
  143       57.607224   0.000000
  144       57.607397   0.000000
  145       59.595353   0.000000
  146       59.596155   0.000000
  147       60.078111   0.000000
  148       60.078499   0.000000
  149       60.207027   0.000000
  150       60.208732   0.000000
  151       60.454161   0.000000
  152       60.455052   0.000000
  153       61.073959   0.000000
  154       61.074078   0.000000
  155       62.001374   0.000000
  156       62.002144   0.000000
  157       63.151550   0.000000
  158       63.151870   0.000000
  159       63.211758   0.000000
  160       63.212053   0.000000
  161       64.498343   0.000000
  162       64.498772   0.000000
  163       64.983095   0.000000
  164       64.984303   0.000000
  165       65.061664   0.000000
  166       65.062355   0.000000
  167       67.067156   0.000000
  168       67.068083   0.000000
  169       67.481634   0.000000
  170       67.483697   0.000000
  171       67.725605   0.000000
  172       67.725719   0.000000
  173       68.381227   0.000000
  174       68.381780   0.000000
  175       68.774832   0.000000
  176       68.776217   0.000000
  177       70.151087   0.000000
  178       70.151464   0.000000
  179       70.779785   0.000000
  180       70.779910   0.000000
  181       70.922903   0.000000
  182       70.924826   0.000000
  183       72.018133   0.000000
  184       72.019472   0.000000
  185       72.211537   0.000000
  186       72.211847   0.000000
  187       72.256641   0.000000
  188       72.258302   0.000000
  189       73.128908   0.000000
  190       73.130296   0.000000
  191       73.214867   0.000000
  192       73.216023   0.000000
  193       73.680631   0.000000
  194       73.680863   0.000000
  195       73.730054   0.000000
  196       73.730462   0.000000
  197       74.858780   0.000000
  198       74.859293   0.000000
  199       75.395246   0.000000
  200       75.396069   0.000000
  201       76.044814   0.000000
  202       76.047158   0.000000
  203       76.167639   0.000000
  204       76.168702   0.000000
  205       77.942526   0.000000
  206       77.942837   0.000000
  207       78.203486   0.000000
  208       78.203915   0.000000
  209       79.100150   0.000000
  210       79.100986   0.000000
  211       79.248173   0.000000
  212       79.248460   0.000000
  213       79.428194   0.000000
  214       79.430350   0.000000
  215       79.691590   0.000000
  216       79.692980   0.000000
  217       79.761028   0.000000
  218       79.761421   0.000000
  219       81.773058   0.000000
  220       81.773950   0.000000
  221       81.832859   0.000000
  222       81.833919   0.000000
  223       82.028435   0.000000
  224       82.028787   0.000000
  225       82.044711   0.000000
  226       82.045624   0.000000
  227       82.159721   0.000000
  228       82.161077   0.000000
  229       82.203655   0.000000
  230       82.204498   0.000000
  231       83.058974   0.000000
  232       83.059529   0.000000
  233       83.757177   0.000000
  234       83.757855   0.000000
  235       83.777041   0.000000
  236       83.778280   0.000000
  237       84.780602   0.000000
  238       84.782128   0.000000
  239       84.904837   0.000000
  240       84.906977   0.000000
  241       85.299106   0.000000
  242       85.300317   0.000000
  243       86.181111   0.000000
  244       86.182234   0.000000
  245       87.235547   0.000000
  246       87.235767   0.000000
  247       88.219539   0.000000
  248       88.220496   0.000000
  249       88.377302   0.000000
  250       88.377545   0.000000
  251       88.487966   0.000000
  252       88.488087   0.000000
  253       89.260152   0.000000
  254       89.261099   0.000000
  255       89.338066   0.000000
  256       89.339969   0.000000
 
  0.5000000E+00  0.4700780E-17  0.5551115E-16  0.4629630E-02
    1      -30.477063   1.000000
    2      -30.476911   1.000000
    3      -30.465500   1.000000
    4      -30.465230   1.000000
    5      -23.804481   1.000000
    6      -23.803808   1.000000
    7      -23.800140   1.000000
    8      -23.799008   1.000000
    9      -23.798251   1.000000
   10      -23.798101   1.000000
   11      -20.098359   1.000000
   12      -20.097586   1.000000
   13       -7.281613   1.000000
   14       -7.280683   1.000000
   15        0.715278   1.000000
   16        0.718712   1.000000
   17        3.394835   1.000000
   18        3.398884   1.000000
   19        6.211528   0.000000
   20        6.211732   0.000000
   21       10.315829   0.000000
   22       10.316727   0.000000
   23       10.528728   0.000000
   24       10.529310   0.000000
   25       10.719223   0.000000
   26       10.719637   0.000000
   27       12.102078   0.000000
   28       12.102594   0.000000
   29       14.687721   0.000000
   30       14.687767   0.000000
   31       14.774354   0.000000
   32       14.775486   0.000000
   33       16.108606   0.000000
   34       16.109868   0.000000
   35       17.099167   0.000000
   36       17.099194   0.000000
   37       17.269248   0.000000
   38       17.271631   0.000000
   39       18.528423   0.000000
   40       18.530733   0.000000
   41       19.032742   0.000000
   42       19.035994   0.000000
   43       19.087440   0.000000
   44       19.089283   0.000000
   45       20.688840   0.000000
   46       20.689276   0.000000
   47       23.274314   0.000000
   48       23.275524   0.000000
   49       23.978578   0.000000
   50       23.979892   0.000000
   51       25.331385   0.000000
   52       25.331836   0.000000
   53       25.479295   0.000000
   54       25.480108   0.000000
   55       25.531054   0.000000
   56       25.531907   0.000000
   57       27.012089   0.000000
   58       27.012407   0.000000
   59       27.292406   0.000000
   60       27.293551   0.000000
   61       28.373510   0.000000
   62       28.373966   0.000000
   63       29.488213   0.000000
   64       29.489242   0.000000
   65       30.844374   0.000000
   66       30.844540   0.000000
   67       30.873292   0.000000
   68       30.875284   0.000000
   69       31.723947   0.000000
   70       31.726351   0.000000
   71       32.452544   0.000000
   72       32.452923   0.000000
   73       32.860209   0.000000
   74       32.860502   0.000000
   75       33.057179   0.000000
   76       33.058560   0.000000
   77       33.951575   0.000000
   78       33.953367   0.000000
   79       34.041165   0.000000
   80       34.043578   0.000000
   81       35.875016   0.000000
   82       35.875539   0.000000
   83       36.687002   0.000000
   84       36.688374   0.000000
   85       39.547952   0.000000
   86       39.548902   0.000000
   87       39.677623   0.000000
   88       39.680064   0.000000
   89       39.773399   0.000000
   90       39.773940   0.000000
   91       40.241328   0.000000
   92       40.242141   0.000000
   93       40.559969   0.000000
   94       40.560911   0.000000
   95       41.938930   0.000000
   96       41.939824   0.000000
   97       42.188931   0.000000
   98       42.189311   0.000000
   99       44.897228   0.000000
  100       44.897671   0.000000
  101       46.093752   0.000000
  102       46.094412   0.000000
  103       46.248245   0.000000
  104       46.249274   0.000000
  105       46.437796   0.000000
  106       46.438418   0.000000
  107       46.588368   0.000000
  108       46.588725   0.000000
  109       47.728167   0.000000
  110       47.728888   0.000000
  111       49.453416   0.000000
  112       49.454378   0.000000
  113       50.039249   0.000000
  114       50.039960   0.000000
  115       50.220588   0.000000
  116       50.221610   0.000000
  117       50.947799   0.000000
  118       50.949389   0.000000
  119       51.302463   0.000000
  120       51.303076   0.000000
  121       51.502757   0.000000
  122       51.502835   0.000000
  123       52.644486   0.000000
  124       52.646090   0.000000
  125       52.695707   0.000000
  126       52.696654   0.000000
  127       52.845675   0.000000