   1   1   0   0
  0.3721384E+02  0.3747484E-09  0.3747484E-09  0.3747484E-09  0.1000000E-15
  1.000000000000000E-004
  CAR 
 Og_FCC                                  
     82.03982784    -29.31482540  301     -8.80701010      1.00000000
    -29.315  0.0000E+00  0.0000E+00
    -28.944  0.0000E+00  0.0000E+00
    -28.572  0.0000E+00  0.0000E+00
    -28.201  0.0000E+00  0.0000E+00
    -27.830  0.0000E+00  0.0000E+00
    -27.459  0.0000E+00  0.0000E+00
    -27.088  0.0000E+00  0.0000E+00
    -26.717  0.0000E+00  0.0000E+00
    -26.345  0.0000E+00  0.0000E+00
    -25.974  0.0000E+00  0.0000E+00
    -25.603  0.0000E+00  0.0000E+00
    -25.232  0.0000E+00  0.0000E+00
    -24.861  0.0000E+00  0.0000E+00
    -24.489  0.0000E+00  0.0000E+00
    -24.118  0.3760E+00  0.2970E+00
    -23.747  0.0000E+00  0.2000E+01
    -23.376  0.0000E+00  0.2000E+01
    -23.005  0.0000E+00  0.2000E+01
    -22.634  0.0000E+00  0.2000E+01
    -22.262  0.0000E+00  0.2000E+01
    -21.891  0.0000E+00  0.2000E+01
    -21.520  0.0000E+00  0.2000E+01
    -21.149  0.0000E+00  0.2000E+01
    -20.778  0.0000E+00  0.2000E+01
    -20.406  0.0000E+00  0.2000E+01
    -20.035  0.0000E+00  0.2000E+01
    -19.664  0.0000E+00  0.2000E+01
    -19.293  0.0000E+00  0.2000E+01
    -18.922  0.0000E+00  0.2000E+01
    -18.551  0.0000E+00  0.2000E+01
    -18.179  0.0000E+00  0.2000E+01
    -17.808  0.0000E+00  0.2000E+01
    -17.437  0.0000E+00  0.2000E+01
    -17.066  0.0000E+00  0.2000E+01
    -16.695  0.0000E+00  0.2000E+01
    -16.323  0.0000E+00  0.2000E+01
    -15.952  0.0000E+00  0.2000E+01
    -15.581  0.0000E+00  0.2000E+01
    -15.210  0.0000E+00  0.2000E+01
    -14.839  0.0000E+00  0.2000E+01
    -14.468  0.0000E+00  0.2000E+01
    -14.096  0.0000E+00  0.2000E+01
    -13.725  0.0000E+00  0.2000E+01
    -13.354  0.0000E+00  0.2000E+01
    -12.983  0.0000E+00  0.2000E+01
    -12.612  0.0000E+00  0.2000E+01
    -12.240  0.0000E+00  0.2000E+01
    -11.869  0.0000E+00  0.2000E+01
    -11.498  0.0000E+00  0.2000E+01
    -11.127  0.0000E+00  0.2000E+01
    -10.756  0.0000E+00  0.2000E+01
    -10.385  0.8389E+00  0.2743E+01
    -10.013  0.0000E+00  0.3843E+01
     -9.642  0.0000E+00  0.4787E+01
     -9.271  0.0000E+00  0.7329E+01
     -8.900  0.0000E+00  0.8000E+01
     -8.529  0.0000E+00  0.8000E+01
     -8.157  0.0000E+00  0.8000E+01
     -7.786  0.0000E+00  0.8000E+01
     -7.415  0.0000E+00  0.8000E+01
     -7.044  0.0000E+00  0.8000E+01
     -6.673  0.0000E+00  0.8000E+01
     -6.302  0.0000E+00  0.8000E+01
     -5.930  0.0000E+00  0.8000E+01
     -5.559  0.0000E+00  0.8000E+01
     -5.188  0.0000E+00  0.8000E+01
     -4.817  0.0000E+00  0.8000E+01
     -4.446  0.0000E+00  0.8000E+01
     -4.074  0.0000E+00  0.8000E+01
     -3.703  0.0000E+00  0.8000E+01
     -3.332  0.0000E+00  0.8000E+01
     -2.961  0.0000E+00  0.8000E+01
     -2.590  0.0000E+00  0.8000E+01
     -2.219  0.0000E+00  0.8000E+01
     -1.847  0.0000E+00  0.8000E+01
     -1.476  0.0000E+00  0.8000E+01
     -1.105  0.0000E+00  0.8000E+01
     -0.734  0.0000E+00  0.8000E+01
     -0.363  0.0000E+00  0.8000E+01
      0.009  0.0000E+00  0.8000E+01
      0.380  0.0000E+00  0.8000E+01
      0.751  0.0000E+00  0.8000E+01
      1.122  0.0000E+00  0.8000E+01
      1.493  0.0000E+00  0.8000E+01
      1.864  0.0000E+00  0.8000E+01
      2.236  0.0000E+00  0.8000E+01
      2.607  0.0000E+00  0.8000E+01
      2.978  0.0000E+00  0.8000E+01
      3.349  0.0000E+00  0.8000E+01
      3.720  0.0000E+00  0.8000E+01
      4.092  0.0000E+00  0.8000E+01
      4.463  0.0000E+00  0.8000E+01
      4.834  0.0000E+00  0.8000E+01
      5.205  0.0000E+00  0.8006E+01
      5.576  0.0000E+00  0.8006E+01
      5.947  0.0000E+00  0.8087E+01
      6.319  0.0000E+00  0.8087E+01
      6.690  0.0000E+00  0.8157E+01
      7.061  0.0000E+00  0.8344E+01
      7.432  0.9425E-01  0.8379E+01
      7.803  0.0000E+00  0.8379E+01
      8.175  0.0000E+00  0.8741E+01
      8.546  0.0000E+00  0.9090E+01
      8.917  0.0000E+00  0.9370E+01
      9.288  0.0000E+00  0.1000E+02
      9.659  0.0000E+00  0.1000E+02
     10.030  0.0000E+00  0.1003E+02
     10.402  0.4330E+00  0.1086E+02
     10.773  0.0000E+00  0.1134E+02
     11.144  0.0000E+00  0.1166E+02
     11.515  0.0000E+00  0.1233E+02
     11.886  0.0000E+00  0.1307E+02
     12.258  0.0000E+00  0.1338E+02
     12.629  0.0000E+00  0.1426E+02
     13.000  0.0000E+00  0.1450E+02
     13.371  0.0000E+00  0.1498E+02
     13.742  0.0000E+00  0.1593E+02
     14.113  0.4278E+00  0.1695E+02
     14.485  0.3770E+00  0.1804E+02
     14.856  0.0000E+00  0.1930E+02
     15.227  0.3767E+00  0.1994E+02
     15.598  0.0000E+00  0.2006E+02
     15.969  0.0000E+00  0.2048E+02
     16.341  0.0000E+00  0.2146E+02
     16.712  0.0000E+00  0.2193E+02
     17.083  0.0000E+00  0.2236E+02
     17.454  0.0000E+00  0.2272E+02
     17.825  0.0000E+00  0.2300E+02
     18.196  0.2787E-04  0.2356E+02
     18.568  0.0000E+00  0.2442E+02
     18.939  0.0000E+00  0.2508E+02
     19.310  0.0000E+00  0.2555E+02
     19.681  0.0000E+00  0.2609E+02
     20.052  0.0000E+00  0.2651E+02
     20.424  0.0000E+00  0.2693E+02
     20.795  0.0000E+00  0.2749E+02
     21.166  0.0000E+00  0.2774E+02
     21.537  0.0000E+00  0.2806E+02
     21.908  0.0000E+00  0.2823E+02
     22.279  0.0000E+00  0.2865E+02
     22.651  0.5560E-12  0.2935E+02
     23.022  0.0000E+00  0.2963E+02
     23.393  0.7914E-01  0.2990E+02
     23.764  0.0000E+00  0.3040E+02
     24.135  0.1465E-15  0.3110E+02
     24.507  0.0000E+00  0.3180E+02
     24.878  0.0000E+00  0.3286E+02
     25.249  0.0000E+00  0.3320E+02
     25.620  0.4771E-01  0.3342E+02
     25.991  0.0000E+00  0.3383E+02
     26.363  0.3770E+00  0.3424E+02
     26.734  0.0000E+00  0.3491E+02
     27.105  0.0000E+00  0.3542E+02
     27.476  0.0000E+00  0.3564E+02
     27.847  0.0000E+00  0.3634E+02
     28.218  0.0000E+00  0.3662E+02
     28.590  0.1124E+00  0.3746E+02
     28.961  0.0000E+00  0.3833E+02
     29.332  0.0000E+00  0.3861E+02
     29.703  0.0000E+00  0.3959E+02
     30.074  0.0000E+00  0.4022E+02
     30.446  0.0000E+00  0.4026E+02
     30.817  0.0000E+00  0.4072E+02
     31.188  0.0000E+00  0.4144E+02
     31.559  0.3770E+00  0.4235E+02
     31.930  0.0000E+00  0.4279E+02
     32.301  0.0000E+00  0.4311E+02
     32.673  0.3983E-02  0.4366E+02
     33.044  0.0000E+00  0.4450E+02
     33.415  0.0000E+00  0.4506E+02
     33.786  0.0000E+00  0.4534E+02
     34.157  0.0000E+00  0.4576E+02
     34.529  0.0000E+00  0.4694E+02
     34.900  0.0000E+00  0.4746E+02
     35.271  0.0000E+00  0.4809E+02
     35.642  0.0000E+00  0.4855E+02
     36.013  0.0000E+00  0.4904E+02
     36.384  0.0000E+00  0.4977E+02
     36.756  0.0000E+00  0.5033E+02
     37.127  0.7537E+00  0.5096E+02
     37.498  0.3770E+00  0.5146E+02
     37.869  0.0000E+00  0.5166E+02
     38.240  0.0000E+00  0.5288E+02
     38.612  0.0000E+00  0.5373E+02
     38.983  0.0000E+00  0.5428E+02
     39.354  0.0000E+00  0.5484E+02
     39.725  0.0000E+00  0.5531E+02
     40.096  0.0000E+00  0.5580E+02
     40.467  0.0000E+00  0.5650E+02
     40.839  0.0000E+00  0.5713E+02
     41.210  0.0000E+00  0.5814E+02
     41.581  0.0000E+00  0.5879E+02
     41.952  0.0000E+00  0.5926E+02
     42.323  0.0000E+00  0.5989E+02
     42.695  0.0000E+00  0.6038E+02
     43.066  0.2109E-03  0.6074E+02
     43.437  0.0000E+00  0.6151E+02
     43.808  0.0000E+00  0.6202E+02
     44.179  0.0000E+00  0.6283E+02
     44.550  0.0000E+00  0.6382E+02
     44.922  0.0000E+00  0.6419E+02
     45.293  0.0000E+00  0.6556E+02
     45.664  0.0000E+00  0.6576E+02
     46.035  0.3770E+00  0.6690E+02
     46.406  0.0000E+00  0.6728E+02
     46.778  0.0000E+00  0.6815E+02
     47.149  0.0000E+00  0.6871E+02
     47.520  0.0000E+00  0.6922E+02
     47.891  0.0000E+00  0.6949E+02
     48.262  0.0000E+00  0.7065E+02
     48.633  0.0000E+00  0.7093E+02
     49.005  0.0000E+00  0.7135E+02
     49.376  0.4088E-12  0.7195E+02
     49.747  0.0000E+00  0.7302E+02
     50.118  0.0000E+00  0.7350E+02
     50.489  0.3620E+00  0.7426E+02
     50.861  0.0000E+00  0.7541E+02
     51.232  0.0000E+00  0.7578E+02
     51.603  0.0000E+00  0.7608E+02
     51.974  0.1809E-02  0.7678E+02
     52.345  0.1776E-09  0.7767E+02
     52.716  0.1170E-06  0.7827E+02
     53.088  0.1885E+00  0.7875E+02
     53.459  0.0000E+00  0.7996E+02
     53.830  0.0000E+00  0.8113E+02
     54.201  0.0000E+00  0.8198E+02
     54.572  0.0000E+00  0.8269E+02
     54.944  0.1949E-01  0.8321E+02
     55.315  0.0000E+00  0.8343E+02
     55.686  0.0000E+00  0.8395E+02
     56.057  0.0000E+00  0.8486E+02
     56.428  0.2513E+00  0.8559E+02
     56.799  0.0000E+00  0.8627E+02
     57.171  0.0000E+00  0.8702E+02
     57.542  0.0000E+00  0.8773E+02
     57.913  0.2117E+00  0.8878E+02
     58.284  0.0000E+00  0.8970E+02
     58.655  0.3420E-14  0.9042E+02
     59.027  0.0000E+00  0.9126E+02
     59.398  0.3714E+00  0.9196E+02
     59.769  0.4395E-15  0.9262E+02
     60.140  0.0000E+00  0.9379E+02
     60.511  0.0000E+00  0.9424E+02
     60.882  0.0000E+00  0.9527E+02
     61.254  0.0000E+00  0.9639E+02
     61.625  0.3769E+00  0.9704E+02
     61.996  0.0000E+00  0.9755E+02
     62.367  0.0000E+00  0.9864E+02
     62.738  0.0000E+00  0.9917E+02
     63.110  0.0000E+00  0.1002E+03
     63.481  0.3770E+00  0.1007E+03
     63.852  0.0000E+00  0.1014E+03
     64.223  0.0000E+00  0.1017E+03
     64.594  0.0000E+00  0.1025E+03
     64.965  0.4713E+00  0.1035E+03
     65.337  0.3770E+00  0.1039E+03
     65.708  0.0000E+00  0.1054E+03
     66.079  0.0000E+00  0.1061E+03
     66.450  0.0000E+00  0.1066E+03
     66.821  0.0000E+00  0.1072E+03
     67.193  0.0000E+00  0.1083E+03
     67.564  0.0000E+00  0.1092E+03
     67.935  0.0000E+00  0.1102E+03
     68.306  0.0000E+00  0.1113E+03
     68.677  0.0000E+00  0.1119E+03
     69.048  0.1885E+00  0.1125E+03
     69.420  0.0000E+00  0.1132E+03
     69.791  0.0000E+00  0.1140E+03
     70.162  0.0000E+00  0.1148E+03
     70.533  0.0000E+00  0.1156E+03
     70.904  0.0000E+00  0.1165E+03
     71.276  0.0000E+00  0.1168E+03
     71.647  0.0000E+00  0.1178E+03
     72.018  0.0000E+00  0.1184E+03
     72.389  0.0000E+00  0.1197E+03
     72.760  0.3259E+00  0.1207E+03
     73.131  0.0000E+00  0.1216E+03
     73.503  0.3770E+00  0.1227E+03
     73.874  0.0000E+00  0.1233E+03
     74.245  0.0000E+00  0.1246E+03
     74.616  0.0000E+00  0.1252E+03
     74.987  0.0000E+00  0.1262E+03
     75.359  0.0000E+00  0.1267E+03
     75.730  0.0000E+00  0.1272E+03
     76.101  0.0000E+00  0.1276E+03
     76.472  0.0000E+00  0.1278E+03
     76.843  0.0000E+00  0.1279E+03
     77.214  0.0000E+00  0.1280E+03
     77.586  0.0000E+00  0.1280E+03
     77.957  0.0000E+00  0.1280E+03
     78.328  0.0000E+00  0.1280E+03
     78.699  0.0000E+00  0.1280E+03
     79.070  0.0000E+00  0.1280E+03
     79.442  0.0000E+00  0.1280E+03
     79.813  0.0000E+00  0.1280E+03
     80.184  0.0000E+00  0.1280E+03
     80.555  0.0000E+00  0.1280E+03
     80.926  0.0000E+00  0.1280E+03
     81.297  0.0000E+00  0.1280E+03
     81.669  0.0000E+00  0.1280E+03
     82.040  0.0000E+00  0.1280E+03
