    1    1    1    1
  0.3721384E+02  0.3747484E-09  0.3747484E-09  0.3747484E-09  0.1000000E-15
  1.000000000000000E-004
  CAR 
 Og_FCC                                  
      8    343    128
 
  0.0000000E+00  0.0000000E+00  0.0000000E+00  0.2915452E-02
    1      -24.253250   1.000000
    2      -24.253250   1.000000
    3       -9.209815   1.000000
    4       -9.209815   1.000000
    5       -9.013503   1.000000
    6       -9.013503   1.000000
    7       -9.013443   1.000000
    8       -9.013443   1.000000
    9        5.067516   0.000000
   10        5.067516   0.000000
   11       13.621484   0.000000
   12       13.621484   0.000000
   13       13.623319   0.000000
   14       13.623319   0.000000
   15       13.623354   0.000000
   16       13.623354   0.000000
   17       12.899655   0.000000
   18       12.899655   0.000000
   19       12.899656   0.000000
   20       12.899656   0.000000
   21       15.648062   0.000000
   22       15.648062   0.000000
   23       18.362634   0.000000
   24       18.362634   0.000000
   25       18.375625   0.000000
   26       18.375625   0.000000
   27       18.375626   0.000000
   28       18.375626   0.000000
   29       20.490029   0.000000
   30       20.490029   0.000000
   31       26.961499   0.000000
   32       26.961499   0.000000
   33       26.961501   0.000000
   34       26.961501   0.000000
   35       26.968458   0.000000
   36       26.968458   0.000000
   37       28.178838   0.000000
   38       28.178838   0.000000
   39       28.299627   0.000000
   40       28.299627   0.000000
   41       28.299628   0.000000
   42       28.299628   0.000000
   43       31.088979   0.000000
   44       31.088979   0.000000
   45       31.088981   0.000000
   46       31.088981   0.000000
   47       37.469020   0.000000
   48       37.469021   0.000000
   49       37.721025   0.000000
   50       37.721025   0.000000
   51       37.721025   0.000000
   52       37.721025   0.000000
   53       37.721026   0.000000
   54       37.721026   0.000000
   55       44.296451   0.000000
   56       44.296451   0.000000
   57       44.296453   0.000000
   58       44.296453   0.000000
   59       47.585649   0.000000
   60       47.585649   0.000000
   61       47.585650   0.000000
   62       47.585650   0.000000
   63       47.588227   0.000000
   64       47.588227   0.000000
   65       47.958605   0.000000
   66       47.958605   0.000000
   67       48.004338   0.000000
   68       48.004338   0.000000
   69       48.004339   0.000000
   70       48.004339   0.000000
   71       51.828684   0.000000
   72       51.828684   0.000000
   73       51.974920   0.000000
   74       51.974920   0.000000
   75       51.980754   0.000000
   76       51.980754   0.000000
   77       51.980755   0.000000
   78       51.980755   0.000000
   79       54.438376   0.000000
   80       54.438376   0.000000
   81       54.899776   0.000000
   82       54.899776   0.000000
   83       54.899779   0.000000
   84       54.899779   0.000000
   85       54.899779   0.000000
   86       54.899779   0.000000
   87       55.114082   0.000000
   88       55.114082   0.000000
   89       55.114083   0.000000
   90       55.114083   0.000000
   91       55.114084   0.000000
   92       55.114084   0.000000
   93       57.345391   0.000000
   94       57.345391   0.000000
   95       57.345392   0.000000
   96       57.345392   0.000000
   97       57.345399   0.000000
   98       57.345399   0.000000
   99       57.949217   0.000000
  100       57.949217   0.000000
  101       57.949220   0.000000
  102       57.949220   0.000000
  103       61.538280   0.000000
  104       61.538280   0.000000
  105       61.541078   0.000000
  106       61.541078   0.000000
  107       61.541080   0.000000
  108       61.541080   0.000000
  109       61.696652   0.000000
  110       61.696652   0.000000
  111       61.696653   0.000000
  112       61.696653   0.000000
  113       61.696921   0.000000
  114       61.696921   0.000000
  115       61.854543   0.000000
  116       61.854543   0.000000
  117       62.277462   0.000000
  118       62.277462   0.000000
  119       72.159679   0.000000
  120       72.159679   0.000000
  121       72.159680   0.000000
  122       72.159680   0.000000
  123       75.914870   0.000000
  124       75.914870   0.000000
  125       75.914873   0.000000
  126       75.914873   0.000000
  127       75.922436   0.000000
  128       75.922436   0.000000
 
  0.1428571E+00 -0.1225762E-16  0.1387779E-16  0.2915452E-02
    1      -24.211954   1.000000
    2      -24.211954   1.000000
    3       -9.446961   1.000000
    4       -9.446961   1.000000
    5       -9.149089   1.000000
    6       -9.149089   1.000000
    7       -9.048929   1.000000
    8       -9.048929   1.000000
    9        5.657570   0.000000
   10        5.657571   0.000000
   11       12.610062   0.000000
   12       12.610062   0.000000
   13       13.825019   0.000000
   14       13.825019   0.000000
   15       13.827260   0.000000
   16       13.827261   0.000000
   17       12.574860   0.000000
   18       12.574860   0.000000
   19       12.576110   0.000000
   20       12.576110   0.000000
   21       16.447042   0.000000
   22       16.447042   0.000000
   23       17.334886   0.000000
   24       17.334886   0.000000
   25       19.462239   0.000000
   26       19.462239   0.000000
   27       19.471248   0.000000
   28       19.471248   0.000000
   29       22.360736   0.000000
   30       22.360736   0.000000
   31       24.640724   0.000000
   32       24.640724   0.000000
   33       25.146835   0.000000
   34       25.146835   0.000000
   35       25.172372   0.000000
   36       25.172372   0.000000
   37       28.505256   0.000000
   38       28.505256   0.000000
   39       28.533767   0.000000
   40       28.533767   0.000000
   41       30.282299   0.000000
   42       30.282299   0.000000
   43       31.739866   0.000000
   44       31.739866   0.000000
   45       31.758661   0.000000
   46       31.758661   0.000000
   47       37.912094   0.000000
   48       37.912094   0.000000
   49       37.914056   0.000000
   50       37.914056   0.000000
   51       37.983289   0.000000
   52       37.983289   0.000000
   53       38.483834   0.000000
   54       38.483834   0.000000
   55       43.072689   0.000000
   56       43.072689   0.000000
   57       43.531322   0.000000
   58       43.531322   0.000000
   59       43.538581   0.000000
   60       43.538581   0.000000
   61       46.571167   0.000000
   62       46.571167   0.000000
   63       46.575898   0.000000
   64       46.575898   0.000000
   65       47.943717   0.000000
   66       47.943717   0.000000
   67       49.380689   0.000000
   68       49.380689   0.000000
   69       49.380770   0.000000
   70       49.380770   0.000000
   71       50.398581   0.000000
   72       50.398581   0.000000
   73       50.414712   0.000000
   74       50.414712   0.000000
   75       50.931979   0.000000
   76       50.931979   0.000000
   77       51.506265   0.000000
   78       51.506265   0.000000
   79       52.719807   0.000000
   80       52.719807   0.000000
   81       52.722129   0.000000
   82       52.722129   0.000000
   83       53.482504   0.000000
   84       53.482504   0.000000
   85       54.003564   0.000000
   86       54.003564   0.000000
   87       56.425509   0.000000
   88       56.425509   0.000000
   89       56.425613   0.000000
   90       56.425613   0.000000
   91       57.139214   0.000000
   92       57.139214   0.000000
   93       57.525195   0.000000
   94       57.525195   0.000000
   95       57.526317   0.000000
   96       57.526317   0.000000
   97       58.725807   0.000000
   98       58.725807   0.000000
   99       59.808309   0.000000
  100       59.808309   0.000000
  101       60.242839   0.000000
  102       60.242839   0.000000
  103       60.243463   0.000000
  104       60.243463   0.000000
  105       60.453668   0.000000
  106       60.453668   0.000000
  107       63.743490   0.000000
  108       63.743490   0.000000
  109       63.743666   0.000000
  110       63.743666   0.000000
  111       65.222094   0.000000
  112       65.222094   0.000000
  113       65.222297   0.000000
  114       65.222297   0.000000
  115       65.456974   0.000000
  116       65.456974   0.000000
  117       69.274183   0.000000
  118       69.274183   0.000000
  119       69.291672   0.000000
  120       69.291672   0.000000
  121       70.441028   0.000000
  122       70.441028   0.000000
  123       72.950969   0.000000
  124       72.950969   0.000000
  125       74.109359   0.000000
  126       74.109359   0.000000
  127       74.109757   0.000000
  128       74.109757   0.000000
 
  0.2857143E+00 -0.2451524E-16  0.2775558E-16  0.2915452E-02
    1      -24.115514   1.000000
    2      -24.115514   1.000000
    3      -10.119990   1.000000
    4      -10.119990   1.000000
    5       -9.249550   1.000000
    6       -9.249550   1.000000
    7       -9.128930   1.000000
    8       -9.128928   1.000000
    9        6.998168   0.000000
   10        6.998168   0.000000
   11       11.282185   0.000000
   12       11.282185   0.000000
   13       13.624604   0.000000
   14       13.624604   0.000000
   15       13.626600   0.000000
   16       13.626600   0.000000
   17       12.963707   0.000000
   18       12.963707   0.000000
   19       12.967171   0.000000
   20       12.967171   0.000000
   21       15.284719   0.000000
   22       15.284719   0.000000
   23       18.957517   0.000000
   24       18.957517   0.000000
   25       21.256332   0.000000
   26       21.256332   0.000000
   27       21.589207   0.000000
   28       21.589207   0.000000
   29       21.616672   0.000000
   30       21.616672   0.000000
   31       22.384626   0.000000
   32       22.384626   0.000000
   33       22.391307   0.000000
   34       22.391307   0.000000
   35       27.451392   0.000000
   36       27.451392   0.000000
   37       28.621350   0.000000
   38       28.621350   0.000000
   39       28.640016   0.000000
   40       28.640016   0.000000
   41       31.094792   0.000000
   42       31.094792   0.000000
   43       32.651519   0.000000
   44       32.651519   0.000000
   45       32.679462   0.000000
   46       32.679462   0.000000
   47       36.167038   0.000000
   48       36.167038   0.000000
   49       36.169347   0.000000
   50       36.169347   0.000000
   51       37.293414   0.000000
   52       37.293414   0.000000
   53       38.673295   0.000000
   54       38.673295   0.000000
   55       41.722509   0.000000
   56       41.722509   0.000000
   57       43.327099   0.000000
   58       43.327099   0.000000
   59       43.327973   0.000000
   60       43.327973   0.000000
   61       45.582427   0.000000
   62       45.582427   0.000000
   63       45.992889   0.000000
   64       45.992889   0.000000
   65       45.993107   0.000000
   66       45.993107   0.000000
   67       47.170777   0.000000
   68       47.170777   0.000000
   69       47.186747   0.000000
   70       47.186747   0.000000
   71       47.678055   0.000000
   72       47.678055   0.000000
   73       48.236072   0.000000
   74       48.236072   0.000000
   75       50.785465   0.000000
   76       50.785465   0.000000
   77       50.785959   0.000000
   78       50.785959   0.000000
   79       51.112763   0.000000
   80       51.112763   0.000000
   81       53.519943   0.000000
   82       53.519943   0.000000
   83       53.528805   0.000000
   84       53.528805   0.000000
   85       54.382103   0.000000
   86       54.382103   0.000000
   87       56.554953   0.000000
   88       56.554953   0.000000
   89       56.555693   0.000000
   90       56.555693   0.000000
   91       58.314205   0.000000
   92       58.314205   0.000000
   93       60.536272   0.000000
   94       60.536272   0.000000
   95       60.536326   0.000000
   96       60.536326   0.000000
   97       62.845022   0.000000
   98       62.845022   0.000000
   99       63.394809   0.000000
  100       63.394809   0.000000
  101       63.398607   0.000000
  102       63.398607   0.000000
  103       64.246898   0.000000
  104       64.246898   0.000000
  105       65.041990   0.000000
  106       65.041990   0.000000
  107       65.069804   0.000000
  108       65.069804   0.000000
  109       65.270072   0.000000
  110       65.270072   0.000000
  111       68.024122   0.000000
  112       68.024122   0.000000
  113       68.927857   0.000000
  114       68.927857   0.000000
  115       68.928816   0.000000
  116       68.928816   0.000000
  117       69.676456   0.000000
  118       69.676456   0.000000
  119       69.677796   0.000000
  120       69.677796   0.000000
  121       70.063207   0.000000
  122       70.063207   0.000000
  123       70.804537   0.000000
  124       70.804537   0.000000
  125       71.904957   0.000000
  126       71.904957   0.000000
  127       71.905758   0.000000
  128       71.905758   0.000000
 
  0.4285714E+00 -0.2289507E-16  0.2775558E-16  0.2915452E-02
    1      -24.035927   1.000000
    2      -24.035927   1.000000
    3      -10.626218   1.000000
    4      -10.626217   1.000000
    5       -9.314426   1.000000
    6       -9.314426   1.000000
    7       -9.191625   1.000000
    8       -9.191624   1.000000
    9        8.129126   0.000000
   10        8.129126   0.000000
   11       10.535357   0.000000
   12       10.535358   0.000000
   13       13.152779   0.000000
   14       13.152779   0.000000
   15       13.154155   0.000000
   16       13.154156   0.000000
   17       14.245838   0.000000
   18       14.245838   0.000000
   19       14.248892   0.000000
   20       14.248892   0.000000
   21       15.019180   0.000000
   22       15.019180   0.000000
   23       16.964100   0.000000
   24       16.964100   0.000000
   25       19.480099   0.000000
   26       19.480099   0.000000
   27       19.510815   0.000000
   28       19.510815   0.000000
   29       24.159085   0.000000
   30       24.159085   0.000000
   31       24.436763   0.000000
   32       24.436763   0.000000
   33       24.438603   0.000000
   34       24.438603   0.000000
   35       28.449454   0.000000
   36       28.449454   0.000000
   37       28.484020   0.000000
   38       28.484020   0.000000
   39       28.820783   0.000000
   40       28.820783   0.000000
   41       32.564518   0.000000
   42       32.564518   0.000000
   43       32.773273   0.000000
   44       32.773273   0.000000
   45       32.780324   0.000000
   46       32.780324   0.000000
   47       34.540312   0.000000
   48       34.540312   0.000000
   49       34.554742   0.000000
   50       34.554742   0.000000
   51       35.280070   0.000000
   52       35.280070   0.000000
   53       38.781327   0.000000
   54       38.781327   0.000000
   55       39.448454   0.000000
   56       39.448454   0.000000
   57       41.416785   0.000000
   58       41.416785   0.000000
   59       41.418580   0.000000
   60       41.418580   0.000000
   61       43.001754   0.000000
   62       43.001754   0.000000
   63       44.859465   0.000000
   64       44.859465   0.000000
   65       44.859566   0.000000
   66       44.859566   0.000000
   67       45.612827   0.000000
   68       45.612827   0.000000
   69       49.998565   0.000000
   70       49.998565   0.000000
   71       50.000478   0.000000
   72       50.000478   0.000000
   73       50.250908   0.000000
   74       50.250908   0.000000
   75       50.905223   0.000000
   76       50.905223   0.000000
   77       50.912874   0.000000
   78       50.912874   0.000000
   79       50.954115   0.000000
   80       50.954115   0.000000
   81       53.344329   0.000000
   82       53.344329   0.000000
   83       53.356502   0.000000
   84       53.356502   0.000000
   85       53.751660   0.000000
   86       53.751660   0.000000
   87       58.340307   0.000000
   88       58.340307   0.000000
   89       58.660668   0.000000
   90       58.660668   0.000000
   91       58.669768   0.000000
   92       58.669768   0.000000
   93       60.559392   0.000000
   94       60.559392   0.000000
   95       60.576309   0.000000
   96       60.576309   0.000000
   97       62.842287   0.000000
   98       62.842287   0.000000
   99       63.645354   0.000000
  100       63.645354   0.000000
  101       63.646067   0.000000
  102       63.646067   0.000000
  103       65.718571   0.000000
  104       65.718571   0.000000
  105       66.623817   0.000000
  106       66.623817   0.000000
  107       66.630964   0.000000
  108       66.630964   0.000000
  109       69.154453   0.000000
  110       69.154453   0.000000
  111       69.155818   0.000000
  112       69.155818   0.000000
  113       69.269393   0.000000
  114       69.269393   0.000000
  115       71.354894   0.000000
  116       71.354894   0.000000
  117       72.182055   0.000000
  118       72.182055   0.000000
  119       72.733241   0.000000
  120       72.733241   0.000000
  121       72.739833   0.000000
  122       72.739833   0.000000
  123       74.816814   0.000000
  124       74.816814   0.000000
  125       74.818022   0.000000
  126       74.818022   0.000000
  127       75.291983   0.000000
  128       75.291983   0.000000
 
 -0.4285714E+00  0.2289507E-16 -0.2775558E-16  0.2915452E-02
    1      -24.035927   1.000000
    2      -24.035927   1.000000
    3      -10.626218   1.000000
    4      -10.626217   1.000000
    5       -9.314426   1.000000
    6       -9.314426   1.000000
    7       -9.191625   1.000000
    8       -9.191624   1.000000
    9        8.129125   0.000000
   10        8.129125   0.000000
   11       10.535357   0.000000
   12       10.535358   0.000000
   13       13.152779   0.000000
   14       13.152779   0.000000
   15       13.154155   0.000000
   16       13.154156   0.000000
   17       14.245838   0.000000
   18       14.245838   0.000000
   19       14.248892   0.000000
   20       14.248892   0.000000
   21       15.019180   0.000000
   22       15.019180   0.000000
   23       16.964100   0.000000
   24       16.964100   0.000000
   25       19.480099   0.000000
   26       19.480099   0.000000
   27       19.510815   0.000000
   28       19.510815   0.000000
   29       24.159085   0.000000
   30       24.159085   0.000000
   31       24.436763   0.000000
   32       24.436763   0.000000
   33       24.438603   0.000000
   34       24.438603   0.000000
   35       28.449454   0.000000
   36       28.449454   0.000000
   37       28.484020   0.000000
   38       28.484020   0.000000
   39       28.820783   0.000000
   40       28.820783   0.000000
   41       32.564518   0.000000
   42       32.564518   0.000000
   43       32.773273   0.000000
   44       32.773273   0.000000
   45       32.780324   0.000000
   46       32.780324   0.000000
   47       34.540312   0.000000
   48       34.540312   0.000000
   49       34.554742   0.000000
   50       34.554742   0.000000
   51       35.280070   0.000000
   52       35.280070   0.000000
   53       38.781327   0.000000
   54       38.781327   0.000000
   55       39.448454   0.000000
   56       39.448454   0.000000
   57       41.416785   0.000000
   58       41.416785   0.000000
   59       41.418580   0.000000
   60       41.418580   0.000000
   61       43.001754   0.000000
   62       43.001754   0.000000
   63       44.859465   0.000000
   64       44.859465   0.000000
   65       44.859566   0.000000
   66       44.859566   0.000000
   67       45.612827   0.000000
   68       45.612827   0.000000
   69       49.998565   0.000000
   70       49.998565   0.000000
   71       50.000478   0.000000
   72       50.000478   0.000000
   73       50.250908   0.000000
   74       50.250908   0.000000
   75       50.905223   0.000000
   76       50.905223   0.000000
   77       50.912874   0.000000
   78       50.912874   0.000000
   79       50.954115   0.000000
   80       50.954115   0.000000
   81       53.344329   0.000000
   82       53.344329   0.000000
   83       53.356502   0.000000
   84       53.356502   0.000000
   85       53.751660   0.000000
   86       53.751660   0.000000
   87       58.340307   0.000000
   88       58.340307   0.000000
   89       58.660668   0.000000
   90       58.660668   0.000000
   91       58.669768   0.000000
   92       58.669768   0.000000
   93       60.559392   0.000000
   94       60.559392   0.000000
   95       60.576309   0.000000
   96       60.576309   0.000000
   97       62.842287   0.000000
   98       62.842287   0.000000
   99       63.645354   0.000000
  100       63.645354   0.000000
  101       63.646067   0.000000
  102       63.646067   0.000000
  103       65.718571   0.000000
  104       65.718571   0.000000
  105       66.623817   0.000000
  106       66.623817   0.000000
  107       66.630964   0.000000
  108       66.630964   0.000000
  109       69.154453   0.000000
  110       69.154453   0.000000
  111       69.155818   0.000000
  112       69.155818   0.000000
  113       69.269393   0.000000
  114       69.269393   0.000000
  115       71.354894   0.000000
  116       71.354894   0.000000
  117       72.182055   0.000000
  118       72.182055   0.000000
  119       72.733241   0.000000
  120       72.733241   0.000000
  121       72.739833   0.000000
  122       72.739833   0.000000
  123       74.816814   0.000000
  124       74.816814   0.000000
  125       74.818022   0.000000
  126       74.818022   0.000000
  127       75.291983   0.000000
  128       75.291983   0.000000
 
 -0.2857143E+00  0.2451524E-16 -0.2775558E-16  0.2915452E-02
    1      -24.115514   1.000000
    2      -24.115514   1.000000
    3      -10.119990   1.000000
    4      -10.119990   1.000000
    5       -9.249550   1.000000
    6       -9.249550   1.000000
    7       -9.128930   1.000000
    8       -9.128928   1.000000
    9        6.998168   0.000000
   10        6.998168   0.000000
   11       11.282185   0.000000
   12       11.282185   0.000000
   13       13.624604   0.000000
   14       13.624604   0.000000
   15       13.626600   0.000000
   16       13.626600   0.000000
   17       12.963707   0.000000
   18       12.963707   0.000000
   19       12.967171   0.000000
   20       12.967171   0.000000
   21       15.284719   0.000000
   22       15.284719   0.000000
   23       18.957517   0.000000
   24       18.957517   0.000000
   25       21.256332   0.000000
   26       21.256332   0.000000
   27       21.589207   0.000000
   28       21.589207   0.000000
   29       21.616672   0.000000
   30       21.616672   0.000000
   31       22.384626   0.000000
   32       22.384626   0.000000
   33       22.391307   0.000000
   34       22.391307   0.000000
   35       27.451392   0.000000
   36       27.451392   0.000000
   37       28.621350   0.000000
   38       28.621350   0.000000
   39       28.640016   0.000000
   40       28.640016   0.000000
   41       31.094792   0.000000
   42       31.094792   0.000000
   43       32.651519   0.000000
   44       32.651519   0.000000
   45       32.679462   0.000000
   46       32.679462   0.000000
   47       36.167038   0.000000
   48       36.167038   0.000000
   49       36.169347   0.000000
   50       36.169347   0.000000
   51       37.293414   0.000000
   52       37.293414   0.000000
   53       38.673295   0.000000
   54       38.673295   0.000000
   55       41.722509   0.000000
   56       41.722509   0.000000
   57       43.327099   0.000000
   58       43.327099   0.000000
   59       43.327973   0.000000
   60       43.327973   0.000000
   61       45.582427   0.000000
   62       45.582427   0.000000
   63       45.992889   0.000000
   64       45.992889   0.000000
   65       45.993107   0.000000
   66       45.993107   0.000000
   67       47.170777   0.000000
   68       47.170777   0.000000
   69       47.186747   0.000000
   70       47.186747   0.000000
   71       47.678055   0.000000
   72       47.678055   0.000000
   73       48.236072   0.000000
   74       48.236072   0.000000
   75       50.785465   0.000000
   76       50.785465   0.000000
   77       50.785959   0.000000
   78       50.785959   0.000000
   79       51.112763   0.000000
   80       51.112763   0.000000
   81       53.519943   0.000000
   82       53.519943   0.000000
   83       53.528805   0.000000
   84       53.528805   0.000000
   85       54.382103   0.000000
   86       54.382103   0.000000
   87       56.554953   0.000000
   88       56.554953   0.000000
   89       56.555693   0.000000
   90       56.555693   0.000000
   91       58.314205   0.000000
   92       58.314205   0.000000
   93       60.536272   0.000000
   94       60.536272   0.000000
   95       60.536326   0.000000
   96       60.536326   0.000000
   97       62.845022   0.000000
   98       62.845022   0.000000
   99       63.394809   0.000000
  100       63.394809   0.000000
  101       63.398607   0.000000
  102       63.398607   0.000000
  103       64.246898   0.000000
  104       64.246898   0.000000
  105       65.041990   0.000000
  106       65.041990   0.000000
  107       65.069804   0.000000
  108       65.069804   0.000000
  109       65.270072   0.000000
  110       65.270072   0.000000
  111       68.024122   0.000000
  112       68.024122   0.000000
  113       68.927857   0.000000
  114       68.927857   0.000000
  115       68.928816   0.000000
  116       68.928816   0.000000
  117       69.676456   0.000000
  118       69.676456   0.000000
  119       69.677796   0.000000
  120       69.677796   0.000000
  121       70.063207   0.000000
  122       70.063207   0.000000
  123       70.804537   0.000000
  124       70.804537   0.000000
  125       71.904957   0.000000
  126       71.904957   0.000000
  127       71.905758   0.000000
  128       71.905758   0.000000
 
 -0.1428571E+00  0.1225762E-16 -0.1387779E-16  0.2915452E-02
    1      -24.211954   1.000000
    2      -24.211954   1.000000
    3       -9.446962   1.000000
    4       -9.446961   1.000000
    5       -9.149089   1.000000
    6       -9.149089   1.000000
    7       -9.048929   1.000000
    8       -9.048929   1.000000
    9        5.657571   0.000000
   10        5.657571   0.000000
   11       12.610062   0.000000
   12       12.610062   0.000000
   13       13.825018   0.000000
   14       13.825019   0.000000
   15       13.827260   0.000000
   16       13.827261   0.000000
   17       12.574860   0.000000
   18       12.574860   0.000000
   19       12.576110   0.000000
   20       12.576110   0.000000
   21       16.447042   0.000000
   22       16.447042   0.000000
   23       17.334886   0.000000
   24       17.334886   0.000000
   25       19.462239   0.000000
   26       19.462239   0.000000
   27       19.471248   0.000000
   28       19.471248   0.000000
   29       22.360736   0.000000
   30       22.360736   0.000000
   31       24.640724   0.000000
   32       24.640724   0.000000
   33       25.146835   0.000000
   34       25.146835   0.000000
   35       25.172372   0.000000
   36       25.172372   0.000000
   37       28.505256   0.000000
   38       28.505256   0.000000
   39       28.533767   0.000000
   40       28.533767   0.000000
   41       30.282299   0.000000
   42       30.282299   0.000000
   43       31.739866   0.000000
   44       31.739866   0.000000
   45       31.758661   0.000000
   46       31.758661   0.000000
   47       37.912094   0.000000
   48       37.912094   0.000000
   49       37.914056   0.000000
   50       37.914056   0.000000
   51       37.983289   0.000000
   52       37.983289   0.000000
   53       38.483834   0.000000
   54       38.483834   0.000000
   55       43.072689   0.000000
   56       43.072689   0.000000
   57       43.531322   0.000000
   58       43.531322   0.000000
   59       43.538581   0.000000
   60       43.538581   0.000000
   61       46.571167   0.000000
   62       46.571167   0.000000
   63       46.575898   0.000000
   64       46.575898   0.000000
   65       47.943717   0.000000
   66       47.943717   0.000000
   67       49.380689   0.000000
   68       49.380689   0.000000
   69       49.380770   0.000000
   70       49.380770   0.000000
   71       50.398581   0.000000
   72       50.398581   0.000000
   73       50.414712   0.000000
   74       50.414712   0.000000
   75       50.931979   0.000000
   76       50.931979   0.000000
   77       51.506265   0.000000
   78       51.506265   0.000000
   79       52.719807   0.000000
   80       52.719807   0.000000
   81       52.722129   0.000000
   82       52.722129   0.000000
   83       53.482504   0.000000
   84       53.482504   0.000000
   85       54.003564   0.000000
   86       54.003564   0.000000
   87       56.425509   0.000000
   88       56.425509   0.000000
   89       56.425613   0.000000
   90       56.425613   0.000000
   91       57.139214   0.000000
   92       57.139214   0.000000
   93       57.525195   0.000000
   94       57.525195   0.000000
   95       57.526317   0.000000
   96       57.526317   0.000000
   97       58.725807   0.000000
   98       58.725807   0.000000
   99       59.808309   0.000000
  100       59.808309   0.000000
  101       60.242839   0.000000
  102       60.242839   0.000000
  103       60.243463   0.000000
  104       60.243463   0.000000
  105       60.453668   0.000000
  106       60.453668   0.000000
  107       63.743490   0.000000
  108       63.743490   0.000000
  109       63.743666   0.000000
  110       63.743666   0.000000
  111       65.222094   0.000000
  112       65.222094   0.000000
  113       65.222297   0.000000
  114       65.222297   0.000000
  115       65.456974   0.000000
  116       65.456974   0.000000
  117       69.274183   0.000000
  118       69.274183   0.000000
  119       69.291672   0.000000
  120       69.291672   0.000000
  121       70.441028   0.000000