   1   1   0   0
  0.5789729E+02  0.4342346E-09  0.4342346E-09  0.4342346E-09  0.1000000E-15
  1.000000000000000E-004
  CAR 
 Og_FCC                                  
     58.50615520    -45.18079612  301      2.68801307      1.00000000
    -45.181  0.0000E+00  0.0000E+00
    -44.835  0.0000E+00  0.0000E+00
    -44.490  0.0000E+00  0.0000E+00
    -44.144  0.0000E+00  0.0000E+00
    -43.798  0.0000E+00  0.0000E+00
    -43.453  0.0000E+00  0.0000E+00
    -43.107  0.0000E+00  0.0000E+00
    -42.761  0.0000E+00  0.0000E+00
    -42.416  0.0000E+00  0.0000E+00
    -42.070  0.0000E+00  0.0000E+00
    -41.725  0.0000E+00  0.0000E+00
    -41.379  0.0000E+00  0.0000E+00
    -41.033  0.0000E+00  0.0000E+00
    -40.688  0.0000E+00  0.0000E+00
    -40.342  0.0000E+00  0.4000E+01
    -39.996  0.0000E+00  0.4000E+01
    -39.651  0.0000E+00  0.4000E+01
    -39.305  0.0000E+00  0.4000E+01
    -38.960  0.0000E+00  0.4000E+01
    -38.614  0.0000E+00  0.4000E+01
    -38.268  0.0000E+00  0.4000E+01
    -37.923  0.0000E+00  0.4000E+01
    -37.577  0.0000E+00  0.4000E+01
    -37.231  0.0000E+00  0.4000E+01
    -36.886  0.0000E+00  0.4000E+01
    -36.540  0.0000E+00  0.4000E+01
    -36.195  0.0000E+00  0.4000E+01
    -35.849  0.0000E+00  0.4000E+01
    -35.503  0.0000E+00  0.4000E+01
    -35.158  0.0000E+00  0.4000E+01
    -34.812  0.0000E+00  0.4000E+01
    -34.466  0.0000E+00  0.4000E+01
    -34.121  0.0000E+00  0.4000E+01
    -33.775  0.0000E+00  0.4000E+01
    -33.430  0.0000E+00  0.4000E+01
    -33.084  0.0000E+00  0.4000E+01
    -32.738  0.0000E+00  0.1000E+02
    -32.393  0.0000E+00  0.1000E+02
    -32.047  0.0000E+00  0.1000E+02
    -31.701  0.0000E+00  0.1000E+02
    -31.356  0.0000E+00  0.1000E+02
    -31.010  0.0000E+00  0.1000E+02
    -30.665  0.0000E+00  0.1000E+02
    -30.319  0.0000E+00  0.1000E+02
    -29.973  0.0000E+00  0.1000E+02
    -29.628  0.0000E+00  0.1000E+02
    -29.282  0.0000E+00  0.1000E+02
    -28.937  0.0000E+00  0.1000E+02
    -28.591  0.0000E+00  0.1000E+02
    -28.245  0.0000E+00  0.1000E+02
    -27.900  0.0000E+00  0.1000E+02
    -27.554  0.0000E+00  0.1000E+02
    -27.208  0.0000E+00  0.1000E+02
    -26.863  0.0000E+00  0.1000E+02
    -26.517  0.0000E+00  0.1000E+02
    -26.172  0.0000E+00  0.1000E+02
    -25.826  0.0000E+00  0.1000E+02
    -25.480  0.0000E+00  0.1000E+02
    -25.135  0.0000E+00  0.1009E+02
    -24.789  0.0000E+00  0.1200E+02
    -24.443  0.0000E+00  0.1200E+02
    -24.098  0.0000E+00  0.1200E+02
    -23.752  0.0000E+00  0.1200E+02
    -23.407  0.0000E+00  0.1200E+02
    -23.061  0.0000E+00  0.1200E+02
    -22.715  0.0000E+00  0.1200E+02
    -22.370  0.0000E+00  0.1200E+02
    -22.024  0.0000E+00  0.1200E+02
    -21.678  0.0000E+00  0.1200E+02
    -21.333  0.0000E+00  0.1200E+02
    -20.987  0.0000E+00  0.1200E+02
    -20.642  0.0000E+00  0.1200E+02
    -20.296  0.0000E+00  0.1200E+02
    -19.950  0.0000E+00  0.1200E+02
    -19.605  0.0000E+00  0.1200E+02
    -19.259  0.0000E+00  0.1200E+02
    -18.913  0.0000E+00  0.1200E+02
    -18.568  0.0000E+00  0.1200E+02
    -18.222  0.0000E+00  0.1200E+02
    -17.877  0.0000E+00  0.1200E+02
    -17.531  0.0000E+00  0.1200E+02
    -17.185  0.0000E+00  0.1200E+02
    -16.840  0.0000E+00  0.1200E+02
    -16.494  0.0000E+00  0.1200E+02
    -16.148  0.0000E+00  0.1200E+02
    -15.803  0.0000E+00  0.1200E+02
    -15.457  0.0000E+00  0.1200E+02
    -15.112  0.0000E+00  0.1200E+02
    -14.766  0.0000E+00  0.1200E+02
    -14.420  0.0000E+00  0.1200E+02
    -14.075  0.0000E+00  0.1200E+02
    -13.729  0.0000E+00  0.1200E+02
    -13.383  0.0000E+00  0.1200E+02
    -13.038  0.0000E+00  0.1200E+02
    -12.692  0.0000E+00  0.1200E+02
    -12.347  0.0000E+00  0.1200E+02
    -12.001  0.0000E+00  0.1200E+02
    -11.655  0.0000E+00  0.1200E+02
    -11.310  0.0000E+00  0.1200E+02
    -10.964  0.0000E+00  0.1200E+02
    -10.618  0.0000E+00  0.1200E+02
    -10.273  0.0000E+00  0.1200E+02
     -9.927  0.0000E+00  0.1384E+02
     -9.582  0.0000E+00  0.1400E+02
     -9.236  0.0000E+00  0.1400E+02
     -8.890  0.0000E+00  0.1400E+02
     -8.545  0.0000E+00  0.1400E+02
     -8.199  0.0000E+00  0.1400E+02
     -7.853  0.0000E+00  0.1400E+02
     -7.508  0.0000E+00  0.1400E+02
     -7.162  0.0000E+00  0.1400E+02
     -6.817  0.0000E+00  0.1400E+02
     -6.471  0.0000E+00  0.1400E+02
     -6.125  0.0000E+00  0.1400E+02
     -5.780  0.0000E+00  0.1400E+02
     -5.434  0.0000E+00  0.1400E+02
     -5.089  0.0000E+00  0.1400E+02
     -4.743  0.0000E+00  0.1400E+02
     -4.397  0.0000E+00  0.1400E+02
     -4.052  0.0000E+00  0.1400E+02
     -3.706  0.0000E+00  0.1400E+02
     -3.360  0.0000E+00  0.1400E+02
     -3.015  0.0000E+00  0.1400E+02
     -2.669  0.0000E+00  0.1400E+02
     -2.324  0.0000E+00  0.1400E+02
     -1.978  0.0000E+00  0.1400E+02
     -1.632  0.0000E+00  0.1400E+02
     -1.287  0.0000E+00  0.1400E+02
     -0.941  0.3597E-02  0.1414E+02
     -0.595  0.0000E+00  0.1548E+02
     -0.250  0.0000E+00  0.1570E+02
      0.096  0.0000E+00  0.1584E+02
      0.441  0.0000E+00  0.1619E+02
      0.787  0.1012E+00  0.1679E+02
      1.133  0.0000E+00  0.1701E+02
      1.478  0.0000E+00  0.1746E+02
      1.824  0.0000E+00  0.1774E+02
      2.170  0.0000E+00  0.1794E+02
      2.515  0.0000E+00  0.1799E+02
      2.861  0.0000E+00  0.1800E+02
      3.206  0.0000E+00  0.1800E+02
      3.552  0.0000E+00  0.1801E+02
      3.898  0.0000E+00  0.1801E+02
      4.243  0.0000E+00  0.1801E+02
      4.589  0.0000E+00  0.1801E+02
      4.935  0.0000E+00  0.1801E+02
      5.280  0.0000E+00  0.1805E+02
      5.626  0.0000E+00  0.1809E+02
      5.971  0.0000E+00  0.1809E+02
      6.317  0.0000E+00  0.1820E+02
      6.663  0.0000E+00  0.1843E+02
      7.008  0.0000E+00  0.1850E+02
      7.354  0.0000E+00  0.1923E+02
      7.700  0.0000E+00  0.1951E+02
      8.045  0.0000E+00  0.2000E+02
      8.391  0.0000E+00  0.2003E+02
      8.736  0.0000E+00  0.2028E+02
      9.082  0.0000E+00  0.2091E+02
      9.428  0.1285E-10  0.2119E+02
      9.773  0.2501E-03  0.2161E+02
     10.119  0.0000E+00  0.2199E+02
     10.465  0.0000E+00  0.2236E+02
     10.810  0.4049E+00  0.2310E+02
     11.156  0.0000E+00  0.2356E+02
     11.501  0.0000E+00  0.2397E+02
     11.847  0.0000E+00  0.2460E+02
     12.193  0.2024E+00  0.2507E+02
     12.538  0.0000E+00  0.2578E+02
     12.884  0.0000E+00  0.2582E+02
     13.230  0.0000E+00  0.2629E+02
     13.575  0.0000E+00  0.2680E+02
     13.921  0.0000E+00  0.2762E+02
     14.266  0.0000E+00  0.2823E+02
     14.612  0.0000E+00  0.2862E+02
     14.958  0.0000E+00  0.2896E+02
     15.303  0.0000E+00  0.2970E+02
     15.649  0.2369E+00  0.3015E+02
     15.995  0.0000E+00  0.3091E+02
     16.340  0.0000E+00  0.3122E+02
     16.686  0.1350E+00  0.3177E+02
     17.031  0.0000E+00  0.3230E+02
     17.377  0.0000E+00  0.3257E+02
     17.723  0.0000E+00  0.3303E+02
     18.068  0.0000E+00  0.3324E+02
     18.414  0.1352E-02  0.3419E+02
     18.759  0.0000E+00  0.3583E+02
     19.105  0.8098E+00  0.3796E+02
     19.451  0.0000E+00  0.3917E+02
     19.796  0.0000E+00  0.3977E+02
     20.142  0.8098E+00  0.4178E+02
     20.488  0.0000E+00  0.4382E+02
     20.833  0.0000E+00  0.4493E+02
     21.179  0.0000E+00  0.4584E+02
     21.524  0.0000E+00  0.4629E+02
     21.870  0.0000E+00  0.4682E+02
     22.216  0.0000E+00  0.4732E+02
     22.561  0.0000E+00  0.4781E+02
     22.907  0.0000E+00  0.4806E+02
     23.253  0.3140E-01  0.4868E+02
     23.598  0.0000E+00  0.4971E+02
     23.944  0.0000E+00  0.5034E+02
     24.289  0.4049E+00  0.5121E+02
     24.635  0.0000E+00  0.5201E+02
     24.981  0.0000E+00  0.5341E+02
     25.326  0.1350E+00  0.5431E+02
     25.672  0.1945E+00  0.5592E+02
     26.018  0.0000E+00  0.5650E+02
     26.363  0.0000E+00  0.5698E+02
     26.709  0.0000E+00  0.5752E+02
     27.054  0.0000E+00  0.5816E+02
     27.400  0.0000E+00  0.5918E+02
     27.746  0.0000E+00  0.6009E+02
     28.091  0.2310E-03  0.6049E+02
     28.437  0.0000E+00  0.6071E+02
     28.783  0.0000E+00  0.6139E+02
     29.128  0.0000E+00  0.6220E+02
     29.474  0.0000E+00  0.6285E+02
     29.819  0.0000E+00  0.6358E+02
     30.165  0.0000E+00  0.6447E+02
     30.511  0.2024E+00  0.6532E+02
     30.856  0.5061E-01  0.6588E+02
     31.202  0.1012E+00  0.6678E+02
     31.548  0.0000E+00  0.6750E+02
     31.893  0.0000E+00  0.6844E+02
     32.239  0.0000E+00  0.6949E+02
     32.584  0.0000E+00  0.7057E+02
     32.930  0.1124E-16  0.7183E+02
     33.276  0.0000E+00  0.7240E+02
     33.621  0.9329E-03  0.7341E+02
     33.967  0.0000E+00  0.7397E+02
     34.313  0.0000E+00  0.7497E+02
     34.658  0.0000E+00  0.7586E+02
     35.004  0.6117E-04  0.7635E+02
     35.349  0.0000E+00  0.7739E+02
     35.695  0.1794E+00  0.7890E+02
     36.041  0.0000E+00  0.7949E+02
     36.386  0.0000E+00  0.8056E+02
     36.732  0.0000E+00  0.8162E+02
     37.078  0.5826E-01  0.8284E+02
     37.423  0.2024E+00  0.8356E+02
     37.769  0.0000E+00  0.8370E+02
     38.114  0.6069E+00  0.8508E+02
     38.460  0.0000E+00  0.8567E+02
     38.806  0.0000E+00  0.8612E+02
     39.151  0.0000E+00  0.8714E+02
     39.497  0.1230E-03  0.8819E+02
     39.843  0.0000E+00  0.8901E+02
     40.188  0.5777E-10  0.8945E+02
     40.534  0.0000E+00  0.9033E+02
     40.879  0.0000E+00  0.9120E+02
     41.225  0.0000E+00  0.9236E+02
     41.571  0.0000E+00  0.9374E+02
     41.916  0.0000E+00  0.9413E+02
     42.262  0.0000E+00  0.9513E+02
     42.607  0.7130E-02  0.9637E+02
     42.953  0.0000E+00  0.9743E+02
     43.299  0.0000E+00  0.9850E+02
     43.644  0.1515E-01  0.9944E+02
     43.990  0.0000E+00  0.9975E+02
     44.336  0.1687E-01  0.1008E+03
     44.681  0.0000E+00  0.1016E+03
     45.027  0.0000E+00  0.1028E+03
     45.372  0.0000E+00  0.1033E+03
     45.718  0.1012E+00  0.1041E+03
     46.064  0.0000E+00  0.1058E+03
     46.409  0.0000E+00  0.1067E+03
     46.755  0.0000E+00  0.1079E+03
     47.101  0.0000E+00  0.1090E+03
     47.446  0.1939E+00  0.1098E+03
     47.792  0.0000E+00  0.1105E+03
     48.137  0.0000E+00  0.1116E+03
     48.483  0.4049E+00  0.1127E+03
     48.829  0.0000E+00  0.1136E+03
     49.174  0.0000E+00  0.1147E+03
     49.520  0.8098E+00  0.1161E+03
     49.866  0.4764E+00  0.1168E+03
     50.211  0.0000E+00  0.1178E+03
     50.557  0.0000E+00  0.1190E+03
     50.902  0.0000E+00  0.1197E+03
     51.248  0.6654E-13  0.1208E+03
     51.594  0.4049E+00  0.1218E+03
     51.939  0.0000E+00  0.1227E+03
     52.285  0.0000E+00  0.1242E+03
     52.631  0.0000E+00  0.1248E+03
     52.976  0.0000E+00  0.1259E+03
     53.322  0.0000E+00  0.1273E+03
     53.667  0.0000E+00  0.1275E+03
     54.013  0.0000E+00  0.1280E+03
     54.359  0.0000E+00  0.1280E+03
     54.704  0.0000E+00  0.1280E+03
     55.050  0.0000E+00  0.1280E+03
     55.396  0.0000E+00  0.1280E+03
     55.741  0.0000E+00  0.1280E+03
     56.087  0.0000E+00  0.1280E+03
     56.432  0.0000E+00  0.1280E+03
     56.778  0.0000E+00  0.1280E+03
     57.124  0.0000E+00  0.1280E+03
     57.469  0.0000E+00  0.1280E+03
     57.815  0.0000E+00  0.1280E+03
     58.161  0.0000E+00  0.1280E+03
     58.506  0.0000E+00  0.1280E+03
