    1    1    1    1
  0.6083477E+02  0.4414576E-09  0.4414576E-09  0.4414576E-09  0.1000000E-15
  1.000000000000000E-004
  CAR 
 Og_FCC                                  
     18    216    256
 
  0.0000000E+00  0.0000000E+00  0.0000000E+00  0.4629630E-02
    1      -50.574627   1.000000
    2      -50.574626   1.000000
    3      -50.572999   1.000000
    4      -50.572998   1.000000
    5      -45.802394   1.000000
    6      -45.802394   1.000000
    7      -45.800257   1.000000
    8      -45.800256   1.000000
    9      -45.800180   1.000000
   10      -45.800179   1.000000
   11      -20.086533   1.000000
   12      -20.086533   1.000000
   13       -7.046816   1.000000
   14       -7.046816   1.000000
   15       -3.285750   1.000000
   16       -3.285750   1.000000
   17       -3.285549   1.000000
   18       -3.285549   1.000000
   19        3.610028   0.000000
   20        3.610028   0.000000
   21        9.437235   0.000000
   22        9.437236   0.000000
   23        9.437438   0.000000
   24        9.437438   0.000000
   25        9.521645   0.000000
   26        9.521645   0.000000
   27       11.015402   0.000000
   28       11.015402   0.000000
   29       12.341243   0.000000
   30       12.341243   0.000000
   31       12.341275   0.000000
   32       12.341276   0.000000
   33       13.265592   0.000000
   34       13.265592   0.000000
   35       13.409471   0.000000
   36       13.409471   0.000000
   37       13.409474   0.000000
   38       13.409474   0.000000
   39       15.210013   0.000000
   40       15.210013   0.000000
   41       18.919018   0.000000
   42       18.919018   0.000000
   43       18.953833   0.000000
   44       18.953833   0.000000
   45       18.953833   0.000000
   46       18.953833   0.000000
   47       21.982381   0.000000
   48       21.982381   0.000000
   49       23.165583   0.000000
   50       23.165583   0.000000
   51       23.165584   0.000000
   52       23.165584   0.000000
   53       23.921232   0.000000
   54       23.921233   0.000000
   55       25.553219   0.000000
   56       25.553219   0.000000
   57       25.602373   0.000000
   58       25.602373   0.000000
   59       25.602374   0.000000
   60       25.602374   0.000000
   61       25.971980   0.000000
   62       25.971980   0.000000
   63       26.494250   0.000000
   64       26.494250   0.000000
   65       26.494250   0.000000
   66       26.494251   0.000000
   67       26.790608   0.000000
   68       26.790608   0.000000
   69       26.790608   0.000000
   70       26.790608   0.000000
   71       28.433818   0.000000
   72       28.433820   0.000000
   73       34.322340   0.000000
   74       34.322340   0.000000
   75       34.352996   0.000000
   76       34.352997   0.000000
   77       34.352997   0.000000
   78       34.352997   0.000000
   79       36.520434   0.000000
   80       36.520434   0.000000
   81       36.520435   0.000000
   82       36.520435   0.000000
   83       36.675109   0.000000
   84       36.675109   0.000000
   85       36.976208   0.000000
   86       36.976208   0.000000
   87       36.976208   0.000000
   88       36.976208   0.000000
   89       36.976208   0.000000
   90       36.976209   0.000000
   91       37.684227   0.000000
   92       37.684227   0.000000
   93       37.684227   0.000000
   94       37.684227   0.000000
   95       37.867840   0.000000
   96       37.867840   0.000000
   97       38.242855   0.000000
   98       38.242855   0.000000
   99       38.242856   0.000000
  100       38.242856   0.000000
  101       39.950652   0.000000
  102       39.950653   0.000000
  103       39.950653   0.000000
  104       39.950654   0.000000
  105       39.987708   0.000000
  106       39.987708   0.000000
  107       40.684721   0.000000
  108       40.684721   0.000000
  109       40.684721   0.000000
  110       40.684722   0.000000
  111       40.693973   0.000000
  112       40.693976   0.000000
  113       42.794474   0.000000
  114       42.794475   0.000000
  115       42.814217   0.000000
  116       42.814217   0.000000
  117       42.814217   0.000000
  118       42.814217   0.000000
  119       43.246686   0.000000
  120       43.246687   0.000000
  121       43.806501   0.000000
  122       43.806502   0.000000
  123       44.159674   0.000000
  124       44.159674   0.000000
  125       44.159674   0.000000
  126       44.159674   0.000000
  127       44.176790   0.000000
  128       44.176790   0.000000
  129       44.446774   0.000000
  130       44.446774   0.000000
  131       44.497874   0.000000
  132       44.497874   0.000000
  133       44.497875   0.000000
  134       44.497875   0.000000
  135       47.653178   0.000000
  136       47.653178   0.000000
  137       47.653178   0.000000
  138       47.653178   0.000000
  139       47.771354   0.000000
  140       47.771354   0.000000
  141       50.349270   0.000000
  142       50.349271   0.000000
  143       56.929726   0.000000
  144       56.929728   0.000000
  145       57.201900   0.000000
  146       57.201901   0.000000
  147       57.201901   0.000000
  148       57.201901   0.000000
  149       60.358029   0.000000
  150       60.358029   0.000000
  151       60.668096   0.000000
  152       60.668096   0.000000
  153       60.668096   0.000000
  154       60.668096   0.000000
  155       63.720798   0.000000
  156       63.720798   0.000000
  157       63.720799   0.000000
  158       63.720799   0.000000
  159       65.173620   0.000000
  160       65.173620   0.000000
  161       65.173620   0.000000
  162       65.173620   0.000000
  163       65.259760   0.000000
  164       65.259760   0.000000
  165       67.565597   0.000000
  166       67.565597   0.000000
  167       68.110003   0.000000
  168       68.110003   0.000000
  169       68.110003   0.000000
  170       68.110003   0.000000
  171       68.110003   0.000000
  172       68.110003   0.000000
  173       68.666425   0.000000
  174       68.666425   0.000000
  175       68.666425   0.000000
  176       68.666425   0.000000
  177       69.696010   0.000000
  178       69.696010   0.000000
  179       69.696010   0.000000
  180       69.696010   0.000000
  181       70.512858   0.000000
  182       70.512858   0.000000
  183       70.512858   0.000000
  184       70.512858   0.000000
  185       70.670282   0.000000
  186       70.670282   0.000000
  187       70.678140   0.000000
  188       70.678141   0.000000
  189       70.678141   0.000000
  190       70.678141   0.000000
  191       70.798410   0.000000
  192       70.798410   0.000000
  193       70.798410   0.000000
  194       70.798410   0.000000
  195       70.798411   0.000000
  196       70.798411   0.000000
  197       70.843993   0.000000
  198       70.843993   0.000000
  199       70.862139   0.000000
  200       70.862139   0.000000
  201       72.072180   0.000000
  202       72.072184   0.000000
  203       72.082712   0.000000
  204       72.082712   0.000000
  205       72.082712   0.000000
  206       72.082712   0.000000
  207       72.985131   0.000000
  208       72.985131   0.000000
  209       73.980694   0.000000
  210       73.980694   0.000000
  211       73.980695   0.000000
  212       73.980695   0.000000
  213       74.422630   0.000000
  214       74.422630   0.000000
  215       74.429391   0.000000
  216       74.429391   0.000000
  217       74.429391   0.000000
  218       74.429391   0.000000
  219       74.470042   0.000000
  220       74.470042   0.000000
  221       74.787946   0.000000
  222       74.787946   0.000000
  223       74.787946   0.000000
  224       74.787947   0.000000
  225       74.834243   0.000000
  226       74.834243   0.000000
  227       75.100985   0.000000
  228       75.100985   0.000000
  229       75.100985   0.000000
  230       75.100985   0.000000
  231       75.283745   0.000000
  232       75.283747   0.000000
  233       75.782825   0.000000
  234       75.782825   0.000000
  235       75.782825   0.000000
  236       75.782825   0.000000
  237       78.036666   0.000000
  238       78.036666   0.000000
  239       78.112537   0.000000
  240       78.112538   0.000000
  241       78.112538   0.000000
  242       78.112538   0.000000
  243       78.791010   0.000000
  244       78.791012   0.000000
  245       79.013486   0.000000
  246       79.013486   0.000000
  247       79.074175   0.000000
  248       79.074175   0.000000
  249       79.074175   0.000000
  250       79.074175   0.000000
  251       85.667494   0.000000
  252       85.667495   0.000000
  253       85.667495   0.000000
  254       85.667495   0.000000
  255       85.685521   0.000000
  256       85.685522   0.000000
 
  0.1666667E+00  0.1538294E-16  0.3469447E-16  0.4629630E-02
    1      -50.574233   1.000000
    2      -50.574230   1.000000
    3      -50.572684   1.000000
    4      -50.572682   1.000000
    5      -45.801675   1.000000
    6      -45.801662   1.000000
    7      -45.800135   1.000000
    8      -45.800133   1.000000
    9      -45.799483   1.000000
   10      -45.799481   1.000000
   11      -20.029549   1.000000
   12      -20.029548   1.000000
   13       -7.254452   1.000000
   14       -7.254452   1.000000
   15       -3.944640   1.000000
   16       -3.944639   1.000000
   17       -3.382287   1.000000
   18       -3.382280   1.000000
   19        4.564929   0.000000
   20        4.564929   0.000000
   21        8.567878   0.000000
   22        8.567879   0.000000
   23        9.659476   0.000000
   24        9.659534   0.000000
   25        9.727389   0.000000
   26        9.727390   0.000000
   27       11.334159   0.000000
   28       11.334162   0.000000
   29       11.392872   0.000000
   30       11.392945   0.000000
   31       11.810234   0.000000
   32       11.810234   0.000000
   33       13.293314   0.000000
   34       13.293315   0.000000
   35       15.304555   0.000000
   36       15.304558   0.000000
   37       15.384116   0.000000
   38       15.384125   0.000000
   39       17.324051   0.000000
   40       17.324052   0.000000
   41       17.984286   0.000000
   42       17.984286   0.000000
   43       18.069805   0.000000
   44       18.069805   0.000000
   45       19.004618   0.000000
   46       19.004618   0.000000
   47       19.990513   0.000000
   48       19.990513   0.000000
   49       21.981621   0.000000
   50       21.981621   0.000000
   51       22.568795   0.000000
   52       22.568795   0.000000
   53       23.551404   0.000000
   54       23.551404   0.000000
   55       24.562807   0.000000
   56       24.562807   0.000000
   57       24.698071   0.000000
   58       24.698071   0.000000
   59       24.837474   0.000000
   60       24.837474   0.000000
   61       26.282844   0.000000
   62       26.282844   0.000000
   63       26.532498   0.000000
   64       26.532498   0.000000
   65       27.364948   0.000000
   66       27.364949   0.000000
   67       27.816128   0.000000
   68       27.816128   0.000000
   69       28.534607   0.000000
   70       28.534607   0.000000
   71       31.451379   0.000000
   72       31.451380   0.000000
   73       33.088095   0.000000
   74       33.088095   0.000000
   75       33.184141   0.000000
   76       33.184141   0.000000
   77       33.444628   0.000000
   78       33.444628   0.000000
   79       33.454416   0.000000
   80       33.454416   0.000000
   81       34.276842   0.000000
   82       34.276842   0.000000
   83       34.525691   0.000000
   84       34.525691   0.000000
   85       36.398093   0.000000
   86       36.398093   0.000000
   87       36.537052   0.000000
   88       36.537052   0.000000
   89       36.930193   0.000000
   90       36.930193   0.000000
   91       37.157857   0.000000
   92       37.157857   0.000000
   93       37.239971   0.000000
   94       37.239971   0.000000
   95       37.974088   0.000000
   96       37.974088   0.000000
   97       38.005849   0.000000
   98       38.005849   0.000000
   99       38.199281   0.000000
  100       38.199282   0.000000
  101       38.477239   0.000000
  102       38.477240   0.000000
  103       40.200370   0.000000
  104       40.200370   0.000000
  105       40.311890   0.000000
  106       40.311891   0.000000
  107       40.825448   0.000000
  108       40.825449   0.000000
  109       41.756631   0.000000
  110       41.756632   0.000000
  111       41.988244   0.000000
  112       41.988244   0.000000
  113       41.989397   0.000000
  114       41.989397   0.000000
  115       44.006567   0.000000
  116       44.006567   0.000000
  117       44.090539   0.000000
  118       44.090539   0.000000
  119       45.045507   0.000000
  120       45.045508   0.000000
  121       45.308479   0.000000
  122       45.308479   0.000000
  123       45.760867   0.000000
  124       45.760867   0.000000
  125       45.887636   0.000000
  126       45.887636   0.000000
  127       45.940996   0.000000
  128       45.940996   0.000000
  129       47.174325   0.000000
  130       47.174325   0.000000
  131       47.241452   0.000000
  132       47.241452   0.000000
  133       47.701019   0.000000
  134       47.701020   0.000000
  135       48.361069   0.000000
  136       48.361070   0.000000
  137       48.412464   0.000000
  138       48.412465   0.000000
  139       49.705933   0.000000
  140       49.705933   0.000000
  141       52.108257   0.000000
  142       52.108258   0.000000
  143       54.645047   0.000000
  144       54.645047   0.000000
  145       54.704935   0.000000
  146       54.704935   0.000000
  147       55.524929   0.000000
  148       55.524931   0.000000
  149       59.928961   0.000000
  150       59.928961   0.000000
  151       60.232977   0.000000
  152       60.232977   0.000000
  153       61.645957   0.000000
  154       61.645957   0.000000
  155       61.772051   0.000000
  156       61.772051   0.000000
  157       61.795578   0.000000
  158       61.795578   0.000000
  159       62.496078   0.000000
  160       62.496079   0.000000
  161       64.047091   0.000000
  162       64.047091   0.000000
  163       64.561673   0.000000
  164       64.561673   0.000000
  165       64.804224   0.000000
  166       64.804224   0.000000
  167       64.812276   0.000000
  168       64.812276   0.000000
  169       65.481957   0.000000
  170       65.481957   0.000000
  171       65.578705   0.000000
  172       65.578705   0.000000
  173       66.475453   0.000000
  174       66.475453   0.000000
  175       66.638135   0.000000
  176       66.638136   0.000000
  177       67.287044   0.000000
  178       67.287045   0.000000
  179       67.726109   0.000000
  180       67.726109   0.000000
  181       67.814731   0.000000
  182       67.814731   0.000000
  183       68.656523   0.000000
  184       68.656523   0.000000
  185       69.084817   0.000000
  186       69.084817   0.000000
  187       69.447924   0.000000
  188       69.447924   0.000000
  189       69.684016   0.000000
  190       69.684016   0.000000
  191       69.757143   0.000000
  192       69.757143   0.000000
  193       70.871239   0.000000
  194       70.871239   0.000000
  195       71.229537   0.000000
  196       71.229538   0.000000
  197       71.273141   0.000000
  198       71.273141   0.000000
  199       71.488584   0.000000
  200       71.488584   0.000000
  201       72.549811   0.000000
  202       72.549811   0.000000
  203       72.785446   0.000000
  204       72.785446   0.000000
  205       72.814240   0.000000
  206       72.814240   0.000000
  207       72.831177   0.000000
  208       72.831177   0.000000
  209       73.103207   0.000000
  210       73.103207   0.000000
  211       73.631106   0.000000
  212       73.631109   0.000000
  213       74.256529   0.000000
  214       74.256529   0.000000
  215       76.062313   0.000000
  216       76.062313   0.000000
  217       76.147466   0.000000
  218       76.147466   0.000000
  219       76.193376   0.000000
  220       76.193376   0.000000
  221       76.382272   0.000000
  222       76.382272   0.000000
  223       76.991252   0.000000
  224       76.991253   0.000000
  225       77.410271   0.000000
  226       77.410271   0.000000
  227       77.459658   0.000000
  228       77.459658   0.000000
  229       78.047349   0.000000
  230       78.047349   0.000000
  231       78.429044   0.000000
  232       78.429044   0.000000
  233       78.511718   0.000000
  234       78.511718   0.000000
  235       78.557683   0.000000
  236       78.557683   0.000000
  237       79.830892   0.000000
  238       79.830892   0.000000
  239       80.206408   0.000000
  240       80.206408   0.000000
  241       80.250439   0.000000
  242       80.250439   0.000000
  243       80.579739   0.000000
  244       80.579740   0.000000
  245       81.877797   0.000000
  246       81.877798   0.000000
  247       81.920834   0.000000
  248       81.920834   0.000000
  249       82.961924   0.000000
  250       82.961924   0.000000
  251       83.322294   0.000000
  252       83.322294   0.000000
  253       83.393259   0.000000
  254       83.393259   0.000000
  255       83.909470   0.000000
  256       83.909471   0.000000
 
  0.3333333E+00  0.5852146E-16  0.6938894E-16  0.4629630E-02
    1      -50.573835   1.000000
    2      -50.573793   1.000000
    3      -50.572217   1.000000
    4      -50.572162   1.000000
    5      -45.801758   1.000000
    6      -45.801740   1.000000
    7      -45.800526   1.000000
    8      -45.800503   1.000000
    9      -45.799278   1.000000
   10      -45.799266   1.000000
   11      -19.915259   1.000000
   12      -19.915259   1.000000
   13       -7.731350   1.000000
   14       -7.731350   1.000000
   15       -4.795039   1.000000
   16       -4.795039   1.000000
   17       -3.564553   1.000000
   18       -3.564527   1.000000
   19        5.526086   0.000000
   20        5.526087   0.000000
   21        8.863781   0.000000
   22        8.863782   0.000000
   23        9.274723   0.000000
   24        9.274834   0.000000
   25        9.356422   0.000000
   26        9.356423   0.000000
   27       11.014236   0.000000
   28       11.014237   0.000000
   29       12.243579   0.000000
   30       12.243580   0.000000
   31       12.361608   0.000000
   32       12.361736   0.000000
   33       16.661494   0.000000
   34       16.661495   0.000000
   35       17.501157   0.000000
   36       17.501157   0.000000
   37       17.845775   0.000000
   38       17.845913   0.000000
   39       18.132730   0.000000
   40       18.132731   0.000000
   41       16.123294   0.000000
   42       16.123294   0.000000
   43       16.293257   0.000000
   44       16.293257   0.000000
   45       19.131537   0.000000
   46       19.131537   0.000000
   47       19.440305   0.000000
   48       19.440306   0.000000
   49       21.668544   0.000000
   50       21.668544   0.000000
   51       22.211882   0.000000
   52       22.211882   0.000000
   53       22.484752   0.000000
   54       22.484753   0.000000
   55       23.525232   0.000000
   56       23.525232   0.000000
   57       23.909939   0.000000
   58       23.909939   0.000000
   59       24.529921   0.000000
   60       24.529921   0.000000
   61       26.651646   0.000000
   62       26.651646   0.000000
   63       26.734348   0.000000
   64       26.734348   0.000000
   65       27.122772   0.000000
   66       27.122773   0.000000
   67       28.044545   0.000000
   68       28.044546   0.000000
   69       28.338705   0.000000
   70       28.338705   0.000000
   71       29.104362   0.000000
   72       29.104363   0.000000
   73       31.493928   0.000000
   74       31.493929   0.000000
   75       31.636141   0.000000
   76       31.636141   0.000000
   77       31.658225   0.000000
   78       31.658225   0.000000
   79       31.739931   0.000000
   80       31.739931   0.000000
   81       32.662963   0.000000
   82       32.662963   0.000000
   83       32.960779   0.000000
   84       32.960779   0.000000
   85       35.984629   0.000000
   86       35.984629   0.000000
   87       36.059397   0.000000
   88       36.059398   0.000000
   89       36.106261   0.000000
   90       36.106261   0.000000
   91       36.721518   0.000000
   92       36.721518   0.000000
   93       36.859087   0.000000
   94       36.859087   0.000000
   95       38.598049   0.000000
   96       38.598049   0.000000
   97       39.099842   0.000000
   98       39.099842   0.000000
   99       39.116398   0.000000
  100       39.116398   0.000000
  101       39.354880   0.000000
  102       39.354881   0.000000
  103       40.533816   0.000000
  104       40.533817   0.000000
  105       41.611932   0.000000
  106       41.611932   0.000000
  107       41.779932   0.000000
  108       41.779932   0.000000
  109       42.403095   0.000000
  110       42.403097   0.000000
  111       43.449371   0.000000
  112       43.449371   0.000000
  113       43.582596   0.000000
  114       43.582596   0.000000
  115       45.717419   0.000000
  116       45.717419   0.000000
  117       47.609008   0.000000
  118       47.609008   0.000000
  119       47.735343   0.000000
  120       47.735343   0.000000
  121       47.976119   0.000000
  122       47.976119   0.000000
  123       48.118240   0.000000
  124       48.118240   0.000000
  125       48.189034   0.000000
  126       48.189035   0.000000
  127       48.924087   0.000000
  128       48.924088   0.000000
  129       50.023372   0.000000
  130       50.023372   0.000000
  131       50.468352   0.000000
  132       50.468352   0.000000
  133       50.552305   0.000000
  134       50.552305   0.000000
  135       51.548529   0.000000
  136       51.548529   0.000000
  137       51.593329   0.000000
  138       51.593329   0.000000
  139       52.435441   0.000000
  140       52.435442   0.000000
  141       52.541932   0.000000
  142       52.541932   0.000000
  143       52.543861   0.000000
  144       52.543862   0.000000
  145       54.713510   0.000000
  146       54.713511   0.000000
  147       54.904801   0.000000
  148       54.904802   0.000000
  149       55.135533   0.000000
  150       55.135533   0.000000
  151       55.139130   0.000000
  152       55.139130   0.000000
  153       58.059792   0.000000
  154       58.059793   0.000000
  155       58.494702   0.000000
  156       58.494702   0.000000
  157       59.055273   0.000000
  158       59.055273   0.000000
  159       59.337736   0.000000
  160       59.337736   0.000000
  161       60.513775   0.000000
  162       60.513776   0.000000
  163       60.565970   0.000000
  164       60.565970   0.000000
  165       60.975005   0.000000
  166       60.975006   0.000000
  167       61.713823   0.000000
  168       61.713823   0.000000
  169       61.770556   0.000000
  170       61.770556   0.000000
  171       62.029833   0.000000
  172       62.029833   0.000000
  173       64.271054   0.000000
  174       64.271054   0.000000
  175       64.481103   0.000000
  176       64.481103   0.000000
  177       67.658810   0.000000
  178       67.658811   0.000000
  179       68.021376   0.000000
  180       68.021376   0.000000
  181       68.146379   0.000000
  182       68.146379   0.000000
  183       68.889451   0.000000
  184       68.889451   0.000000
  185       68.959948   0.000000
  186       68.959948   0.000000
  187       69.562214   0.000000
  188       69.562214   0.000000
  189       69.664048   0.000000
  190       69.664048   0.000000
  191       69.894286   0.000000
  192       69.894286   0.000000
  193       70.335569   0.000000
  194       70.335569   0.000000
  195       70.476295   0.000000
  196       70.476295   0.000000
  197       70.555425   0.000000
  198       70.555426   0.000000
  199       70.752044   0.000000
  200       70.752044   0.000000
  201       71.103962   0.000000
  202       71.103962   0.000000
  203       71.111535   0.000000
  204       71.111536   0.000000
  205       71.591565   0.000000
  206       71.591566   0.000000
  207       73.542780   0.000000
  208       73.542780   0.000000
  209       73.690018   0.000000
  210       73.690020   0.000000
  211       73.828975   0.000000
  212       73.828975   0.000000
  213       74.296729   0.000000
  214       74.296730   0.000000
  215       75.323744   0.000000
  216       75.323744   0.000000
  217       75.332005   0.000000
  218       75.332005   0.000000
  219       76.251173   0.000000
  220       76.251174   0.000000
  221       77.646596   0.000000
  222       77.646596   0.000000
  223       78.576067   0.000000
  224       78.576067   0.000000
  225       78.643753   0.000000
  226       78.643753   0.000000
  227       78.678766   0.000000
  228       78.678766   0.000000
  229       79.158940   0.000000
  230       79.158940   0.000000
  231       79.213056   0.000000
  232       79.213056   0.000000
  233       79.756413   0.000000
  234       79.756413   0.000000
  235       80.254087   0.000000
  236       80.254087   0.000000
  237       80.268778   0.000000
  238       80.268778   0.000000
  239       81.508741   0.000000
  240       81.508741   0.000000
  241       82.082785   0.000000
  242       82.082785   0.000000
  243       83.081304   0.000000
  244       83.081305   0.000000
  245       83.111574   0.000000
  246       83.111574   0.000000
  247       83.118715   0.000000
  248       83.118716   0.000000
  249       83.921384   0.000000
  250       83.921385   0.000000
  251       84.353167   0.000000
  252       84.353168   0.000000
  253       85.163353   0.000000
  254       85.163354   0.000000
  255       85.279509   0.000000
  256       85.279510   0.000000
 
  0.5000000E+00  0.3227103E-16  0.5551115E-16  0.4629630E-02
    1      -50.573511   1.000000
    2      -50.573448   1.000000
    3      -50.571661   1.000000
    4      -50.571626   1.000000
    5      -45.800821   1.000000
    6      -45.800789   1.000000
    7      -45.799205   1.000000
    8      -45.799166   1.000000
    9      -45.797658   1.000000
   10      -45.797641   1.000000
   11      -19.857787   1.000000
   12      -19.857785   1.000000
   13       -7.990953   1.000000
   14       -7.990952   1.000000
   15       -5.087501   1.000000
   16       -5.087501   1.000000
   17       -3.650516   1.000000
   18       -3.650484   1.000000
   19        5.578048   0.000000
   20        5.578050   0.000000
   21        8.976377   0.000000
   22        8.976485   0.000000
   23        9.052097   0.000000
   24        9.052098   0.000000
   25        9.395297   0.000000
   26        9.395297   0.000000
   27       11.481324   0.000000
   28       11.481325   0.000000
   29       14.503927   0.000000
   30       14.503927   0.000000
   31       14.710147   0.000000
   32       14.710148   0.000000
   33       14.737327   0.000000
   34       14.737369   0.000000
   35       14.808856   0.000000
   36       14.809070   0.000000
   37       15.536719   0.000000
   38       15.536720   0.000000
   39       19.801958   0.000000
   40       19.801958   0.000000
   41       17.559878   0.000000
   42       17.559878   0.000000
   43       17.564491   0.000000
   44       17.564491   0.000000
   45       19.203922   0.000000
   46       19.203922   0.000000
   47       20.610568   0.000000
   48       20.610569   0.000000
   49       21.629053   0.000000
   50       21.629054   0.000000
   51       21.982510   0.000000
   52       21.982510   0.000000
   53       22.032015   0.000000
   54       22.032015   0.000000
   55       22.391529   0.000000
   56       22.391529   0.000000
   57       23.318552   0.000000
   58       23.318552   0.000000
   59       25.020098   0.000000
   60       25.020098   0.000000
   61       25.598820   0.000000
   62       25.598821   0.000000
   63       26.681529   0.000000
   64       26.681529   0.000000
   65       26.975369   0.000000
   66       26.975369   0.000000
   67       27.420250   0.000000
   68       27.420250   0.000000
   69       27.794794   0.000000
   70       27.794794   0.000000
   71       28.141789   0.000000
   72       28.141789   0.000000
   73       29.292403   0.000000
   74       29.292403   0.000000
   75       31.101401   0.000000
   76       31.101401   0.000000
   77       31.119243   0.000000
   78       31.119243   0.000000
   79       31.154852   0.000000
   80       31.154852   0.000000
   81       32.297426   0.000000
   82       32.297426   0.000000
   83       32.648442   0.000000
   84       32.648442   0.000000
   85       35.674328   0.000000
   86       35.674329   0.000000
   87       35.750369   0.000000
   88       35.750369   0.000000
   89       36.260196   0.000000
   90       36.260197   0.000000
   91       36.577338   0.000000
   92       36.577338   0.000000
   93       36.742788   0.000000
   94       36.742788   0.000000
   95       39.144743   0.000000
   96       39.144743   0.000000
   97       39.198240   0.000000
   98       39.198242   0.000000
   99       39.703802   0.000000
  100       39.703802   0.000000
  101       39.758365   0.000000
  102       39.758365   0.000000
  103       43.252192   0.000000
  104       43.252192   0.000000
  105       43.270373   0.000000
  106       43.270373   0.000000
  107       43.512024   0.000000
  108       43.512025   0.000000
  109       44.104633   0.000000
  110       44.104634   0.000000
  111       45.214665   0.000000
  112       45.214665   0.000000
  113       45.772654   0.000000
  114       45.772654   0.000000
  115       45.865942   0.000000
  116       45.865942   0.000000
  117       46.984899   0.000000
  118       46.984900   0.000000
  119       47.113413   0.000000
  120       47.113413   0.000000
  121       47.467799   0.000000
  122       47.467799   0.000000
  123       48.960831   0.000000
  124       48.960831   0.000000
  125       49.000341   0.000000
  126       49.000341   0.000000
  127       50.606301   0.000000