   1   1   0   0
  0.1860393E+02  0.2974221E-09  0.2974221E-09  0.2974221E-09  0.1000000E-15
  1.000000000000000E-004
  CAR 
 Og_FCC                                  
    137.49271738    -56.59627677  301    -18.10195960      1.00000000
    -56.596  0.0000E+00  0.0000E+00
    -55.949  0.0000E+00  0.0000E+00
    -55.302  0.0000E+00  0.0000E+00
    -54.655  0.0000E+00  0.0000E+00
    -54.008  0.0000E+00  0.0000E+00
    -53.361  0.0000E+00  0.0000E+00
    -52.714  0.0000E+00  0.0000E+00
    -52.068  0.0000E+00  0.0000E+00
    -51.421  0.0000E+00  0.0000E+00
    -50.774  0.0000E+00  0.0000E+00
    -50.127  0.0000E+00  0.0000E+00
    -49.480  0.0000E+00  0.0000E+00
    -48.833  0.0000E+00  0.0000E+00
    -48.186  0.0000E+00  0.0000E+00
    -47.539  0.0000E+00  0.2000E+01
    -46.892  0.0000E+00  0.2000E+01
    -46.245  0.0000E+00  0.2000E+01
    -45.598  0.0000E+00  0.2000E+01
    -44.951  0.0000E+00  0.2000E+01
    -44.304  0.0000E+00  0.2000E+01
    -43.657  0.0000E+00  0.2000E+01
    -43.010  0.0000E+00  0.2000E+01
    -42.363  0.0000E+00  0.2000E+01
    -41.716  0.0000E+00  0.2000E+01
    -41.069  0.0000E+00  0.2000E+01
    -40.422  0.0000E+00  0.2000E+01
    -39.775  0.0000E+00  0.2000E+01
    -39.128  0.0000E+00  0.2000E+01
    -38.481  0.0000E+00  0.2000E+01
    -37.834  0.0000E+00  0.2000E+01
    -37.187  0.0000E+00  0.2000E+01
    -36.540  0.0000E+00  0.2000E+01
    -35.893  0.0000E+00  0.2000E+01
    -35.246  0.0000E+00  0.2000E+01
    -34.600  0.0000E+00  0.2000E+01
    -33.953  0.0000E+00  0.2000E+01
    -33.306  0.0000E+00  0.2000E+01
    -32.659  0.0000E+00  0.2000E+01
    -32.012  0.0000E+00  0.2000E+01
    -31.365  0.0000E+00  0.2000E+01
    -30.718  0.0000E+00  0.2000E+01
    -30.071  0.0000E+00  0.2000E+01
    -29.424  0.0000E+00  0.2000E+01
    -28.777  0.0000E+00  0.2000E+01
    -28.130  0.0000E+00  0.2000E+01
    -27.483  0.0000E+00  0.2000E+01
    -26.836  0.0000E+00  0.2000E+01
    -26.189  0.0000E+00  0.2000E+01
    -25.542  0.0000E+00  0.2000E+01
    -24.895  0.0000E+00  0.2000E+01
    -24.248  0.0000E+00  0.2000E+01
    -23.601  0.0000E+00  0.2000E+01
    -22.954  0.0000E+00  0.2000E+01
    -22.307  0.0000E+00  0.2000E+01
    -21.660  0.0000E+00  0.2000E+01
    -21.013  0.0000E+00  0.2000E+01
    -20.366  0.0000E+00  0.2000E+01
    -19.719  0.0000E+00  0.2037E+01
    -19.072  0.0000E+00  0.4194E+01
    -18.425  0.0000E+00  0.7852E+01
    -17.778  0.0000E+00  0.8000E+01
    -17.132  0.0000E+00  0.8000E+01
    -16.485  0.0000E+00  0.8000E+01
    -15.838  0.0000E+00  0.8000E+01
    -15.191  0.0000E+00  0.8000E+01
    -14.544  0.0000E+00  0.8000E+01
    -13.897  0.0000E+00  0.8000E+01
    -13.250  0.0000E+00  0.8000E+01
    -12.603  0.0000E+00  0.8000E+01
    -11.956  0.0000E+00  0.8000E+01
    -11.309  0.0000E+00  0.8000E+01
    -10.662  0.0000E+00  0.8000E+01
    -10.015  0.0000E+00  0.8000E+01
     -9.368  0.0000E+00  0.8000E+01
     -8.721  0.0000E+00  0.8000E+01
     -8.074  0.0000E+00  0.8000E+01
     -7.427  0.0000E+00  0.8000E+01
     -6.780  0.0000E+00  0.8000E+01
     -6.133  0.0000E+00  0.8000E+01
     -5.486  0.0000E+00  0.8000E+01
     -4.839  0.0000E+00  0.8000E+01
     -4.192  0.0000E+00  0.8000E+01
     -3.545  0.0000E+00  0.8000E+01
     -2.898  0.0000E+00  0.8000E+01
     -2.251  0.0000E+00  0.8000E+01
     -1.604  0.0000E+00  0.8000E+01
     -0.957  0.0000E+00  0.8000E+01
     -0.310  0.0000E+00  0.8000E+01
      0.336  0.0000E+00  0.8000E+01
      0.983  0.0000E+00  0.8000E+01
      1.630  0.0000E+00  0.8000E+01
      2.277  0.0000E+00  0.8000E+01
      2.924  0.0000E+00  0.8000E+01
      3.571  0.0000E+00  0.8000E+01
      4.218  0.0000E+00  0.8009E+01
      4.865  0.0000E+00  0.8009E+01
      5.512  0.0000E+00  0.8139E+01
      6.159  0.0000E+00  0.8139E+01
      6.806  0.0000E+00  0.8250E+01
      7.453  0.0000E+00  0.8472E+01
      8.100  0.0000E+00  0.8546E+01
      8.747  0.0000E+00  0.8602E+01
      9.394  0.0000E+00  0.9046E+01
     10.041  0.0000E+00  0.9046E+01
     10.688  0.0000E+00  0.9269E+01
     11.335  0.0000E+00  0.9565E+01
     11.982  0.0000E+00  0.9926E+01
     12.629  0.0000E+00  0.1004E+02
     13.276  0.0000E+00  0.1048E+02
     13.923  0.0000E+00  0.1062E+02
     14.570  0.0000E+00  0.1095E+02
     15.217  0.0000E+00  0.1136E+02
     15.864  0.0000E+00  0.1147E+02
     16.511  0.0000E+00  0.1236E+02
     17.158  0.0000E+00  0.1267E+02
     17.805  0.0000E+00  0.1272E+02
     18.451  0.0000E+00  0.1283E+02
     19.098  0.0000E+00  0.1331E+02
     19.745  0.0000E+00  0.1347E+02
     20.392  0.0000E+00  0.1410E+02
     21.039  0.0000E+00  0.1444E+02
     21.686  0.0000E+00  0.1477E+02
     22.333  0.5943E-08  0.1533E+02
     22.980  0.0000E+00  0.1637E+02
     23.627  0.0000E+00  0.1708E+02
     24.274  0.0000E+00  0.1749E+02
     24.921  0.2041E+00  0.1783E+02
     25.568  0.0000E+00  0.1814E+02
     26.215  0.0000E+00  0.1888E+02
     26.862  0.0000E+00  0.1901E+02
     27.509  0.0000E+00  0.1981E+02
     28.156  0.0000E+00  0.2026E+02
     28.803  0.0000E+00  0.2067E+02
     29.450  0.0000E+00  0.2140E+02
     30.097  0.0000E+00  0.2168E+02
     30.744  0.0000E+00  0.2208E+02
     31.391  0.0000E+00  0.2234E+02
     32.038  0.1291E+00  0.2287E+02
     32.685  0.5713E-03  0.2345E+02
     33.332  0.0000E+00  0.2445E+02
     33.979  0.0000E+00  0.2534E+02
     34.626  0.0000E+00  0.2612E+02
     35.273  0.3434E+00  0.2675E+02
     35.919  0.7150E-17  0.2731E+02
     36.566  0.0000E+00  0.2761E+02
     37.213  0.1145E+00  0.2780E+02
     37.860  0.0000E+00  0.2873E+02
     38.507  0.0000E+00  0.2912E+02
     39.154  0.0000E+00  0.2934E+02
     39.801  0.0000E+00  0.2985E+02
     40.448  0.0000E+00  0.3019E+02
     41.095  0.0000E+00  0.3019E+02
     41.742  0.0000E+00  0.3087E+02
     42.389  0.0000E+00  0.3127E+02
     43.036  0.0000E+00  0.3267E+02
     43.683  0.3435E+00  0.3333E+02
     44.330  0.0000E+00  0.3396E+02
     44.977  0.0000E+00  0.3430E+02
     45.624  0.0000E+00  0.3463E+02
     46.271  0.0000E+00  0.3463E+02
     46.918  0.1430E-16  0.3572E+02
     47.565  0.0000E+00  0.3628E+02
     48.212  0.0000E+00  0.3679E+02
     48.859  0.0000E+00  0.3731E+02
     49.506  0.0000E+00  0.3820E+02
     50.153  0.0000E+00  0.3854E+02
     50.800  0.0000E+00  0.3920E+02
     51.447  0.0000E+00  0.3976E+02
     52.094  0.0000E+00  0.4067E+02
     52.741  0.0000E+00  0.4096E+02
     53.387  0.0000E+00  0.4147E+02
     54.034  0.0000E+00  0.4251E+02
     54.681  0.0000E+00  0.4329E+02
     55.328  0.0000E+00  0.4362E+02
     55.975  0.0000E+00  0.4440E+02
     56.622  0.3914E-14  0.4462E+02
     57.269  0.0000E+00  0.4551E+02
     57.916  0.0000E+00  0.4584E+02
     58.563  0.0000E+00  0.4614E+02
     59.210  0.0000E+00  0.4692E+02
     59.857  0.0000E+00  0.4757E+02
     60.504  0.0000E+00  0.4852E+02
     61.151  0.0000E+00  0.4903E+02
     61.798  0.0000E+00  0.4958E+02
     62.445  0.0000E+00  0.5097E+02
     63.092  0.2862E-01  0.5162E+02
     63.739  0.0000E+00  0.5229E+02
     64.386  0.0000E+00  0.5262E+02
     65.033  0.0000E+00  0.5344E+02
     65.680  0.1397E-05  0.5399E+02
     66.327  0.0000E+00  0.5498E+02
     66.974  0.0000E+00  0.5561E+02
     67.621  0.0000E+00  0.5613E+02
     68.268  0.0000E+00  0.5704E+02
     68.915  0.1504E-01  0.5777E+02
     69.562  0.3435E+00  0.5891E+02
     70.209  0.0000E+00  0.5969E+02
     70.855  0.0000E+00  0.6001E+02
     71.502  0.0000E+00  0.6045E+02
     72.149  0.0000E+00  0.6193E+02
     72.796  0.0000E+00  0.6224E+02
     73.443  0.0000E+00  0.6274E+02
     74.090  0.0000E+00  0.6344E+02
     74.737  0.0000E+00  0.6422E+02
     75.384  0.0000E+00  0.6522E+02
     76.031  0.0000E+00  0.6548E+02
     76.678  0.1713E+00  0.6675E+02
     77.325  0.0000E+00  0.6747E+02
     77.972  0.0000E+00  0.6818E+02
     78.619  0.0000E+00  0.6864E+02
     79.266  0.0000E+00  0.6864E+02
     79.913  0.3915E-01  0.6936E+02
     80.560  0.0000E+00  0.7059E+02
     81.207  0.0000E+00  0.7135E+02
     81.854  0.0000E+00  0.7180E+02
     82.501  0.0000E+00  0.7231E+02
     83.148  0.0000E+00  0.7263E+02
     83.795  0.0000E+00  0.7391E+02
     84.442  0.0000E+00  0.7456E+02
     85.089  0.0000E+00  0.7600E+02
     85.736  0.0000E+00  0.7660E+02
     86.383  0.0000E+00  0.7712E+02
     87.030  0.0000E+00  0.7858E+02
     87.677  0.0000E+00  0.7942E+02
     88.324  0.3100E-01  0.8014E+02
     88.970  0.0000E+00  0.8128E+02
     89.617  0.8532E-01  0.8179E+02
     90.264  0.0000E+00  0.8248E+02
     90.911  0.0000E+00  0.8322E+02
     91.558  0.0000E+00  0.8347E+02
     92.205  0.0000E+00  0.8394E+02
     92.852  0.0000E+00  0.8452E+02
     93.499  0.0000E+00  0.8574E+02
     94.146  0.0000E+00  0.8676E+02
     94.793  0.0000E+00  0.8769E+02
     95.440  0.0000E+00  0.8844E+02
     96.087  0.0000E+00  0.8941E+02
     96.734  0.0000E+00  0.8991E+02
     97.381  0.0000E+00  0.9094E+02
     98.028  0.0000E+00  0.9158E+02
     98.675  0.0000E+00  0.9227E+02
     99.322  0.0000E+00  0.9309E+02
     99.969  0.0000E+00  0.9458E+02
    100.616  0.0000E+00  0.9536E+02
    101.263  0.3435E+00  0.9614E+02
    101.910  0.0000E+00  0.9758E+02
    102.557  0.0000E+00  0.9797E+02
    103.204  0.0000E+00  0.9908E+02
    103.851  0.0000E+00  0.9947E+02
    104.498  0.1717E+00  0.1005E+03
    105.145  0.0000E+00  0.1018E+03
    105.792  0.0000E+00  0.1025E+03
    106.438  0.4173E-01  0.1030E+03
    107.085  0.0000E+00  0.1040E+03
    107.732  0.0000E+00  0.1045E+03
    108.379  0.2294E+00  0.1051E+03
    109.026  0.0000E+00  0.1056E+03
    109.673  0.0000E+00  0.1065E+03
    110.320  0.0000E+00  0.1073E+03
    110.967  0.0000E+00  0.1088E+03
    111.614  0.0000E+00  0.1094E+03
    112.261  0.0000E+00  0.1107E+03
    112.908  0.0000E+00  0.1117E+03
    113.555  0.0000E+00  0.1130E+03
    114.202  0.0000E+00  0.1142E+03
    114.849  0.0000E+00  0.1148E+03
    115.496  0.3435E+00  0.1159E+03
    116.143  0.0000E+00  0.1168E+03
    116.790  0.0000E+00  0.1178E+03
    117.437  0.0000E+00  0.1182E+03
    118.084  0.0000E+00  0.1192E+03
    118.731  0.0000E+00  0.1200E+03
    119.378  0.0000E+00  0.1205E+03
    120.025  0.3146E-10  0.1211E+03
    120.672  0.0000E+00  0.1217E+03
    121.319  0.6607E-02  0.1224E+03
    121.966  0.0000E+00  0.1235E+03
    122.613  0.0000E+00  0.1245E+03
    123.260  0.0000E+00  0.1257E+03
    123.906  0.0000E+00  0.1265E+03
    124.553  0.0000E+00  0.1273E+03
    125.200  0.0000E+00  0.1277E+03
    125.847  0.0000E+00  0.1278E+03
    126.494  0.0000E+00  0.1279E+03
    127.141  0.0000E+00  0.1279E+03
    127.788  0.0000E+00  0.1279E+03
    128.435  0.2862E-01  0.1279E+03
    129.082  0.0000E+00  0.1280E+03
    129.729  0.0000E+00  0.1280E+03
    130.376  0.0000E+00  0.1280E+03
    131.023  0.0000E+00  0.1280E+03
    131.670  0.0000E+00  0.1280E+03
    132.317  0.0000E+00  0.1280E+03
    132.964  0.0000E+00  0.1280E+03
    133.611  0.0000E+00  0.1280E+03
    134.258  0.0000E+00  0.1280E+03
    134.905  0.0000E+00  0.1280E+03
    135.552  0.0000E+00  0.1280E+03
    136.199  0.0000E+00  0.1280E+03
    136.846  0.0000E+00  0.1280E+03
    137.493  0.0000E+00  0.1280E+03
