   1   1   0   0
  0.6008441E+02  0.4396350E-09  0.4396350E-09  0.4396350E-09  0.1000000E-15
  1.000000000000000E-004
  CAR 
 Og_FCC                                  
     56.56315414    -34.91807398  301      3.55692767      1.00000000
    -34.918  0.0000E+00  0.0000E+00
    -34.613  0.0000E+00  0.0000E+00
    -34.308  0.0000E+00  0.0000E+00
    -34.003  0.0000E+00  0.0000E+00
    -33.698  0.0000E+00  0.0000E+00
    -33.393  0.0000E+00  0.0000E+00
    -33.088  0.0000E+00  0.0000E+00
    -32.784  0.0000E+00  0.0000E+00
    -32.479  0.0000E+00  0.0000E+00
    -32.174  0.0000E+00  0.0000E+00
    -31.869  0.0000E+00  0.0000E+00
    -31.564  0.0000E+00  0.0000E+00
    -31.259  0.0000E+00  0.0000E+00
    -30.954  0.0000E+00  0.0000E+00
    -30.649  0.0000E+00  0.4000E+01
    -30.344  0.0000E+00  0.4000E+01
    -30.039  0.0000E+00  0.4000E+01
    -29.734  0.0000E+00  0.4000E+01
    -29.429  0.0000E+00  0.4000E+01
    -29.124  0.0000E+00  0.4000E+01
    -28.819  0.0000E+00  0.4000E+01
    -28.514  0.0000E+00  0.4000E+01
    -28.209  0.0000E+00  0.4000E+01
    -27.905  0.0000E+00  0.4000E+01
    -27.600  0.0000E+00  0.4000E+01
    -27.295  0.0000E+00  0.4000E+01
    -26.990  0.0000E+00  0.4000E+01
    -26.685  0.0000E+00  0.4000E+01
    -26.380  0.0000E+00  0.4000E+01
    -26.075  0.0000E+00  0.4000E+01
    -25.770  0.0000E+00  0.4000E+01
    -25.465  0.0000E+00  0.4000E+01
    -25.160  0.0000E+00  0.4000E+01
    -24.855  0.0000E+00  0.4000E+01
    -24.550  0.0000E+00  0.4000E+01
    -24.245  0.0000E+00  0.4000E+01
    -23.940  0.0000E+00  0.1000E+02
    -23.635  0.0000E+00  0.1000E+02
    -23.330  0.0000E+00  0.1000E+02
    -23.026  0.0000E+00  0.1000E+02
    -22.721  0.0000E+00  0.1000E+02
    -22.416  0.0000E+00  0.1000E+02
    -22.111  0.0000E+00  0.1000E+02
    -21.806  0.0000E+00  0.1000E+02
    -21.501  0.0000E+00  0.1000E+02
    -21.196  0.0000E+00  0.1000E+02
    -20.891  0.0000E+00  0.1000E+02
    -20.586  0.0000E+00  0.1000E+02
    -20.281  0.0000E+00  0.1200E+02
    -19.976  0.0000E+00  0.1200E+02
    -19.671  0.0000E+00  0.1200E+02
    -19.366  0.0000E+00  0.1200E+02
    -19.061  0.0000E+00  0.1200E+02
    -18.756  0.0000E+00  0.1200E+02
    -18.451  0.0000E+00  0.1200E+02
    -18.147  0.0000E+00  0.1200E+02
    -17.842  0.0000E+00  0.1200E+02
    -17.537  0.0000E+00  0.1200E+02
    -17.232  0.0000E+00  0.1200E+02
    -16.927  0.0000E+00  0.1200E+02
    -16.622  0.0000E+00  0.1200E+02
    -16.317  0.0000E+00  0.1200E+02
    -16.012  0.0000E+00  0.1200E+02
    -15.707  0.0000E+00  0.1200E+02
    -15.402  0.0000E+00  0.1200E+02
    -15.097  0.0000E+00  0.1200E+02
    -14.792  0.0000E+00  0.1200E+02
    -14.487  0.0000E+00  0.1200E+02
    -14.182  0.0000E+00  0.1200E+02
    -13.877  0.0000E+00  0.1200E+02
    -13.572  0.0000E+00  0.1200E+02
    -13.268  0.0000E+00  0.1200E+02
    -12.963  0.0000E+00  0.1200E+02
    -12.658  0.0000E+00  0.1200E+02
    -12.353  0.0000E+00  0.1200E+02
    -12.048  0.0000E+00  0.1200E+02
    -11.743  0.0000E+00  0.1200E+02
    -11.438  0.0000E+00  0.1200E+02
    -11.133  0.0000E+00  0.1200E+02
    -10.828  0.0000E+00  0.1200E+02
    -10.523  0.0000E+00  0.1200E+02
    -10.218  0.0000E+00  0.1200E+02
     -9.913  0.0000E+00  0.1200E+02
     -9.608  0.0000E+00  0.1200E+02
     -9.303  0.0000E+00  0.1200E+02
     -8.998  0.0000E+00  0.1200E+02
     -8.693  0.0000E+00  0.1200E+02
     -8.389  0.0000E+00  0.1200E+02
     -8.084  0.0000E+00  0.1200E+02
     -7.779  0.0000E+00  0.1200E+02
     -7.474  0.1360E-09  0.1345E+02
     -7.169  0.0000E+00  0.1400E+02
     -6.864  0.0000E+00  0.1400E+02
     -6.559  0.0000E+00  0.1400E+02
     -6.254  0.0000E+00  0.1400E+02
     -5.949  0.0000E+00  0.1400E+02
     -5.644  0.0000E+00  0.1400E+02
     -5.339  0.0000E+00  0.1400E+02
     -5.034  0.0000E+00  0.1400E+02
     -4.729  0.0000E+00  0.1400E+02
     -4.424  0.0000E+00  0.1400E+02
     -4.119  0.0000E+00  0.1400E+02
     -3.814  0.0000E+00  0.1400E+02
     -3.510  0.0000E+00  0.1400E+02
     -3.205  0.0000E+00  0.1400E+02
     -2.900  0.0000E+00  0.1400E+02
     -2.595  0.0000E+00  0.1400E+02
     -2.290  0.0000E+00  0.1400E+02
     -1.985  0.0000E+00  0.1400E+02
     -1.680  0.0000E+00  0.1400E+02
     -1.375  0.0000E+00  0.1400E+02
     -1.070  0.0000E+00  0.1400E+02
     -0.765  0.0000E+00  0.1400E+02
     -0.460  0.0000E+00  0.1400E+02
     -0.155  0.0000E+00  0.1400E+02
      0.150  0.0000E+00  0.1400E+02
      0.455  0.0000E+00  0.1400E+02
      0.760  0.0000E+00  0.1540E+02
      1.065  0.0000E+00  0.1575E+02
      1.369  0.0000E+00  0.1586E+02
      1.674  0.0000E+00  0.1597E+02
      1.979  0.0000E+00  0.1666E+02
      2.284  0.0000E+00  0.1691E+02
      2.589  0.0000E+00  0.1741E+02
      2.894  0.0000E+00  0.1763E+02
      3.199  0.0000E+00  0.1791E+02
      3.504  0.0000E+00  0.1799E+02
      3.809  0.0000E+00  0.1801E+02
      4.114  0.0000E+00  0.1801E+02
      4.419  0.0000E+00  0.1801E+02
      4.724  0.0000E+00  0.1801E+02
      5.029  0.0000E+00  0.1801E+02
      5.334  0.0000E+00  0.1808E+02
      5.639  0.0000E+00  0.1808E+02
      5.944  0.0000E+00  0.1825E+02
      6.248  0.0000E+00  0.1828E+02
      6.553  0.1822E+00  0.1844E+02
      6.858  0.0000E+00  0.1911E+02
      7.163  0.0000E+00  0.1944E+02
      7.468  0.7287E+00  0.2000E+02
      7.773  0.0000E+00  0.2003E+02
      8.078  0.7287E+00  0.2031E+02
      8.383  0.0000E+00  0.2031E+02
      8.688  0.0000E+00  0.2119E+02
      8.993  0.0000E+00  0.2169E+02
      9.298  0.0000E+00  0.2203E+02
      9.603  0.0000E+00  0.2238E+02
      9.908  0.0000E+00  0.2249E+02
     10.213  0.0000E+00  0.2342E+02
     10.518  0.6073E-01  0.2385E+02
     10.823  0.0000E+00  0.2400E+02
     11.127  0.0000E+00  0.2489E+02
     11.432  0.0000E+00  0.2567E+02
     11.737  0.0000E+00  0.2598E+02
     12.042  0.0000E+00  0.2606E+02
     12.347  0.0000E+00  0.2659E+02
     12.652  0.7286E+00  0.2748E+02
     12.957  0.0000E+00  0.2756E+02
     13.262  0.0000E+00  0.2882E+02
     13.567  0.0000E+00  0.2929E+02
     13.872  0.5810E-01  0.2969E+02
     14.177  0.0000E+00  0.3047E+02
     14.482  0.0000E+00  0.3077E+02
     14.787  0.0000E+00  0.3113E+02
     15.092  0.0000E+00  0.3157E+02
     15.397  0.7347E-01  0.3190E+02
     15.702  0.3795E-04  0.3262E+02
     16.006  0.0000E+00  0.3307E+02
     16.311  0.0000E+00  0.3387E+02
     16.616  0.0000E+00  0.3457E+02
     16.921  0.0000E+00  0.3492E+02
     17.226  0.0000E+00  0.3599E+02
     17.531  0.0000E+00  0.3676E+02
     17.836  0.1838E-02  0.3824E+02
     18.141  0.4211E-01  0.3974E+02
     18.446  0.6073E+00  0.4151E+02
     18.751  0.0000E+00  0.4197E+02
     19.056  0.0000E+00  0.4319E+02
     19.361  0.0000E+00  0.4364E+02
     19.666  0.0000E+00  0.4445E+02
     19.971  0.0000E+00  0.4537E+02
     20.276  0.0000E+00  0.4600E+02
     20.581  0.0000E+00  0.4633E+02
     20.885  0.0000E+00  0.4646E+02
     21.190  0.0000E+00  0.4665E+02
     21.495  0.0000E+00  0.4718E+02
     21.800  0.0000E+00  0.4773E+02
     22.105  0.0000E+00  0.4795E+02
     22.410  0.0000E+00  0.4835E+02
     22.715  0.0000E+00  0.4908E+02
     23.020  0.0000E+00  0.4978E+02
     23.325  0.0000E+00  0.5050E+02
     23.630  0.0000E+00  0.5106E+02
     23.935  0.0000E+00  0.5214E+02
     24.240  0.0000E+00  0.5325E+02
     24.545  0.7287E+00  0.5432E+02
     24.850  0.7287E+00  0.5558E+02
     25.155  0.3360E+00  0.5632E+02
     25.460  0.0000E+00  0.5673E+02
     25.764  0.0000E+00  0.5749E+02
     26.069  0.0000E+00  0.5767E+02
     26.374  0.0000E+00  0.5804E+02
     26.679  0.0000E+00  0.5919E+02
     26.984  0.0000E+00  0.5977E+02
     27.289  0.0000E+00  0.6035E+02
     27.594  0.0000E+00  0.6091E+02
     27.899  0.2429E+00  0.6169E+02
     28.204  0.0000E+00  0.6224E+02
     28.509  0.0000E+00  0.6224E+02
     28.814  0.1037E-11  0.6321E+02
     29.119  0.1803E+00  0.6426E+02
     29.424  0.0000E+00  0.6473E+02
     29.729  0.0000E+00  0.6510E+02
     30.034  0.4978E-02  0.6589E+02
     30.339  0.0000E+00  0.6638E+02
     30.643  0.3294E-04  0.6712E+02
     30.948  0.3644E+00  0.6854E+02
     31.253  0.1453E-05  0.6959E+02
     31.558  0.0000E+00  0.7019E+02
     31.863  0.0000E+00  0.7150E+02
     32.168  0.0000E+00  0.7227E+02
     32.473  0.0000E+00  0.7286E+02
     32.778  0.0000E+00  0.7347E+02
     33.083  0.0000E+00  0.7405E+02
     33.388  0.0000E+00  0.7444E+02
     33.693  0.0000E+00  0.7567E+02
     33.998  0.2429E+00  0.7602E+02
     34.303  0.0000E+00  0.7735E+02
     34.608  0.2429E+00  0.7839E+02
     34.913  0.0000E+00  0.7922E+02
     35.218  0.6384E-07  0.7996E+02
     35.522  0.0000E+00  0.8076E+02
     35.827  0.0000E+00  0.8169E+02
     36.132  0.0000E+00  0.8330E+02
     36.437  0.0000E+00  0.8330E+02
     36.742  0.0000E+00  0.8421E+02
     37.047  0.0000E+00  0.8482E+02
     37.352  0.0000E+00  0.8562E+02
     37.657  0.0000E+00  0.8605E+02
     37.962  0.0000E+00  0.8635E+02
     38.267  0.0000E+00  0.8726E+02
     38.572  0.0000E+00  0.8872E+02
     38.877  0.7287E+00  0.8949E+02
     39.182  0.1284E-11  0.8965E+02
     39.487  0.0000E+00  0.9065E+02
     39.792  0.0000E+00  0.9111E+02
     40.097  0.1215E+00  0.9226E+02
     40.401  0.0000E+00  0.9334E+02
     40.706  0.2121E-03  0.9425E+02
     41.011  0.3643E+00  0.9534E+02
     41.316  0.0000E+00  0.9581E+02
     41.621  0.0000E+00  0.9672E+02
     41.926  0.0000E+00  0.9774E+02
     42.231  0.0000E+00  0.9834E+02
     42.536  0.0000E+00  0.9906E+02
     42.841  0.0000E+00  0.9999E+02
     43.146  0.0000E+00  0.1006E+03
     43.451  0.2429E+00  0.1013E+03
     43.756  0.0000E+00  0.1024E+03
     44.061  0.1907E-02  0.1031E+03
     44.366  0.0000E+00  0.1040E+03
     44.671  0.5466E+00  0.1056E+03
     44.976  0.0000E+00  0.1059E+03
     45.280  0.3521E+00  0.1071E+03
     45.585  0.9086E-01  0.1079E+03
     45.890  0.0000E+00  0.1089E+03
     46.195  0.0000E+00  0.1099E+03
     46.500  0.7464E-04  0.1106E+03
     46.805  0.3504E+00  0.1116E+03
     47.110  0.7287E+00  0.1126E+03
     47.415  0.1269E-01  0.1133E+03
     47.720  0.6004E+00  0.1142E+03
     48.025  0.0000E+00  0.1148E+03
     48.330  0.0000E+00  0.1158E+03
     48.635  0.5495E-02  0.1167E+03
     48.940  0.0000E+00  0.1178E+03
     49.245  0.0000E+00  0.1186E+03
     49.550  0.0000E+00  0.1193E+03
     49.855  0.1215E+00  0.1206E+03
     50.159  0.4101E+00  0.1216E+03
     50.464  0.0000E+00  0.1226E+03
     50.769  0.9727E-09  0.1237E+03
     51.074  0.7287E+00  0.1250E+03
     51.379  0.7750E-11  0.1258E+03
     51.684  0.0000E+00  0.1262E+03
     51.989  0.4255E-04  0.1270E+03
     52.294  0.0000E+00  0.1273E+03
     52.599  0.0000E+00  0.1280E+03
     52.904  0.0000E+00  0.1280E+03
     53.209  0.0000E+00  0.1280E+03
     53.514  0.0000E+00  0.1280E+03
     53.819  0.0000E+00  0.1280E+03
     54.124  0.0000E+00  0.1280E+03
     54.429  0.0000E+00  0.1280E+03
     54.734  0.0000E+00  0.1280E+03
     55.038  0.0000E+00  0.1280E+03
     55.343  0.0000E+00  0.1280E+03
     55.648  0.0000E+00  0.1280E+03
     55.953  0.0000E+00  0.1280E+03
     56.258  0.0000E+00  0.1280E+03
     56.563  0.0000E+00  0.1280E+03
