<?xml version="1.0" encoding="ISO-8859-1"?>
<modeling>
 <generator>
  <i name="program" type="string">vasp </i>
  <i name="version" type="string">5.4.4.18Apr17-6-g9f103f2a35  </i>
  <i name="subversion" type="string">(build Nov 03 2018 10:20:46) complex            parallel </i>
  <i name="platform" type="string">LinuxIFC </i>
  <i name="date" type="string">2018 12 06 </i>
  <i name="time" type="string">14:35:30 </i>
 </generator>
 <incar>
  <i type="string" name="SYSTEM">   Og_FCC</i>
  <i type="string" name="PREC">accurate</i>
  <i type="string" name="ALGO">   EXACT</i>
  <i type="logical" name="ADDGRID"> T  </i>
  <i type="logical" name="LSORBIT"> T  </i>
  <i type="int" name="ISPIN">     1</i>
  <i type="int" name="MAXMIX">    50</i>
  <i type="int" name="NELM">    50</i>
  <i type="int" name="NELMDL">    -5</i>
  <i type="int" name="NELMIN">     2</i>
  <i type="int" name="IBRION">    -1</i>
  <i type="int" name="NFREE">     5</i>
  <i name="EDIFF">      0.00000001</i>
  <i name="EDIFFG">      0.00001000</i>
  <i type="int" name="NSW">     1</i>
  <i type="int" name="ISIF">     3</i>
  <i type="int" name="ISYM">     0</i>
  <i name="SYMPREC">      0.00000010</i>
  <i name="ENCUT">    300.00000000</i>
  <i type="int" name="NBANDS">   128</i>
  <i name="POTIM">      0.10000000</i>
  <i type="logical" name="LREAL"> F  </i>
  <i type="int" name="ISMEAR">     0</i>
  <i name="SIGMA">      0.00100000</i>
  <i type="int" name="NWRITE">     2</i>
  <i type="logical" name="LWAVE"> T  </i>
  <i type="logical" name="LCHARG"> F  </i>
  <i type="logical" name="LVTOT"> F  </i>
  <i type="logical" name="LOPTICS"> T  </i>
  <i type="logical" name="GGA_COMPAT"> F  </i>
  <v type="int" name="KPOINT_BSE">    -1     0     0     0</v>
  <i type="int" name="NELM">    50</i>
  <i type="string" name="GGA"> PE</i>
 </incar>
 <structure name="primitive_cell" >
  <crystal>
   <varray name="basis" >
    <v>       4.39635018       0.00000000       0.00000000 </v>
    <v>       2.19817509       3.80735094      -0.00000000 </v>
    <v>       2.19817509       1.26911698       3.58960489 </v>
   </varray>
   <i name="volume">     60.08441465 </i>
   <varray name="rec_basis" >
    <v>       0.22746141      -0.13132490      -0.09286073 </v>
    <v>       0.00000000       0.26264981      -0.09286073 </v>
    <v>      -0.00000000       0.00000000       0.27858219 </v>
   </varray>
  </crystal>
  <varray name="positions" >
   <v>       0.00000000       0.00000000       0.00000000 </v>
  </varray>
 </structure>
 <varray name="primitive_index" >
  <v type="int" >        1 </v>
 </varray>
 <kpoints>
  <generation param="Gamma">
   <v type="int" name="divisions">       6        6        6 </v>
   <v name="usershift">      0.00000000       0.00000000       0.00000000 </v>
   <v name="genvec1">      0.16666667       0.00000000       0.00000000 </v>
   <v name="genvec2">      0.00000000       0.16666667       0.00000000 </v>
   <v name="genvec3">      0.00000000      -0.00000000       0.16666667 </v>
   <v name="shift">      0.00000000       0.00000000       0.00000000 </v>
  </generation>
  <varray name="kpointlist" >
   <v>       0.00000000       0.00000000       0.00000000 </v>
   <v>       0.16666667      -0.00000000      -0.00000000 </v>
   <v>       0.33333333      -0.00000000       0.00000000 </v>
   <v>       0.50000000      -0.00000000       0.00000000 </v>
   <v>      -0.33333333       0.00000000      -0.00000000 </v>
   <v>      -0.16666667       0.00000000       0.00000000 </v>
   <v>      -0.00000000       0.16666667       0.00000000 </v>
   <v>       0.16666667       0.16666667       0.00000000 </v>
   <v>       0.33333333       0.16666667       0.00000000 </v>
   <v>       0.50000000       0.16666667       0.00000000 </v>
   <v>      -0.33333333       0.16666667      -0.00000000 </v>
   <v>      -0.16666667       0.16666667      -0.00000000 </v>
   <v>      -0.00000000       0.33333333      -0.00000000 </v>
   <v>       0.16666667       0.33333333      -0.00000000 </v>
   <v>       0.33333333       0.33333333       0.00000000 </v>
   <v>       0.50000000       0.33333333      -0.00000000 </v>
   <v>      -0.33333333       0.33333333      -0.00000000 </v>
   <v>      -0.16666667       0.33333333      -0.00000000 </v>
   <v>       0.00000000       0.50000000      -0.00000000 </v>
   <v>       0.16666667       0.50000000      -0.00000000 </v>
   <v>       0.33333333       0.50000000       0.00000000 </v>
   <v>       0.50000000       0.50000000       0.00000000 </v>
   <v>      -0.33333333       0.50000000      -0.00000000 </v>
   <v>      -0.16666667       0.50000000      -0.00000000 </v>
   <v>       0.00000000      -0.33333333       0.00000000 </v>
   <v>       0.16666667      -0.33333333       0.00000000 </v>
   <v>       0.33333333      -0.33333333       0.00000000 </v>
   <v>       0.50000000      -0.33333333       0.00000000 </v>
   <v>      -0.33333333      -0.33333333      -0.00000000 </v>
   <v>      -0.16666667      -0.33333333       0.00000000 </v>
   <v>       0.00000000      -0.16666667       0.00000000 </v>
   <v>       0.16666667      -0.16666667       0.00000000 </v>
   <v>       0.33333333      -0.16666667       0.00000000 </v>
   <v>       0.50000000      -0.16666667       0.00000000 </v>
   <v>      -0.33333333      -0.16666667       0.00000000 </v>
   <v>      -0.16666667      -0.16666667       0.00000000 </v>
   <v>       0.00000000       0.00000000       0.16666667 </v>
   <v>       0.16666667      -0.00000000       0.16666667 </v>
   <v>       0.33333333      -0.00000000       0.16666667 </v>
   <v>       0.50000000      -0.00000000       0.16666667 </v>
   <v>      -0.33333333       0.00000000       0.16666667 </v>
   <v>      -0.16666667       0.00000000       0.16666667 </v>
   <v>      -0.00000000       0.16666667       0.16666667 </v>
   <v>       0.16666667       0.16666667       0.16666667 </v>
   <v>       0.33333333       0.16666667       0.16666667 </v>
   <v>       0.50000000       0.16666667       0.16666667 </v>
   <v>      -0.33333333       0.16666667       0.16666667 </v>
   <v>      -0.16666667       0.16666667       0.16666667 </v>
   <v>       0.00000000       0.33333333       0.16666667 </v>
   <v>       0.16666667       0.33333333       0.16666667 </v>
   <v>       0.33333333       0.33333333       0.16666667 </v>
   <v>       0.50000000       0.33333333       0.16666667 </v>
   <v>      -0.33333333       0.33333333       0.16666667 </v>
   <v>      -0.16666667       0.33333333       0.16666667 </v>
   <v>       0.00000000       0.50000000       0.16666667 </v>
   <v>       0.16666667       0.50000000       0.16666667 </v>
   <v>       0.33333333       0.50000000       0.16666667 </v>
   <v>       0.50000000       0.50000000       0.16666667 </v>
   <v>      -0.33333333       0.50000000       0.16666667 </v>
   <v>      -0.16666667       0.50000000       0.16666667 </v>
   <v>       0.00000000      -0.33333333       0.16666667 </v>
   <v>       0.16666667      -0.33333333       0.16666667 </v>
   <v>       0.33333333      -0.33333333       0.16666667 </v>
   <v>       0.50000000      -0.33333333       0.16666667 </v>
   <v>      -0.33333333      -0.33333333       0.16666667 </v>
   <v>      -0.16666667      -0.33333333       0.16666667 </v>
   <v>       0.00000000      -0.16666667       0.16666667 </v>
   <v>       0.16666667      -0.16666667       0.16666667 </v>
   <v>       0.33333333      -0.16666667       0.16666667 </v>
   <v>       0.50000000      -0.16666667       0.16666667 </v>
   <v>      -0.33333333      -0.16666667       0.16666667 </v>
   <v>      -0.16666667      -0.16666667       0.16666667 </v>
   <v>       0.00000000       0.00000000       0.33333333 </v>
   <v>       0.16666667      -0.00000000       0.33333333 </v>
   <v>       0.33333333      -0.00000000       0.33333333 </v>
   <v>       0.50000000      -0.00000000       0.33333333 </v>
   <v>      -0.33333333       0.00000000       0.33333333 </v>
   <v>      -0.16666667       0.00000000       0.33333333 </v>
   <v>      -0.00000000       0.16666667       0.33333333 </v>
   <v>       0.16666667       0.16666667       0.33333333 </v>
   <v>       0.33333333       0.16666667       0.33333333 </v>
   <v>       0.50000000       0.16666667       0.33333333 </v>
   <v>      -0.33333333       0.16666667       0.33333333 </v>
   <v>      -0.16666667       0.16666667       0.33333333 </v>
   <v>       0.00000000       0.33333333       0.33333333 </v>
   <v>       0.16666667       0.33333333       0.33333333 </v>
   <v>       0.33333333       0.33333333       0.33333333 </v>
   <v>       0.50000000       0.33333333       0.33333333 </v>
   <v>      -0.33333333       0.33333333       0.33333333 </v>
   <v>      -0.16666667       0.33333333       0.33333333 </v>
   <v>       0.00000000       0.50000000       0.33333333 </v>
   <v>       0.16666667       0.50000000       0.33333333 </v>
   <v>       0.33333333       0.50000000       0.33333333 </v>
   <v>       0.50000000       0.50000000       0.33333333 </v>
   <v>      -0.33333333       0.50000000       0.33333333 </v>
   <v>      -0.16666667       0.50000000       0.33333333 </v>
   <v>      -0.00000000      -0.33333333       0.33333333 </v>
   <v>       0.16666667      -0.33333333       0.33333333 </v>
   <v>       0.33333333      -0.33333333       0.33333333 </v>
   <v>       0.50000000      -0.33333333       0.33333333 </v>
   <v>      -0.33333333      -0.33333333       0.33333333 </v>
   <v>      -0.16666667      -0.33333333       0.33333333 </v>
   <v>       0.00000000      -0.16666667       0.33333333 </v>
   <v>       0.16666667      -0.16666667       0.33333333 </v>
   <v>       0.33333333      -0.16666667       0.33333333 </v>
   <v>       0.50000000      -0.16666667       0.33333333 </v>
   <v>      -0.33333333      -0.16666667       0.33333333 </v>
   <v>      -0.16666667      -0.16666667       0.33333333 </v>
   <v>       0.00000000       0.00000000       0.50000000 </v>
   <v>       0.16666667       0.00000000       0.50000000 </v>
   <v>       0.33333333      -0.00000000       0.50000000 </v>
   <v>       0.50000000      -0.00000000       0.50000000 </v>
   <v>      -0.33333333       0.00000000       0.50000000 </v>
   <v>      -0.16666667       0.00000000       0.50000000 </v>
   <v>      -0.00000000       0.16666667       0.50000000 </v>
   <v>       0.16666667       0.16666667       0.50000000 </v>
   <v>       0.33333333       0.16666667       0.50000000 </v>
   <v>       0.50000000       0.16666667       0.50000000 </v>
   <v>      -0.33333333       0.16666667       0.50000000 </v>
   <v>      -0.16666667       0.16666667       0.50000000 </v>
   <v>       0.00000000       0.33333333       0.50000000 </v>
   <v>       0.16666667       0.33333333       0.50000000 </v>
   <v>       0.33333333       0.33333333       0.50000000 </v>
   <v>       0.50000000       0.33333333       0.50000000 </v>
   <v>      -0.33333333       0.33333333       0.50000000 </v>
   <v>      -0.16666667       0.33333333       0.50000000 </v>
   <v>       0.00000000       0.50000000       0.50000000 </v>
   <v>       0.16666667       0.50000000       0.50000000 </v>
   <v>       0.33333333       0.50000000       0.50000000 </v>
   <v>       0.50000000       0.50000000       0.50000000 </v>
   <v>      -0.33333333       0.50000000       0.50000000 </v>
   <v>      -0.16666667       0.50000000       0.50000000 </v>
   <v>       0.00000000      -0.33333333       0.50000000 </v>
   <v>       0.16666667      -0.33333333       0.50000000 </v>
   <v>       0.33333333      -0.33333333       0.50000000 </v>
   <v>       0.50000000      -0.33333333       0.50000000 </v>
   <v>      -0.33333333      -0.33333333       0.50000000 </v>
   <v>      -0.16666667      -0.33333333       0.50000000 </v>
   <v>       0.00000000      -0.16666667       0.50000000 </v>
   <v>       0.16666667      -0.16666667       0.50000000 </v>
   <v>       0.33333333      -0.16666667       0.50000000 </v>
   <v>       0.50000000      -0.16666667       0.50000000 </v>
   <v>      -0.33333333      -0.16666667       0.50000000 </v>
   <v>      -0.16666667      -0.16666667       0.50000000 </v>
   <v>       0.00000000      -0.00000000      -0.33333333 </v>
   <v>       0.16666667      -0.00000000      -0.33333333 </v>
   <v>       0.33333333      -0.00000000      -0.33333333 </v>
   <v>       0.50000000      -0.00000000      -0.33333333 </v>
   <v>      -0.33333333       0.00000000      -0.33333333 </v>
   <v>      -0.16666667       0.00000000      -0.33333333 </v>
   <v>      -0.00000000       0.16666667      -0.33333333 </v>
   <v>       0.16666667       0.16666667      -0.33333333 </v>
   <v>       0.33333333       0.16666667      -0.33333333 </v>
   <v>       0.50000000       0.16666667      -0.33333333 </v>
   <v>      -0.33333333       0.16666667      -0.33333333 </v>
   <v>      -0.16666667       0.16666667      -0.33333333 </v>
   <v>       0.00000000       0.33333333      -0.33333333 </v>
   <v>       0.16666667       0.33333333      -0.33333333 </v>
   <v>       0.33333333       0.33333333      -0.33333333 </v>
   <v>       0.50000000       0.33333333      -0.33333333 </v>
   <v>      -0.33333333       0.33333333      -0.33333333 </v>
   <v>      -0.16666667       0.33333333      -0.33333333 </v>
   <v>       0.00000000       0.50000000      -0.33333333 </v>
   <v>       0.16666667       0.50000000      -0.33333333 </v>
   <v>       0.33333333       0.50000000      -0.33333333 </v>
   <v>       0.50000000       0.50000000      -0.33333333 </v>
   <v>      -0.33333333       0.50000000      -0.33333333 </v>
   <v>      -0.16666667       0.50000000      -0.33333333 </v>
   <v>       0.00000000      -0.33333333      -0.33333333 </v>
   <v>       0.16666667      -0.33333333      -0.33333333 </v>
   <v>       0.33333333      -0.33333333      -0.33333333 </v>
   <v>       0.50000000      -0.33333333      -0.33333333 </v>
   <v>      -0.33333333      -0.33333333      -0.33333333 </v>
   <v>      -0.16666667      -0.33333333      -0.33333333 </v>
   <v>       0.00000000      -0.16666667      -0.33333333 </v>
   <v>       0.16666667      -0.16666667      -0.33333333 </v>
   <v>       0.33333333      -0.16666667      -0.33333333 </v>
   <v>       0.50000000      -0.16666667      -0.33333333 </v>
   <v>      -0.33333333      -0.16666667      -0.33333333 </v>
   <v>      -0.16666667      -0.16666667      -0.33333333 </v>
   <v>       0.00000000      -0.00000000      -0.16666667 </v>
   <v>       0.16666667      -0.00000000      -0.16666667 </v>
   <v>       0.33333333      -0.00000000      -0.16666667 </v>
   <v>       0.50000000      -0.00000000      -0.16666667 </v>
   <v>      -0.33333333       0.00000000      -0.16666667 </v>
   <v>      -0.16666667       0.00000000      -0.16666667 </v>
   <v>       0.00000000       0.16666667      -0.16666667 </v>
   <v>       0.16666667       0.16666667      -0.16666667 </v>
   <v>       0.33333333       0.16666667      -0.16666667 </v>
   <v>       0.50000000       0.16666667      -0.16666667 </v>
   <v>      -0.33333333       0.16666667      -0.16666667 </v>
   <v>      -0.16666667       0.16666667      -0.16666667 </v>
   <v>       0.00000000       0.33333333      -0.16666667 </v>
   <v>       0.16666667       0.33333333      -0.16666667 </v>
   <v>       0.33333333       0.33333333      -0.16666667 </v>
   <v>       0.50000000       0.33333333      -0.16666667 </v>
   <v>      -0.33333333       0.33333333      -0.16666667 </v>
   <v>      -0.16666667       0.33333333      -0.16666667 </v>
   <v>       0.00000000       0.50000000      -0.16666667 </v>
   <v>       0.16666667       0.50000000      -0.16666667 </v>
   <v>       0.33333333       0.50000000      -0.16666667 </v>
   <v>       0.50000000       0.50000000      -0.16666667 </v>
   <v>      -0.33333333       0.50000000      -0.16666667 </v>
   <v>      -0.16666667       0.50000000      -0.16666667 </v>
   <v>      -0.00000000      -0.33333333      -0.16666667 </v>
   <v>       0.16666667      -0.33333333      -0.16666667 </v>
   <v>       0.33333333      -0.33333333      -0.16666667 </v>
   <v>       0.50000000      -0.33333333      -0.16666667 </v>
   <v>      -0.33333333      -0.33333333      -0.16666667 </v>
   <v>      -0.16666667      -0.33333333      -0.16666667 </v>
   <v>       0.00000000      -0.16666667      -0.16666667 </v>
   <v>       0.16666667      -0.16666667      -0.16666667 </v>
   <v>       0.33333333      -0.16666667      -0.16666667 </v>
   <v>       0.50000000      -0.16666667      -0.16666667 </v>
   <v>      -0.33333333      -0.16666667      -0.16666667 </v>
   <v>      -0.16666667      -0.16666667      -0.16666667 </v>
  </varray>
  <varray name="weights" >
   <v>       0.00462963 </v>
   <v>       0.00462963 </v>
   <v>       0.00462963 </v>
   <v>       0.00462963 </v>
   <v>       0.00462963 </v>
   <v>       0.00462963 </v>
   <v>       0.00462963 </v>
   <v>       0.00462963 </v>
   <v>       0.00462963 </v>
   <v>       0.00462963 </v>
   <v>       0.00462963 </v>
   <v>       0.00462963 </v>
   <v>       0.00462963 </v>
   <v>       0.00462963 </v>
   <v>       0.00462963 </v>
   <v>       0.00462963 </v>
   <v>       0.00462963 </v>
   <v>       0.00462963 </v>
   <v>       0.00462963 </v>
   <v>       0.00462963 </v>
   <v>       0.00462963 </v>
   <v>       0.00462963 </v>
   <v>       0.00462963 </v>
   <v>       0.00462963 </v>
   <v>       0.00462963 </v>
   <v>       0.00462963 </v>
   <v>       0.00462963 </v>
   <v>       0.00462963 </v>
   <v>       0.00462963 </v>
   <v>       0.00462963 </v>
   <v>       0.00462963 </v>
   <v>       0.00462963 </v>
   <v>       0.00462963 </v>
   <v>       0.00462963 </v>
   <v>       0.00462963 </v>
   <v>       0.00462963 </v>
   <v>       0.00462963 </v>
   <v>       0.00462963 </v>
   <v>       0.00462963 </v>
   <v>       0.00462963 </v>
   <v>       0.00462963 </v>
   <v>       0.00462963 </v>
   <v>       0.00462963 </v>
   <v>       0.00462963 </v>
   <v>       0.00462963 </v>
   <v>       0.00462963 </v>
   <v>       0.00462963 </v>
   <v>       0.00462963 </v>
   <v>       0.00462963 </v>
   <v>       0.00462963 </v>
   <v>       0.00462963 </v>
   <v>       0.00462963 </v>
   <v>       0.00462963 </v>
   <v>       0.00462963 </v>
   <v>       0.00462963 </v>
   <v>       0.00462963 </v>
   <v>       0.00462963 </v>
   <v>       0.00462963 </v>
   <v>       0.00462963 </v>
   <v>       0.00462963 </v>
   <v>       0.00462963 </v>
   <v>       0.00462963 </v>
   <v>       0.00462963 </v>
   <v>       0.00462963 </v>
   <v>       0.00462963 </v>
   <v>       0.00462963 </v>
   <v>       0.00462963 </v>
   <v>       0.00462963 </v>
   <v>       0.00462963 </v>
   <v>       0.00462963 </v>
   <v>       0.00462963 </v>
   <v>       0.00462963 </v>
   <v>       0.00462963 </v>
   <v>       0.00462963 </v>
   <v>       0.00462963 </v>
   <v>       0.00462963 </v>
   <v>       0.00462963 </v>
   <v>       0.00462963 </v>
   <v>       0.00462963 </v>
   <v>       0.00462963 </v>
   <v>       0.00462963 </v>
   <v>       0.00462963 </v>
   <v>       0.00462963 </v>
   <v>       0.00462963 </v>
   <v>       0.00462963 </v>
   <v>       0.00462963 </v>
   <v>       0.00462963 </v>
   <v>       0.00462963 </v>
   <v>       0.00462963 </v>
   <v>       0.00462963 </v>
   <v>       0.00462963 </v>
   <v>       0.00462963 </v>
   <v>       0.00462963 </v>
   <v>       0.00462963 </v>
   <v>       0.00462963 </v>
   <v>       0.00462963 </v>
   <v>       0.00462963 </v>
   <v>       0.00462963 </v>
   <v>       0.00462963 </v>
   <v>       0.00462963 </v>
   <v>       0.00462963 </v>
   <v>       0.00462963 </v>
   <v>       0.00462963 </v>
   <v>       0.00462963 </v>
   <v>       0.00462963 </v>
   <v>       0.00462963 </v>
   <v>       0.00462963 </v>
   <v>       0.00462963 </v>
   <v>       0.00462963 </v>
   <v>       0.00462963 </v>
   <v>       0.00462963 </v>
   <v>       0.00462963 </v>
   <v>       0.00462963 </v>
   <v>       0.00462963 </v>
   <v>       0.00462963 </v>
   <v>       0.00462963 </v>
   <v>       0.00462963 </v>
   <v>       0.00462963 </v>
   <v>       0.00462963 </v>
   <v>       0.00462963 </v>
   <v>       0.00462963 </v>
   <v>       0.00462963 </v>
   <v>       0.00462963 </v>
   <v>       0.00462963 </v>
   <v>       0.00462963 </v>
   <v>       0.00462963 </v>
   <v>       0.00462963 </v>
   <v>       0.00462963 </v>
   <v>       0.00462963 </v>
   <v>       0.00462963 </v>
   <v>       0.00462963 </v>
   <v>       0.00462963 </v>
   <v>       0.00462963 </v>
   <v>       0.00462963 </v>
   <v>       0.00462963 </v>
   <v>       0.00462963 </v>
   <v>       0.00462963 </v>
   <v>       0.00462963 </v>
   <v>       0.00462963 </v>
   <v>       0.00462963 </v>
   <v>       0.00462963 </v>
   <v>       0.00462963 </v>
   <v>       0.00462963 </v>
   <v>       0.00462963 </v>
   <v>       0.00462963 </v>
   <v>       0.00462963 </v>
   <v>       0.00462963 </v>
   <v>       0.00462963 </v>
   <v>       0.00462963 </v>
   <v>       0.00462963 </v>
   <v>       0.00462963 </v>
   <v>       0.00462963 </v>
   <v>       0.00462963 </v>
   <v>       0.00462963 </v>
   <v>       0.00462963 </v>
   <v>       0.00462963 </v>
   <v>       0.00462963 </v>
   <v>       0.00462963 </v>
   <v>       0.00462963 </v>
   <v>       0.00462963 </v>
   <v>       0.00462963 </v>
   <v>       0.00462963 </v>
   <v>       0.00462963 </v>
   <v>       0.00462963 </v>
   <v>       0.00462963 </v>
   <v>       0.00462963 </v>
   <v>       0.00462963 </v>
   <v>       0.00462963 </v>
   <v>       0.00462963 </v>
   <v>       0.00462963 </v>
   <v>       0.00462963 </v>
   <v>       0.00462963 </v>
   <v>       0.00462963 </v>
   <v>       0.00462963 </v>
   <v>       0.00462963 </v>
   <v>       0.00462963 </v>
   <v>       0.00462963 </v>
   <v>       0.00462963 </v>
   <v>       0.00462963 </v>
   <v>       0.00462963 </v>
   <v>       0.00462963 </v>
   <v>       0.00462963 </v>
   <v>       0.00462963 </v>
   <v>       0.00462963 </v>
   <v>       0.00462963 </v>
   <v>       0.00462963 </v>
   <v>       0.00462963 </v>
   <v>       0.00462963 </v>
   <v>       0.00462963 </v>
   <v>       0.00462963 </v>
   <v>       0.00462963 </v>
   <v>       0.00462963 </v>
   <v>       0.00462963 </v>
   <v>       0.00462963 </v>
   <v>       0.00462963 </v>
   <v>       0.00462963 </v>
   <v>       0.00462963 </v>
   <v>       0.00462963 </v>
   <v>       0.00462963 </v>
   <v>       0.00462963 </v>
   <v>       0.00462963 </v>
   <v>       0.00462963 </v>
   <v>       0.00462963 </v>
   <v>       0.00462963 </v>
   <v>       0.00462963 </v>
   <v>       0.00462963 </v>
   <v>       0.00462963 </v>
   <v>       0.00462963 </v>
   <v>       0.00462963 </v>
   <v>       0.00462963 </v>
   <v>       0.00462963 </v>
   <v>       0.00462963 </v>
   <v>       0.00462963 </v>
   <v>       0.00462963 </v>
   <v>       0.00462963 </v>
   <v>       0.00462963 </v>
  </varray>
 </kpoints>
 <parameters>
  <separator name="general" >
   <i type="string" name="SYSTEM">Og_FCC</i>
   <i type="logical" name="LCOMPAT"> F  </i>
  </separator>
  <separator name="electronic" >
   <i type="string" name="PREC">accura</i>
   <i name="ENMAX">    300.00000000</i>
   <i name="ENAUG">    361.02500000</i>
   <i name="EDIFF">      0.00000001</i>
   <i type="int" name="IALGO">    90</i>
   <i type="int" name="IWAVPR">    10</i>
   <i type="int" name="NBANDS">   128</i>
   <i name="NELECT">     18.00000000</i>
   <i type="int" name="TURBO">     0</i>
   <i type="int" name="IRESTART">     0</i>
   <i type="int" name="NREBOOT">     0</i>
   <i type="int" name="NMIN">     0</i>
   <i name="EREF">      0.00000000</i>
   <separator name="electronic smearing" >
    <i type="int" name="ISMEAR">     0</i>
    <i name="SIGMA">      0.00100000</i>
    <i name="KSPACING">      0.50000000</i>
    <i type="logical" name="KGAMMA"> T  </i>
   </separator>
   <separator name="electronic projectors" >
    <i type="logical" name="LREAL"> F  </i>
    <v name="ROPT">      0.00000000</v>
    <i type="int" name="LMAXPAW">  -100</i>
    <i type="int" name="LMAXMIX">     2</i>
    <i type="logical" name="NLSPLINE"> F  </i>
   </separator>
   <separator name="electronic startup" >
    <i type="int" name="ISTART">     1</i>
    <i type="int" name="ICHARG">     0</i>
    <i type="int" name="INIWAV">     1</i>
   </separator>
   <separator name="electronic spin" >
    <i type="int" name="ISPIN">     1</i>
    <i type="logical" name="LNONCOLLINEAR"> T  </i>
    <v name="MAGMOM">      1.00000000      1.00000000      1.00000000</v>
    <i name="NUPDOWN">     -1.00000000</i>
    <i type="logical" name="LSORBIT"> T  </i>
    <v name="SAXIS">      0.00000000      0.00000000      1.00000000</v>
    <i type="logical" name="LSPIRAL"> F  </i>
    <v name="QSPIRAL">      0.00000000      0.00000000      0.00000000</v>
    <i type="logical" name="LZEROZ"> F  </i>
   </separator>
   <separator name="electronic exchange-correlation" >
    <i type="logical" name="LASPH"> F  </i>
    <i type="logical" name="LMETAGGA"> F  </i>
   </separator>
   <separator name="electronic convergence" >
    <i type="int" name="NELM">    50</i>
    <i type="int" name="NELMDL">    -5</i>
    <i type="int" name="NELMIN">     2</i>
    <i name="ENINI">    300.00000000</i>
    <separator name="electronic convergence detail" >
     <i type="logical" name="LDIAG"> T  </i>
     <i type="logical" name="LSUBROT"> F  </i>
     <i name="WEIMIN">      0.00000000</i>
     <i name="EBREAK">      0.00000000</i>
     <i name="DEPER">      0.30000000</i>
     <i type="int" name="NRMM">     4</i>
     <i name="TIME">      0.40000000</i>
    </separator>
   </separator>
   <separator name="electronic mixer" >
    <i name="AMIX">      0.40000000</i>
    <i name="BMIX">      1.00000000</i>
    <i name="AMIN">      0.10000000</i>
    <i name="AMIX_MAG">      1.60000000</i>
    <i name="BMIX_MAG">      1.00000000</i>
    <separator name="electronic mixer details" >
     <i type="int" name="IMIX">     4</i>
     <i type="logical" name="MIXFIRST"> F  </i>
     <i type="int" name="MAXMIX">    50</i>
     <i name="WC">    100.00000000</i>
     <i type="int" name="INIMIX">     1</i>
     <i type="int" name="MIXPRE">     1</i>
     <i type="int" name="MREMOVE">     5</i>
    </separator>
   </separator>
   <separator name="electronic dipolcorrection" >
    <i type="logical" name="LDIPOL"> F  </i>
    <i type="logical" name="LMONO"> F  </i>
    <i type="int" name="IDIPOL">     0</i>
    <i name="EPSILON">      1.00000000</i>
    <v name="DIPOL">   -100.00000000   -100.00000000   -100.00000000</v>
    <i name="EFIELD">      0.00000000</i>
   </separator>
  </separator>
  <separator name="grids" >
   <i type="int" name="NGX">    28</i>
   <i type="int" name="NGY">    28</i>
   <i type="int" name="NGZ">    28</i>
   <i type="int" name="NGXF">    56</i>
   <i type="int" name="NGYF">    56</i>
   <i type="int" name="NGZF">    56</i>
   <i type="logical" name="ADDGRID"> T  </i>
  </separator>
  <separator name="ionic" >
   <i type="int" name="NSW">     1</i>
   <i type="int" name="IBRION">    -1</i>
   <i type="int" name="MDALGO">     0</i>
   <i type="int" name="ISIF">     3</i>
   <i name="PSTRESS">      0.00000000</i>
   <i name="EDIFFG">      0.00001000</i>
   <i type="int" name="NFREE">     5</i>
   <i name="POTIM">      0.10000000</i>
   <i name="SMASS">     -3.00000000</i>
   <i name="SCALEE">      1.00000000</i>
  </separator>
  <separator name="ionic md" >
   <i name="TEBEG">      0.00010000</i>
   <i name="TEEND">      0.00010000</i>
   <i type="int" name="NBLOCK">     1</i>
   <i type="int" name="KBLOCK">     1</i>
   <i type="int" name="NPACO">   256</i>
   <i name="APACO">     16.00000000</i>
  </separator>
  <separator name="symmetry" >
   <i type="int" name="ISYM">     0</i>
   <i name="SYMPREC">      0.00000010</i>
  </separator>
  <separator name="dos" >
   <i type="int" name="LORBIT">     0</i>
   <v name="RWIGS">     -1.00000000</v>
   <i type="int" name="NEDOS">   301</i>
   <i name="EMIN">     10.00000000</i>
   <i name="EMAX">    -10.00000000</i>
   <i name="EFERMI">      0.00000000</i>
  </separator>
  <separator name="writing" >
   <i type="int" name="NWRITE">     2</i>
   <i type="logical" name="LWAVE"> T  </i>
   <i type="logical" name="LDOWNSAMPLE"> F  </i>
   <i type="logical" name="LCHARG"> F  </i>
   <i type="logical" name="LPARD"> F  </i>
   <i type="logical" name="LVTOT"> F  </i>
   <i type="logical" name="LVHAR"> F  </i>
   <i type="logical" name="LELF"> F  </i>
   <i type="logical" name="LOPTICS"> T  </i>
   <v name="STM">      0.00000000      0.00000000      0.00000000      0.00000000      0.00000000      0.00000000      0.00000000</v>
  </separator>
  <separator name="performance" >
   <i type="int" name="NPAR">     2</i>
   <i type="int" name="NSIM">     4</i>
   <i type="int" name="NBLK">    -1</i>
   <i type="logical" name="LPLANE"> T  </i>
   <i type="logical" name="LSCALAPACK"> T  </i>
   <i type="logical" name="LSCAAWARE"> T  </i>
   <i type="logical" name="LSCALU"> F  </i>
   <i type="logical" name="LASYNC"> F  </i>
   <i type="logical" name="LORBITALREAL"> F  </i>
  </separator>
  <separator name="miscellaneous" >
   <i type="int" name="IDIOT">     3</i>
   <i type="int" name="ISPECIAL">     0</i>
   <i type="logical" name="LMUSIC"> F  </i>
   <v name="POMASS">      0.01000000</v>
   <v name="DARWINR">      0.00000000</v>
   <v name="DARWINV">      1.00000000</v>
   <i type="logical" name="LCORR"> T  </i>
  </separator>
  <i type="logical" name="GGA_COMPAT"> F  </i>
  <i type="logical" name="LBERRY"> F  </i>
  <i type="int" name="ICORELEVEL">     0</i>
  <i type="logical" name="LDAU"> F  </i>
  <i type="int" name="I_CONSTRAINED_M">     0</i>
  <separator name="electronic exchange-correlation" >
   <i type="string" name="GGA">PE</i>
   <i type="int" name="VOSKOWN">     0</i>
   <i type="logical" name="LHFCALC"> F  </i>
   <i type="string" name="PRECFOCK"></i>
   <i type="logical" name="LSYMGRAD"> F  </i>
   <i type="logical" name="LHFONE"> F  </i>
   <i type="logical" name="LRHFCALC"> F  </i>
   <i type="logical" name="LTHOMAS"> F  </i>
   <i type="logical" name="LMODELHF"> F  </i>
   <i name="ENCUT4O">     -1.00000000</i>
   <i type="int" name="EXXOEP">     0</i>
   <i type="int" name="FOURORBIT">     0</i>
   <i name="AEXX">      0.00000000</i>
   <i name="HFALPHA">      0.00000000</i>
   <i name="MCALPHA">      0.00000000</i>
   <i name="ALDAX">      1.00000000</i>
   <i name="AGGAX">      1.00000000</i>
   <i name="ALDAC">      1.00000000</i>
   <i name="AGGAC">      1.00000000</i>
   <i type="int" name="NKREDX">     1</i>
   <i type="int" name="NKREDY">     1</i>
   <i type="int" name="NKREDZ">     1</i>
   <i type="logical" name="SHIFTRED"> F  </i>
   <i type="logical" name="ODDONLY"> F  </i>
   <i type="logical" name="EVENONLY"> F  </i>
   <i type="int" name="LMAXFOCK">     0</i>
   <i type="int" name="NMAXFOCKAE">     0</i>
   <i type="logical" name="LFOCKAEDFT"> F  </i>
   <i name="HFSCREEN">      0.00000000</i>
   <i name="HFSCREENC">      0.00000000</i>
   <i type="int" name="NBANDSGWLOW">     0</i>
  </separator>
  <separator name="vdW DFT" >
   <i type="logical" name="LUSE_VDW"> F  </i>
   <i name="Zab_VDW">     -0.84910000</i>
   <i name="PARAM1">      0.12340000</i>
   <i name="PARAM2">      1.00000000</i>
   <i name="PARAM3">      0.00000000</i>
  </separator>
  <separator name="model GW" >
   <i type="int" name="MODEL_GW">     0</i>
   <i name="MODEL_EPS0">     36.05064879</i>
   <i name="MODEL_ALPHA">      1.00000000</i>
  </separator>
  <separator name="linear response parameters" >
   <i type="logical" name="LEPSILON"> F  </i>
   <i type="logical" name="LRPA"> F  </i>
   <i type="logical" name="LNABLA"> F  </i>
   <i type="logical" name="LVEL"> F  </i>
   <i type="int" name="KINTER">     0</i>
   <i name="CSHIFT">      0.10000000</i>
   <i name="OMEGAMAX">     -1.00000000</i>
   <i name="DEG_THRESHOLD">      0.00200000</i>
   <i name="RTIME">     -0.10000000</i>
   <i name="WPLASMAI">      0.00000000</i>
   <v name="DFIELD">      0.00000000      0.00000000      0.00000000</v>
   <v name="WPLASMA">      0.00000000      0.00000000      0.00000000      0.00000000      0.00000000      0.00000000      0.00000000      0.00000000      0.00000000</v>
  </separator>
  <separator name="orbital magnetization" >
   <i type="logical" name="NUCIND"> F  </i>
   <v name="MAGPOS">      0.00000000      0.00000000      0.00000000</v>
   <i type="logical" name="LNICSALL"> T  </i>
   <i type="logical" name="ORBITALMAG"> F  </i>
   <i type="logical" name="LMAGBLOCH"> F  </i>
   <i type="logical" name="LCHIMAG"> F  </i>
   <i type="logical" name="LGAUGE"> T  </i>
   <i type="int" name="MAGATOM">     0</i>
   <v name="MAGDIPOL">      0.00000000      0.00000000      0.00000000</v>
   <v name="AVECCONST">      0.00000000      0.00000000      0.00000000</v>
  </separator>
  <separator name="response functions" >
   <i type="logical" name="LADDER"> F  </i>
   <i type="logical" name="LRPAFORCE"> F  </i>
   <i type="logical" name="LFXC"> F  </i>
   <i type="logical" name="LHARTREE"> T  </i>
   <i type="int" name="IBSE">     0</i>
   <v type="int" name="KPOINT">    -1     0     0     0</v>
   <i type="logical" name="LTCTE"> F  </i>
   <i type="logical" name="LTETE"> F  </i>
   <i type="logical" name="LTRIPLET"> F  </i>
   <i type="logical" name="LFXCEPS"> F  </i>
   <i type="logical" name="LFXHEG"> F  </i>
   <i type="int" name="NATURALO">     2</i>
   <i type="logical" name="L2ORDER"> F  </i>
   <i type="logical" name="LMP2LT"> F  </i>
   <i type="logical" name="LUSEW"> F  </i>
   <i name="ENCUTGW">     -2.00000000</i>
   <i name="ENCUTGWSOFT">     -2.00000000</i>
   <i name="ENCUTLF">     -1.00000000</i>
   <i type="int" name="LMAXMP2">    -1</i>
   <i name="SCISSOR">      0.00000000</i>
   <i type="int" name="NOMEGA">     0</i>
   <i type="int" name="NOMEGAR">     0</i>
   <i type="int" name="NBANDSGW">    -1</i>
   <i type="int" name="NBANDSO">    -1</i>
   <i type="int" name="NBANDSV">    -1</i>
   <i type="int" name="NELM">    50</i>
   <i type="int" name="NELMHF">     1</i>
   <i type="int" name="DIM">     3</i>
   <i type="int" name="ANTIRES">     0</i>
   <i name="OMEGAMAX">    -30.00000000</i>
   <i name="OMEGAMIN">    -30.00000000</i>
   <i name="OMEGATL">   -200.00000000</i>
   <i type="int" name="OMEGAGRID">   140</i>
   <i name="CSHIFT">     -0.10000000</i>
   <i type="logical" name="SELFENERGY"> F  </i>
   <i type="logical" name="LSPECTRAL"> F  </i>
   <i type="logical" name="LSPECTRALGW"> F  </i>
   <i type="logical" name="LSINGLES"> F  </i>
   <i type="logical" name="LFERMIGW"> F  </i>
   <i type="logical" name="ODDONLYGW"> F  </i>
   <i type="logical" name="EVENONLYGW"> F  </i>
   <i type="int" name="NKREDLFX">     1</i>
   <i type="int" name="NKREDLFY">     1</i>
   <i type="int" name="NKREDLFZ">     1</i>
   <i type="int" name="MAXMEM">  2800</i>
   <i type="int" name="TELESCOPE">     0</i>
   <i type="int" name="TAUPAR">     1</i>
   <i type="int" name="OMEGAPAR">    -1</i>
   <i name="LAMBDA">      1.00000000</i>
  </separator>
  <separator name="External order field" >
   <i name="OFIELD_KAPPA">      0.00000000</i>
   <v name="OFIELD_K">      0.00000000      0.00000000      0.00000000</v>
   <i name="OFIELD_Q6_NEAR">      0.00000000</i>
   <i name="OFIELD_Q6_FAR">      0.00000000</i>
   <i name="OFIELD_A">      0.00000000</i>
  </separator>
 </parameters>
 <atominfo>
  <atoms>       1 </atoms>
  <types>       1 </types>
  <array name="atoms" >
   <dimension dim="1">ion</dimension>
   <field type="string">element</field>
   <field type="int">atomtype</field>
   <set>
    <rc><c>Og</c><c>   1</c></rc>
   </set>
  </array>
  <array name="atomtypes" >
   <dimension dim="1">type</dimension>
   <field type="int">atomspertype</field>
   <field type="string">element</field>
   <field>mass</field>
   <field>valence</field>
   <field type="string">pseudopotential</field>
   <set>
    <rc><c>   1</c><c>Og</c><c>      0.01000000</c><c>     18.00000000</c><c>  PAW Og, JanMewes Oct 18               </c></rc>
   </set>
  </array>
 </atominfo>
 <structure name="initialpos" >
  <crystal>
   <varray name="basis" >
    <v>       4.39635018       0.00000000       0.00000000 </v>
    <v>       2.19817509       3.80735094      -0.00000000 </v>
    <v>       2.19817509       1.26911698       3.58960489 </v>
   </varray>
   <i name="volume">     60.08441465 </i>
   <varray name="rec_basis" >
    <v>       0.22746141      -0.13132490      -0.09286073 </v>
    <v>       0.00000000       0.26264981      -0.09286073 </v>
    <v>      -0.00000000       0.00000000       0.27858219 </v>
   </varray>
  </crystal>
  <varray name="positions" >
   <v>       0.00000000       0.00000000       0.00000000 </v>
  </varray>
  <varray name="velocities" >
   <v>       0.00000000       0.00000000       0.00000000 </v>
  </varray>
 </structure>
 <calculation>
  <scstep>
   <time name="diag">   80.69   80.65</time>
   <time name="total">   80.84   80.80</time>
   <energy>
    <i name="alphaZ">     63.49827359 </i>
    <i name="ewald">  -1720.24414233 </i>
    <i name="hartreedc">   -686.03328385 </i>
    <i name="XCdc">    -68.78166308 </i>
    <i name="pawpsdc">   2335.77618743 </i>
    <i name="pawaedc">  -2260.37190409 </i>
    <i name="eentropy">     -0.00000002 </i>
    <i name="bandstr">   -316.95449241 </i>
    <i name="atom">   2639.90492407 </i>
    <i name="e_fr_energy">    -13.20610068 </i>
    <i name="e_wo_entrp">    -13.20610066 </i>
    <i name="e_0_energy">    -13.20610067 </i>
   </energy>
  </scstep>
  <scstep>
   <time name="diag">   80.73   80.70</time>
   <time name="total">   80.73   80.70</time>
   <energy>
    <i name="e_fr_energy">    -13.20610068 </i>
    <i name="e_wo_entrp">    -13.20610066 </i>
    <i name="e_0_energy">    -13.20610067 </i>
   </energy>
  </scstep>
  <scstep>
   <time name="diag">   80.83   80.79</time>
   <time name="total">   80.83   80.80</time>
   <energy>
    <i name="e_fr_energy">    -13.20610068 </i>
    <i name="e_wo_entrp">    -13.20610066 </i>
    <i name="e_0_energy">    -13.20610067 </i>
   </energy>
  </scstep>
  <scstep>
   <time name="diag">   80.87   80.84</time>
   <time name="total">   80.87   80.85</time>
   <energy>
    <i name="e_fr_energy">    -13.20610068 </i>
    <i name="e_wo_entrp">    -13.20610066 </i>
    <i name="e_0_energy">    -13.20610067 </i>
   </energy>
  </scstep>
  <scstep>
   <time name="diag">   80.75   80.73</time>
   <time name="total">   80.92   80.90</time>
   <energy>
    <i name="e_fr_energy">    -13.20610068 </i>
    <i name="e_wo_entrp">    -13.20610066 </i>
    <i name="e_0_energy">    -13.20610067 </i>
   </energy>
  </scstep>
  <scstep>
   <time name="diag">   80.85   80.80</time>
   <time name="total">   81.00   80.96</time>
   <energy>
    <i name="alphaZ">     63.49827359 </i>
    <i name="ewald">  -1720.24414233 </i>
    <i name="hartreedc">   -686.03327779 </i>
    <i name="XCdc">    -68.78166321 </i>
    <i name="pawpsdc">   2335.77615834 </i>
    <i name="pawaedc">  -2260.37187451 </i>
    <i name="eentropy">     -0.00000002 </i>
    <i name="bandstr">   -316.95449883 </i>
    <i name="atom">   2639.90492407 </i>
    <i name="e_fr_energy">    -13.20610069 </i>
    <i name="e_wo_entrp">    -13.20610067 </i>
    <i name="e_0_energy">    -13.20610068 </i>
   </energy>
  </scstep>
  <structure>
   <crystal>
    <varray name="basis" >
     <v>       4.39635018       0.00000000       0.00000000 </v>
     <v>       2.19817509       3.80735094      -0.00000000 </v>
     <v>       2.19817509       1.26911698       3.58960489 </v>
    </varray>
    <i name="volume">     60.08441465 </i>
    <varray name="rec_basis" >
     <v>       0.22746141      -0.13132490      -0.09286073 </v>
     <v>       0.00000000       0.26264981      -0.09286073 </v>
     <v>      -0.00000000       0.00000000       0.27858219 </v>
    </varray>
   </crystal>
   <varray name="positions" >
    <v>       0.00000000       0.00000000       0.00000000 </v>
   </varray>
  </structure>
  <varray name="forces" >
   <v>       0.00000003       0.00000001       0.00000001 </v>
  </varray>
  <varray name="stress" >
   <v>    -142.33629857      -0.00008612      -0.00006380 </v>
   <v>      -0.00008616    -142.33613829      -0.00003405 </v>
   <v>      -0.00006429      -0.00003395    -142.33607662 </v>
  </varray>
  <energy>
   <i name="e_fr_energy">    -13.62958310 </i>
   <i name="e_wo_entrp">    -13.62958309 </i>
   <i name="e_0_energy">     -0.00000002 </i>
  </energy>
  <time name="totalsc">  489.88  490.10</time>
  <eigenvalues>
   <array>
    <dimension dim="1">band</dimension>
    <dimension dim="2">kpoint</dimension>
    <dimension dim="3">spin</dimension>
    <field>eigene</field>
    <field>occ</field>
    <set>
     <set comment="spin 1">
      <set comment="kpoint 1">
       <r>  -30.7553    1.0000 </r>
       <r>  -30.7553    1.0000 </r>
       <r>  -30.7551    1.0000 </r>
       <r>  -30.7551    1.0000 </r>
       <r>  -24.0916    1.0000 </r>
       <r>  -24.0908    1.0000 </r>
       <r>  -24.0847    1.0000 </r>
       <r>  -24.0843    1.0000 </r>
       <r>  -24.0841    1.0000 </r>
       <r>  -24.0836    1.0000 </r>
       <r>  -20.4728    1.0000 </r>
       <r>  -20.4721    1.0000 </r>
       <r>   -7.2252    1.0000 </r>
       <r>   -7.2242    1.0000 </r>
       <r>    3.4469    1.0000 </r>
       <r>    3.4471    1.0000 </r>
       <r>    3.5545    0.9997 </r>
       <r>    3.5546    0.9996 </r>
       <r>    3.5593    0.0004 </r>
       <r>    3.5594    0.0003 </r>
       <r>   10.5127    0.0000 </r>
       <r>   10.5129    0.0000 </r>
       <r>   10.5136    0.0000 </r>
       <r>   10.5137    0.0000 </r>
       <r>   10.8437    0.0000 </r>
       <r>   10.8441    0.0000 </r>
       <r>   10.9213    0.0000 </r>
       <r>   10.9228    0.0000 </r>
       <r>   12.8822    0.0000 </r>
       <r>   12.8852    0.0000 </r>
       <r>   13.1814    0.0000 </r>
       <r>   13.1816    0.0000 </r>
       <r>   13.1824    0.0000 </r>
       <r>   13.1826    0.0000 </r>
       <r>   13.8677    0.0000 </r>
       <r>   13.8691    0.0000 </r>
       <r>   13.8699    0.0000 </r>
       <r>   13.8713    0.0000 </r>
       <r>   15.8263    0.0000 </r>
       <r>   15.8264    0.0000 </r>
       <r>   19.9206    0.0000 </r>
       <r>   19.9208    0.0000 </r>
       <r>   19.9214    0.0000 </r>
       <r>   19.9219    0.0000 </r>
       <r>   19.9224    0.0000 </r>
       <r>   19.9227    0.0000 </r>
       <r>   22.1450    0.0000 </r>
       <r>   22.1456    0.0000 </r>
       <r>   25.5578    0.0000 </r>
       <r>   25.5579    0.0000 </r>
       <r>   25.5599    0.0000 </r>
       <r>   25.5600    0.0000 </r>
       <r>   25.7793    0.0000 </r>
       <r>   25.7800    0.0000 </r>
       <r>   27.0060    0.0000 </r>
       <r>   27.0078    0.0000 </r>
       <r>   28.6260    0.0000 </r>
       <r>   28.6268    0.0000 </r>
       <r>   28.6272    0.0000 </r>
       <r>   28.6281    0.0000 </r>
       <r>   29.1777    0.0000 </r>
       <r>   29.1782    0.0000 </r>
       <r>   29.4734    0.0000 </r>
       <r>   29.4738    0.0000 </r>
       <r>   29.4744    0.0000 </r>
       <r>   29.4748    0.0000 </r>
       <r>   29.9025    0.0000 </r>
       <r>   29.9027    0.0000 </r>
       <r>   30.6507    0.0000 </r>
       <r>   30.6509    0.0000 </r>
       <r>   30.6519    0.0000 </r>
       <r>   30.6521    0.0000 </r>
       <r>   36.8186    0.0000 </r>
       <r>   36.8192    0.0000 </r>
       <r>   36.8193    0.0000 </r>
       <r>   36.8197    0.0000 </r>
       <r>   36.8198    0.0000 </r>
       <r>   36.8204    0.0000 </r>
       <r>   37.4848    0.0000 </r>
       <r>   37.4862    0.0000 </r>
       <r>   37.7187    0.0000 </r>
       <r>   37.7190    0.0000 </r>
       <r>   37.7192    0.0000 </r>
       <r>   37.7218    0.0000 </r>
       <r>   37.7221    0.0000 </r>
       <r>   37.7224    0.0000 </r>
       <r>   40.0826    0.0000 </r>
       <r>   40.0829    0.0000 </r>
       <r>   40.0831    0.0000 </r>
       <r>   40.0834    0.0000 </r>
       <r>   40.2895    0.0000 </r>
       <r>   40.2901    0.0000 </r>
       <r>   41.3817    0.0000 </r>
       <r>   41.3822    0.0000 </r>
       <r>   41.5975    0.0000 </r>
       <r>   41.5986    0.0000 </r>
       <r>   41.5992    0.0000 </r>
       <r>   41.6003    0.0000 </r>
       <r>   42.1068    0.0000 </r>
       <r>   42.1072    0.0000 </r>
       <r>   42.1075    0.0000 </r>
       <r>   42.1079    0.0000 </r>
       <r>   42.7250    0.0000 </r>
       <r>   42.7250    0.0000 </r>
       <r>   42.7271    0.0000 </r>
       <r>   42.7271    0.0000 </r>
       <r>   42.8639    0.0000 </r>
       <r>   42.8644    0.0000 </r>
       <r>   42.8652    0.0000 </r>
       <r>   42.8657    0.0000 </r>
       <r>   43.0763    0.0000 </r>
       <r>   43.0773    0.0000 </r>
       <r>   44.0184    0.0000 </r>
       <r>   44.0190    0.0000 </r>
       <r>   44.5485    0.0000 </r>
       <r>   44.5499    0.0000 </r>
       <r>   44.9240    0.0000 </r>
       <r>   44.9241    0.0000 </r>
       <r>   44.9252    0.0000 </r>
       <r>   44.9253    0.0000 </r>
       <r>   45.4982    0.0000 </r>
       <r>   45.4983    0.0000 </r>
       <r>   45.8334    0.0000 </r>
       <r>   45.8335    0.0000 </r>
       <r>   45.8339    0.0000 </r>
       <r>   45.8340    0.0000 </r>
       <r>   45.9473    0.0000 </r>
       <r>   45.9483    0.0000 </r>
      </set>
      <set comment="kpoint 2">
       <r>  -30.7481    1.0000 </r>
       <r>  -30.7480    1.0000 </r>
       <r>  -30.7355    1.0000 </r>
       <r>  -30.7353    1.0000 </r>
       <r>  -24.0841    1.0000 </r>
       <r>  -24.0841    1.0000 </r>
       <r>  -24.0740    1.0000 </r>
       <r>  -24.0736    1.0000 </r>
       <r>  -24.0727    1.0000 </r>
       <r>  -24.0725    1.0000 </r>
       <r>  -20.4492    1.0000 </r>
       <r>  -20.4484    1.0000 </r>
       <r>   -7.3064    1.0000 </r>
       <r>   -7.3054    1.0000 </r>
       <r>    1.9223    1.0000 </r>
       <r>    1.9235    1.0000 </r>
       <r>    3.4108    1.0000 </r>
       <r>    3.4127    1.0000 </r>
       <r>    5.1577    0.0000 </r>
       <r>    5.1581    0.0000 </r>
       <r>    9.4862    0.0000 </r>
       <r>    9.4865    0.0000 </r>
       <r>   10.6805    0.0000 </r>
       <r>   10.6807    0.0000 </r>
       <r>   10.9990    0.0000 </r>
       <r>   10.9994    0.0000 </r>
       <r>   11.8379    0.0000 </r>
       <r>   11.8388    0.0000 </r>
       <r>   12.1355    0.0000 </r>
       <r>   12.1372    0.0000 </r>
       <r>   12.3029    0.0000 </r>
       <r>   12.3037    0.0000 </r>
       <r>   13.3990    0.0000 </r>
       <r>   13.3996    0.0000 </r>
       <r>   15.4251    0.0000 </r>
       <r>   15.4274    0.0000 </r>
       <r>   15.5798    0.0000 </r>
       <r>   15.5808    0.0000 </r>
       <r>   17.5673    0.0000 </r>
       <r>   17.5677    0.0000 </r>
       <r>   19.4045    0.0000 </r>
       <r>   19.4055    0.0000 </r>
       <r>   19.5474    0.0000 </r>
       <r>   19.5483    0.0000 </r>
       <r>   19.9880    0.0000 </r>
       <r>   19.9896    0.0000 </r>
       <r>   21.0342    0.0000 </r>
       <r>   21.0346    0.0000 </r>
       <r>   24.3045    0.0000 </r>
       <r>   24.3051    0.0000 </r>
       <r>   24.9709    0.0000 </r>
       <r>   24.9717    0.0000 </r>
       <r>   25.3142    0.0000 </r>
       <r>   25.3148    0.0000 </r>
       <r>   26.4551    0.0000 </r>
       <r>   26.4566    0.0000 </r>
       <r>   27.0438    0.0000 </r>
       <r>   27.0438    0.0000 </r>
       <r>   27.8953    0.0000 </r>
       <r>   27.8958    0.0000 </r>
       <r>   29.3549    0.0000 </r>
       <r>   29.3558    0.0000 </r>
       <r>   29.4507    0.0000 </r>
       <r>   29.4519    0.0000 </r>
       <r>   29.9705    0.0000 </r>
       <r>   29.9709    0.0000 </r>
       <r>   30.0620    0.0000 </r>
       <r>   30.0628    0.0000 </r>
       <r>   31.9679    0.0000 </r>
       <r>   31.9687    0.0000 </r>
       <r>   34.3268    0.0000 </r>
       <r>   34.3280    0.0000 </r>
       <r>   34.6016    0.0000 </r>
       <r>   34.6022    0.0000 </r>
       <r>   35.5694    0.0000 </r>
       <r>   35.5697    0.0000 </r>
       <r>   35.6123    0.0000 </r>
       <r>   35.6128    0.0000 </r>
       <r>   35.8646    0.0000 </r>
       <r>   35.8648    0.0000 </r>
       <r>   37.2580    0.0000 </r>
       <r>   37.2584    0.0000 </r>
       <r>   38.0852    0.0000 </r>
       <r>   38.0861    0.0000 </r>
       <r>   38.3750    0.0000 </r>
       <r>   38.3763    0.0000 </r>
       <r>   38.5050    0.0000 </r>
       <r>   38.5053    0.0000 </r>
       <r>   38.5060    0.0000 </r>
       <r>   38.5064    0.0000 </r>
       <r>   39.3744    0.0000 </r>
       <r>   39.3749    0.0000 </r>
       <r>   39.4773    0.0000 </r>
       <r>   39.4776    0.0000 </r>
       <r>   40.3344    0.0000 </r>
       <r>   40.3347    0.0000 </r>
       <r>   40.5299    0.0000 </r>
       <r>   40.5307    0.0000 </r>
       <r>   41.5107    0.0000 </r>
       <r>   41.5110    0.0000 </r>
       <r>   42.0447    0.0000 </r>
       <r>   42.0460    0.0000 </r>
       <r>   42.1094    0.0000 </r>
       <r>   42.1098    0.0000 </r>
       <r>   42.9112    0.0000 </r>
       <r>   42.9118    0.0000 </r>
       <r>   43.4443    0.0000 </r>
       <r>   43.4450    0.0000 </r>
       <r>   43.6513    0.0000 </r>
       <r>   43.6518    0.0000 </r>
       <r>   43.7646    0.0000 </r>
       <r>   43.7658    0.0000 </r>
       <r>   45.2406    0.0000 </r>
       <r>   45.2411    0.0000 </r>
       <r>   45.9544    0.0000 </r>
       <r>   45.9548    0.0000 </r>
       <r>   46.2817    0.0000 </r>
       <r>   46.2821    0.0000 </r>
       <r>   47.2215    0.0000 </r>
       <r>   47.2218    0.0000 </r>
       <r>   48.1236    0.0000 </r>
       <r>   48.1241    0.0000 </r>
       <r>   48.1513    0.0000 </r>
       <r>   48.1517    0.0000 </r>
       <r>   48.9128    0.0000 </r>
       <r>   48.9132    0.0000 </r>
       <r>   50.0894    0.0000 </r>
       <r>   50.0902    0.0000 </r>
      </set>
      <set comment="kpoint 3">
       <r>  -30.7286    1.0000 </r>
       <r>  -30.7284    1.0000 </r>
       <r>  -30.7203    1.0000 </r>
       <r>  -30.7202    1.0000 </r>
       <r>  -24.0680    1.0000 </r>
       <r>  -24.0676    1.0000 </r>
       <r>  -24.0624    1.0000 </r>
       <r>  -24.0619    1.0000 </r>
       <r>  -24.0615    1.0000 </r>
       <r>  -24.0611    1.0000 </r>
       <r>  -20.4012    1.0000 </r>
       <r>  -20.4005    1.0000 </r>
       <r>   -7.4695    1.0000 </r>
       <r>   -7.4685    1.0000 </r>
       <r>    0.8710    1.0000 </r>
       <r>    0.8724    1.0000 </r>
       <r>    3.1501    1.0000 </r>
       <r>    3.1519    1.0000 </r>
       <r>    5.8951    0.0000 </r>
       <r>    5.8956    0.0000 </r>
       <r>    9.9897    0.0000 </r>
       <r>    9.9900    0.0000 </r>
       <r>   10.2550    0.0000 </r>
       <r>   10.2553    0.0000 </r>
       <r>   10.6701    0.0000 </r>
       <r>   10.6717    0.0000 </r>
       <r>   10.9783    0.0000 </r>
       <r>   10.9791    0.0000 </r>
       <r>   12.9068    0.0000 </r>
       <r>   12.9074    0.0000 </r>
       <r>   13.1768    0.0000 </r>
       <r>   13.1774    0.0000 </r>
       <r>   16.1935    0.0000 </r>
       <r>   16.1941    0.0000 </r>
       <r>   17.1883    0.0000 </r>
       <r>   17.1900    0.0000 </r>
       <r>   17.5089    0.0000 </r>
       <r>   17.5101    0.0000 </r>
       <r>   17.7891    0.0000 </r>
       <r>   17.7903    0.0000 </r>
       <r>   18.2113    0.0000 </r>
       <r>   18.2121    0.0000 </r>
       <r>   18.4420    0.0000 </r>
       <r>   18.4429    0.0000 </r>
       <r>   20.1512    0.0000 </r>
       <r>   20.1527    0.0000 </r>
       <r>   20.6062    0.0000 </r>
       <r>   20.6068    0.0000 </r>
       <r>   23.2514    0.0000 </r>
       <r>   23.2518    0.0000 </r>
       <r>   24.5586    0.0000 </r>
       <r>   24.5592    0.0000 </r>
       <r>   24.6346    0.0000 </r>
       <r>   24.6352    0.0000 </r>
       <r>   25.6656    0.0000 </r>
       <r>   25.6663    0.0000 </r>
       <r>   26.3936    0.0000 </r>
       <r>   26.3944    0.0000 </r>
       <r>   26.8738    0.0000 </r>
       <r>   26.8742    0.0000 </r>
       <r>   28.8186    0.0000 </r>
       <r>   28.8188    0.0000 </r>
       <r>   30.1311    0.0000 </r>
       <r>   30.1321    0.0000 </r>
       <r>   30.5547    0.0000 </r>
       <r>   30.5557    0.0000 </r>
       <r>   31.0039    0.0000 </r>
       <r>   31.0044    0.0000 </r>
       <r>   31.1506    0.0000 </r>
       <r>   31.1517    0.0000 </r>
       <r>   31.1770    0.0000 </r>
       <r>   31.1776    0.0000 </r>
       <r>   32.8765    0.0000 </r>
       <r>   32.8771    0.0000 </r>
       <r>   32.9756    0.0000 </r>
       <r>   32.9759    0.0000 </r>
       <r>   33.9926    0.0000 </r>
       <r>   33.9932    0.0000 </r>
       <r>   34.7133    0.0000 </r>
       <r>   34.7141    0.0000 </r>
       <r>   35.0500    0.0000 </r>
       <r>   35.0502    0.0000 </r>
       <r>   35.5060    0.0000 </r>
       <r>   35.5066    0.0000 </r>
       <r>   38.3595    0.0000 </r>
       <r>   38.3603    0.0000 </r>
       <r>   38.3903    0.0000 </r>
       <r>   38.3914    0.0000 </r>
       <r>   39.0122    0.0000 </r>
       <r>   39.0126    0.0000 </r>
       <r>   39.5561    0.0000 </r>
       <r>   39.5563    0.0000 </r>
       <r>   39.8108    0.0000 </r>
       <r>   39.8111    0.0000 </r>
       <r>   40.9360    0.0000 </r>
       <r>   40.9370    0.0000 </r>
       <r>   41.6832    0.0000 </r>
       <r>   41.6839    0.0000 </r>
       <r>   41.9579    0.0000 </r>
       <r>   41.9584    0.0000 </r>
       <r>   42.7020    0.0000 </r>
       <r>   42.7025    0.0000 </r>
       <r>   43.5955    0.0000 </r>
       <r>   43.5961    0.0000 </r>
       <r>   43.7671    0.0000 </r>
       <r>   43.7680    0.0000 </r>
       <r>   44.7440    0.0000 </r>
       <r>   44.7444    0.0000 </r>
       <r>   45.2545    0.0000 </r>
       <r>   45.2551    0.0000 </r>
       <r>   45.3507    0.0000 </r>
       <r>   45.3518    0.0000 </r>
       <r>   45.8220    0.0000 </r>
       <r>   45.8223    0.0000 </r>
       <r>   48.4090    0.0000 </r>
       <r>   48.4095    0.0000 </r>
       <r>   49.8463    0.0000 </r>
       <r>   49.8467    0.0000 </r>
       <r>   50.1148    0.0000 </r>
       <r>   50.1152    0.0000 </r>
       <r>   50.6265    0.0000 </r>
       <r>   50.6272    0.0000 </r>
       <r>   50.6993    0.0000 </r>
       <r>   50.6994    0.0000 </r>
       <r>   50.9739    0.0000 </r>
       <r>   50.9746    0.0000 </r>
       <r>   51.2642    0.0000 </r>
       <r>   51.2644    0.0000 </r>
      </set>
      <set comment="kpoint 4">
       <r>  -30.7480    1.0000 </r>
       <r>  -30.7479    1.0000 </r>
       <r>  -30.7463    1.0000 </r>
       <r>  -30.7462    1.0000 </r>
       <r>  -24.0818    1.0000 </r>
       <r>  -24.0812    1.0000 </r>
       <r>  -24.0782    1.0000 </r>
       <r>  -24.0776    1.0000 </r>
       <r>  -24.0754    1.0000 </r>
       <r>  -24.0749    1.0000 </r>
       <r>  -20.3770    1.0000 </r>
       <r>  -20.3763    1.0000 </r>
       <r>   -7.5513    1.0000 </r>
       <r>   -7.5504    1.0000 </r>
       <r>    0.5066    1.0000 </r>
       <r>    0.5080    1.0000 </r>
       <r>    3.0310    1.0000 </r>
       <r>    3.0328    1.0000 </r>
       <r>    5.9211    0.0000 </r>
       <r>    5.9217    0.0000 </r>
       <r>    9.9732    0.0000 </r>
       <r>    9.9735    0.0000 </r>
       <r>   10.1957    0.0000 </r>
       <r>   10.1963    0.0000 </r>
       <r>   10.3611    0.0000 </r>
       <r>   10.3629    0.0000 </r>
       <r>   11.6602    0.0000 </r>
       <r>   11.6606    0.0000 </r>
       <r>   14.2683    0.0000 </r>
       <r>   14.2688    0.0000 </r>
       <r>   14.3919    0.0000 </r>
       <r>   14.3924    0.0000 </r>
       <r>   15.5234    0.0000 </r>
       <r>   15.5238    0.0000 </r>
       <r>   16.5207    0.0000 </r>
       <r>   16.5211    0.0000 </r>
       <r>   16.6901    0.0000 </r>
       <r>   16.6912    0.0000 </r>
       <r>   18.0686    0.0000 </r>
       <r>   18.0697    0.0000 </r>
       <r>   18.5970    0.0000 </r>
       <r>   18.5984    0.0000 </r>
       <r>   18.6347    0.0000 </r>
       <r>   18.6370    0.0000 </r>
       <r>   20.2101    0.0000 </r>
       <r>   20.2117    0.0000 </r>
       <r>   22.6229    0.0000 </r>
       <r>   22.6241    0.0000 </r>
       <r>   23.2405    0.0000 </r>
       <r>   23.2410    0.0000 </r>
       <r>   24.5594    0.0000 </r>
       <r>   24.5597    0.0000 </r>
       <r>   24.7610    0.0000 </r>
       <r>   24.7616    0.0000 </r>
       <r>   24.8078    0.0000 </r>
       <r>   24.8082    0.0000 </r>
       <r>   26.3309    0.0000 </r>
       <r>   26.3313    0.0000 </r>
       <r>   26.5168    0.0000 </r>
       <r>   26.5173    0.0000 </r>
       <r>   27.6279    0.0000 </r>
       <r>   27.6284    0.0000 </r>
       <r>   28.6866    0.0000 </r>
       <r>   28.6873    0.0000 </r>
       <r>   29.9738    0.0000 </r>
       <r>   29.9744    0.0000 </r>
       <r>   30.0347    0.0000 </r>
       <r>   30.0351    0.0000 </r>
       <r>   30.8154    0.0000 </r>
       <r>   30.8164    0.0000 </r>
       <r>   31.5374    0.0000 </r>
       <r>   31.5380    0.0000 </r>
       <r>   31.7666    0.0000 </r>
       <r>   31.7676    0.0000 </r>
       <r>   32.2600    0.0000 </r>
       <r>   32.2606    0.0000 </r>
       <r>   33.0672    0.0000 </r>
       <r>   33.0681    0.0000 </r>
       <r>   33.1637    0.0000 </r>
       <r>   33.1645    0.0000 </r>
       <r>   34.9026    0.0000 </r>
       <r>   34.9028    0.0000 </r>
       <r>   35.7005    0.0000 </r>
       <r>   35.7010    0.0000 </r>
       <r>   38.5203    0.0000 </r>
       <r>   38.5213    0.0000 </r>
       <r>   38.6433    0.0000 </r>
       <r>   38.6443    0.0000 </r>
       <r>   38.7347    0.0000 </r>
       <r>   38.7349    0.0000 </r>
       <r>   39.1864    0.0000 </r>
       <r>   39.1875    0.0000 </r>
       <r>   39.4713    0.0000 </r>
       <r>   39.4716    0.0000 </r>
       <r>   40.8616    0.0000 </r>
       <r>   40.8619    0.0000 </r>
       <r>   41.0014    0.0000 </r>
       <r>   41.0019    0.0000 </r>
       <r>   43.6130    0.0000 </r>
       <r>   43.6132    0.0000 </r>
       <r>   44.9469    0.0000 </r>
       <r>   44.9473    0.0000 </r>
       <r>   45.0940    0.0000 </r>
       <r>   45.0944    0.0000 </r>
       <r>   45.2707    0.0000 </r>
       <r>   45.2716    0.0000 </r>
       <r>   45.3053    0.0000 </r>
       <r>   45.3059    0.0000 </r>
       <r>   46.5024    0.0000 </r>
       <r>   46.5027    0.0000 </r>
       <r>   48.0925    0.0000 </r>
       <r>   48.0932    0.0000 </r>
       <r>   48.7391    0.0000 </r>
       <r>   48.7400    0.0000 </r>
       <r>   48.9259    0.0000 </r>
       <r>   48.9262    0.0000 </r>
       <r>   49.6507    0.0000 </r>
       <r>   49.6515    0.0000 </r>
       <r>   49.9540    0.0000 </r>
       <r>   49.9544    0.0000 </r>
       <r>   50.1182    0.0000 </r>
       <r>   50.1187    0.0000 </r>
       <r>   51.2111    0.0000 </r>
       <r>   51.2117    0.0000 </r>
       <r>   51.4706    0.0000 </r>
       <r>   51.4711    0.0000 </r>
       <r>   51.5615    0.0000 </r>
       <r>   51.5621    0.0000 </r>
      </set>
      <set comment="kpoint 5">
       <r>  -30.7286    1.0000 </r>
       <r>  -30.7284    1.0000 </r>
       <r>  -30.7203    1.0000 </r>
       <r>  -30.7202    1.0000 </r>
       <r>  -24.0680    1.0000 </r>
       <r>  -24.0676    1.0000 </r>
       <r>  -24.0624    1.0000 </r>
       <r>  -24.0619    1.0000 </r>
       <r>  -24.0615    1.0000 </r>
       <r>  -24.0611    1.0000 </r>
       <r>  -20.4012    1.0000 </r>
       <r>  -20.4005    1.0000 </r>
       <r>   -7.4695    1.0000 </r>
       <r>   -7.4685    1.0000 </r>
       <r>    0.8710    1.0000 </r>
       <r>    0.8724    1.0000 </r>
       <r>    3.1501    1.0000 </r>
       <r>    3.1519    1.0000 </r>
       <r>    5.8951    0.0000 </r>
       <r>    5.8956    0.0000 </r>
       <r>    9.9897    0.0000 </r>
       <r>    9.9900    0.0000 </r>
       <r>   10.2550    0.0000 </r>
       <r>   10.2553    0.0000 </r>
       <r>   10.6701    0.0000 </r>
       <r>   10.6717    0.0000 </r>
       <r>   10.9783    0.0000 </r>
       <r>   10.9791    0.0000 </r>
       <r>   12.9068    0.0000 </r>
       <r>   12.9074    0.0000 </r>
       <r>   13.1768    0.0000 </r>
       <r>   13.1774    0.0000 </r>
       <r>   16.1935    0.0000 </r>
       <r>   16.1941    0.0000 </r>
       <r>   17.1883    0.0000 </r>
       <r>   17.1900    0.0000 </r>
       <r>   17.5089    0.0000 </r>
       <r>   17.5101    0.0000 </r>
       <r>   17.7891    0.0000 </r>
       <r>   17.7903    0.0000 </r>
       <r>   18.2113    0.0000 </r>
       <r>   18.2121    0.0000 </r>
       <r>   18.4420    0.0000 </r>
       <r>   18.4429    0.0000 </r>
       <r>   20.1512    0.0000 </r>
       <r>   20.1527    0.0000 </r>
       <r>   20.6062    0.0000 </r>
       <r>   20.6068    0.0000 </r>
       <r>   23.2514    0.0000 </r>
       <r>   23.2518    0.0000 </r>
       <r>   24.5586    0.0000 </r>
       <r>   24.5592    0.0000 </r>
       <r>   24.6346    0.0000 </r>
       <r>   24.6352    0.0000 </r>
       <r>   25.6656    0.0000 </r>
       <r>   25.6663    0.0000 </r>
       <r>   26.3936    0.0000 </r>
       <r>   26.3944    0.0000 </r>
       <r>   26.8738    0.0000 </r>
       <r>   26.8742    0.0000 </r>
       <r>   28.8186    0.0000 </r>
       <r>   28.8188    0.0000 </r>
       <r>   30.1311    0.0000 </r>
       <r>   30.1321    0.0000 </r>
       <r>   30.5547    0.0000 </r>
       <r>   30.5557    0.0000 </r>
       <r>   31.0039    0.0000 </r>
       <r>   31.0044    0.0000 </r>
       <r>   31.1506    0.0000 </r>
       <r>   31.1517    0.0000 </r>
       <r>   31.1770    0.0000 </r>
       <r>   31.1776    0.0000 </r>
       <r>   32.8765    0.0000 </r>
       <r>   32.8771    0.0000 </r>
       <r>   32.9756    0.0000 </r>
       <r>   32.9759    0.0000 </r>
       <r>   33.9926    0.0000 </r>
       <r>   33.9932    0.0000 </r>
       <r>   34.7133    0.0000 </r>
       <r>   34.7141    0.0000 </r>
       <r>   35.0500    0.0000 </r>
       <r>   35.0502    0.0000 </r>
       <r>   35.5060    0.0000 </r>
       <r>   35.5066    0.0000 </r>
       <r>   38.3595    0.0000 </r>
       <r>   38.3603    0.0000 </r>
       <r>   38.3903    0.0000 </r>
       <r>   38.3914    0.0000 </r>
       <r>   39.0122    0.0000 </r>
       <r>   39.0126    0.0000 </r>
       <r>   39.5561    0.0000 </r>
       <r>   39.5563    0.0000 </r>
       <r>   39.8108    0.0000 </r>
       <r>   39.8111    0.0000 </r>
       <r>   40.9360    0.0000 </r>
       <r>   40.9370    0.0000 </r>
       <r>   41.6832    0.0000 </r>
       <r>   41.6839    0.0000 </r>
       <r>   41.9579    0.0000 </r>
       <r>   41.9584    0.0000 </r>
       <r>   42.7020    0.0000 </r>
       <r>   42.7025    0.0000 </r>
       <r>   43.5955    0.0000 </r>
       <r>   43.5961    0.0000 </r>
       <r>   43.7671    0.0000 </r>
       <r>   43.7680    0.0000 </r>
       <r>   44.7440    0.0000 </r>
       <r>   44.7444    0.0000 </r>
       <r>   45.2545    0.0000 </r>
       <r>   45.2551    0.0000 </r>
       <r>   45.3507    0.0000 </r>
       <r>   45.3518    0.0000 </r>
       <r>   45.8220    0.0000 </r>
       <r>   45.8223    0.0000 </r>
       <r>   48.4090    0.0000 </r>
       <r>   48.4095    0.0000 </r>
       <r>   49.8463    0.0000 </r>
       <r>   49.8467    0.0000 </r>
       <r>   50.1148    0.0000 </r>
       <r>   50.1152    0.0000 </r>
       <r>   50.6265    0.0000 </r>
       <r>   50.6272    0.0000 </r>
       <r>   50.6993    0.0000 </r>
       <r>   50.6994    0.0000 </r>
       <r>   50.9739    0.0000 </r>
       <r>   50.9745    0.0000 </r>
       <r>   51.2642    0.0000 </r>
       <r>   51.2644    0.0000 </r>
      </set>
      <set comment="kpoint 6">
       <r>  -30.7481    1.0000 </r>
       <r>  -30.7480    1.0000 </r>
       <r>  -30.7355    1.0000 </r>
       <r>  -30.7353    1.0000 </r>
       <r>  -24.0841    1.0000 </r>
       <r>  -24.0841    1.0000 </r>
       <r>  -24.0740    1.0000 </r>
       <r>  -24.0736    1.0000 </r>
       <r>  -24.0727    1.0000 </r>
       <r>  -24.0725    1.0000 </r>
       <r>  -20.4492    1.0000 </r>
       <r>  -20.4484    1.0000 </r>
       <r>   -7.3064    1.0000 </r>
       <r>   -7.3054    1.0000 </r>
       <r>    1.9223    1.0000 </r>
       <r>    1.9235    1.0000 </r>
       <r>    3.4108    1.0000 </r>
       <r>    3.4127    1.0000 </r>
       <r>    5.1577    0.0000 </r>
       <r>    5.1581    0.0000 </r>
       <r>    9.4862    0.0000 </r>
       <r>    9.4865    0.0000 </r>
       <r>   10.6805    0.0000 </r>
       <r>   10.6807    0.0000 </r>
       <r>   10.9990    0.0000 </r>
       <r>   10.9994    0.0000 </r>
       <r>   11.8379    0.0000 </r>
       <r>   11.8388    0.0000 </r>
       <r>   12.1355    0.0000 </r>
       <r>   12.1372    0.0000 </r>
       <r>   12.3029    0.0000 </r>
       <r>   12.3037    0.0000 </r>
       <r>   13.3990    0.0000 </r>
       <r>   13.3996    0.0000 </r>
       <r>   15.4251    0.0000 </r>
       <r>   15.4274    0.0000 </r>
       <r>   15.5798    0.0000 </r>
       <r>   15.5808    0.0000 </r>
       <r>   17.5673    0.0000 </r>
       <r>   17.5677    0.0000 </r>
       <r>   19.4045    0.0000 </r>
       <r>   19.4055    0.0000 </r>
       <r>   19.5474    0.0000 </r>
       <r>   19.5483    0.0000 </r>
       <r>   19.9880    0.0000 </r>
       <r>   19.9896    0.0000 </r>
       <r>   21.0342    0.0000 </r>
       <r>   21.0346    0.0000 </r>
       <r>   24.3045    0.0000 </r>
       <r>   24.3051    0.0000 </r>
       <r>   24.9709    0.0000 </r>
       <r>   24.9717    0.0000 </r>
       <r>   25.3142    0.0000 </r>
       <r>   25.3148    0.0000 </r>
       <r>   26.4551    0.0000 </r>
       <r>   26.4566    0.0000 </r>
       <r>   27.0437    0.0000 </r>
       <r>   27.0438    0.0000 </r>
       <r>   27.8953    0.0000 </r>
       <r>   27.8958    0.0000 </r>
       <r>   29.3549    0.0000 </r>
       <r>   29.3558    0.0000 </r>
       <r>   29.4507    0.0000 </r>
       <r>   29.4519    0.0000 </r>
       <r>   29.9705    0.0000 </r>
       <r>   29.9709    0.0000 </r>
       <r>   30.0620    0.0000 </r>
       <r>   30.0628    0.0000 </r>
       <r>   31.9679    0.0000 </r>
       <r>   31.9687    0.0000 </r>
       <r>   34.3268    0.0000 </r>
       <r>   34.3280    0.0000 </r>
       <r>   34.6016    0.0000 </r>
       <r>   34.6022    0.0000 </r>
       <r>   35.5694    0.0000 </r>
       <r>   35.5697    0.0000 </r>
       <r>   35.6123    0.0000 </r>
       <r>   35.6128    0.0000 </r>
       <r>   35.8646    0.0000 </r>
       <r>   35.8648    0.0000 </r>
       <r>   37.2580    0.0000 </r>
       <r>   37.2584    0.0000 </r>
       <r>   38.0852    0.0000 </r>
       <r>   38.0861    0.0000 </r>
       <r>   38.3750    0.0000 </r>
       <r>   38.3763    0.0000 </r>
       <r>   38.5050    0.0000 </r>
       <r>   38.5053    0.0000 </r>
       <r>   38.5060    0.0000 </r>
       <r>   38.5064    0.0000 </r>
       <r>   39.3744    0.0000 </r>
       <r>   39.3749    0.0000 </r>
       <r>   39.4773    0.0000 </r>
       <r>   39.4776    0.0000 </r>
       <r>   40.3344    0.0000 </r>
       <r>   40.3347    0.0000 </r>
       <r>   40.5299    0.0000 </r>
       <r>   40.5307    0.0000 </r>
       <r>   41.5107    0.0000 </r>
       <r>   41.5110    0.0000 </r>
       <r>   42.0447    0.0000 </r>
       <r>   42.0460    0.0000 </r>
       <r>   42.1094    0.0000 </r>
       <r>   42.1098    0.0000 </r>
       <r>   42.9112    0.0000 </r>
       <r>   42.9118    0.0000 </r>
       <r>   43.4443    0.0000 </r>
       <r>   43.4450    0.0000 </r>
       <r>   43.6513    0.0000 </r>
       <r>   43.6518    0.0000 </r>
       <r>   43.7646    0.0000 </r>
       <r>   43.7658    0.0000 </r>
       <r>   45.2406    0.0000 </r>
       <r>   45.2411    0.0000 </r>
       <r>   45.9544    0.0000 </r>
       <r>   45.9548    0.0000 </r>
       <r>   46.2817    0.0000 </r>
       <r>   46.2821    0.0000 </r>
       <r>   47.2215    0.0000 </r>
       <r>   47.2218    0.0000 </r>
       <r>   48.1236    0.0000 </r>
       <r>   48.1241    0.0000 </r>
       <r>   48.1513    0.0000 </r>
       <r>   48.1517    0.0000 </r>
       <r>   48.9128    0.0000 </r>
       <r>   48.9132    0.0000 </r>
       <r>   50.0894    0.0000 </r>
       <r>   50.0902    0.0000 </r>
      </set>
      <set comment="kpoint 7">
       <r>  -30.7480    1.0000 </r>
       <r>  -30.7480    1.0000 </r>
       <r>  -30.7355    1.0000 </r>
       <r>  -30.7353    1.0000 </r>
       <r>  -24.0842    1.0000 </r>
       <r>  -24.0841    1.0000 </r>
       <r>  -24.0739    1.0000 </r>
       <r>  -24.0737    1.0000 </r>
       <r>  -24.0726    1.0000 </r>
       <r>  -24.0725    1.0000 </r>
       <r>  -20.4492    1.0000 </r>
       <r>  -20.4484    1.0000 </r>
       <r>   -7.3064    1.0000 </r>
       <r>   -7.3054    1.0000 </r>
       <r>    1.9225    1.0000 </r>
       <r>    1.9233    1.0000 </r>
       <r>    3.4111    1.0000 </r>
       <r>    3.4124    1.0000 </r>
       <r>    5.1577    0.0000 </r>
       <r>    5.1581    0.0000 </r>
       <r>    9.4862    0.0000 </r>
       <r>    9.4865    0.0000 </r>
       <r>   10.6806    0.0000 </r>
       <r>   10.6807    0.0000 </r>
       <r>   10.9989    0.0000 </r>
       <r>   10.9995    0.0000 </r>
       <r>   11.8379    0.0000 </r>
       <r>   11.8388    0.0000 </r>
       <r>   12.1355    0.0000 </r>
       <r>   12.1372    0.0000 </r>
       <r>   12.3030    0.0000 </r>
       <r>   12.3035    0.0000 </r>
       <r>   13.3991    0.0000 </r>
       <r>   13.3995    0.0000 </r>
       <r>   15.4251    0.0000 </r>
       <r>   15.4274    0.0000 </r>
       <r>   15.5800    0.0000 </r>
       <r>   15.5806    0.0000 </r>
       <r>   17.5673    0.0000 </r>
       <r>   17.5677    0.0000 </r>
       <r>   19.4046    0.0000 </r>
       <r>   19.4054    0.0000 </r>
       <r>   19.5476    0.0000 </r>
       <r>   19.5481    0.0000 </r>
       <r>   19.9880    0.0000 </r>
       <r>   19.9896    0.0000 </r>
       <r>   21.0342    0.0000 </r>
       <r>   21.0347    0.0000 </r>
       <r>   24.3045    0.0000 </r>
       <r>   24.3050    0.0000 </r>
       <r>   24.9711    0.0000 </r>
       <r>   24.9716    0.0000 </r>
       <r>   25.3143    0.0000 </r>
       <r>   25.3147    0.0000 </r>
       <r>   26.4551    0.0000 </r>
       <r>   26.4566    0.0000 </r>
       <r>   27.0437    0.0000 </r>
       <r>   27.0438    0.0000 </r>
       <r>   27.8953    0.0000 </r>
       <r>   27.8957    0.0000 </r>
       <r>   29.3550    0.0000 </r>
       <r>   29.3557    0.0000 </r>
       <r>   29.4507    0.0000 </r>
       <r>   29.4519    0.0000 </r>
       <r>   29.9706    0.0000 </r>
       <r>   29.9709    0.0000 </r>
       <r>   30.0620    0.0000 </r>
       <r>   30.0628    0.0000 </r>
       <r>   31.9680    0.0000 </r>
       <r>   31.9686    0.0000 </r>
       <r>   34.3268    0.0000 </r>
       <r>   34.3280    0.0000 </r>
       <r>   34.6017    0.0000 </r>
       <r>   34.6021    0.0000 </r>
       <r>   35.5695    0.0000 </r>
       <r>   35.5696    0.0000 </r>
       <r>   35.6123    0.0000 </r>
       <r>   35.6128    0.0000 </r>
       <r>   35.8646    0.0000 </r>
       <r>   35.8648    0.0000 </r>
       <r>   37.2580    0.0000 </r>
       <r>   37.2584    0.0000 </r>
       <r>   38.0854    0.0000 </r>
       <r>   38.0859    0.0000 </r>
       <r>   38.3750    0.0000 </r>
       <r>   38.3763    0.0000 </r>
       <r>   38.5050    0.0000 </r>
       <r>   38.5053    0.0000 </r>
       <r>   38.5061    0.0000 </r>
       <r>   38.5064    0.0000 </r>
       <r>   39.3744    0.0000 </r>
       <r>   39.3749    0.0000 </r>
       <r>   39.4774    0.0000 </r>
       <r>   39.4776    0.0000 </r>
       <r>   40.3344    0.0000 </r>
       <r>   40.3346    0.0000 </r>
       <r>   40.5299    0.0000 </r>
       <r>   40.5307    0.0000 </r>
       <r>   41.5107    0.0000 </r>
       <r>   41.5110    0.0000 </r>
       <r>   42.0447    0.0000 </r>
       <r>   42.0461    0.0000 </r>
       <r>   42.1094    0.0000 </r>
       <r>   42.1098    0.0000 </r>
       <r>   42.9112    0.0000 </r>
       <r>   42.9118    0.0000 </r>
       <r>   43.4443    0.0000 </r>
       <r>   43.4450    0.0000 </r>
       <r>   43.6514    0.0000 </r>
       <r>   43.6517    0.0000 </r>
       <r>   43.7646    0.0000 </r>
       <r>   43.7658    0.0000 </r>
       <r>   45.2407    0.0000 </r>
       <r>   45.2410    0.0000 </r>
       <r>   45.9544    0.0000 </r>
       <r>   45.9547    0.0000 </r>
       <r>   46.2818    0.0000 </r>
       <r>   46.2821    0.0000 </r>
       <r>   47.2215    0.0000 </r>
       <r>   47.2218    0.0000 </r>
       <r>   48.1236    0.0000 </r>
       <r>   48.1241    0.0000 </r>
       <r>   48.1513    0.0000 </r>
       <r>   48.1517    0.0000 </r>
       <r>   48.9128    0.0000 </r>
       <r>   48.9131    0.0000 </r>
       <r>   50.0894    0.0000 </r>
       <r>   50.0902    0.0000 </r>
      </set>
      <set comment="kpoint 8">
       <r>  -30.7307    1.0000 </r>
       <r>  -30.7305    1.0000 </r>
       <r>  -30.7178    1.0000 </r>
       <r>  -30.7176    1.0000 </r>
       <r>  -24.0726    1.0000 </r>
       <r>  -24.0720    1.0000 </r>
       <r>  -24.0624    1.0000 </r>
       <r>  -24.0618    1.0000 </r>
       <r>  -24.0606    1.0000 </r>
       <r>  -24.0600    1.0000 </r>
       <r>  -20.4412    1.0000 </r>
       <r>  -20.4404    1.0000 </r>
       <r>   -7.3315    1.0000 </r>
       <r>   -7.3305    1.0000 </r>
       <r>    1.8140    1.0000 </r>
       <r>    1.8170    1.0000 </r>
       <r>    3.0800    1.0000 </r>
       <r>    3.0844    1.0000 </r>
       <r>    5.6571    0.0000 </r>
       <r>    5.6584    0.0000 </r>
       <r>    8.9238    0.0000 </r>
       <r>    8.9245    0.0000 </r>
       <r>   10.2796    0.0000 </r>
       <r>   10.2807    0.0000 </r>
       <r>   11.0027    0.0000 </r>
       <r>   11.0040    0.0000 </r>
       <r>   11.6652    0.0000 </r>
       <r>   11.6666    0.0000 </r>
       <r>   13.2223    0.0000 </r>
       <r>   13.2230    0.0000 </r>
       <r>   13.7933    0.0000 </r>
       <r>   13.7957    0.0000 </r>
       <r>   13.8739    0.0000 </r>
       <r>   13.8751    0.0000 </r>
       <r>   14.0929    0.0000 </r>
       <r>   14.0945    0.0000 </r>
       <r>   15.2574    0.0000 </r>
       <r>   15.2593    0.0000 </r>
       <r>   18.4320    0.0000 </r>
       <r>   18.4326    0.0000 </r>
       <r>   19.2742    0.0000 </r>
       <r>   19.2753    0.0000 </r>
       <r>   19.6911    0.0000 </r>
       <r>   19.6919    0.0000 </r>
       <r>   19.8430    0.0000 </r>
       <r>   19.8434    0.0000 </r>
       <r>   20.7463    0.0000 </r>
       <r>   20.7471    0.0000 </r>
       <r>   24.0631    0.0000 </r>
       <r>   24.0649    0.0000 </r>
       <r>   25.1043    0.0000 </r>
       <r>   25.1064    0.0000 </r>
       <r>   25.1317    0.0000 </r>
       <r>   25.1324    0.0000 </r>
       <r>   25.8940    0.0000 </r>
       <r>   25.8954    0.0000 </r>
       <r>   26.3929    0.0000 </r>
       <r>   26.3934    0.0000 </r>
       <r>   27.1832    0.0000 </r>
       <r>   27.1844    0.0000 </r>
       <r>   29.1163    0.0000 </r>
       <r>   29.1173    0.0000 </r>
       <r>   29.6695    0.0000 </r>
       <r>   29.6702    0.0000 </r>
       <r>   30.4091    0.0000 </r>
       <r>   30.4097    0.0000 </r>
       <r>   30.4887    0.0000 </r>
       <r>   30.4893    0.0000 </r>
       <r>   33.5646    0.0000 </r>
       <r>   33.5651    0.0000 </r>
       <r>   34.1238    0.0000 </r>
       <r>   34.1242    0.0000 </r>
       <r>   34.4430    0.0000 </r>
       <r>   34.4444    0.0000 </r>
       <r>   34.5399    0.0000 </r>
       <r>   34.5419    0.0000 </r>
       <r>   35.4414    0.0000 </r>
       <r>   35.4418    0.0000 </r>
       <r>   35.8018    0.0000 </r>
       <r>   35.8032    0.0000 </r>
       <r>   36.9268    0.0000 </r>
       <r>   36.9281    0.0000 </r>
       <r>   36.9414    0.0000 </r>
       <r>   36.9439    0.0000 </r>
       <r>   38.0297    0.0000 </r>
       <r>   38.0305    0.0000 </r>
       <r>   38.3092    0.0000 </r>
       <r>   38.3101    0.0000 </r>
       <r>   39.5040    0.0000 </r>
       <r>   39.5052    0.0000 </r>
       <r>   40.0314    0.0000 </r>
       <r>   40.0323    0.0000 </r>
       <r>   40.0782    0.0000 </r>
       <r>   40.0793    0.0000 </r>
       <r>   40.6285    0.0000 </r>
       <r>   40.6293    0.0000 </r>
       <r>   40.9662    0.0000 </r>
       <r>   40.9672    0.0000 </r>
       <r>   41.0430    0.0000 </r>
       <r>   41.0436    0.0000 </r>
       <r>   41.3070    0.0000 </r>
       <r>   41.3072    0.0000 </r>
       <r>   41.8503    0.0000 </r>
       <r>   41.8510    0.0000 </r>
       <r>   42.9585    0.0000 </r>
       <r>   42.9589    0.0000 </r>
       <r>   42.9985    0.0000 </r>
       <r>   42.9994    0.0000 </r>
       <r>   43.4721    0.0000 </r>
       <r>   43.4727    0.0000 </r>
       <r>   43.7280    0.0000 </r>
       <r>   43.7290    0.0000 </r>
       <r>   44.2009    0.0000 </r>
       <r>   44.2014    0.0000 </r>
       <r>   46.0260    0.0000 </r>
       <r>   46.0275    0.0000 </r>
       <r>   46.9899    0.0000 </r>
       <r>   46.9905    0.0000 </r>
       <r>   47.2282    0.0000 </r>
       <r>   47.2296    0.0000 </r>
       <r>   48.9288    0.0000 </r>
       <r>   48.9294    0.0000 </r>
       <r>   50.0209    0.0000 </r>
       <r>   50.0218    0.0000 </r>
       <r>   50.0850    0.0000 </r>
       <r>   50.0861    0.0000 </r>
       <r>   50.1592    0.0000 </r>
       <r>   50.1607    0.0000 </r>
      </set>
      <set comment="kpoint 9">
       <r>  -30.7484    1.0000 </r>
       <r>  -30.7482    1.0000 </r>
       <r>  -30.7386    1.0000 </r>
       <r>  -30.7385    1.0000 </r>
       <r>  -24.0804    1.0000 </r>
       <r>  -24.0801    1.0000 </r>
       <r>  -24.0768    1.0000 </r>
       <r>  -24.0764    1.0000 </r>
       <r>  -24.0728    1.0000 </r>
       <r>  -24.0724    1.0000 </r>
       <r>  -20.4016    1.0000 </r>
       <r>  -20.4009    1.0000 </r>
       <r>   -7.4626    1.0000 </r>
       <r>   -7.4617    1.0000 </r>
       <r>    1.0414    1.0000 </r>
       <r>    1.0433    1.0000 </r>
       <r>    2.6889    1.0000 </r>
       <r>    2.6916    1.0000 </r>
       <r>    6.5603    0.0000 </r>
       <r>    6.5610    0.0000 </r>
       <r>    8.8068    0.0000 </r>
       <r>    8.8075    0.0000 </r>
       <r>    9.3287    0.0000 </r>
       <r>    9.3301    0.0000 </r>
       <r>   11.2544    0.0000 </r>
       <r>   11.2552    0.0000 </r>
       <r>   12.4889    0.0000 </r>
       <r>   12.4893    0.0000 </r>
       <r>   13.2088    0.0000 </r>
       <r>   13.2097    0.0000 </r>
       <r>   13.9395    0.0000 </r>
       <r>   13.9404    0.0000 </r>
       <r>   15.6082    0.0000 </r>
       <r>   15.6089    0.0000 </r>
       <r>   16.0504    0.0000 </r>
       <r>   16.0518    0.0000 </r>
       <r>   17.1634    0.0000 </r>
       <r>   17.1652    0.0000 </r>
       <r>   17.6863    0.0000 </r>
       <r>   17.6869    0.0000 </r>
       <r>   18.1653    0.0000 </r>
       <r>   18.1666    0.0000 </r>
       <r>   19.8003    0.0000 </r>
       <r>   19.8017    0.0000 </r>
       <r>   20.1814    0.0000 </r>
       <r>   20.1819    0.0000 </r>
       <r>   20.4437    0.0000 </r>
[...]
       <r>    30.0336     0.0000     0.0000 </r>
       <r>    30.3385     0.0000     0.0000 </r>
       <r>    30.6435     0.0000     0.0000 </r>
       <r>    30.9484     0.0000     0.0000 </r>
       <r>    31.2533     0.0000     0.0000 </r>
       <r>    31.5583     0.0000     0.0000 </r>
       <r>    31.8632     0.0000     0.0000 </r>
       <r>    32.1682     0.0000     0.0000 </r>
       <r>    32.4731     0.0000     0.0000 </r>
       <r>    32.7780     0.0000     0.0000 </r>
       <r>    33.0830     0.0000     0.0000 </r>
       <r>    33.3879     0.0000     0.0000 </r>
       <r>    33.6928     0.0000     0.0000 </r>
       <r>    33.9978     0.0000     0.0000 </r>
       <r>    34.3027     0.0000     0.0000 </r>
       <r>    34.6077     0.0000     0.0000 </r>
       <r>    34.9126     0.0000     0.0000 </r>
       <r>    35.2175     0.0000     0.0000 </r>
       <r>    35.5225     0.0000     0.0000 </r>
       <r>    35.8274     0.0000     0.0000 </r>
       <r>    36.1323     0.0000     0.0000 </r>
       <r>    36.4373     0.0000     0.0000 </r>
       <r>    36.7422     0.0000     0.0000 </r>
       <r>    37.0472     0.0000     0.0000 </r>
       <r>    37.3521     0.0000     0.0000 </r>
       <r>    37.6570     0.0000     0.0000 </r>
       <r>    37.9620     0.0000     0.0000 </r>
       <r>    38.2669     0.0000     0.0000 </r>
       <r>    38.5718     0.0000     0.0000 </r>
       <r>    38.8768     0.0000     0.0000 </r>
       <r>    39.1817     0.0000     0.0000 </r>
       <r>    39.4867     0.0000     0.0000 </r>
       <r>    39.7916     0.0000     0.0000 </r>
       <r>    40.0965     0.0000     0.0000 </r>
       <r>    40.4015     0.0000     0.0000 </r>
       <r>    40.7064     0.0000     0.0000 </r>
       <r>    41.0113     0.0000     0.0000 </r>
       <r>    41.3163     0.0000     0.0000 </r>
       <r>    41.6212     0.0000     0.0000 </r>
       <r>    41.9262     0.0000     0.0000 </r>
       <r>    42.2311     0.0000     0.0000 </r>
       <r>    42.5360     0.0000     0.0000 </r>
       <r>    42.8410     0.0000     0.0000 </r>
       <r>    43.1459     0.0000     0.0000 </r>
       <r>    43.4508     0.0000     0.0000 </r>
       <r>    43.7558     0.0000     0.0000 </r>
       <r>    44.0607     0.0000     0.0000 </r>
       <r>    44.3657     0.0000     0.0000 </r>
       <r>    44.6706     0.0000     0.0000 </r>
       <r>    44.9755     0.0000     0.0000 </r>
       <r>    45.2805     0.0000     0.0000 </r>
       <r>    45.5854     0.0000     0.0000 </r>
       <r>    45.8903     0.0000     0.0000 </r>
       <r>    46.1953     0.0000     0.0000 </r>
       <r>    46.5002     0.0000     0.0000 </r>
       <r>    46.8052     0.0000     0.0000 </r>
       <r>    47.1101     0.0000     0.0000 </r>
       <r>    47.4150     0.0000     0.0000 </r>
       <r>    47.7200     0.0000     0.0000 </r>
       <r>    48.0249     0.0000     0.0000 </r>
       <r>    48.3298     0.0000     0.0000 </r>
       <r>    48.6348     0.0000     0.0000 </r>
       <r>    48.9397     0.0000     0.0000 </r>
       <r>    49.2447     0.0000     0.0000 </r>
       <r>    49.5496     0.0000     0.0000 </r>
       <r>    49.8545     0.0000     0.0000 </r>
       <r>    50.1595     0.0000     0.0000 </r>
       <r>    50.4644     0.0000     0.0000 </r>
       <r>    50.7693     0.0000     0.0000 </r>
       <r>    51.0743     0.0000     0.0000 </r>
       <r>    51.3792     0.0000     0.0000 </r>
       <r>    51.6842     0.0000     0.0000 </r>
       <r>    51.9891     0.0000     0.0000 </r>
       <r>    52.2940     0.0000     0.0000 </r>
       <r>    52.5990     0.0000     0.0000 </r>
       <r>    52.9039     0.0000     0.0000 </r>
       <r>    53.2088     0.0000     0.0000 </r>
       <r>    53.5138     0.0000     0.0000 </r>
       <r>    53.8187     0.0000     0.0000 </r>
       <r>    54.1237     0.0000     0.0000 </r>
       <r>    54.4286     0.0000     0.0000 </r>
       <r>    54.7335     0.0000     0.0000 </r>
       <r>    55.0385     0.0000     0.0000 </r>
       <r>    55.3434     0.0000     0.0000 </r>
       <r>    55.6483     0.0000     0.0000 </r>
       <r>    55.9533     0.0000     0.0000 </r>
       <r>    56.2582     0.0000     0.0000 </r>
       <r>    56.5632     0.0000     0.0000 </r>
      </set>
      <set comment="spin 4">
       <r>   -34.9181     0.0000     0.0000 </r>
       <r>   -34.6131     0.0000     0.0000 </r>
       <r>   -34.3082     0.0000     0.0000 </r>
       <r>   -34.0033     0.0000     0.0000 </r>
       <r>   -33.6983     0.0000     0.0000 </r>
       <r>   -33.3934     0.0000     0.0000 </r>
       <r>   -33.0884     0.0000     0.0000 </r>
       <r>   -32.7835     0.0000     0.0000 </r>
       <r>   -32.4786     0.0000     0.0000 </r>
       <r>   -32.1736     0.0000     0.0000 </r>
       <r>   -31.8687     0.0000     0.0000 </r>
       <r>   -31.5638     0.0000     0.0000 </r>
       <r>   -31.2588     0.0000     0.0000 </r>
       <r>   -30.9539     0.0000     0.0000 </r>
       <r>   -30.6490     0.0000     0.0000 </r>
       <r>   -30.3440     0.0000     0.0000 </r>
       <r>   -30.0391     0.0000     0.0000 </r>
       <r>   -29.7341     0.0000     0.0000 </r>
       <r>   -29.4292     0.0000     0.0000 </r>
       <r>   -29.1243     0.0000     0.0000 </r>
       <r>   -28.8193     0.0000     0.0000 </r>
       <r>   -28.5144     0.0000     0.0000 </r>
       <r>   -28.2095     0.0000     0.0000 </r>
       <r>   -27.9045     0.0000     0.0000 </r>
       <r>   -27.5996     0.0000     0.0000 </r>
       <r>   -27.2946     0.0000     0.0000 </r>
       <r>   -26.9897     0.0000     0.0000 </r>
       <r>   -26.6848     0.0000     0.0000 </r>
       <r>   -26.3798     0.0000     0.0000 </r>
       <r>   -26.0749     0.0000     0.0000 </r>
       <r>   -25.7700     0.0000     0.0000 </r>
       <r>   -25.4650     0.0000     0.0000 </r>
       <r>   -25.1601     0.0000     0.0000 </r>
       <r>   -24.8551     0.0000     0.0000 </r>
       <r>   -24.5502     0.0000     0.0000 </r>
       <r>   -24.2453     0.0000     0.0000 </r>
       <r>   -23.9403     0.0000     0.0000 </r>
       <r>   -23.6354     0.0000     0.0000 </r>
       <r>   -23.3305     0.0000     0.0000 </r>
       <r>   -23.0255     0.0000     0.0000 </r>
       <r>   -22.7206     0.0000     0.0000 </r>
       <r>   -22.4156     0.0000     0.0000 </r>
       <r>   -22.1107     0.0000     0.0000 </r>
       <r>   -21.8058     0.0000     0.0000 </r>
       <r>   -21.5008     0.0000     0.0000 </r>
       <r>   -21.1959     0.0000     0.0000 </r>
       <r>   -20.8910     0.0000     0.0000 </r>
       <r>   -20.5860     0.0000     0.0000 </r>
       <r>   -20.2811     0.0000     0.0000 </r>
       <r>   -19.9761     0.0000     0.0000 </r>
       <r>   -19.6712     0.0000     0.0000 </r>
       <r>   -19.3663     0.0000     0.0000 </r>
       <r>   -19.0613     0.0000     0.0000 </r>
       <r>   -18.7564     0.0000     0.0000 </r>
       <r>   -18.4515     0.0000     0.0000 </r>
       <r>   -18.1465     0.0000     0.0000 </r>
       <r>   -17.8416     0.0000     0.0000 </r>
       <r>   -17.5366     0.0000     0.0000 </r>
       <r>   -17.2317     0.0000     0.0000 </r>
       <r>   -16.9268     0.0000     0.0000 </r>
       <r>   -16.6218     0.0000     0.0000 </r>
       <r>   -16.3169     0.0000     0.0000 </r>
       <r>   -16.0120     0.0000     0.0000 </r>
       <r>   -15.7070     0.0000     0.0000 </r>
       <r>   -15.4021     0.0000     0.0000 </r>
       <r>   -15.0971     0.0000     0.0000 </r>
       <r>   -14.7922     0.0000     0.0000 </r>
       <r>   -14.4873     0.0000     0.0000 </r>
       <r>   -14.1823     0.0000     0.0000 </r>
       <r>   -13.8774     0.0000     0.0000 </r>
       <r>   -13.5725     0.0000     0.0000 </r>
       <r>   -13.2675     0.0000     0.0000 </r>
       <r>   -12.9626     0.0000     0.0000 </r>
       <r>   -12.6576     0.0000     0.0000 </r>
       <r>   -12.3527     0.0000     0.0000 </r>
       <r>   -12.0478     0.0000     0.0000 </r>
       <r>   -11.7428     0.0000     0.0000 </r>
       <r>   -11.4379     0.0000     0.0000 </r>
       <r>   -11.1330     0.0000     0.0000 </r>
       <r>   -10.8280     0.0000     0.0000 </r>
       <r>   -10.5231     0.0000     0.0000 </r>
       <r>   -10.2181     0.0000     0.0000 </r>
       <r>    -9.9132     0.0000     0.0000 </r>
       <r>    -9.6083     0.0000     0.0000 </r>
       <r>    -9.3033     0.0000     0.0000 </r>
       <r>    -8.9984     0.0000     0.0000 </r>
       <r>    -8.6935     0.0000     0.0000 </r>
       <r>    -8.3885     0.0000     0.0000 </r>
       <r>    -8.0836     0.0000     0.0000 </r>
       <r>    -7.7786     0.0000     0.0000 </r>
       <r>    -7.4737     0.0000     0.0000 </r>
       <r>    -7.1688     0.0000     0.0000 </r>
       <r>    -6.8638     0.0000     0.0000 </r>
       <r>    -6.5589     0.0000     0.0000 </r>
       <r>    -6.2540     0.0000     0.0000 </r>
       <r>    -5.9490     0.0000     0.0000 </r>
       <r>    -5.6441     0.0000     0.0000 </r>
       <r>    -5.3391     0.0000     0.0000 </r>
       <r>    -5.0342     0.0000     0.0000 </r>
       <r>    -4.7293     0.0000     0.0000 </r>
       <r>    -4.4243     0.0000     0.0000 </r>
       <r>    -4.1194     0.0000     0.0000 </r>
       <r>    -3.8145     0.0000     0.0000 </r>
       <r>    -3.5095     0.0000     0.0000 </r>
       <r>    -3.2046     0.0000     0.0000 </r>
       <r>    -2.8996     0.0000     0.0000 </r>
       <r>    -2.5947     0.0000     0.0000 </r>
       <r>    -2.2898     0.0000     0.0000 </r>
       <r>    -1.9848     0.0000     0.0000 </r>
       <r>    -1.6799     0.0000     0.0000 </r>
       <r>    -1.3750     0.0000     0.0000 </r>
       <r>    -1.0700     0.0000     0.0000 </r>
       <r>    -0.7651     0.0000     0.0000 </r>
       <r>    -0.4601     0.0000     0.0000 </r>
       <r>    -0.1552     0.0000     0.0000 </r>
       <r>     0.1497     0.0000     0.0000 </r>
       <r>     0.4547     0.0000     0.0000 </r>
       <r>     0.7596     0.0000     0.0000 </r>
       <r>     1.0645     0.0000     0.0000 </r>
       <r>     1.3695     0.0000     0.0000 </r>
       <r>     1.6744     0.0000     0.0000 </r>
       <r>     1.9794     0.0000     0.0000 </r>
       <r>     2.2843     0.0000     0.0000 </r>
       <r>     2.5892     0.0000     0.0000 </r>
       <r>     2.8942     0.0000     0.0000 </r>
       <r>     3.1991     0.0000     0.0000 </r>
       <r>     3.5040     0.0000     0.0000 </r>
       <r>     3.8090     0.0000     0.0000 </r>
       <r>     4.1139     0.0000     0.0000 </r>
       <r>     4.4189     0.0000     0.0000 </r>
       <r>     4.7238     0.0000     0.0000 </r>
       <r>     5.0287     0.0000     0.0000 </r>
       <r>     5.3337     0.0000     0.0000 </r>
       <r>     5.6386     0.0000     0.0000 </r>
       <r>     5.9435     0.0000     0.0000 </r>
       <r>     6.2485     0.0000     0.0000 </r>
       <r>     6.5534     0.0000     0.0000 </r>
       <r>     6.8584     0.0000     0.0000 </r>
       <r>     7.1633     0.0000     0.0000 </r>
       <r>     7.4682     0.0000     0.0000 </r>
       <r>     7.7732     0.0000     0.0000 </r>
       <r>     8.0781     0.0000     0.0000 </r>
       <r>     8.3830     0.0000     0.0000 </r>
       <r>     8.6880     0.0000     0.0000 </r>
       <r>     8.9929     0.0000     0.0000 </r>
       <r>     9.2979     0.0000     0.0000 </r>
       <r>     9.6028     0.0000     0.0000 </r>
       <r>     9.9077     0.0000     0.0000 </r>
       <r>    10.2127     0.0000     0.0000 </r>
       <r>    10.5176     0.0000     0.0000 </r>
       <r>    10.8225     0.0000     0.0000 </r>
       <r>    11.1275     0.0000     0.0000 </r>
       <r>    11.4324     0.0000     0.0000 </r>
       <r>    11.7374     0.0000     0.0000 </r>
       <r>    12.0423     0.0000     0.0000 </r>
       <r>    12.3472     0.0000     0.0000 </r>
       <r>    12.6522     0.0000     0.0000 </r>
       <r>    12.9571     0.0000     0.0000 </r>
       <r>    13.2620     0.0000     0.0000 </r>
       <r>    13.5670     0.0000     0.0000 </r>
       <r>    13.8719     0.0000     0.0000 </r>
       <r>    14.1769     0.0000     0.0000 </r>
       <r>    14.4818     0.0000     0.0000 </r>
       <r>    14.7867     0.0000     0.0000 </r>
       <r>    15.0917     0.0000     0.0000 </r>
       <r>    15.3966     0.0000     0.0000 </r>
       <r>    15.7015     0.0000     0.0000 </r>
       <r>    16.0065     0.0000     0.0000 </r>
       <r>    16.3114     0.0000     0.0000 </r>
       <r>    16.6164     0.0000     0.0000 </r>
       <r>    16.9213     0.0000     0.0000 </r>
       <r>    17.2262     0.0000     0.0000 </r>
       <r>    17.5312     0.0000     0.0000 </r>
       <r>    17.8361     0.0000     0.0000 </r>
       <r>    18.1410     0.0000     0.0000 </r>
       <r>    18.4460     0.0000     0.0000 </r>
       <r>    18.7509     0.0000     0.0000 </r>
       <r>    19.0559     0.0000     0.0000 </r>
       <r>    19.3608     0.0000     0.0000 </r>
       <r>    19.6657     0.0000     0.0000 </r>
       <r>    19.9707     0.0000     0.0000 </r>
       <r>    20.2756     0.0000     0.0000 </r>
       <r>    20.5805     0.0000     0.0000 </r>
       <r>    20.8855     0.0000     0.0000 </r>
       <r>    21.1904     0.0000     0.0000 </r>
       <r>    21.4954     0.0000     0.0000 </r>
       <r>    21.8003     0.0000     0.0000 </r>
       <r>    22.1052     0.0000     0.0000 </r>
       <r>    22.4102     0.0000     0.0000 </r>
       <r>    22.7151     0.0000     0.0000 </r>
       <r>    23.0200     0.0000     0.0000 </r>
       <r>    23.3250     0.0000     0.0000 </r>
       <r>    23.6299     0.0000     0.0000 </r>
       <r>    23.9348     0.0000     0.0000 </r>
       <r>    24.2398     0.0000     0.0000 </r>
       <r>    24.5447     0.0000     0.0000 </r>
       <r>    24.8497     0.0000     0.0000 </r>
       <r>    25.1546     0.0000     0.0000 </r>
       <r>    25.4595     0.0000     0.0000 </r>
       <r>    25.7645     0.0000     0.0000 </r>
       <r>    26.0694     0.0000     0.0000 </r>
       <r>    26.3743     0.0000     0.0000 </r>
       <r>    26.6793     0.0000     0.0000 </r>
       <r>    26.9842     0.0000     0.0000 </r>
       <r>    27.2892     0.0000     0.0000 </r>
       <r>    27.5941     0.0000     0.0000 </r>
       <r>    27.8990     0.0000     0.0000 </r>
       <r>    28.2040     0.0000     0.0000 </r>
       <r>    28.5089     0.0000     0.0000 </r>
       <r>    28.8138     0.0000     0.0000 </r>
       <r>    29.1188     0.0000     0.0000 </r>
       <r>    29.4237     0.0000     0.0000 </r>
       <r>    29.7287     0.0000     0.0000 </r>
       <r>    30.0336     0.0000     0.0000 </r>
       <r>    30.3385     0.0000     0.0000 </r>
       <r>    30.6435     0.0000     0.0000 </r>
       <r>    30.9484     0.0000     0.0000 </r>
       <r>    31.2533     0.0000     0.0000 </r>
       <r>    31.5583     0.0000     0.0000 </r>
       <r>    31.8632     0.0000     0.0000 </r>
       <r>    32.1682     0.0000     0.0000 </r>
       <r>    32.4731     0.0000     0.0000 </r>
       <r>    32.7780     0.0000     0.0000 </r>
       <r>    33.0830     0.0000     0.0000 </r>
       <r>    33.3879     0.0000     0.0000 </r>
       <r>    33.6928     0.0000     0.0000 </r>
       <r>    33.9978     0.0000     0.0000 </r>
       <r>    34.3027     0.0000     0.0000 </r>
       <r>    34.6077     0.0000     0.0000 </r>
       <r>    34.9126     0.0000     0.0000 </r>
       <r>    35.2175     0.0000     0.0000 </r>
       <r>    35.5225     0.0000     0.0000 </r>
       <r>    35.8274     0.0000     0.0000 </r>
       <r>    36.1323     0.0000     0.0000 </r>
       <r>    36.4373     0.0000     0.0000 </r>
       <r>    36.7422     0.0000     0.0000 </r>
       <r>    37.0472     0.0000     0.0000 </r>
       <r>    37.3521     0.0000     0.0000 </r>
       <r>    37.6570     0.0000     0.0000 </r>
       <r>    37.9620     0.0000     0.0000 </r>
       <r>    38.2669     0.0000     0.0000 </r>
       <r>    38.5718     0.0000     0.0000 </r>
       <r>    38.8768     0.0000     0.0000 </r>
       <r>    39.1817     0.0000     0.0000 </r>
       <r>    39.4867     0.0000     0.0000 </r>
       <r>    39.7916     0.0000     0.0000 </r>
       <r>    40.0965     0.0000     0.0000 </r>
       <r>    40.4015     0.0000     0.0000 </r>
       <r>    40.7064     0.0000     0.0000 </r>
       <r>    41.0113     0.0000     0.0000 </r>
       <r>    41.3163     0.0000     0.0000 </r>
       <r>    41.6212     0.0000     0.0000 </r>
       <r>    41.9262     0.0000     0.0000 </r>
       <r>    42.2311     0.0000     0.0000 </r>
       <r>    42.5360     0.0000     0.0000 </r>
       <r>    42.8410     0.0000     0.0000 </r>
       <r>    43.1459     0.0000     0.0000 </r>
       <r>    43.4508     0.0000     0.0000 </r>
       <r>    43.7558     0.0000     0.0000 </r>
       <r>    44.0607     0.0000     0.0000 </r>
       <r>    44.3657     0.0000     0.0000 </r>
       <r>    44.6706     0.0000     0.0000 </r>
       <r>    44.9755     0.0000     0.0000 </r>
       <r>    45.2805     0.0000     0.0000 </r>
       <r>    45.5854     0.0000     0.0000 </r>
       <r>    45.8903     0.0000     0.0000 </r>
       <r>    46.1953     0.0000     0.0000 </r>
       <r>    46.5002     0.0000     0.0000 </r>
       <r>    46.8052     0.0000     0.0000 </r>
       <r>    47.1101     0.0000     0.0000 </r>
       <r>    47.4150     0.0000     0.0000 </r>
       <r>    47.7200     0.0000     0.0000 </r>
       <r>    48.0249     0.0000     0.0000 </r>
       <r>    48.3298     0.0000     0.0000 </r>
       <r>    48.6348     0.0000     0.0000 </r>
       <r>    48.9397     0.0000     0.0000 </r>
       <r>    49.2447     0.0000     0.0000 </r>
       <r>    49.5496     0.0000     0.0000 </r>
       <r>    49.8545     0.0000     0.0000 </r>
       <r>    50.1595     0.0000     0.0000 </r>
       <r>    50.4644     0.0000     0.0000 </r>
       <r>    50.7693     0.0000     0.0000 </r>
       <r>    51.0743     0.0000     0.0000 </r>
       <r>    51.3792     0.0000     0.0000 </r>
       <r>    51.6842     0.0000     0.0000 </r>
       <r>    51.9891     0.0000     0.0000 </r>
       <r>    52.2940     0.0000     0.0000 </r>
       <r>    52.5990     0.0000     0.0000 </r>
       <r>    52.9039     0.0000     0.0000 </r>
       <r>    53.2088     0.0000     0.0000 </r>
       <r>    53.5138     0.0000     0.0000 </r>
       <r>    53.8187     0.0000     0.0000 </r>
       <r>    54.1237     0.0000     0.0000 </r>
       <r>    54.4286     0.0000     0.0000 </r>
       <r>    54.7335     0.0000     0.0000 </r>
       <r>    55.0385     0.0000     0.0000 </r>
       <r>    55.3434     0.0000     0.0000 </r>
       <r>    55.6483     0.0000     0.0000 </r>
       <r>    55.9533     0.0000     0.0000 </r>
       <r>    56.2582     0.0000     0.0000 </r>
       <r>    56.5632     0.0000     0.0000 </r>
      </set>
     </set>
    </array>
   </total>
  </dos>
 </calculation>
 <structure name="finalpos" >
  <crystal>
   <varray name="basis" >
    <v>       4.39635018       0.00000000       0.00000000 </v>
    <v>       2.19817509       3.80735094      -0.00000000 </v>
    <v>       2.19817509       1.26911698       3.58960489 </v>
   </varray>
   <i name="volume">     60.08441465 </i>
   <varray name="rec_basis" >
    <v>       0.22746141      -0.13132490      -0.09286073 </v>
    <v>       0.00000000       0.26264981      -0.09286073 </v>
    <v>      -0.00000000       0.00000000       0.27858219 </v>
   </varray>
  </crystal>
  <varray name="positions" >
   <v>       0.00000000       0.00000000       0.00000000 </v>
  </varray>
  <varray name="velocities" >
   <v>       0.00000000       0.00000000       0.00000000 </v>
  </varray>
 </structure>
</modeling>
