   1   1   0   0
  0.2224118E+02  0.3156634E-09  0.3156634E-09  0.3156634E-09  0.1000000E-15
  1.000000000000000E-004
  CAR 
 Og_FCC                                  
     27.43686056    -38.51587462  301    -10.98060768      1.00000000
    -38.516  0.0000E+00  0.0000E+00
    -38.296  0.0000E+00  0.0000E+00
    -38.076  0.0000E+00  0.0000E+00
    -37.856  0.0000E+00  0.0000E+00
    -37.637  0.0000E+00  0.0000E+00
    -37.417  0.0000E+00  0.0000E+00
    -37.197  0.0000E+00  0.0000E+00
    -36.977  0.0000E+00  0.0000E+00
    -36.757  0.0000E+00  0.0000E+00
    -36.537  0.0000E+00  0.0000E+00
    -36.317  0.0000E+00  0.0000E+00
    -36.098  0.0000E+00  0.0000E+00
    -35.878  0.0000E+00  0.0000E+00
    -35.658  0.0000E+00  0.0000E+00
    -35.438  0.2019E+01  0.1073E+01
    -35.218  0.0000E+00  0.2000E+01
    -34.998  0.0000E+00  0.2000E+01
    -34.779  0.0000E+00  0.2000E+01
    -34.559  0.0000E+00  0.2000E+01
    -34.339  0.0000E+00  0.2000E+01
    -34.119  0.0000E+00  0.2000E+01
    -33.899  0.0000E+00  0.2000E+01
    -33.679  0.0000E+00  0.2000E+01
    -33.459  0.0000E+00  0.2000E+01
    -33.240  0.0000E+00  0.2000E+01
    -33.020  0.0000E+00  0.2000E+01
    -32.800  0.0000E+00  0.2000E+01
    -32.580  0.0000E+00  0.2000E+01
    -32.360  0.0000E+00  0.2000E+01
    -32.140  0.0000E+00  0.2000E+01
    -31.921  0.0000E+00  0.2000E+01
    -31.701  0.0000E+00  0.2000E+01
    -31.481  0.0000E+00  0.2000E+01
    -31.261  0.0000E+00  0.2000E+01
    -31.041  0.0000E+00  0.2000E+01
    -30.821  0.0000E+00  0.2000E+01
    -30.602  0.0000E+00  0.2000E+01
    -30.382  0.0000E+00  0.2000E+01
    -30.162  0.0000E+00  0.2000E+01
    -29.942  0.0000E+00  0.2000E+01
    -29.722  0.0000E+00  0.2000E+01
    -29.502  0.0000E+00  0.2000E+01
    -29.282  0.0000E+00  0.2000E+01
    -29.063  0.0000E+00  0.2000E+01
    -28.843  0.0000E+00  0.2000E+01
    -28.623  0.0000E+00  0.2000E+01
    -28.403  0.0000E+00  0.2000E+01
    -28.183  0.0000E+00  0.2000E+01
    -27.963  0.0000E+00  0.2000E+01
    -27.744  0.0000E+00  0.2000E+01
    -27.524  0.0000E+00  0.2000E+01
    -27.304  0.0000E+00  0.2000E+01
    -27.084  0.0000E+00  0.2000E+01
    -26.864  0.0000E+00  0.2000E+01
    -26.644  0.0000E+00  0.2000E+01
    -26.425  0.0000E+00  0.2000E+01
    -26.205  0.0000E+00  0.2000E+01
    -25.985  0.0000E+00  0.2000E+01
    -25.765  0.0000E+00  0.2000E+01
    -25.545  0.0000E+00  0.2000E+01
    -25.325  0.0000E+00  0.2000E+01
    -25.105  0.0000E+00  0.2000E+01
    -24.886  0.0000E+00  0.2000E+01
    -24.666  0.0000E+00  0.2000E+01
    -24.446  0.0000E+00  0.2000E+01
    -24.226  0.0000E+00  0.2000E+01
    -24.006  0.0000E+00  0.2000E+01
    -23.786  0.0000E+00  0.2000E+01
    -23.567  0.0000E+00  0.2000E+01
    -23.347  0.0000E+00  0.2000E+01
    -23.127  0.0000E+00  0.2000E+01
    -22.907  0.0000E+00  0.2000E+01
    -22.687  0.0000E+00  0.2000E+01
    -22.467  0.0000E+00  0.2000E+01
    -22.248  0.0000E+00  0.2000E+01
    -22.028  0.0000E+00  0.2000E+01
    -21.808  0.0000E+00  0.2000E+01
    -21.588  0.0000E+00  0.2000E+01
    -21.368  0.0000E+00  0.2000E+01
    -21.148  0.0000E+00  0.2000E+01
    -20.928  0.0000E+00  0.2000E+01
    -20.709  0.0000E+00  0.2000E+01
    -20.489  0.0000E+00  0.2000E+01
    -20.269  0.0000E+00  0.2000E+01
    -20.049  0.0000E+00  0.2000E+01
    -19.829  0.0000E+00  0.2000E+01
    -19.609  0.0000E+00  0.2000E+01
    -19.390  0.0000E+00  0.2000E+01
    -19.170  0.0000E+00  0.2000E+01
    -18.950  0.0000E+00  0.2000E+01
    -18.730  0.0000E+00  0.2000E+01
    -18.510  0.0000E+00  0.2000E+01
    -18.290  0.0000E+00  0.2000E+01
    -18.071  0.0000E+00  0.2000E+01
    -17.851  0.0000E+00  0.2000E+01
    -17.631  0.0000E+00  0.2000E+01
    -17.411  0.0000E+00  0.2000E+01
    -17.191  0.0000E+00  0.2000E+01
    -16.971  0.0000E+00  0.2000E+01
    -16.751  0.0000E+00  0.2000E+01
    -16.532  0.0000E+00  0.2000E+01
    -16.312  0.0000E+00  0.2000E+01
    -16.092  0.0000E+00  0.2000E+01
    -15.872  0.0000E+00  0.2000E+01
    -15.652  0.0000E+00  0.2000E+01
    -15.432  0.0000E+00  0.2000E+01
    -15.213  0.0000E+00  0.2000E+01
    -14.993  0.0000E+00  0.2000E+01
    -14.773  0.0000E+00  0.2000E+01
    -14.553  0.0000E+00  0.2000E+01
    -14.333  0.0000E+00  0.2000E+01
    -14.113  0.0000E+00  0.2000E+01
    -13.894  0.0000E+00  0.2000E+01
    -13.674  0.0000E+00  0.2000E+01
    -13.454  0.0000E+00  0.2000E+01
    -13.234  0.0000E+00  0.2000E+01
    -13.014  0.0000E+00  0.2000E+01
    -12.794  0.0000E+00  0.2000E+01
    -12.574  0.0000E+00  0.2000E+01
    -12.355  0.0000E+00  0.2000E+01
    -12.135  0.0000E+00  0.2000E+01
    -11.915  0.0000E+00  0.2000E+01
    -11.695  0.4264E+00  0.2633E+01
    -11.475  0.5646E+00  0.5394E+01
    -11.255  0.0000E+00  0.7965E+01
    -11.036  0.0000E+00  0.8000E+01
    -10.816  0.0000E+00  0.8000E+01
    -10.596  0.0000E+00  0.8000E+01
    -10.376  0.0000E+00  0.8000E+01
    -10.156  0.0000E+00  0.8000E+01
     -9.936  0.0000E+00  0.8000E+01
     -9.717  0.0000E+00  0.8000E+01
     -9.497  0.0000E+00  0.8000E+01
     -9.277  0.0000E+00  0.8000E+01
     -9.057  0.0000E+00  0.8000E+01
     -8.837  0.0000E+00  0.8000E+01
     -8.617  0.0000E+00  0.8000E+01
     -8.397  0.0000E+00  0.8000E+01
     -8.178  0.0000E+00  0.8000E+01
     -7.958  0.0000E+00  0.8000E+01
     -7.738  0.0000E+00  0.8000E+01
     -7.518  0.0000E+00  0.8000E+01
     -7.298  0.0000E+00  0.8000E+01
     -7.078  0.0000E+00  0.8000E+01
     -6.859  0.0000E+00  0.8000E+01
     -6.639  0.0000E+00  0.8000E+01
     -6.419  0.0000E+00  0.8000E+01
     -6.199  0.0000E+00  0.8000E+01
     -5.979  0.0000E+00  0.8000E+01
     -5.759  0.0000E+00  0.8000E+01
     -5.540  0.0000E+00  0.8000E+01
     -5.320  0.0000E+00  0.8000E+01
     -5.100  0.0000E+00  0.8000E+01
     -4.880  0.0000E+00  0.8000E+01
     -4.660  0.0000E+00  0.8000E+01
     -4.440  0.0000E+00  0.8000E+01
     -4.220  0.0000E+00  0.8000E+01
     -4.001  0.0000E+00  0.8000E+01
     -3.781  0.0000E+00  0.8000E+01
     -3.561  0.0000E+00  0.8000E+01
     -3.341  0.0000E+00  0.8000E+01
     -3.121  0.0000E+00  0.8000E+01
     -2.901  0.0000E+00  0.8000E+01
     -2.682  0.0000E+00  0.8000E+01
     -2.462  0.0000E+00  0.8000E+01
     -2.242  0.0000E+00  0.8000E+01
     -2.022  0.0000E+00  0.8000E+01
     -1.802  0.0000E+00  0.8000E+01
     -1.582  0.0000E+00  0.8000E+01
     -1.363  0.0000E+00  0.8000E+01
     -1.143  0.0000E+00  0.8000E+01
     -0.923  0.0000E+00  0.8000E+01
     -0.703  0.0000E+00  0.8000E+01
     -0.483  0.0000E+00  0.8000E+01
     -0.263  0.0000E+00  0.8000E+01
     -0.043  0.0000E+00  0.8000E+01
      0.176  0.0000E+00  0.8000E+01
      0.396  0.0000E+00  0.8004E+01
      0.616  0.0000E+00  0.8004E+01
      0.836  0.0000E+00  0.8035E+01
      1.056  0.0000E+00  0.8059E+01
      1.276  0.0000E+00  0.8059E+01
      1.495  0.0000E+00  0.8059E+01
      1.715  0.0000E+00  0.8105E+01
      1.935  0.4264E+00  0.8199E+01
      2.155  0.0000E+00  0.8230E+01
      2.375  0.0000E+00  0.8230E+01
      2.595  0.0000E+00  0.8230E+01
      2.815  0.0000E+00  0.8254E+01
      3.034  0.0000E+00  0.8348E+01
      3.254  0.0000E+00  0.8441E+01
      3.474  0.0000E+00  0.8441E+01
      3.694  0.0000E+00  0.8535E+01
      3.914  0.0000E+00  0.8535E+01
      4.134  0.0000E+00  0.8660E+01
      4.353  0.0000E+00  0.8660E+01
      4.573  0.0000E+00  0.8707E+01
      4.793  0.0000E+00  0.8707E+01
      5.013  0.0000E+00  0.8918E+01
      5.233  0.0000E+00  0.9012E+01
      5.453  0.0000E+00  0.9105E+01
      5.672  0.0000E+00  0.9105E+01
      5.892  0.0000E+00  0.9293E+01
      6.112  0.0000E+00  0.9293E+01
      6.332  0.1323E-10  0.9309E+01
      6.552  0.0000E+00  0.9512E+01
      6.772  0.0000E+00  0.9605E+01
      6.992  0.0000E+00  0.9699E+01
      7.211  0.8529E+00  0.9887E+01
      7.431  0.0000E+00  0.9898E+01
      7.651  0.0000E+00  0.1009E+02
      7.871  0.0000E+00  0.1018E+02
      8.091  0.0000E+00  0.1018E+02
      8.311  0.0000E+00  0.1031E+02
      8.530  0.0000E+00  0.1045E+02
      8.750  0.0000E+00  0.1050E+02
      8.970  0.0000E+00  0.1068E+02
      9.190  0.0000E+00  0.1081E+02
      9.410  0.0000E+00  0.1086E+02
      9.630  0.0000E+00  0.1109E+02
      9.849  0.0000E+00  0.1128E+02
     10.069  0.0000E+00  0.1128E+02
     10.289  0.0000E+00  0.1146E+02
     10.509  0.0000E+00  0.1170E+02
     10.729  0.0000E+00  0.1175E+02
     10.949  0.0000E+00  0.1184E+02
     11.169  0.0000E+00  0.1205E+02
     11.388  0.0000E+00  0.1224E+02
     11.608  0.0000E+00  0.1224E+02
     11.828  0.5000E-01  0.1239E+02
     12.048  0.0000E+00  0.1248E+02
     12.268  0.0000E+00  0.1261E+02
     12.488  0.0000E+00  0.1273E+02
     12.707  0.0000E+00  0.1294E+02
     12.927  0.0000E+00  0.1294E+02
     13.147  0.0000E+00  0.1303E+02
     13.367  0.0000E+00  0.1312E+02
     13.587  0.0000E+00  0.1322E+02
     13.807  0.0000E+00  0.1324E+02
     14.026  0.0000E+00  0.1352E+02
     14.246  0.0000E+00  0.1352E+02
     14.466  0.0000E+00  0.1362E+02
     14.686  0.0000E+00  0.1392E+02
     14.906  0.0000E+00  0.1402E+02
     15.126  0.0000E+00  0.1402E+02
     15.346  0.0000E+00  0.1411E+02
     15.565  0.0000E+00  0.1423E+02
     15.785  0.3243E-01  0.1438E+02
     16.005  0.0000E+00  0.1480E+02
     16.225  0.0000E+00  0.1498E+02
     16.445  0.1149E+00  0.1510E+02
     16.665  0.1783E-09  0.1527E+02
     16.884  0.0000E+00  0.1555E+02
     17.104  0.0000E+00  0.1577E+02
     17.324  0.7400E-05  0.1597E+02
     17.544  0.1066E+00  0.1611E+02
     17.764  0.0000E+00  0.1616E+02
     17.984  0.0000E+00  0.1631E+02
     18.203  0.0000E+00  0.1631E+02
     18.423  0.0000E+00  0.1656E+02
     18.643  0.0000E+00  0.1657E+02
     18.863  0.0000E+00  0.1676E+02
     19.083  0.0000E+00  0.1680E+02
     19.303  0.0000E+00  0.1711E+02
     19.523  0.0000E+00  0.1716E+02
     19.742  0.0000E+00  0.1729E+02
     19.962  0.8529E+00  0.1753E+02
     20.182  0.0000E+00  0.1758E+02
     20.402  0.0000E+00  0.1768E+02
     20.622  0.0000E+00  0.1786E+02
     20.842  0.0000E+00  0.1798E+02
     21.061  0.0000E+00  0.1801E+02
     21.281  0.0000E+00  0.1811E+02
     21.501  0.1864E-01  0.1820E+02
     21.721  0.0000E+00  0.1834E+02
     21.941  0.0000E+00  0.1846E+02
     22.161  0.0000E+00  0.1865E+02
     22.380  0.0000E+00  0.1896E+02
     22.600  0.0000E+00  0.1925E+02
     22.820  0.0000E+00  0.1936E+02
     23.040  0.0000E+00  0.1937E+02
     23.260  0.0000E+00  0.1946E+02
     23.480  0.0000E+00  0.1955E+02
     23.700  0.0000E+00  0.1955E+02
     23.919  0.0000E+00  0.1958E+02
     24.139  0.0000E+00  0.1991E+02
     24.359  0.0000E+00  0.1991E+02
     24.579  0.0000E+00  0.2000E+02
     24.799  0.0000E+00  0.2000E+02
     25.019  0.0000E+00  0.2000E+02
     25.238  0.0000E+00  0.2000E+02
     25.458  0.0000E+00  0.2000E+02
     25.678  0.0000E+00  0.2000E+02
     25.898  0.0000E+00  0.2000E+02
     26.118  0.0000E+00  0.2000E+02
     26.338  0.0000E+00  0.2000E+02
     26.557  0.0000E+00  0.2000E+02
     26.777  0.0000E+00  0.2000E+02
     26.997  0.0000E+00  0.2000E+02
     27.217  0.0000E+00  0.2000E+02
     27.437  0.0000E+00  0.2000E+02
