    1    1    1    1
  0.2224118E+02  0.3156634E-09  0.3156634E-09  0.3156634E-09  0.1000000E-15
  1.000000000000000E-004
  CAR 
 Og_FCC                                  
      8    512     20
 
  0.0000000E+00  0.0000000E+00  0.0000000E+00  0.1953125E-02
    1      -35.508079   1.000000
    2      -35.508078   1.000000
    3      -11.215876   1.000000
    4      -11.215876   1.000000
    5      -11.121106   1.000000
    6      -11.121105   1.000000
    7      -11.121105   1.000000
    8      -11.121104   1.000000
    9        0.387995   0.000000
   10        0.387997   0.000000
   11       18.451020   0.000000
   12       18.451021   0.000000
   13       18.451062   0.000000
   14       18.451063   0.000000
   15       18.451228   0.000000
   16       18.451229   0.000000
   17       20.333094   0.000000
   18       20.333100   0.000000
   19       22.934345   0.000000
   20       22.937063   0.000000
 
  0.1250000E+00  0.1387779E-16  0.0000000E+00  0.1953125E-02
    1      -35.518023   1.000000
    2      -35.518022   1.000000
    3      -11.513585   1.000000
    4      -11.513585   1.000000
    5      -11.414072   1.000000
    6      -11.414071   1.000000
    7      -11.378851   1.000000
    8      -11.378850   1.000000
    9        0.823035   0.000000
   10        0.823038   0.000000
   11       15.547818   0.000000
   12       15.547821   0.000000
   13       18.319389   0.000000
   14       18.319390   0.000000
   15       18.320545   0.000000
   16       18.320546   0.000000
   17       20.893125   0.000000
   18       20.893130   0.000000
   19       22.231334   0.000000
   20       22.231800   0.000000
 
  0.2500000E+00  0.2775558E-16  0.0000000E+00  0.1953125E-02
    1      -35.496548   1.000000
    2      -35.496547   1.000000
    3      -11.847232   1.000000
    4      -11.847231   1.000000
    5      -11.476609   1.000000
    6      -11.476608   1.000000
    7      -11.417113   1.000000
    8      -11.417113   1.000000
    9        2.047741   0.000000
   10        2.047743   0.000000
   11       12.071125   0.000000
   12       12.071128   0.000000
   13       17.857672   0.000000
   14       17.857673   0.000000
   15       17.859287   0.000000
   16       17.859288   0.000000
   17       19.725327   0.000000
   18       19.725332   0.000000
   19       21.749073   0.000000
   20       21.750391   0.000000
 
  0.3750000E+00  0.0000000E+00  0.0000000E+00  0.1953125E-02
    1      -35.455925   1.000000
    2      -35.455924   1.000000
    3      -11.665513   1.000000
    4      -11.665512   1.000000
    5      -11.434590   1.000000
    6      -11.434590   1.000000
    7      -11.378401   1.000000
    8      -11.378401   1.000000
    9        3.985753   0.000000
   10        3.985756   0.000000
   11        9.024154   0.000000
   12        9.024157   0.000000
   13       17.312557   0.000000
   14       17.312558   0.000000
   15       17.312944   0.000000
   16       17.312945   0.000000
   17       19.165594   0.000000
   18       19.165599   0.000000
   19       21.801742   0.000000
   20       21.805108   0.000000
 
  0.5000000E+00  0.5551115E-16  0.0000000E+00  0.1953125E-02
    1      -35.453689   1.000000
    2      -35.453688   1.000000
    3      -11.723624   1.000000
    4      -11.723624   1.000000
    5      -11.565040   1.000000
    6      -11.565040   1.000000
    7      -11.512096   1.000000
    8      -11.512096   1.000000
    9        6.286502   0.000000
   10        6.286506   0.000000
   11        6.336384   0.000000
   12        6.336386   0.000000
   13       17.077726   0.000000
   14       17.077726   0.000000
   15       17.077893   0.000000
   16       17.077894   0.000000
   17       19.053704   0.000000
   18       19.053709   0.000000
   19       21.807658   0.000000
   20       21.808502   0.000000
 
 -0.3750000E+00  0.0000000E+00  0.0000000E+00  0.1953125E-02
    1      -35.455925   1.000000
    2      -35.455924   1.000000
    3      -11.665513   1.000000
    4      -11.665512   1.000000
    5      -11.434590   1.000000
    6      -11.434590   1.000000
    7      -11.378401   1.000000
    8      -11.378401   1.000000
    9        3.985753   0.000000
   10        3.985756   0.000000
   11        9.024154   0.000000
   12        9.024157   0.000000
   13       17.312557   0.000000
   14       17.312558   0.000000
   15       17.312944   0.000000
   16       17.312945   0.000000
   17       19.165594   0.000000
   18       19.165599   0.000000
   19       21.803291   0.000000
   20       21.805072   0.000000
 
 -0.2500000E+00 -0.2775558E-16  0.0000000E+00  0.1953125E-02
    1      -35.496548   1.000000
    2      -35.496547   1.000000
    3      -11.847232   1.000000
    4      -11.847231   1.000000
    5      -11.476609   1.000000
    6      -11.476608   1.000000
    7      -11.417113   1.000000
    8      -11.417113   1.000000
    9        2.047741   0.000000
   10        2.047743   0.000000
   11       12.071125   0.000000
   12       12.071128   0.000000
   13       17.857672   0.000000
   14       17.857673   0.000000
   15       17.859287   0.000000
   16       17.859288   0.000000
   17       19.725327   0.000000
   18       19.725332   0.000000
   19       21.748451   0.000000
   20       21.750363   0.000000
 
 -0.1250000E+00 -0.1387779E-16  0.0000000E+00  0.1953125E-02
    1      -35.518023   1.000000
    2      -35.518022   1.000000
    3      -11.513585   1.000000
    4      -11.513585   1.000000
    5      -11.414072   1.000000
    6      -11.414071   1.000000
    7      -11.378851   1.000000
    8      -11.378850   1.000000
    9        0.823035   0.000000
   10        0.823038   0.000000
   11       15.547818   0.000000
   12       15.547821   0.000000
   13       18.319389   0.000000
   14       18.319390   0.000000
   15       18.320545   0.000000
   16       18.320546   0.000000
   17       20.893125   0.000000
   18       20.893130   0.000000
   19       22.231618   0.000000
   20       22.231679   0.000000
 
  0.0000000E+00  0.1250000E+00  0.0000000E+00  0.1953125E-02
    1      -35.518023   1.000000
    2      -35.518022   1.000000
    3      -11.513585   1.000000
    4      -11.513585   1.000000
    5      -11.414072   1.000000
    6      -11.414072   1.000000
    7      -11.378851   1.000000
    8      -11.378851   1.000000
    9        0.823036   0.000000
   10        0.823038   0.000000
   11       15.547825   0.000000
   12       15.547828   0.000000
   13       18.319382   0.000000
   14       18.319383   0.000000
   15       18.320538   0.000000
   16       18.320539   0.000000
   17       20.893197   0.000000
   18       20.893202   0.000000
   19       22.231466   0.000000
   20       22.231613   0.000000
 
  0.1250000E+00  0.1250000E+00 -0.2775558E-16  0.1953125E-02
    1      -35.506189   1.000000
    2      -35.506188   1.000000
    3      -11.513387   1.000000
    4      -11.513386   1.000000
    5      -11.318863   1.000000
    6      -11.318862   1.000000
    7      -11.266120   1.000000
    8      -11.266119   1.000000
    9        0.963510   0.000000
   10        0.963512   0.000000
   11       15.985361   0.000000
   12       15.985365   0.000000
   13       17.535631   0.000000
   14       17.535632   0.000000
   15       17.539574   0.000000
   16       17.539575   0.000000
   17       19.043892   0.000000
   18       19.043895   0.000000
   19       23.736653   0.000000
   20       23.736662   0.000000
 
  0.2500000E+00  0.1250000E+00  0.0000000E+00  0.1953125E-02
    1      -35.493170   1.000000
    2      -35.493169   1.000000
    3      -11.716747   1.000000
    4      -11.716747   1.000000
    5      -11.470436   1.000000
    6      -11.470436   1.000000
    7      -11.412967   1.000000
    8      -11.412966   1.000000
    9        1.929734   0.000000
   10        1.929737   0.000000
   11       13.295088   0.000000
   12       13.295091   0.000000
   13       16.382653   0.000000
   14       16.382656   0.000000
   15       16.979962   0.000000
   16       16.979963   0.000000
   17       18.775065   0.000000
   18       18.775067   0.000000
   19       23.148722   0.000000
   20       23.148725   0.000000
 
  0.3750000E+00  0.1250000E+00 -0.5551115E-16  0.1953125E-02
    1      -35.463223   1.000000
    2      -35.463222   1.000000
    3      -11.670208   1.000000
    4      -11.670208   1.000000
    5      -11.524575   1.000000
    6      -11.524574   1.000000
    7      -11.472119   1.000000
    8      -11.472118   1.000000
    9        3.610275   0.000000
   10        3.610278   0.000000
   11       10.208626   0.000000
   12       10.208629   0.000000
   13       15.256421   0.000000
   14       15.256424   0.000000
   15       16.668915   0.000000
   16       16.668916   0.000000
   17       19.255722   0.000000
   18       19.255724   0.000000
   19       22.737612   0.000000
   20       22.737615   0.000000
 
  0.5000000E+00  0.1250000E+00 -0.2775558E-16  0.1953125E-02
    1      -35.438530   1.000000
    2      -35.438529   1.000000
    3      -11.641362   1.000000
    4      -11.641361   1.000000
    5      -11.460931   1.000000
    6      -11.460930   1.000000
    7      -11.322370   1.000000
    8      -11.322369   1.000000
    9        5.790845   0.000000
   10        5.790848   0.000000
   11        7.452651   0.000000
   12        7.452654   0.000000
   13       14.608897   0.000000
   14       14.608899   0.000000
   15       16.693755   0.000000
   16       16.693756   0.000000
   17       19.613679   0.000000
   18       19.613682   0.000000
   19       22.436264   0.000000
   20       22.436268   0.000000
 
 -0.3750000E+00  0.1250000E+00  0.2775558E-16  0.1953125E-02
    1      -35.441123   1.000000
    2      -35.441122   1.000000
    3      -11.658958   1.000000
    4      -11.658957   1.000000
    5      -11.390059   1.000000
    6      -11.390058   1.000000
    7      -11.329340   1.000000
    8      -11.329340   1.000000
    9        5.024025   0.000000
   10        5.024027   0.000000
   11        8.337576   0.000000
   12        8.337578   0.000000
   13       14.351939   0.000000
   14       14.351942   0.000000
   15       17.185066   0.000000
   16       17.185067   0.000000
   17       20.332722   0.000000
   18       20.332725   0.000000
   19       22.002960   0.000000
   20       22.002961   0.000000
 
 -0.2500000E+00  0.1250000E+00 -0.6938894E-17  0.1953125E-02
    1      -35.466332   1.000000
    2      -35.466331   1.000000
    3      -11.646571   1.000000
    4      -11.646570   1.000000
    5      -11.411180   1.000000
    6      -11.411179   1.000000
    7      -11.340924   1.000000
    8      -11.340924   1.000000
    9        2.996788   0.000000
   10        2.996790   0.000000
   11       11.209023   0.000000
   12       11.209026   0.000000
   13       14.599819   0.000000
   14       14.599821   0.000000
   15       18.237750   0.000000
   16       18.237751   0.000000
   17       20.768029   0.000000
   18       20.768030   0.000000
   19       21.156895   0.000000
   20       21.156899   0.000000
 
 -0.1250000E+00  0.1250000E+00  0.7435691E-18  0.1953125E-02
    1      -35.503970   1.000000
    2      -35.503969   1.000000
    3      -11.667514   1.000000
    4      -11.667513   1.000000
    5      -11.488471   1.000000
    6      -11.488471   1.000000
    7      -11.416180   1.000000
    8      -11.416180   1.000000
    9        1.520727   0.000000
   10        1.520729   0.000000
   11       13.992306   0.000000
   12       13.992309   0.000000
   13       15.804781   0.000000
   14       15.804783   0.000000
   15       19.376072   0.000000
   16       19.376073   0.000000
   17       20.004771   0.000000
   18       20.004772   0.000000
   19       21.682894   0.000000
   20       21.682897   0.000000
 
  0.0000000E+00  0.2500000E+00  0.0000000E+00  0.1953125E-02
    1      -35.496548   1.000000
    2      -35.496547   1.000000
    3      -11.847232   1.000000
    4      -11.847231   1.000000
    5      -11.476609   1.000000
    6      -11.476609   1.000000
    7      -11.417114   1.000000
    8      -11.417113   1.000000
    9        2.047743   0.000000
   10        2.047745   0.000000
   11       12.071132   0.000000
   12       12.071135   0.000000
   13       17.857662   0.000000
   14       17.857663   0.000000
   15       17.859278   0.000000
   16       17.859279   0.000000
   17       19.725402   0.000000
   18       19.725407   0.000000
   19       21.748145   0.000000
   20       21.749974   0.000000
 
  0.1250000E+00  0.2500000E+00  0.1387779E-16  0.1953125E-02
    1      -35.493170   1.000000
    2      -35.493169   1.000000
    3      -11.716747   1.000000
    4      -11.716746   1.000000
    5      -11.470437   1.000000
    6      -11.470436   1.000000
    7      -11.412967   1.000000
    8      -11.412966   1.000000
    9        1.929735   0.000000
   10        1.929738   0.000000
   11       13.295096   0.000000
   12       13.295099   0.000000
   13       16.382669   0.000000
   14       16.382672   0.000000
   15       16.979969   0.000000
   16       16.979970   0.000000
   17       18.775015   0.000000
   18       18.775017   0.000000
   19       23.148772   0.000000
   20       23.148775   0.000000
 
  0.2500000E+00  0.2500000E+00 -0.5551115E-16  0.1953125E-02
    1      -35.456323   1.000000
    2      -35.456322   1.000000
    3      -11.437502   1.000000
    4      -11.437501   1.000000
    5      -11.274668   1.000000
    6      -11.274667   1.000000
    7      -11.224528   1.000000
    8      -11.224528   1.000000
    9        2.634058   0.000000
   10        2.634061   0.000000
   11       13.689915   0.000000
   12       13.689919   0.000000
   13       14.666698   0.000000
   14       14.666701   0.000000
   15       16.437511   0.000000
   16       16.437512   0.000000
   17       16.445747   0.000000
   18       16.445748   0.000000
   19       22.631218   0.000000
   20       22.631218   0.000000
 
  0.3750000E+00  0.2500000E+00  0.0000000E+00  0.1953125E-02
    1      -35.444717   1.000000
    2      -35.444716   1.000000
    3      -11.548634   1.000000
    4      -11.548633   1.000000
    5      -11.442556   1.000000
    6      -11.442556   1.000000
    7      -11.398395   1.000000
    8      -11.398394   1.000000
    9        3.979373   0.000000
   10        3.979375   0.000000
   11       11.617791   0.000000
   12       11.617794   0.000000
   13       12.973843   0.000000
   14       12.973846   0.000000
   15       16.091792   0.000000
   16       16.091793   0.000000
   17       16.864386   0.000000
   18       16.864388   0.000000
   19       22.520178   0.000000
   20       22.520179   0.000000
 
  0.5000000E+00  0.2500000E+00  0.0000000E+00  0.1953125E-02
    1      -35.434059   1.000000
    2      -35.434058   1.000000
    3      -11.658762   1.000000
    4      -11.658761   1.000000
    5      -11.522063   1.000000
    6      -11.522063   1.000000
    7      -11.470935   1.000000
    8      -11.470935   1.000000
    9        5.854498   0.000000
   10        5.854501   0.000000
   11        8.995912   0.000000
   12        8.995915   0.000000
   13       11.983479   0.000000
   14       11.983482   0.000000
   15       16.070678   0.000000
   16       16.070679   0.000000
   17       17.327059   0.000000
   18       17.327062   0.000000
   19       24.438976   0.000000
   20       24.438977   0.000000
 
 -0.3750000E+00  0.2500000E+00  0.3469447E-16  0.1953125E-02
    1      -35.429842   1.000000
    2      -35.429841   1.000000
    3      -11.706705   1.000000
    4      -11.706704   1.000000
    5      -11.492716   1.000000
    6      -11.492715   1.000000
    7      -11.366278   1.000000
    8      -11.366277   1.000000
    9        6.515366   0.000000
   10        6.515369   0.000000
   11        8.290893   0.000000
   12        8.290895   0.000000
   13       11.331330   0.000000
   14       11.331332   0.000000
   15       16.475400   0.000000
   16       16.475402   0.000000
   17       18.242956   0.000000
   18       18.242959   0.000000
   19       23.985856   0.000000
   20       23.985857   0.000000
 
 -0.2500000E+00  0.2500000E+00  0.1487138E-17  0.1953125E-02
    1      -35.449102   1.000000
    2      -35.449101   1.000000
    3      -11.658870   1.000000
    4      -11.658870   1.000000
    5      -11.581959   1.000000
    6      -11.581958   1.000000
    7      -11.407857   1.000000
    8      -11.407856   1.000000
    9        4.547174   0.000000
   10        4.547177   0.000000
   11       10.480393   0.000000
   12       10.480396   0.000000
   13       11.649033   0.000000
   14       11.649035   0.000000
   15       17.270670   0.000000
   16       17.270671   0.000000
   17       19.786623   0.000000
   18       19.786626   0.000000
   19       22.150739   0.000000
   20       22.150740   0.000000
 
 -0.1250000E+00  0.2500000E+00  0.6938894E-17  0.1953125E-02
    1      -35.466332   1.000000
    2      -35.466331   1.000000
    3      -11.646571   1.000000
    4      -11.646570   1.000000
    5      -11.411180   1.000000
    6      -11.411179   1.000000
    7      -11.340925   1.000000
    8      -11.340924   1.000000
    9        2.996789   0.000000
   10        2.996791   0.000000
   11       11.209028   0.000000
   12       11.209030   0.000000
   13       14.599812   0.000000
   14       14.599814   0.000000
   15       18.237771   0.000000
   16       18.237773   0.000000
   17       20.767999   0.000000
   18       20.768000   0.000000
   19       21.156909   0.000000
   20       21.156913   0.000000
 
  0.0000000E+00  0.3750000E+00  0.2775558E-16  0.1953125E-02
    1      -35.455925   1.000000
    2      -35.455924   1.000000
    3      -11.665513   1.000000
    4      -11.665512   1.000000
    5      -11.434590   1.000000
    6      -11.434590   1.000000
    7      -11.378402   1.000000
    8      -11.378401   1.000000
    9        3.985755   0.000000
   10        3.985758   0.000000
   11        9.024160   0.000000
   12        9.024162   0.000000
   13       17.312545   0.000000
   14       17.312546   0.000000
   15       17.312932   0.000000
   16       17.312933   0.000000
   17       19.165668   0.000000
   18       19.165674   0.000000
   19       21.801881   0.000000
   20       21.807432   0.000000
 
  0.1250000E+00  0.3750000E+00  0.0000000E+00  0.1953125E-02
    1      -35.463223   1.000000
    2      -35.463222   1.000000
    3      -11.670208   1.000000
    4      -11.670208   1.000000
    5      -11.524575   1.000000
    6      -11.524575   1.000000
    7      -11.472119   1.000000
    8      -11.472118   1.000000
    9        3.610275   0.000000
   10        3.610278   0.000000
   11       10.208637   0.000000
   12       10.208640   0.000000
   13       15.256418   0.000000
   14       15.256420   0.000000
   15       16.668929   0.000000
   16       16.668930   0.000000
   17       19.255687   0.000000
   18       19.255689   0.000000
   19       22.737654   0.000000
   20       22.737658   0.000000
 
  0.2500000E+00  0.3750000E+00  0.5551115E-16  0.1953125E-02
    1      -35.444717   1.000000
    2      -35.444716   1.000000
    3      -11.548634   1.000000
    4      -11.548633   1.000000
    5      -11.442556   1.000000
    6      -11.442556   1.000000
    7      -11.398395   1.000000
    8      -11.398394   1.000000
    9        3.979372   0.000000
   10        3.979374   0.000000
   11       11.617813   0.000000
   12       11.617816   0.000000
   13       12.973838   0.000000
   14       12.973841   0.000000
   15       16.091797   0.000000
   16       16.091798   0.000000
   17       16.864355   0.000000
   18       16.864357   0.000000
   19       22.520189   0.000000
   20       22.520190   0.000000
 
  0.3750000E+00  0.3750000E+00 -0.5551115E-16  0.1953125E-02
    1      -35.427493   1.000000
    2      -35.427492   1.000000
    3      -11.580113   1.000000
    4      -11.580113   1.000000
    5      -11.408800   1.000000
    6      -11.408799   1.000000
    7      -11.357636   1.000000
    8      -11.357635   1.000000
    9        4.972483   0.000000
   10        4.972485   0.000000
   11       10.966880   0.000000
   12       10.966883   0.000000
   13       12.290809   0.000000
   14       12.290813   0.000000
   15       15.774070   0.000000
   16       15.774071   0.000000
   17       15.785576   0.000000
   18       15.785577   0.000000
   19       20.708756   0.000000
   20       20.708757   0.000000
 
  0.5000000E+00  0.3750000E+00  0.5551115E-16  0.1953125E-02
    1      -35.421474   1.000000
    2      -35.421473   1.000000
    3      -11.702351   1.000000
    4      -11.702351   1.000000
    5      -11.535320   1.000000
    6      -11.535319   1.000000
    7      -11.348897   1.000000
    8      -11.348896   1.000000
    9        6.479260   0.000000
   10        6.479263   0.000000
   11        9.426796   0.000000
   12        9.426799   0.000000
   13       11.121460   0.000000
   14       11.121463   0.000000
   15       15.723792   0.000000
   16       15.723793   0.000000
   17       15.861393   0.000000
   18       15.861395   0.000000
   19       21.385448   0.000000
   20       21.385448   0.000000
 
 -0.3750000E+00  0.3750000E+00  0.6360687E-16  0.1953125E-02
    1      -35.428017   1.000000
    2      -35.428016   1.000000
    3      -11.803990   1.000000
    4      -11.803989   1.000000
    5      -11.614041   1.000000
    6      -11.614040   1.000000
    7      -11.449490   1.000000
    8      -11.449490   1.000000
    9        7.790943   0.000000
   10        7.790947   0.000000
   11        8.672567   0.000000
   12        8.672570   0.000000
   13        9.557193   0.000000
   14        9.557196   0.000000
   15       15.909471   0.000000
   16       15.909472   0.000000
   17       16.595698   0.000000
   18       16.595700   0.000000
   19       24.079758   0.000000
   20       24.079759   0.000000
 
 -0.2500000E+00  0.3750000E+00  0.0000000E+00  0.1953125E-02
    1      -35.429842   1.000000
    2      -35.429841   1.000000
    3      -11.706705   1.000000
    4      -11.706704   1.000000
    5      -11.492716   1.000000
    6      -11.492715   1.000000
    7      -11.366278   1.000000
    8      -11.366277   1.000000
    9        6.515359   0.000000
   10        6.515362   0.000000
   11        8.290912   0.000000
   12        8.290914   0.000000
   13       11.331319   0.000000
   14       11.331321   0.000000
   15       16.475407   0.000000
   16       16.475408   0.000000
   17       18.242951   0.000000
   18       18.242953   0.000000
   19       23.985837   0.000000
   20       23.985838   0.000000
 
 -0.1250000E+00  0.3750000E+00  0.1387779E-16  0.1953125E-02
    1      -35.441123   1.000000
    2      -35.441122   1.000000
    3      -11.658958   1.000000
    4      -11.658957   1.000000
    5      -11.390059   1.000000
    6      -11.390058   1.000000
    7      -11.329341   1.000000
    8      -11.329340   1.000000
    9        5.024026   0.000000
   10        5.024029   0.000000
   11        8.337582   0.000000
   12        8.337584   0.000000
   13       14.351929   0.000000
   14       14.351932   0.000000
   15       17.185085   0.000000
   16       17.185086   0.000000
   17       20.332722   0.000000
   18       20.332725   0.000000
   19       22.002924   0.000000
   20       22.002925   0.000000
 
  0.0000000E+00  0.5000000E+00  0.0000000E+00  0.1953125E-02
    1      -35.453689   1.000000
    2      -35.453688   1.000000
    3      -11.723625   1.000000
    4      -11.723624   1.000000
    5      -11.565041   1.000000
    6      -11.565040   1.000000
    7      -11.512097   1.000000
    8      -11.512096   1.000000
    9        6.286464   0.000000
   10        6.286467   0.000000
   11        6.336430   0.000000
   12        6.336433   0.000000
   13       17.077712   0.000000
   14       17.077713   0.000000
   15       17.077879   0.000000
   16       17.077880   0.000000
   17       19.053778   0.000000
   18       19.053784   0.000000
   19       21.806859   0.000000
   20       21.808534   0.000000
 
  0.1250000E+00  0.5000000E+00  0.8326673E-16  0.1953125E-02
    1      -35.438530   1.000000
    2      -35.438529   1.000000
    3      -11.641362   1.000000
    4      -11.641361   1.000000
    5      -11.460931   1.000000
    6      -11.460930   1.000000
    7      -11.322370   1.000000
    8      -11.322369   1.000000
    9        5.790842   0.000000
   10        5.790845   0.000000
   11        7.452665   0.000000
   12        7.452668   0.000000
   13       14.608886   0.000000
   14       14.608888   0.000000
   15       16.693772   0.000000
   16       16.693773   0.000000
   17       19.613666   0.000000
   18       19.613669   0.000000
   19       22.436286   0.000000
   20       22.436289   0.000000
 
  0.2500000E+00  0.5000000E+00  0.2775558E-16  0.1953125E-02
    1      -35.434059   1.000000
    2      -35.434058   1.000000
    3      -11.658762   1.000000
    4      -11.658761   1.000000
    5      -11.522063   1.000000
    6      -11.522063   1.000000
    7      -11.470936   1.000000
    8      -11.470935   1.000000
    9        5.854492   0.000000
   10        5.854495   0.000000
   11        8.995939   0.000000
   12        8.995942   0.000000
   13       11.983465   0.000000
   14       11.983468   0.000000
   15       16.070685   0.000000
   16       16.070686   0.000000
   17       17.327043   0.000000
   18       17.327045   0.000000
   19       24.438984   0.000000
   20       24.438984   0.000000
 
  0.3750000E+00  0.5000000E+00  0.0000000E+00  0.1953125E-02
    1      -35.421474   1.000000
    2      -35.421473   1.000000
    3      -11.702352   1.000000
    4      -11.702351   1.000000
    5      -11.535321   1.000000
    6      -11.535320   1.000000
    7      -11.348897   1.000000
    8      -11.348896   1.000000
    9        6.479255   0.000000
   10        6.479258   0.000000
   11        9.426817   0.000000
   12        9.426820   0.000000
   13       11.121450   0.000000
   14       11.121454   0.000000
   15       15.723793   0.000000
   16       15.723794   0.000000
   17       15.861382   0.000000
   18       15.861385   0.000000
   19       21.385450   0.000000
   20       21.385450   0.000000
 
  0.5000000E+00  0.5000000E+00 -0.1110223E-15  0.1953125E-02
    1      -35.410185   1.000000
    2      -35.410184   1.000000
    3      -11.691899   1.000000
    4      -11.691899   1.000000
    5      -11.321105   1.000000
    6      -11.321104   1.000000
    7      -11.265034   1.000000
    8      -11.265034   1.000000
    9        7.322649   0.000000
   10        7.322652   0.000000
   11        8.227362   0.000000
   12        8.227365   0.000000
   13       11.826949   0.000000
   14       11.826953   0.000000
   15       15.612065   0.000000
   16       15.612066   0.000000
   17       15.624622   0.000000
   18       15.624623   0.000000
   19       19.907987   0.000000
   20       19.907987   0.000000
 
 -0.3750000E+00  0.5000000E+00  0.6938894E-16  0.1953125E-02
    1      -35.421474   1.000000
    2      -35.421473   1.000000
    3      -11.702352   1.000000
    4      -11.702351   1.000000
    5      -11.535321   1.000000
    6      -11.535320   1.000000
    7      -11.348897   1.000000
    8      -11.348896   1.000000
    9        6.479255   0.000000
   10        6.479258   0.000000
   11        9.426817   0.000000
   12        9.426820   0.000000
   13       11.121450   0.000000
   14       11.121454   0.000000
   15       15.723793   0.000000
   16       15.723794   0.000000
   17       15.861382   0.000000
   18       15.861385   0.000000
   19       21.385450   0.000000
   20       21.385450   0.000000
 
 -0.2500000E+00  0.5000000E+00  0.1387779E-16  0.1953125E-02
    1      -35.434059   1.000000
    2      -35.434058   1.000000
    3      -11.658762   1.000000
    4      -11.658761   1.000000
    5      -11.522063   1.000000
    6      -11.522063   1.000000
    7      -11.470936   1.000000
    8      -11.470935   1.000000
    9        5.854492   0.000000
   10        5.854495   0.000000
   11        8.995939   0.000000
   12        8.995942   0.000000
   13       11.983465   0.000000
   14       11.983468   0.000000
   15       16.070685   0.000000
   16       16.070686   0.000000
   17       17.327043   0.000000
   18       17.327045   0.000000
   19       24.438984   0.000000
   20       24.438984   0.000000
 
 -0.1250000E+00  0.5000000E+00  0.2775558E-16  0.1953125E-02
    1      -35.438530   1.000000
    2      -35.438529   1.000000
    3      -11.641362   1.000000
    4      -11.641361   1.000000
    5      -11.460931   1.000000
    6      -11.460930   1.000000
    7      -11.322370   1.000000
    8      -11.322369   1.000000
    9        5.790842   0.000000
   10        5.790845   0.000000
   11        7.452665   0.000000
   12        7.452668   0.000000
   13       14.608886   0.000000
   14       14.608888   0.000000
   15       16.693772   0.000000
   16       16.693773   0.000000
   17       19.613666   0.000000
   18       19.613669   0.000000
   19       22.436286   0.000000
   20       22.436290   0.000000
 
  0.0000000E+00 -0.3750000E+00 -0.2775558E-16  0.1953125E-02
    1      -35.455925   1.000000
    2      -35.455924   1.000000
    3      -11.665513   1.000000
    4      -11.665512   1.000000
    5      -11.434590   1.000000
    6      -11.434590   1.000000
    7      -11.378402   1.000000
    8      -11.378401   1.000000
    9        3.985755   0.000000
   10        3.985758   0.000000
   11        9.024160   0.000000
   12        9.024162   0.000000
   13       17.312545   0.000000
   14       17.312546   0.000000
   15       17.312932   0.000000
   16       17.312933   0.000000
   17       19.165668   0.000000
   18       19.165674   0.000000
   19       21.800719   0.000000
   20       21.805769   0.000000
 
  0.1250000E+00 -0.3750000E+00 -0.1387779E-16  0.1953125E-02
    1      -35.441123   1.000000
    2      -35.441122   1.000000
    3      -11.658958   1.000000