   1   1   0   0
  0.6156630E+02  0.4432200E-09  0.4432200E-09  0.4432200E-09  0.1000000E-15
  1.000000000000000E-004
  CAR 
 Og_FCC                                  
     95.34989932    -21.64926037  301     -3.90438782      1.00000000
    -21.649  0.0000E+00  0.0000E+00
    -21.259  0.0000E+00  0.0000E+00
    -20.869  0.0000E+00  0.0000E+00
    -20.479  0.0000E+00  0.0000E+00
    -20.089  0.0000E+00  0.0000E+00
    -19.699  0.0000E+00  0.0000E+00
    -19.309  0.0000E+00  0.0000E+00
    -18.919  0.0000E+00  0.0000E+00
    -18.529  0.0000E+00  0.0000E+00
    -18.139  0.0000E+00  0.0000E+00
    -17.749  0.0000E+00  0.0000E+00
    -17.359  0.0000E+00  0.0000E+00
    -16.969  0.0000E+00  0.0000E+00
    -16.579  0.0000E+00  0.0000E+00
    -16.189  0.7597E+00  0.5463E+00
    -15.799  0.0000E+00  0.2000E+01
    -15.409  0.0000E+00  0.2000E+01
    -15.019  0.0000E+00  0.2000E+01
    -14.629  0.0000E+00  0.2000E+01
    -14.239  0.0000E+00  0.2000E+01
    -13.849  0.0000E+00  0.2000E+01
    -13.459  0.0000E+00  0.2000E+01
    -13.069  0.0000E+00  0.2000E+01
    -12.679  0.0000E+00  0.2000E+01
    -12.289  0.0000E+00  0.2000E+01
    -11.899  0.0000E+00  0.2000E+01
    -11.509  0.0000E+00  0.2000E+01
    -11.119  0.0000E+00  0.2000E+01
    -10.729  0.0000E+00  0.2000E+01
    -10.339  0.0000E+00  0.2000E+01
     -9.949  0.0000E+00  0.2000E+01
     -9.559  0.0000E+00  0.2000E+01
     -9.169  0.0000E+00  0.2000E+01
     -8.779  0.0000E+00  0.2000E+01
     -8.389  0.0000E+00  0.2000E+01
     -7.999  0.0000E+00  0.2000E+01
     -7.609  0.0000E+00  0.2000E+01
     -7.219  0.0000E+00  0.2000E+01
     -6.829  0.0000E+00  0.2000E+01
     -6.439  0.0000E+00  0.2000E+01
     -6.049  0.0000E+00  0.2000E+01
     -5.659  0.0000E+00  0.2000E+01
     -5.269  0.6686E-08  0.2287E+01
     -4.879  0.0000E+00  0.3861E+01
     -4.489  0.0000E+00  0.5139E+01
     -4.099  0.0000E+00  0.7713E+01
     -3.709  0.0000E+00  0.8000E+01
     -3.319  0.0000E+00  0.8000E+01
     -2.929  0.0000E+00  0.8000E+01
     -2.539  0.0000E+00  0.8000E+01
     -2.149  0.0000E+00  0.8000E+01
     -1.759  0.0000E+00  0.8000E+01
     -1.369  0.0000E+00  0.8000E+01
     -0.979  0.0000E+00  0.8000E+01
     -0.589  0.0000E+00  0.8000E+01
     -0.199  0.0000E+00  0.8000E+01
      0.191  0.0000E+00  0.8000E+01
      0.581  0.0000E+00  0.8000E+01
      0.971  0.0000E+00  0.8000E+01
      1.361  0.0000E+00  0.8000E+01
      1.751  0.0000E+00  0.8000E+01
      2.141  0.0000E+00  0.8000E+01
      2.531  0.0000E+00  0.8009E+01
      2.921  0.0000E+00  0.8083E+01
      3.311  0.0000E+00  0.8139E+01
      3.701  0.0000E+00  0.8241E+01
      4.091  0.0000E+00  0.8889E+01
      4.481  0.0000E+00  0.9583E+01
      4.871  0.0000E+00  0.1031E+02
      5.261  0.0000E+00  0.1064E+02
      5.651  0.0000E+00  0.1164E+02
      6.041  0.0000E+00  0.1203E+02
      6.431  0.1021E-01  0.1292E+02
      6.821  0.0000E+00  0.1359E+02
      7.211  0.3573E-06  0.1461E+02
      7.601  0.0000E+00  0.1539E+02
      7.991  0.0000E+00  0.1583E+02
      8.381  0.0000E+00  0.1601E+02
      8.771  0.8644E-01  0.1660E+02
      9.161  0.0000E+00  0.1723E+02
      9.551  0.0000E+00  0.1791E+02
      9.941  0.0000E+00  0.1857E+02
     10.331  0.0000E+00  0.1870E+02
     10.721  0.0000E+00  0.1931E+02
     11.111  0.5672E-06  0.2053E+02
     11.501  0.0000E+00  0.2152E+02
     11.890  0.0000E+00  0.2263E+02
     12.280  0.0000E+00  0.2280E+02
     12.670  0.0000E+00  0.2357E+02
     13.060  0.0000E+00  0.2397E+02
     13.450  0.0000E+00  0.2475E+02
     13.840  0.1054E-16  0.2536E+02
     14.230  0.1564E-08  0.2658E+02
     14.620  0.5698E+00  0.2786E+02
     15.010  0.5698E+00  0.2897E+02
     15.400  0.0000E+00  0.2979E+02
     15.790  0.0000E+00  0.3042E+02
     16.180  0.0000E+00  0.3122E+02
     16.570  0.1423E-10  0.3247E+02
     16.960  0.0000E+00  0.3343E+02
     17.350  0.0000E+00  0.3454E+02
     17.740  0.0000E+00  0.3526E+02
     18.130  0.0000E+00  0.3637E+02
     18.520  0.0000E+00  0.3789E+02
     18.910  0.1207E-05  0.3882E+02
     19.300  0.2996E-06  0.3969E+02
     19.690  0.0000E+00  0.4007E+02
     20.080  0.0000E+00  0.4187E+02
     20.470  0.0000E+00  0.4246E+02
     20.860  0.0000E+00  0.4387E+02
     21.250  0.0000E+00  0.4510E+02
     21.640  0.0000E+00  0.4588E+02
     22.030  0.1425E+00  0.4753E+02
     22.420  0.0000E+00  0.4810E+02
     22.810  0.0000E+00  0.4842E+02
     23.200  0.0000E+00  0.4910E+02
     23.590  0.0000E+00  0.5091E+02
     23.980  0.0000E+00  0.5156E+02
     24.370  0.0000E+00  0.5269E+02
     24.760  0.0000E+00  0.5349E+02
     25.150  0.0000E+00  0.5465E+02
     25.540  0.0000E+00  0.5601E+02
     25.930  0.0000E+00  0.5787E+02
     26.320  0.2849E+00  0.5861E+02
     26.710  0.4766E+00  0.5963E+02
     27.100  0.0000E+00  0.6048E+02
     27.490  0.0000E+00  0.6130E+02
     27.880  0.2847E-15  0.6169E+02
     28.270  0.0000E+00  0.6263E+02
     28.660  0.0000E+00  0.6385E+02
     29.050  0.0000E+00  0.6491E+02
     29.440  0.0000E+00  0.6613E+02
     29.830  0.0000E+00  0.6709E+02
     30.220  0.0000E+00  0.6800E+02
     30.610  0.0000E+00  0.6928E+02
     31.000  0.0000E+00  0.7047E+02
     31.390  0.0000E+00  0.7156E+02
     31.780  0.0000E+00  0.7282E+02
     32.170  0.0000E+00  0.7396E+02
     32.560  0.0000E+00  0.7507E+02
     32.950  0.0000E+00  0.7613E+02
     33.340  0.0000E+00  0.7704E+02
     33.730  0.0000E+00  0.7830E+02
     34.120  0.0000E+00  0.7917E+02
     34.510  0.0000E+00  0.7922E+02
     34.900  0.5417E+00  0.7982E+02
     35.290  0.3870E-07  0.8078E+02
     35.680  0.0000E+00  0.8265E+02
     36.070  0.0000E+00  0.8413E+02
     36.460  0.0000E+00  0.8466E+02
     36.850  0.0000E+00  0.8580E+02
     37.240  0.7123E+00  0.8785E+02
     37.630  0.1171E+00  0.8823E+02
     38.020  0.0000E+00  0.9030E+02
     38.410  0.0000E+00  0.9128E+02
     38.800  0.1667E-09  0.9267E+02
     39.190  0.0000E+00  0.9394E+02
     39.580  0.0000E+00  0.9432E+02
     39.970  0.0000E+00  0.9535E+02
     40.360  0.0000E+00  0.9646E+02
     40.750  0.0000E+00  0.9728E+02
     41.140  0.0000E+00  0.9831E+02
     41.530  0.0000E+00  0.9976E+02
     41.920  0.0000E+00  0.1008E+03
     42.310  0.0000E+00  0.1019E+03
     42.700  0.3109E-04  0.1026E+03
     43.090  0.0000E+00  0.1039E+03
     43.480  0.2849E+00  0.1059E+03
     43.870  0.0000E+00  0.1072E+03
     44.260  0.0000E+00  0.1078E+03
     44.650  0.0000E+00  0.1087E+03
     45.040  0.0000E+00  0.1100E+03
     45.430  0.0000E+00  0.1110E+03
     45.820  0.0000E+00  0.1121E+03
     46.210  0.0000E+00  0.1130E+03
     46.600  0.0000E+00  0.1147E+03
     46.990  0.0000E+00  0.1160E+03
     47.380  0.0000E+00  0.1166E+03
     47.770  0.0000E+00  0.1174E+03
     48.160  0.0000E+00  0.1186E+03
     48.550  0.0000E+00  0.1206E+03
     48.940  0.0000E+00  0.1218E+03
     49.330  0.0000E+00  0.1233E+03
     49.720  0.0000E+00  0.1246E+03
     50.110  0.0000E+00  0.1261E+03
     50.500  0.0000E+00  0.1269E+03
     50.890  0.0000E+00  0.1285E+03
     51.280  0.3513E-01  0.1298E+03
     51.670  0.0000E+00  0.1308E+03
     52.060  0.0000E+00  0.1317E+03
     52.450  0.0000E+00  0.1326E+03
     52.840  0.0000E+00  0.1338E+03
     53.230  0.0000E+00  0.1355E+03
     53.620  0.0000E+00  0.1366E+03
     54.010  0.1422E-02  0.1378E+03
     54.400  0.0000E+00  0.1389E+03
     54.790  0.0000E+00  0.1396E+03
     55.180  0.0000E+00  0.1408E+03
     55.570  0.5698E+00  0.1427E+03
     55.960  0.0000E+00  0.1438E+03
     56.350  0.2849E+00  0.1460E+03
     56.740  0.5698E+00  0.1478E+03
     57.130  0.0000E+00  0.1488E+03
     57.520  0.0000E+00  0.1497E+03
     57.910  0.0000E+00  0.1513E+03
     58.300  0.0000E+00  0.1532E+03
     58.690  0.0000E+00  0.1551E+03
     59.080  0.0000E+00  0.1564E+03
     59.470  0.0000E+00  0.1573E+03
     59.860  0.0000E+00  0.1583E+03
     60.250  0.0000E+00  0.1593E+03
     60.640  0.0000E+00  0.1596E+03
     61.030  0.0000E+00  0.1608E+03
     61.420  0.0000E+00  0.1616E+03
     61.810  0.0000E+00  0.1640E+03
     62.200  0.9593E-13  0.1655E+03
     62.590  0.0000E+00  0.1675E+03
     62.980  0.0000E+00  0.1684E+03
     63.370  0.0000E+00  0.1698E+03
     63.760  0.0000E+00  0.1705E+03
     64.150  0.0000E+00  0.1720E+03
     64.540  0.0000E+00  0.1743E+03
     64.930  0.0000E+00  0.1752E+03
     65.320  0.0000E+00  0.1770E+03
     65.710  0.0000E+00  0.1784E+03
     66.100  0.0000E+00  0.1792E+03
     66.490  0.0000E+00  0.1805E+03
     66.880  0.2154E+00  0.1819E+03
     67.270  0.1221E+00  0.1832E+03
     67.660  0.7260E-11  0.1842E+03
     68.050  0.0000E+00  0.1853E+03
     68.440  0.0000E+00  0.1864E+03
     68.830  0.0000E+00  0.1880E+03
     69.220  0.2832E+00  0.1901E+03
     69.610  0.0000E+00  0.1914E+03
     70.000  0.6872E-13  0.1932E+03
     70.390  0.0000E+00  0.1948E+03
     70.780  0.0000E+00  0.1965E+03
     71.170  0.2510E+00  0.1980E+03
     71.560  0.0000E+00  0.1993E+03
     71.950  0.0000E+00  0.2006E+03
     72.340  0.2847E-15  0.2023E+03
     72.730  0.7561E-02  0.2035E+03
     73.120  0.5698E+00  0.2051E+03
     73.510  0.0000E+00  0.2063E+03
     73.900  0.0000E+00  0.2082E+03
     74.290  0.1072E+00  0.2097E+03
     74.680  0.0000E+00  0.2116E+03
     75.070  0.0000E+00  0.2120E+03
     75.460  0.0000E+00  0.2135E+03
     75.850  0.2149E-01  0.2145E+03
     76.240  0.0000E+00  0.2156E+03
     76.630  0.7908E-17  0.2170E+03
     77.020  0.0000E+00  0.2187E+03
     77.410  0.0000E+00  0.2199E+03
     77.800  0.0000E+00  0.2221E+03
     78.190  0.0000E+00  0.2230E+03
     78.580  0.1580E-01  0.2244E+03
     78.970  0.2849E+00  0.2264E+03
     79.360  0.0000E+00  0.2288E+03
     79.750  0.0000E+00  0.2300E+03
     80.140  0.1657E-06  0.2318E+03
     80.530  0.0000E+00  0.2336E+03
     80.920  0.0000E+00  0.2347E+03
     81.310  0.3671E-04  0.2371E+03
     81.700  0.0000E+00  0.2386E+03
     82.090  0.5698E+00  0.2397E+03
     82.480  0.0000E+00  0.2416E+03
     82.870  0.0000E+00  0.2422E+03
     83.260  0.0000E+00  0.2433E+03
     83.650  0.0000E+00  0.2451E+03
     84.040  0.0000E+00  0.2457E+03
     84.430  0.0000E+00  0.2472E+03
     84.820  0.0000E+00  0.2492E+03
     85.210  0.7335E-02  0.2513E+03
     85.600  0.0000E+00  0.2525E+03
     85.990  0.0000E+00  0.2537E+03
     86.380  0.0000E+00  0.2547E+03
     86.770  0.1616E-01  0.2548E+03
     87.160  0.0000E+00  0.2551E+03
     87.550  0.0000E+00  0.2554E+03
     87.940  0.0000E+00  0.2556E+03
     88.330  0.0000E+00  0.2558E+03
     88.720  0.0000E+00  0.2560E+03
     89.110  0.0000E+00  0.2560E+03
     89.500  0.0000E+00  0.2560E+03
     89.890  0.0000E+00  0.2560E+03
     90.280  0.0000E+00  0.2560E+03
     90.670  0.0000E+00  0.2560E+03
     91.060  0.0000E+00  0.2560E+03
     91.450  0.0000E+00  0.2560E+03
     91.840  0.0000E+00  0.2560E+03
     92.230  0.0000E+00  0.2560E+03
     92.620  0.0000E+00  0.2560E+03
     93.010  0.0000E+00  0.2560E+03
     93.400  0.0000E+00  0.2560E+03
     93.790  0.0000E+00  0.2560E+03
     94.180  0.0000E+00  0.2560E+03
     94.570  0.0000E+00  0.2560E+03
     94.960  0.0000E+00  0.2560E+03
     95.350  0.0000E+00  0.2560E+03
