    1    1    1    1
  0.6156630E+02  0.4432200E-09  0.4432200E-09  0.4432200E-09  0.1000000E-15
  1.000000000000000E-004
  CAR 
 Og_FCC                                  
      8    112    128
 
  0.0000000E+00  0.0000000E+00  0.0000000E+00  0.4629630E-02
    1      -16.331117   1.000000
    2       -4.022878   1.000000
    3       -4.022878   1.000000
    4       -4.022878   1.000000
    5        2.193945   0.000000
    6        6.682548   0.000000
    7        6.682548   0.000000
    8        6.682548   0.000000
    9        8.797773   0.000000
   10        8.797773   0.000000
   11        9.388668   0.000000
   12       11.443287   0.000000
   13       11.443287   0.000000
   14       11.443287   0.000000
   15       13.888921   0.000000
   16       18.641594   0.000000
   17       18.641594   0.000000
   18       18.641594   0.000000
   19       21.167504   0.000000
   20       21.167504   0.000000
   21       21.167504   0.000000
   22       22.566450   0.000000
   23       22.723579   0.000000
   24       22.723579   0.000000
   25       22.723579   0.000000
   26       24.113699   0.000000
   27       24.113699   0.000000
   28       24.113699   0.000000
   29       24.594247   0.000000
   30       24.594247   0.000000
   31       27.478068   0.000000
   32       31.948335   0.000000
   33       31.948335   0.000000
   34       31.948335   0.000000
   35       33.251719   0.000000
   36       33.251719   0.000000
   37       35.354241   0.000000
   38       35.354241   0.000000
   39       35.354241   0.000000
   40       35.649050   0.000000
   41       35.649050   0.000000
   42       35.649051   0.000000
   43       36.642881   0.000000
   44       36.642881   0.000000
   45       36.642881   0.000000
   46       39.151862   0.000000
   47       39.151862   0.000000
   48       39.151862   0.000000
   49       39.724689   0.000000
   50       39.871462   0.000000
   51       39.871462   0.000000
   52       40.968918   0.000000
   53       40.968918   0.000000
   54       40.968918   0.000000
   55       41.112633   0.000000
   56       41.112633   0.000000
   57       41.112633   0.000000
   58       42.131518   0.000000
   59       42.501135   0.000000
   60       43.146146   0.000000
   61       43.146146   0.000000
   62       43.146147   0.000000
   63       44.137423   0.000000
   64       44.137423   0.000000
   65       44.137423   0.000000
   66       45.715584   0.000000
   67       55.781017   0.000000
   68       55.781017   0.000000
   69       56.578960   0.000000
   70       58.171868   0.000000
   71       58.171868   0.000000
   72       58.171868   0.000000
   73       61.881677   0.000000
   74       61.881677   0.000000
   75       62.738933   0.000000
   76       62.738933   0.000000
   77       62.738933   0.000000
   78       65.837772   0.000000
   79       65.837772   0.000000
   80       65.837772   0.000000
   81       67.245384   0.000000
   82       67.245384   0.000000
   83       67.245384   0.000000
   84       68.164883   0.000000
   85       68.164883   0.000000
   86       68.164883   0.000000
   87       68.889170   0.000000
   88       68.889170   0.000000
   89       69.143408   0.000000
   90       69.143408   0.000000
   91       69.143408   0.000000
   92       69.332362   0.000000
   93       69.332363   0.000000
   94       69.332363   0.000000
   95       70.072403   0.000000
   96       70.072403   0.000000
   97       70.072403   0.000000
   98       70.863120   0.000000
   99       70.863120   0.000000
  100       71.152046   0.000000
  101       72.070417   0.000000
  102       72.201470   0.000000
  103       72.646318   0.000000
  104       72.646318   0.000000
  105       72.646318   0.000000
  106       73.132128   0.000000
  107       73.132128   0.000000
  108       73.132128   0.000000
  109       73.442492   0.000000
  110       73.442492   0.000000
  111       73.442492   0.000000
  112       73.941951   0.000000
  113       73.941951   0.000000
  114       74.985138   0.000000
  115       74.985138   0.000000
  116       74.985139   0.000000
  117       75.172589   0.000000
  118       75.172589   0.000000
  119       75.172589   0.000000
  120       77.001852   0.000000
  121       84.780931   0.000000
  122       84.780931   0.000000
  123       84.780931   0.000000
  124       85.765400   0.000000
  125       85.765400   0.000000
  126       85.765400   0.000000
  127       85.823791   0.000000
  128       85.823791   0.000000
 
  0.1666667E+00  0.1535160E-17  0.6938894E-17  0.9259259E-02
    1      -16.285549   1.000000
    2       -4.463445   1.000000
    3       -4.069218   1.000000
    4       -4.069218   1.000000
    5        2.855169   0.000000
    6        6.083774   0.000000
    7        6.888324   0.000000
    8        6.888324   0.000000
    9        8.338687   0.000000
   10        8.338687   0.000000
   11       10.110268   0.000000
   12       11.196503   0.000000
   13       12.783001   0.000000
   14       12.783001   0.000000
   15       15.658533   0.000000
   16       17.301855   0.000000
   17       17.301855   0.000000
   18       18.181027   0.000000
   19       18.699037   0.000000
   20       20.520598   0.000000
   21       20.520598   0.000000
   22       22.302031   0.000000
   23       22.890669   0.000000
   24       22.890669   0.000000
   25       23.012903   0.000000
   26       23.663566   0.000000
   27       23.663566   0.000000
   28       25.050370   0.000000
   29       26.125676   0.000000
   30       26.125676   0.000000
   31       29.222397   0.000000
   32       30.774257   0.000000
   33       30.774257   0.000000
   34       31.477793   0.000000
   35       31.587760   0.000000
   36       33.016284   0.000000
   37       33.016284   0.000000
   38       34.099679   0.000000
   39       34.099680   0.000000
   40       35.512254   0.000000
   41       35.512254   0.000000
   42       35.982219   0.000000
   43       36.051918   0.000000
   44       36.535380   0.000000
   45       36.535380   0.000000
   46       36.662628   0.000000
   47       38.144856   0.000000
   48       38.144856   0.000000
   49       39.015093   0.000000
   50       40.579522   0.000000
   51       40.579522   0.000000
   52       40.936268   0.000000
   53       42.337409   0.000000
   54       42.337409   0.000000
   55       42.431650   0.000000
   56       42.844457   0.000000
   57       43.260084   0.000000
   58       43.574650   0.000000
   59       43.574651   0.000000
   60       45.414567   0.000000
   61       45.414567   0.000000
   62       45.481821   0.000000
   63       46.219285   0.000000
   64       46.219285   0.000000
   65       46.563834   0.000000
   66       50.674130   0.000000
   67       52.351184   0.000000
   68       52.351184   0.000000
   69       53.511110   0.000000
   70       57.891501   0.000000
   71       57.891501   0.000000
   72       58.023275   0.000000
   73       61.404003   0.000000
   74       61.404003   0.000000
   75       61.693872   0.000000
   76       62.208406   0.000000
   77       62.208406   0.000000
   78       62.286504   0.000000
   79       62.286504   0.000000
   80       62.509239   0.000000
   81       63.695416   0.000000
   82       64.726638   0.000000
   83       64.726638   0.000000
   84       65.870192   0.000000
   85       66.302279   0.000000
   86       66.302279   0.000000
   87       66.820823   0.000000
   88       66.820823   0.000000
   89       68.121089   0.000000
   90       68.121090   0.000000
   91       68.476941   0.000000
   92       68.521981   0.000000
   93       69.398669   0.000000
   94       69.398669   0.000000
   95       70.005221   0.000000
   96       70.005222   0.000000
   97       70.142466   0.000000
   98       71.034708   0.000000
   99       71.135633   0.000000
  100       71.281262   0.000000
  101       71.281262   0.000000
  102       71.796492   0.000000
  103       74.119537   0.000000
  104       74.119537   0.000000
  105       74.886680   0.000000
  106       75.100384   0.000000
  107       75.100384   0.000000
  108       75.850895   0.000000
  109       75.984527   0.000000
  110       75.984527   0.000000
  111       76.076960   0.000000
  112       76.686732   0.000000
  113       76.686733   0.000000
  114       77.678624   0.000000
  115       77.678625   0.000000
  116       77.949598   0.000000
  117       79.109428   0.000000
  118       79.883639   0.000000
  119       79.883639   0.000000
  120       79.894642   0.000000
  121       81.657255   0.000000
  122       81.657255   0.000000
  123       81.837139   0.000000
  124       82.099819   0.000000
  125       82.099819   0.000000
  126       83.070175   0.000000
  127       83.070175   0.000000
  128       83.239026   0.000000
 
  0.3333333E+00 -0.2468525E-16  0.2775558E-16  0.9259259E-02
    1      -16.192222   1.000000
    2       -5.188834   1.000000
    3       -4.158386   1.000000
    4       -4.158386   1.000000
    5        3.657824   0.000000
    6        6.200656   0.000000
    7        6.627796   0.000000
    8        6.627796   0.000000
    9        9.135891   0.000000
   10        9.135891   0.000000
   11        9.357046   0.000000
   12       13.846406   0.000000
   13       14.379329   0.000000
   14       14.379329   0.000000
   15       14.589036   0.000000
   16       15.338159   0.000000
   17       15.338159   0.000000
   18       18.755494   0.000000
   19       18.806974   0.000000
   20       20.428101   0.000000
   21       20.428101   0.000000
   22       21.103310   0.000000
   23       21.782466   0.000000
   24       21.782466   0.000000
   25       23.174889   0.000000
   26       24.110524   0.000000
   27       24.110524   0.000000
   28       25.023928   0.000000
   29       26.299724   0.000000
   30       26.299724   0.000000
   31       27.343499   0.000000
   32       29.244015   0.000000
   33       29.244015   0.000000
   34       30.483560   0.000000
   35       30.855532   0.000000
   36       31.374312   0.000000
   37       31.374312   0.000000
   38       33.246844   0.000000
   39       33.640289   0.000000
   40       33.640289   0.000000
   41       35.293912   0.000000
   42       35.544710   0.000000
   43       35.544710   0.000000
   44       36.966045   0.000000
   45       36.966045   0.000000
   46       37.052116   0.000000
   47       38.982076   0.000000
   48       39.093617   0.000000
   49       39.093617   0.000000
   50       40.798273   0.000000
   51       41.857699   0.000000
   52       41.857699   0.000000
   53       43.137850   0.000000
   54       45.358746   0.000000
   55       45.358746   0.000000
   56       46.234284   0.000000
   57       46.234284   0.000000
   58       46.569933   0.000000
   59       46.715076   0.000000
   60       48.695536   0.000000
   61       48.695536   0.000000
   62       48.847635   0.000000
   63       49.763141   0.000000
   64       49.763141   0.000000
   65       49.773171   0.000000
   66       51.125719   0.000000
   67       51.125719   0.000000
   68       51.806926   0.000000
   69       52.264463   0.000000
   70       52.853385   0.000000
   71       52.853385   0.000000
   72       56.167226   0.000000
   73       56.167226   0.000000
   74       56.854842   0.000000
   75       57.451823   0.000000
   76       58.356361   0.000000
   77       58.356361   0.000000
   78       59.331922   0.000000
   79       59.787195   0.000000
   80       60.119728   0.000000
   81       60.119728   0.000000
   82       61.970599   0.000000
   83       61.970600   0.000000
   84       66.181082   0.000000
   85       66.181082   0.000000
   86       66.225318   0.000000
   87       67.548644   0.000000
   88       67.548644   0.000000
   89       67.644765   0.000000
   90       67.811756   0.000000
   91       67.811757   0.000000
   92       68.502302   0.000000
   93       68.737789   0.000000
   94       68.737789   0.000000
   95       69.050411   0.000000
   96       69.050411   0.000000
   97       69.253150   0.000000
   98       70.055422   0.000000
   99       71.168932   0.000000
  100       71.301024   0.000000
  101       71.301024   0.000000
  102       71.883764   0.000000
  103       72.816227   0.000000
  104       72.816228   0.000000
  105       74.157297   0.000000
  106       77.004575   0.000000
  107       77.437497   0.000000
  108       77.437497   0.000000
  109       77.652177   0.000000
  110       78.126520   0.000000
  111       78.126520   0.000000
  112       78.543449   0.000000
  113       78.543449   0.000000
  114       78.597820   0.000000
  115       78.930707   0.000000
  116       78.930707   0.000000
  117       80.143389   0.000000
  118       80.856749   0.000000
  119       80.973496   0.000000
  120       80.973496   0.000000
  121       81.983501   0.000000
  122       82.287952   0.000000
  123       82.287952   0.000000
  124       83.545148   0.000000
  125       85.623777   0.000000
  126       85.623777   0.000000
  127       86.003339   0.000000
  128       86.003339   0.000000
 
  0.5000000E+00  0.4605481E-17  0.5551115E-16  0.4629630E-02
    1      -16.143210   1.000000
    2       -5.502808   1.000000
    3       -4.201275   1.000000
    4       -4.201275   1.000000
    5        3.714829   0.000000
    6        6.385128   0.000000
    7        6.385128   0.000000
    8        6.857700   0.000000
    9        9.448498   0.000000
   10       10.595495   0.000000
   11       10.595495   0.000000
   12       12.295503   0.000000
   13       12.295503   0.000000
   14       12.329407   0.000000
   15       16.746714   0.000000
   16       17.241871   0.000000
   17       17.241871   0.000000
   18       18.776659   0.000000
   19       18.887717   0.000000
   20       19.891610   0.000000
   21       19.891610   0.000000
   22       20.837950   0.000000
   23       20.919942   0.000000
   24       20.919943   0.000000
   25       24.011655   0.000000
   26       24.200813   0.000000
   27       24.967967   0.000000
   28       24.967967   0.000000
   29       25.075295   0.000000
   30       25.075295   0.000000
   31       26.798610   0.000000
   32       27.348557   0.000000
   33       29.785883   0.000000
   34       29.785883   0.000000
   35       29.942728   0.000000
   36       29.942728   0.000000
   37       30.514304   0.000000
   38       33.426408   0.000000
   39       33.426408   0.000000
   40       33.513941   0.000000
   41       35.305308   0.000000
   42       35.305309   0.000000
   43       35.313744   0.000000
   44       37.745518   0.000000
   45       37.745518   0.000000
   46       37.843102   0.000000
   47       40.784732   0.000000
   48       40.986191   0.000000
   49       40.986191   0.000000
   50       42.145254   0.000000
   51       42.717976   0.000000
   52       43.610106   0.000000
   53       43.610106   0.000000
   54       45.155217   0.000000
   55       45.155217   0.000000
   56       45.909484   0.000000
   57       46.867609   0.000000
   58       46.867609   0.000000
   59       47.887493   0.000000
   60       49.346452   0.000000
   61       49.346452   0.000000
   62       50.604868   0.000000
   63       50.604868   0.000000
   64       50.906885   0.000000
   65       50.944666   0.000000
   66       51.778618   0.000000
   67       51.778618   0.000000
   68       52.505593   0.000000
   69       52.672907   0.000000
   70       54.014115   0.000000
   71       54.245745   0.000000
   72       54.245745   0.000000
   73       54.438727   0.000000
   74       54.438727   0.000000
   75       54.974685   0.000000
   76       55.353337   0.000000
   77       55.353337   0.000000
   78       58.846092   0.000000
   79       59.142507   0.000000
   80       59.142507   0.000000
   81       60.623125   0.000000
   82       60.623125   0.000000
   83       61.105304   0.000000
   84       61.915512   0.000000
   85       61.915513   0.000000
   86       66.686177   0.000000
   87       66.686177   0.000000
   88       67.269842   0.000000
   89       67.269842   0.000000
   90       67.299614   0.000000
   91       67.664625   0.000000
   92       68.384540   0.000000
   93       68.656164   0.000000
   94       68.780106   0.000000
   95       68.780107   0.000000
   96       69.097618   0.000000
   97       70.293956   0.000000
   98       72.223723   0.000000
   99       72.223723   0.000000
  100       72.427705   0.000000
  101       73.625731   0.000000
  102       73.857817   0.000000
  103       73.857818   0.000000
  104       74.055439   0.000000
  105       74.055439   0.000000
  106       75.149142   0.000000
  107       75.149143   0.000000
  108       75.552950   0.000000
  109       75.552950   0.000000
  110       75.582110   0.000000
  111       77.080037   0.000000
  112       77.667063   0.000000
  113       78.009941   0.000000
  114       78.009941   0.000000
  115       78.290704   0.000000
  116       81.617538   0.000000
  117       81.617538   0.000000
  118       82.248334   0.000000
  119       82.392359   0.000000
  120       82.392359   0.000000
  121       82.396750   0.000000
  122       82.396750   0.000000
  123       82.409109   0.000000
  124       83.855918   0.000000
  125       83.855918   0.000000
  126       84.651195   0.000000
  127       85.118612   0.000000
  128       85.582569   0.000000
 
 -0.1925930E-33  0.1666667E+00  0.0000000E+00  0.9259259E-02
    1      -16.285549   1.000000
    2       -4.463445   1.000000
    3       -4.069218   1.000000
    4       -4.069218   1.000000
    5        2.855169   0.000000
    6        6.083774   0.000000
    7        6.888324   0.000000
    8        6.888324   0.000000
    9        8.338687   0.000000
   10        8.338687   0.000000
   11       10.110268   0.000000
   12       11.196503   0.000000
   13       12.783001   0.000000
   14       12.783001   0.000000
   15       15.658533   0.000000
   16       17.301855   0.000000
   17       17.301855   0.000000
   18       18.181027   0.000000
   19       18.699037   0.000000
   20       20.520598   0.000000
   21       20.520598   0.000000
   22       22.302031   0.000000
   23       22.890669   0.000000
   24       22.890669   0.000000
   25       23.012903   0.000000
   26       23.663566   0.000000
   27       23.663566   0.000000
   28       25.050370   0.000000
   29       26.125676   0.000000
   30       26.125676   0.000000
   31       29.222397   0.000000
   32       30.774257   0.000000
   33       30.774257   0.000000
   34       31.477793   0.000000
   35       31.587760   0.000000
   36       33.016284   0.000000
   37       33.016284   0.000000
   38       34.099679   0.000000
   39       34.099680   0.000000
   40       35.512254   0.000000
   41       35.512254   0.000000
   42       35.982219   0.000000
   43       36.051918   0.000000
   44       36.535380   0.000000
   45       36.535380   0.000000
   46       36.662628   0.000000
   47       38.144856   0.000000
   48       38.144856   0.000000
   49       39.015093   0.000000
   50       40.579522   0.000000
   51       40.579522   0.000000
   52       40.936268   0.000000
   53       42.337409   0.000000
   54       42.337409   0.000000
   55       42.431650   0.000000
   56       42.844457   0.000000
   57       43.260084   0.000000
   58       43.574650   0.000000
   59       43.574651   0.000000
   60       45.414567   0.000000
   61       45.414567   0.000000
   62       45.481821   0.000000
   63       46.219285   0.000000
   64       46.219285   0.000000
   65       46.563834   0.000000
   66       50.674130   0.000000
   67       52.351184   0.000000
   68       52.351184   0.000000
   69       53.511110   0.000000
   70       57.891501   0.000000
   71       57.891501   0.000000
   72       58.023275   0.000000
   73       61.404003   0.000000
   74       61.404003   0.000000
   75       61.693872   0.000000
   76       62.208406   0.000000
   77       62.208406   0.000000
   78       62.286504   0.000000
   79       62.286504   0.000000
   80       62.509239   0.000000
   81       63.695416   0.000000
   82       64.726638   0.000000
   83       64.726638   0.000000
   84       65.870192   0.000000
   85       66.302279   0.000000
   86       66.302279   0.000000
   87       66.820823   0.000000
   88       66.820823   0.000000
   89       68.121089   0.000000
   90       68.121090   0.000000
   91       68.476941   0.000000
   92       68.521981   0.000000
   93       69.398669   0.000000
   94       69.398669   0.000000
   95       70.005221   0.000000
   96       70.005221   0.000000
   97       70.142466   0.000000
   98       71.034708   0.000000
   99       71.135633   0.000000
  100       71.281262   0.000000
  101       71.281262   0.000000
  102       71.796492   0.000000
  103       74.119537   0.000000
  104       74.119537   0.000000
  105       74.886680   0.000000
  106       75.100384   0.000000
  107       75.100384   0.000000
  108       75.850895   0.000000
  109       75.984527   0.000000
  110       75.984527   0.000000
  111       76.076960   0.000000
  112       76.686732   0.000000
  113       76.686733   0.000000
  114       77.678624   0.000000
  115       77.678625   0.000000
  116       77.949598   0.000000
  117       79.109428   0.000000
  118       79.883639   0.000000
  119       79.883639   0.000000
  120       79.894642   0.000000
  121       81.657255   0.000000
  122       81.657255   0.000000
  123       81.837139   0.000000
  124       82.099819   0.000000
  125       82.099819   0.000000
  126       83.070175   0.000000
  127       83.070175   0.000000
  128       83.239026   0.000000
 
  0.1666667E+00  0.1666667E+00  0.2775558E-16  0.9259259E-02
    1      -16.270324   1.000000
    2       -4.451445   1.000000
    3       -4.161344   1.000000
    4       -4.161344   1.000000
    5        3.082787   0.000000
    6        5.685329   0.000000
    7        7.153143   0.000000
    8        7.213861   0.000000
    9        7.213861   0.000000
   10        9.111296   0.000000
   11       11.113662   0.000000
   12       12.080287   0.000000
   13       12.121349   0.000000
   14       12.121349   0.000000
   15       16.478589   0.000000
   16       17.277495   0.000000
   17       17.277495   0.000000
   18       17.425762   0.000000
   19       18.788780   0.000000
   20       19.861522   0.000000
   21       19.861522   0.000000
   22       22.265792   0.000000
   23       22.586588   0.000000
   24       22.780607   0.000000
   25       22.780607   0.000000
   26       22.969557   0.000000
   27       25.037007   0.000000
   28       25.883733   0.000000
   29       26.410315   0.000000
   30       26.410315   0.000000
   31       28.858861   0.000000
   32       30.264118   0.000000
   33       30.264118   0.000000
   34       31.397028   0.000000
   35       31.715991   0.000000
   36       32.885440   0.000000
   37       32.885440   0.000000
   38       32.888646   0.000000
   39       34.801123   0.000000
   40       35.514489   0.000000
   41       35.514489   0.000000
   42       35.654686   0.000000
   43       35.728720   0.000000
   44       35.980485   0.000000
   45       38.169314   0.000000
   46       38.169315   0.000000
   47       38.343630   0.000000
   48       38.975191   0.000000
   49       38.975191   0.000000
   50       39.469859   0.000000
   51       39.535548   0.000000
   52       39.535548   0.000000
   53       41.701516   0.000000
   54       42.063514   0.000000
   55       42.093758   0.000000
   56       43.153094   0.000000
   57       43.153094   0.000000
   58       43.525774   0.000000
   59       44.692584   0.000000
   60       45.989922   0.000000
   61       45.989922   0.000000
   62       47.032083   0.000000
   63       47.158726   0.000000
   64       48.603369   0.000000
   65       48.603369   0.000000
   66       49.411679   0.000000
   67       49.786320   0.000000
   68       56.199595   0.000000
   69       56.491866   0.000000
   70       57.632777   0.000000
   71       57.632777   0.000000
   72       58.398279   0.000000
   73       58.398280   0.000000
   74       58.532309   0.000000
   75       58.775635   0.000000
   76       61.641680   0.000000
   77       61.645406   0.000000
   78       61.645406   0.000000
   79       62.165703   0.000000
   80       62.494919   0.000000
   81       63.003948   0.000000
   82       63.003948   0.000000
   83       63.516804   0.000000
   84       63.554062   0.000000
   85       65.287184   0.000000
   86       66.380876   0.000000
   87       66.380876   0.000000
   88       67.343532   0.000000
   89       67.906917   0.000000
   90       67.906917   0.000000
   91       68.071524   0.000000
   92       68.739460   0.000000
   93       69.722407   0.000000
   94       70.045241   0.000000
   95       70.045241   0.000000
   96       70.534920   0.000000
   97       70.752976   0.000000
   98       71.551270   0.000000
   99       72.494872   0.000000
  100       72.494872   0.000000
  101       74.098358   0.000000
  102       74.099370   0.000000
  103       74.360681   0.000000
  104       74.360681   0.000000
  105       74.959913   0.000000
  106       74.959913   0.000000
  107       75.003053   0.000000
  108       75.518999   0.000000
  109       76.191739   0.000000
  110       76.191739   0.000000
  111       76.683858   0.000000
  112       76.919111   0.000000
  113       77.337716   0.000000
  114       77.337716   0.000000
  115       78.263881   0.000000
  116       78.302030   0.000000
  117       78.710232   0.000000
  118       79.624651   0.000000
  119       79.697856   0.000000
  120       79.697856   0.000000
  121       81.378072   0.000000
  122       81.883350   0.000000
  123       81.883350   0.000000
  124       82.394571   0.000000
  125       82.982616   0.000000
  126       82.982616   0.000000
  127       83.315681   0.000000
  128       83.483247   0.000000
 
  0.3333333E+00  0.1666667E+00  0.5551115E-16  0.9259259E-02
    1      -16.192941   1.000000
    2       -4.985316   1.000000
    3       -4.285086   1.000000
    4       -4.270649   1.000000
    5        3.942008   0.000000
    6        5.381933   0.000000
    7        6.163960   0.000000
    8        7.361589   0.000000
    9        8.405592   0.000000
   10        9.713540   0.000000
   11       10.973930   0.000000
   12       13.307706   0.000000
   13       13.742102   0.000000
   14       14.069362   0.000000
   15       14.418898   0.000000
   16       15.126256   0.000000
   17       17.620527   0.000000
   18       17.902600   0.000000
   19       18.353302   0.000000
   20       18.913701   0.000000
   21       19.886404   0.000000
   22       21.123245   0.000000
   23       21.699229   0.000000
   24       22.268080   0.000000
   25       22.830950   0.000000
   26       23.508057   0.000000
   27       25.204918   0.000000
   28       25.577280   0.000000
   29       26.586724   0.000000
   30       26.761576   0.000000
   31       28.439457   0.000000
   32       28.827654   0.000000
   33       29.511334   0.000000
   34       29.849470   0.000000
   35       30.647069   0.000000
   36       31.609146   0.000000
   37       32.702719   0.000000
   38       32.828854   0.000000
   39       33.288514   0.000000
   40       34.061861   0.000000
   41       35.412357   0.000000
   42       35.495001   0.000000
   43       36.498471   0.000000
   44       37.078378   0.000000
   45       37.237077   0.000000
   46       37.838644   0.000000
   47       38.396893   0.000000
   48       39.087120   0.000000
   49       39.611882   0.000000
   50       39.799855   0.000000
   51       40.322926   0.000000
   52       41.975308   0.000000
   53       42.133490   0.000000
   54       42.805616   0.000000
   55       43.277116   0.000000
   56       44.886763   0.000000
   57       45.701050   0.000000
   58       46.441281   0.000000
   59       47.968190   0.000000
   60       48.008425   0.000000
   61       48.493352   0.000000
   62       49.069919   0.000000
   63       49.663664   0.000000
   64       51.312987   0.000000
   65       52.097190   0.000000
   66       52.168037   0.000000
   67       52.497338   0.000000
   68       53.181296   0.000000
   69       53.283750   0.000000
   70       54.012181   0.000000
   71       55.445350   0.000000
   72       55.565894   0.000000
   73       55.931582   0.000000
   74       56.313123   0.000000
   75       56.900946   0.000000
   76       57.488202   0.000000
   77       57.965021   0.000000
   78       59.485660   0.000000
   79       60.960681   0.000000
   80       61.267148   0.000000
   81       61.532666   0.000000
   82       62.065555   0.000000
   83       62.346533   0.000000
   84       63.014867   0.000000
   85       63.148008   0.000000
   86       63.329246   0.000000
   87       64.391754   0.000000
   88       65.254506   0.000000
   89       65.700913   0.000000
   90       66.840242   0.000000
   91       67.888762   0.000000
   92       68.150857   0.000000
   93       69.925680   0.000000
   94       70.203191   0.000000
   95       70.827295   0.000000
   96       71.003839   0.000000
   97       71.550005   0.000000
   98       71.583379   0.000000
   99       72.345745   0.000000
  100       72.492143   0.000000
  101       73.115195   0.000000
  102       73.304559   0.000000
  103       73.565461   0.000000
  104       74.354696   0.000000
  105       74.576353   0.000000
  106       75.360768   0.000000
  107       76.324723   0.000000
  108       76.384065   0.000000
  109       76.833642   0.000000
  110       77.010740   0.000000
  111       77.746036   0.000000
  112       78.079493   0.000000
  113       78.409987   0.000000
  114       78.754932   0.000000
  115       78.990590   0.000000
  116       79.057313   0.000000
  117       80.196968   0.000000
  118       80.411146   0.000000
  119       80.780579   0.000000
  120       81.055218   0.000000
  121       81.629425   0.000000