 vasp.5.4.4.18Apr17-6-g9f103f2a35 (build Jul 09 2018 16:43:14) complex          
  
 executed on             LinuxIFC date 2018.11.22  03:43:06
 running on   32 total cores
 distrk:  each k-point on   16 cores,    2 groups
 distr:  one band on NCORES_PER_BAND=   8 cores,    2 groups


--------------------------------------------------------------------------------------------------------


 INCAR:
 POTCAR:    PAW_PBE Xe_GW 08Jan2009               

 ----------------------------------------------------------------------------- 
|                                                                             |
|           W    W    AA    RRRRR   N    N  II  N    N   GGGG   !!!           |
|           W    W   A  A   R    R  NN   N  II  NN   N  G    G  !!!           |
|           W    W  A    A  R    R  N N  N  II  N N  N  G       !!!           |
|           W WW W  AAAAAA  RRRRR   N  N N  II  N  N N  G  GGG   !            |
|           WW  WW  A    A  R   R   N   NN  II  N   NN  G    G                |
|           W    W  A    A  R    R  N    N  II  N    N   GGGG   !!!           |
|                                                                             |
|      You have enabled k-point parallelism (KPAR>1).                         |
|      This developmental code was originally  written by Paul Kent at ORNL,  |
|      and carefully double checked in Vienna.                                |
|      GW as well as linear response parallelism added by Martijn Marsman     |
|      and Georg Kresse.                                                      |
|      Carefully verify results versus KPAR=1.                                |
|      Report problems to Paul Kent and Vienna.                               |
|                                                                             |
 ----------------------------------------------------------------------------- 

 POTCAR:    PAW_PBE Xe_GW 08Jan2009               
   VRHFIN =Xe: s2p6                                                             
   LEXCH  = PE                                                                  
   EATOM  =   429.5160 eV,   31.5685 Ry                                         
                                                                                
   TITEL  = PAW_PBE Xe_GW 08Jan2009                                             
   LULTRA =        F    use ultrasoft PP ?                                      
   IUNSCR =        1    unscreen: 0-lin 1-nonlin 2-no                           
   RPACOR =    1.800    partial core radius                                     
   POMASS =  131.294; ZVAL   =    8.000    mass and valenz                      
   RCORE  =    2.500    outmost cutoff radius                                   
   RWIGS  =    2.500; RWIGS  =    1.323    wigner-seitz radius (au A)           
   ENMAX  =  179.547; ENMIN  =  134.660 eV                                      
   RCLOC  =    2.013    cutoff for local pot                                    
   LCOR   =        T    correct aug charges                                     
   LPAW   =        T    paw PP                                                  
   EAUG   =  605.900                                                            
   DEXC   =    0.000                                                            
   RMAX   =    2.564    core radius for proj-oper                               
   RAUG   =    1.300    factor for augmentation sphere                          
   RDEP   =    2.580    radius for radial grids                                 
   RDEPT  =    2.108    core radius for aug-charge                              
                                                                                
   Atomic configuration                                                         
   13 entries                                                                   
     n  l   j            E        occ.                                          
     1  0  0.50    -34364.0918   2.0000                                         
     2  0  0.50     -5347.7047   2.0000                                         
     2  1  1.50     -4797.8080   6.0000                                         
     3  0  0.50     -1093.8565   2.0000                                         
     3  1  1.50      -916.3531   6.0000                                         
     3  2  2.50      -653.3728  10.0000                                         
     4  0  0.50      -197.4109   2.0000                                         
     4  1  1.50      -141.2234   6.0000                                         
     4  2  2.50       -59.3742  10.0000                                         
     5  0  0.50       -19.7401   2.0000                                         
     5  1  0.50        -8.2334   6.0000                                         
     5  2  1.50        -6.8029   0.0000                                         
     4  3  2.50        -6.8029   0.0000                                         
   Description                                                                  
     l       E           TYP  RCUT    TYP  RCUT                                 
     0    -19.7400602     23  1.800                                             
     0    -13.6058260     23  1.800                                             
     1     -8.2333784     23  2.300                                             
     1      2.7211652     23  2.300                                             
     2     -6.8029130     23  2.500                                             
     2     40.8174780     23  2.500                                             
     3      6.8029130     23  2.500                                             
     3     27.2116520     23  2.500                                             
  local pseudopotential read in
  partial core-charges read in
  partial kinetic energy density read in
  kinetic energy density of atom read in
  atomic valenz-charges read in
  non local Contribution for L=           0  read in
    real space projection operators read in
  non local Contribution for L=           0  read in
    real space projection operators read in
  non local Contribution for L=           1  read in
    real space projection operators read in
  non local Contribution for L=           1  read in
    real space projection operators read in
  non local Contribution for L=           2  read in
    real space projection operators read in
  non local Contribution for L=           2  read in
    real space projection operators read in
  non local Contribution for L=           3  read in
    real space projection operators read in
  non local Contribution for L=           3  read in
    real space projection operators read in
    PAW grid and wavefunctions read in
 
   number of l-projection  operators is LMAX  =           8
   number of lm-projection operators is LMMAX =          32
 
  PAW_PBE Xe_GW 08Jan2009               :
 energy of atom  1       EATOM= -429.5160
 kinetic energy error for atom=    0.0132 (will be added to EATOM!!)
 
 
 POSCAR: Xe_FCC                                  
  positions in direct lattice
  velocities in cartesian coordinates
 exchange correlation table for  LEXCH =        8
   RHO(1)=    0.500       N(1)  =     2000
   RHO(2)=  100.500       N(2)  =     4000
 


--------------------------------------------------------------------------------------------------------


 ion  position               nearest neighbor table
   1  0.000  0.000  0.000-
 

IMPORTANT INFORMATION: All symmetrisations will be switched off!
NOSYMM: (Re-)initialisation of all symmetry stuff for point group C_1.

 
 
 KPOINTS: k-points                                

Automatic generation of k-mesh.
Space group operators:
 irot       det(A)        alpha          n_x          n_y          n_z        tau_x        tau_y        tau_z
    1     1.000000     0.000001     1.000000     0.000000     0.000000     0.000000     0.000000     0.000000
 
 Subroutine IBZKPT returns following result:
 ===========================================
 
 Found    112 irreducible k-points:
 
 Following reciprocal coordinates:
            Coordinates               Weight
  0.000000  0.000000  0.000000      1.000000
  0.166667  0.000000  0.000000      2.000000
  0.333333 -0.000000  0.000000      2.000000
  0.500000  0.000000  0.000000      1.000000
 -0.000000  0.166667  0.000000      2.000000
  0.166667  0.166667  0.000000      2.000000
  0.333333  0.166667  0.000000      2.000000
  0.500000  0.166667  0.000000      2.000000
 -0.333333  0.166667 -0.000000      2.000000
 -0.166667  0.166667  0.000000      2.000000
 -0.000000  0.333333  0.000000      2.000000
  0.166667  0.333333  0.000000      2.000000
  0.333333  0.333333  0.000000      2.000000
  0.500000  0.333333  0.000000      2.000000
 -0.333333  0.333333 -0.000000      2.000000
 -0.166667  0.333333  0.000000      2.000000
  0.000000  0.500000  0.000000      1.000000
  0.166667  0.500000  0.000000      2.000000
  0.333333  0.500000  0.000000      2.000000
  0.500000  0.500000  0.000000      1.000000
 -0.000000 -0.000000  0.166667      2.000000
  0.166667  0.000000  0.166667      2.000000
  0.333333 -0.000000  0.166667      2.000000
  0.500000  0.000000  0.166667      2.000000
 -0.333333 -0.000000  0.166667      2.000000
 -0.166667  0.000000  0.166667      2.000000
 -0.000000  0.166667  0.166667      2.000000
  0.166667  0.166667  0.166667      2.000000
  0.333333  0.166667  0.166667      2.000000
  0.500000  0.166667  0.166667      2.000000
 -0.333333  0.166667  0.166667      2.000000
 -0.166667  0.166667  0.166667      2.000000
 -0.000000  0.333333  0.166667      2.000000
  0.166667  0.333333  0.166667      2.000000
  0.333333  0.333333  0.166667      2.000000
  0.500000  0.333333  0.166667      2.000000
 -0.333333  0.333333  0.166667      2.000000
 -0.166667  0.333333  0.166667      2.000000
 -0.000000  0.500000  0.166667      2.000000
  0.166667  0.500000  0.166667      2.000000
  0.333333  0.500000  0.166667      2.000000
  0.500000  0.500000  0.166667      2.000000
 -0.333333  0.500000  0.166667      2.000000
 -0.166667  0.500000  0.166667      2.000000
 -0.000000 -0.333333  0.166667      2.000000
  0.166667 -0.333333  0.166667      2.000000
  0.333333 -0.333333  0.166667      2.000000
  0.500000 -0.333333  0.166667      2.000000
 -0.333333 -0.333333  0.166667      2.000000
 -0.166667 -0.333333  0.166667      2.000000
  0.000000 -0.166667  0.166667      2.000000
  0.166667 -0.166667  0.166667      2.000000
  0.333333 -0.166667  0.166667      2.000000
  0.500000 -0.166667  0.166667      2.000000
 -0.333333 -0.166667  0.166667      2.000000
 -0.166667 -0.166667  0.166667      2.000000
 -0.000000  0.000000  0.333333      2.000000
  0.166667 -0.000000  0.333333      2.000000
  0.333333  0.000000  0.333333      2.000000
  0.500000 -0.000000  0.333333      2.000000
 -0.333333  0.000000  0.333333      2.000000
 -0.166667  0.000000  0.333333      2.000000
 -0.000000  0.166667  0.333333      2.000000
  0.166667  0.166667  0.333333      2.000000
  0.333333  0.166667  0.333333      2.000000
  0.500000  0.166667  0.333333      2.000000
 -0.333333  0.166667  0.333333      2.000000
 -0.166667  0.166667  0.333333      2.000000
 -0.000000  0.333333  0.333333      2.000000
  0.166667  0.333333  0.333333      2.000000
  0.333333  0.333333  0.333333      2.000000
  0.500000  0.333333  0.333333      2.000000
 -0.333333  0.333333  0.333333      2.000000
 -0.166667  0.333333  0.333333      2.000000
  0.000000  0.500000  0.333333      2.000000
  0.166667  0.500000  0.333333      2.000000
  0.333333  0.500000  0.333333      2.000000
  0.500000  0.500000  0.333333      2.000000
 -0.333333  0.500000  0.333333      2.000000
 -0.166667  0.500000  0.333333      2.000000
 -0.000000 -0.333333  0.333333      2.000000
  0.166667 -0.333333  0.333333      2.000000
  0.333333 -0.333333  0.333333      2.000000
  0.500000 -0.333333  0.333333      2.000000
 -0.333333 -0.333333  0.333333      2.000000
 -0.166667 -0.333333  0.333333      2.000000
 -0.000000 -0.166667  0.333333      2.000000
  0.166667 -0.166667  0.333333      2.000000
  0.333333 -0.166667  0.333333      2.000000
  0.500000 -0.166667  0.333333      2.000000
 -0.333333 -0.166667  0.333333      2.000000
 -0.166667 -0.166667  0.333333      2.000000
  0.000000 -0.000000  0.500000      1.000000
  0.166667  0.000000  0.500000      2.000000
  0.333333  0.000000  0.500000      2.000000
  0.500000 -0.000000  0.500000      1.000000
  0.000000  0.166667  0.500000      2.000000
  0.166667  0.166667  0.500000      2.000000
  0.333333  0.166667  0.500000      2.000000
  0.500000  0.166667  0.500000      2.000000
 -0.333333  0.166667  0.500000      2.000000
 -0.166667  0.166667  0.500000      2.000000
  0.000000  0.333333  0.500000      2.000000
  0.166667  0.333333  0.500000      2.000000
  0.333333  0.333333  0.500000      2.000000
  0.500000  0.333333  0.500000      2.000000
 -0.333333  0.333333  0.500000      2.000000
 -0.166667  0.333333  0.500000      2.000000
  0.000000  0.500000  0.500000      1.000000
  0.166667  0.500000  0.500000      2.000000
  0.333333  0.500000  0.500000      2.000000
  0.500000  0.500000  0.500000      1.000000
 
 Following cartesian coordinates:
            Coordinates               Weight
  0.000000  0.000000  0.000000      1.000000
  0.037604 -0.021710 -0.015352      2.000000
  0.075207 -0.043421 -0.030703      2.000000
  0.112811 -0.065131 -0.046055      1.000000
  0.000000  0.043421 -0.015352      2.000000
  0.037604  0.021710 -0.030703      2.000000
  0.075207  0.000000 -0.046055      2.000000
  0.112811 -0.021710 -0.061406      2.000000
 -0.075207  0.086842  0.015352      2.000000
 -0.037604  0.065131  0.000000      2.000000
  0.000000  0.086842 -0.030703      2.000000
  0.037604  0.065131 -0.046055      2.000000
  0.075207  0.043421 -0.061406      2.000000
  0.112811  0.021710 -0.076758      2.000000
 -0.075207  0.130263  0.000000      2.000000
 -0.037604  0.108552 -0.015352      2.000000
  0.000000  0.130263 -0.046055      1.000000
  0.037604  0.108552 -0.061406      2.000000
  0.075207  0.086842 -0.076758      2.000000
  0.112811  0.065131 -0.092110      1.000000
 -0.000000  0.000000  0.046055      2.000000
  0.037604 -0.021710  0.030703      2.000000
  0.075207 -0.043421  0.015352      2.000000
  0.112811 -0.065131 -0.000000      2.000000
 -0.075207  0.043421  0.076758      2.000000
 -0.037604  0.021710  0.061406      2.000000
 -0.000000  0.043421  0.030703      2.000000
  0.037604  0.021710  0.015352      2.000000
  0.075207  0.000000  0.000000      2.000000
  0.112811 -0.021710 -0.015352      2.000000
 -0.075207  0.086842  0.061406      2.000000
 -0.037604  0.065131  0.046055      2.000000
 -0.000000  0.086842  0.015352      2.000000
  0.037604  0.065131  0.000000      2.000000
  0.075207  0.043421 -0.015352      2.000000
  0.112811  0.021710 -0.030703      2.000000
 -0.075207  0.130263  0.046055      2.000000
 -0.037604  0.108552  0.030703      2.000000
 -0.000000  0.130263  0.000000      2.000000
  0.037604  0.108552 -0.015352      2.000000
  0.075207  0.086842 -0.030703      2.000000
  0.112811  0.065131 -0.046055      2.000000
 -0.075207  0.173684  0.030703      2.000000
 -0.037604  0.151973  0.015352      2.000000
 -0.000000 -0.086842  0.076758      2.000000
  0.037604 -0.108552  0.061406      2.000000
  0.075207 -0.130263  0.046055      2.000000
  0.112811 -0.151973  0.030703      2.000000
 -0.075207 -0.043421  0.107461      2.000000
 -0.037604 -0.065131  0.092110      2.000000
 -0.000000 -0.043421  0.061406      2.000000
  0.037604 -0.065131  0.046055      2.000000
  0.075207 -0.086842  0.030703      2.000000
  0.112811 -0.108552  0.015352      2.000000
 -0.075207  0.000000  0.092110      2.000000
 -0.037604 -0.021710  0.076758      2.000000
 -0.000000  0.000000  0.092110      2.000000
  0.037604 -0.021710  0.076758      2.000000
  0.075207 -0.043421  0.061406      2.000000
  0.112811 -0.065131  0.046055      2.000000
 -0.075207  0.043421  0.122813      2.000000
 -0.037604  0.021710  0.107461      2.000000
 -0.000000  0.043421  0.076758      2.000000
  0.037604  0.021710  0.061406      2.000000
  0.075207  0.000000  0.046055      2.000000
  0.112811 -0.021710  0.030703      2.000000
 -0.075207  0.086842  0.107461      2.000000
 -0.037604  0.065131  0.092110      2.000000
 -0.000000  0.086842  0.061406      2.000000
  0.037604  0.065131  0.046055      2.000000
  0.075207  0.043421  0.030703      2.000000
  0.112811  0.021710  0.015352      2.000000
 -0.075207  0.130263  0.092110      2.000000
 -0.037604  0.108552  0.076758      2.000000
 -0.000000  0.130263  0.046055      2.000000
  0.037604  0.108552  0.030703      2.000000
  0.075207  0.086842  0.015352      2.000000
  0.112811  0.065131  0.000000      2.000000
 -0.075207  0.173684  0.076758      2.000000
 -0.037604  0.151973  0.061406      2.000000
 -0.000000 -0.086842  0.122813      2.000000
  0.037604 -0.108552  0.107461      2.000000
  0.075207 -0.130263  0.092110      2.000000
  0.112811 -0.151973  0.076758      2.000000
 -0.075207 -0.043421  0.153516      2.000000
 -0.037604 -0.065131  0.138164      2.000000
 -0.000000 -0.043421  0.107461      2.000000
  0.037604 -0.065131  0.092110      2.000000
  0.075207 -0.086842  0.076758      2.000000
  0.112811 -0.108552  0.061406      2.000000
 -0.075207  0.000000  0.138164      2.000000
 -0.037604 -0.021710  0.122813      2.000000
 -0.000000  0.000000  0.138164      1.000000
  0.037604 -0.021710  0.122813      2.000000
  0.075207 -0.043421  0.107461      2.000000
  0.112811 -0.065131  0.092110      1.000000
 -0.000000  0.043421  0.122813      2.000000
  0.037604  0.021710  0.107461      2.000000
  0.075207  0.000000  0.092110      2.000000
  0.112811 -0.021710  0.076758      2.000000
 -0.075207  0.086842  0.153516      2.000000
 -0.037604  0.065131  0.138164      2.000000
 -0.000000  0.086842  0.107461      2.000000
  0.037604  0.065131  0.092110      2.000000
  0.075207  0.043421  0.076758      2.000000
  0.112811  0.021710  0.061406      2.000000
 -0.075207  0.130263  0.138164      2.000000
 -0.037604  0.108552  0.122813      2.000000
 -0.000000  0.130263  0.092110      1.000000
  0.037604  0.108552  0.076758      2.000000
  0.075207  0.086842  0.061406      2.000000
  0.112811  0.065131  0.046055      1.000000
 


--------------------------------------------------------------------------------------------------------




 Dimension of arrays:
   k-points           NKPTS =    112   k-points in BZ     NKDIM =    112   number of bands    NBANDS=    128
   number of dos      NEDOS =    301   number of ions     NIONS =      1
   non local maximal  LDIM  =      8   non local SUM 2l+1 LMDIM =     32
   total plane-waves  NPLWV =  21952
   max r-space proj   IRMAX =      1   max aug-charges    IRDMAX= 141072
   dimension x,y,z NGX =    28 NGY =   28 NGZ =   28
   dimension x,y,z NGXF=    56 NGYF=   56 NGZF=   56
   support grid    NGXF=   112 NGYF=  112 NGZF=  112
   ions per type =               1
   NGX,Y,Z   is equivalent  to a cutoff of  10.50, 10.50, 10.50 a.u.
   NGXF,Y,Z  is equivalent  to a cutoff of  21.00, 21.00, 21.00 a.u.

 SYSTEM =  Og_FCC                                  
 POSCAR =  Xe_FCC                                  

 Startparameter for this run:
   NWRITE =      2    write-flag & timer
   PREC   = accura    normal or accurate (medium, high low for compatibility)
   ISTART =      1    job   : 0-new  1-cont  2-samecut
   ICHARG =      0    charge: 1-file 2-atom 10-const
   ISPIN  =      1    spin polarized calculation?
   LNONCOLLINEAR =      F non collinear calculations
   LSORBIT =      F    spin-orbit coupling
   INIWAV =      1    electr: 0-lowe 1-rand  2-diag
   LASPH  =      F    aspherical Exc in radial PAW
   METAGGA=      F    non-selfconsistent MetaGGA calc.

 Electronic Relaxation 1
   ENCUT  =  300.0 eV  22.05 Ry    4.70 a.u.   6.26  6.26  6.26*2*pi/ulx,y,z
   ENINI  =  300.0     initial cutoff
   ENAUG  =  605.9 eV  augmentation charge cutoff
   NELM   =     50;   NELMIN=  2; NELMDL= -5     # of ELM steps 
   EDIFF  = 0.1E-07   stopping-criterion for ELM
   LREAL  =      F    real-space projection
   NLSPLINE    = F    spline interpolate recip. space projectors
   LCOMPAT=      F    compatible to vasp.4.4
   GGA_COMPAT  = F    GGA compatible to vasp.4.4-vasp.4.6
   LMAXPAW     = -100 max onsite density
   LMAXMIX     =    2 max onsite mixed and CHGCAR
   VOSKOWN=      0    Vosko Wilk Nusair interpolation
   ROPT   =    0.00000
 Ionic relaxation
   EDIFFG = 0.1E-04   stopping-criterion for IOM
   NSW    =      1    number of steps for IOM
   NBLOCK =      1;   KBLOCK =      1    inner block; outer block 
   IBRION =     -1    ionic relax: 0-MD 1-quasi-New 2-CG
   NFREE  =      5    steps in history (QN), initial steepest desc. (CG)
   ISIF   =      3    stress and relaxation
   IWAVPR =     10    prediction:  0-non 1-charg 2-wave 3-comb
   ISYM   =      0    0-nonsym 1-usesym 2-fastsym
   LCORR  =      T    Harris-Foulkes like correction to forces

   POTIM  = 0.1000    time-step for ionic-motion
   TEIN   =    0.0    initial temperature
   TEBEG  =    0.0;   TEEND  =   0.0 temperature during run
   SMASS  =  -3.00    Nose mass-parameter (am)
   estimated Nose-frequenzy (Omega)   =  0.10E-29 period in steps =****** mass=  -0.449E-27a.u.
   SCALEE = 1.0000    scale energy and forces
   NPACO  =    256;   APACO  = 16.0  distance and # of slots for P.C.
   PSTRESS=    0.0 pullay stress

  Mass of Ions in am
   POMASS = 131.29
  Ionic Valenz
   ZVAL   =   8.00
  Atomic Wigner-Seitz radii
   RWIGS  =  -1.00
  virtual crystal weights 
   VCA    =   1.00
   NELECT =       8.0000    total number of electrons
   NUPDOWN=      -1.0000    fix difference up-down

 DOS related values:
   EMIN   =  10.00;   EMAX   =-10.00  energy-range for DOS
   EFERMI =   0.00
   ISMEAR =     0;   SIGMA  =   0.00  broadening in eV -4-tet -1-fermi 0-gaus

 Electronic relaxation 2 (details)
   IALGO  =     90    algorithm
   LDIAG  =      T    sub-space diagonalisation (order eigenvalues)
   LSUBROT=      F    optimize rotation matrix (better conditioning)
   TURBO    =      0    0=normal 1=particle mesh
   IRESTART =      0    0=no restart 2=restart with 2 vectors
   NREBOOT  =      0    no. of reboots
   NMIN     =      0    reboot dimension
   EREF     =   0.00    reference energy to select bands
   IMIX   =      4    mixing-type and parameters
     AMIX     =   0.40;   BMIX     =  1.00
     AMIX_MAG =   1.60;   BMIX_MAG =  1.00
     AMIN     =   0.10
     WC   =   100.;   INIMIX=   1;  MIXPRE=   1;  MAXMIX=  50

 Intra band minimization:
   WEIMIN = 0.0000     energy-eigenvalue tresh-hold
   EBREAK =  0.20E-10  absolut break condition
   DEPER  =   0.30     relativ break condition  

   TIME   =   0.40     timestep for ELM

  volume/ion in A,a.u.               =      61.57       415.47
  Fermi-wavevector in a.u.,A,eV,Ry     =   0.829196  1.566953  9.354901  0.687566
  Thomas-Fermi vector in A             =   1.941701
 
 Write flags
   LWAVE        =      T    write WAVECAR
   LDOWNSAMPLE  =      F    k-point downsampling of WAVECAR
   LCHARG       =      F    write CHGCAR
   LVTOT        =      F    write LOCPOT, total local potential
   LVHAR        =      F    write LOCPOT, Hartree potential only
   LELF         =      F    write electronic localiz. function (ELF)
   LORBIT       =      0    0 simple, 1 ext, 2 COOP (PROOUT), +10 PAW based schemes


 Dipole corrections
   LMONO  =      F    monopole corrections only (constant potential shift)
   LDIPOL =      F    correct potential (dipole corrections)
   IDIPOL =      0    1-x, 2-y, 3-z, 4-all directions 
   EPSILON=  1.0000000 bulk dielectric constant

 Exchange correlation treatment:
   GGA     =    PE    GGA type
   LEXCH   =     8    internal setting for exchange type
   VOSKOWN=      0    Vosko Wilk Nusair interpolation
   LHFCALC =     F    Hartree Fock is set to
   LHFONE  =     F    Hartree Fock one center treatment
   AEXX    =    0.0000 exact exchange contribution

 Linear response parameters
   LEPSILON=     F    determine dielectric tensor
   LRPA    =     F    only Hartree local field effects (RPA)
   LNABLA  =     F    use nabla operator in PAW spheres
   LVEL    =     F    velocity operator in full k-point grid
   LINTERFAST=   F  fast interpolation
   KINTER  =     0    interpolate to denser k-point grid
   CSHIFT  =0.1000    complex shift for real part using Kramers Kronig
   OMEGAMAX=  -1.0    maximum frequency
   DEG_THRESHOLD= 0.2000000E-02 threshold for treating states as degnerate
   RTIME   =   -0.100 relaxation time in fs
  (WPLASMAI=    0.000 imaginary part of plasma frequency in eV, 0.658/RTIME)
   DFIELD  = 0.0000000 0.0000000 0.0000000 field for delta impulse in time
 
 Orbital magnetization related:
   ORBITALMAG=     F  switch on orbital magnetization
   LCHIMAG   =     F  perturbation theory with respect to B field
   DQ        =  0.001000  dq finite difference perturbation B field
   LLRAUG    =     F  two centre corrections for induced B field



--------------------------------------------------------------------------------------------------------


 Static calculation
 charge density and potential will be updated during run
 non-spin polarized calculation
 Exact diagonalization
 preconditioned conjugated gradient (Jacobi prec)
    charged. constant during bandupdate  
    band-by band algorithm
 perform sub-space diagonalisation
    after iterative eigenvector-optimisation
 modified Broyden-mixing scheme, WC =      100.0
 initial mixing is a Kerker type mixing with AMIX =  0.4000 and BMIX =      1.0000
 Hartree-type preconditioning will be used
 using additional bands          124
 reciprocal scheme for non local part
 use partial core corrections
 calculate Harris-corrections to forces 
   (improved forces if not selfconsistent)
 use gradient corrections 
 use of overlap-Matrix (Vanderbilt PP)
 Gauss-broadening in eV      SIGMA  =   0.00


--------------------------------------------------------------------------------------------------------


  energy-cutoff  :      300.00
  volume of cell :       61.57
      direct lattice vectors                 reciprocal lattice vectors
     4.432200126  0.000000000  0.000000000     0.225621581 -0.130262681 -0.092109625
     2.216100063  3.838397904 -0.000000000     0.000000000  0.260525361 -0.092109625
     2.216100063  1.279465968  3.618876249    -0.000000000  0.000000000  0.276328874

  length of vectors
     4.432200126  4.432200126  4.432200126     0.276328874  0.276328874  0.276328874


 
 old parameters found on file WAVECAR:
  energy-cutoff  :      300.00
  volume of cell :       61.57
      direct lattice vectors                 reciprocal lattice vectors
     4.432200126  0.000000000  0.000000000     0.225621581 -0.130262681 -0.092109625
     2.216100063  3.838397904 -0.000000000     0.000000000  0.260525361 -0.092109625
     2.216100063  1.279465968  3.618876249    -0.000000000  0.000000000  0.276328874

  length of vectors

 
 k-points in units of 2pi/SCALE and weight: k-points                                
   0.00000000  0.00000000  0.00000000       0.005
   0.03760360 -0.02171045 -0.01535160       0.009
   0.07520719 -0.04342089 -0.03070321       0.009
   0.11281079 -0.06513134 -0.04605481       0.005
   0.00000000  0.04342089 -0.01535160       0.009
   0.03760360  0.02171045 -0.03070321       0.009
   0.07520719  0.00000000 -0.04605481       0.009
   0.11281079 -0.02171045 -0.06140642       0.009
  -0.07520719  0.08684179  0.01535160       0.009
  -0.03760360  0.06513134  0.00000000       0.009
   0.00000000  0.08684179 -0.03070321       0.009
   0.03760360  0.06513134 -0.04605481       0.009
   0.07520719  0.04342089 -0.06140642       0.009
   0.11281079  0.02171045 -0.07675802       0.009
  -0.07520719  0.13026268  0.00000000       0.009
  -0.03760360  0.10855223 -0.01535160       0.009
   0.00000000  0.13026268 -0.04605481       0.005
   0.03760360  0.10855223 -0.06140642       0.009
   0.07520719  0.08684179 -0.07675802       0.009
   0.11281079  0.06513134 -0.09210962       0.005
  -0.00000000  0.00000000  0.04605481       0.009
   0.03760360 -0.02171045  0.03070321       0.009
   0.07520719 -0.04342089  0.01535160       0.009
   0.11281079 -0.06513134 -0.00000000       0.009
  -0.07520719  0.04342089  0.07675802       0.009
  -0.03760360  0.02171045  0.06140642       0.009
  -0.00000000  0.04342089  0.03070321       0.009
   0.03760360  0.02171045  0.01535160       0.009
   0.07520719  0.00000000  0.00000000       0.009
   0.11281079 -0.02171045 -0.01535160       0.009
  -0.07520719  0.08684179  0.06140642       0.009
  -0.03760360  0.06513134  0.04605481       0.009
  -0.00000000  0.08684179  0.01535160       0.009
   0.03760360  0.06513134  0.00000000       0.009
   0.07520719  0.04342089 -0.01535160       0.009
   0.11281079  0.02171045 -0.03070321       0.009
  -0.07520719  0.13026268  0.04605481       0.009
  -0.03760360  0.10855223  0.03070321       0.009
  -0.00000000  0.13026268  0.00000000       0.009
   0.03760360  0.10855223 -0.01535160       0.009
   0.07520719  0.08684179 -0.03070321       0.009
   0.11281079  0.06513134 -0.04605481       0.009
  -0.07520719  0.17368357  0.03070321       0.009
  -0.03760360  0.15197313  0.01535160       0.009
  -0.00000000 -0.08684179  0.07675802       0.009
   0.03760360 -0.10855223  0.06140642       0.009
   0.07520719 -0.13026268  0.04605481       0.009
   0.11281079 -0.15197313  0.03070321       0.009
  -0.07520719 -0.04342089  0.10746123       0.009
  -0.03760360 -0.06513134  0.09210962       0.009
  -0.00000000 -0.04342089  0.06140642       0.009
   0.03760360 -0.06513134  0.04605481       0.009
   0.07520719 -0.08684179  0.03070321       0.009
   0.11281079 -0.10855223  0.01535160       0.009
  -0.07520719  0.00000000  0.09210962       0.009
  -0.03760360 -0.02171045  0.07675802       0.009
  -0.00000000  0.00000000  0.09210962       0.009
   0.03760360 -0.02171045  0.07675802       0.009
   0.07520719 -0.04342089  0.06140642       0.009
   0.11281079 -0.06513134  0.04605481       0.009
  -0.07520719  0.04342089  0.12281283       0.009
  -0.03760360  0.02171045  0.10746123       0.009
  -0.00000000  0.04342089  0.07675802       0.009
   0.03760360  0.02171045  0.06140642       0.009
   0.07520719  0.00000000  0.04605481       0.009
   0.11281079 -0.02171045  0.03070321       0.009
  -0.07520719  0.08684179  0.10746123       0.009
  -0.03760360  0.06513134  0.09210962       0.009
  -0.00000000  0.08684179  0.06140642       0.009
   0.03760360  0.06513134  0.04605481       0.009
   0.07520719  0.04342089  0.03070321       0.009
   0.11281079  0.02171045  0.01535160       0.009
  -0.07520719  0.13026268  0.09210962       0.009
  -0.03760360  0.10855223  0.07675802       0.009
  -0.00000000  0.13026268  0.04605481       0.009
   0.03760360  0.10855223  0.03070321       0.009
   0.07520719  0.08684179  0.01535160       0.009
   0.11281079  0.06513134  0.00000000       0.009
  -0.07520719  0.17368357  0.07675802       0.009
  -0.03760360  0.15197313  0.06140642       0.009
  -0.00000000 -0.08684179  0.12281283       0.009
   0.03760360 -0.10855223  0.10746123       0.009
   0.07520719 -0.13026268  0.09210962       0.009
   0.11281079 -0.15197313  0.07675802       0.009
  -0.07520719 -0.04342089  0.15351604       0.009
  -0.03760360 -0.06513134  0.13816444       0.009
  -0.00000000 -0.04342089  0.10746123       0.009
   0.03760360 -0.06513134  0.09210962       0.009
   0.07520719 -0.08684179  0.07675802       0.009
   0.11281079 -0.10855223  0.06140642       0.009
  -0.07520719  0.00000000  0.13816444       0.009
  -0.03760360 -0.02171045  0.12281283       0.009
  -0.00000000  0.00000000  0.13816444       0.005
   0.03760360 -0.02171045  0.12281283       0.009
   0.07520719 -0.04342089  0.10746123       0.009
   0.11281079 -0.06513134  0.09210962       0.005
  -0.00000000  0.04342089  0.12281283       0.009
   0.03760360  0.02171045  0.10746123       0.009
   0.07520719  0.00000000  0.09210962       0.009
   0.11281079 -0.02171045  0.07675802       0.009
  -0.07520719  0.08684179  0.15351604       0.009
  -0.03760360  0.06513134  0.13816444       0.009
  -0.00000000  0.08684179  0.10746123       0.009
   0.03760360  0.06513134  0.09210962       0.009
   0.07520719  0.04342089  0.07675802       0.009
   0.11281079  0.02171045  0.06140642       0.009
  -0.07520719  0.13026268  0.13816444       0.009
  -0.03760360  0.10855223  0.12281283       0.009
  -0.00000000  0.13026268  0.09210962       0.005
   0.03760360  0.10855223  0.07675802       0.009
   0.07520719  0.08684179  0.06140642       0.009
   0.11281079  0.06513134  0.04605481       0.005
 
 k-points in reciprocal lattice and weights: k-points                                
   0.00000000  0.00000000  0.00000000       0.005
   0.16666667  0.00000000  0.00000000       0.009
   0.33333333 -0.00000000  0.00000000       0.009
   0.50000000  0.00000000  0.00000000       0.005
  -0.00000000  0.16666667  0.00000000       0.009
   0.16666667  0.16666667  0.00000000       0.009
   0.33333333  0.16666667  0.00000000       0.009
   0.50000000  0.16666667  0.00000000       0.009
  -0.33333333  0.16666667 -0.00000000       0.009
  -0.16666667  0.16666667  0.00000000       0.009
  -0.00000000  0.33333333  0.00000000       0.009
   0.16666667  0.33333333  0.00000000       0.009
   0.33333333  0.33333333  0.00000000       0.009
   0.50000000  0.33333333  0.00000000       0.009
  -0.33333333  0.33333333 -0.00000000       0.009
  -0.16666667  0.33333333  0.00000000       0.009
   0.00000000  0.50000000  0.00000000       0.005
   0.16666667  0.50000000  0.00000000       0.009
   0.33333333  0.50000000  0.00000000       0.009
   0.50000000  0.50000000  0.00000000       0.005
  -0.00000000 -0.00000000  0.16666667       0.009
   0.16666667  0.00000000  0.16666667       0.009
   0.33333333 -0.00000000  0.16666667       0.009
   0.50000000  0.00000000  0.16666667       0.009
  -0.33333333 -0.00000000  0.16666667       0.009
  -0.16666667  0.00000000  0.16666667       0.009
  -0.00000000  0.16666667  0.16666667       0.009
   0.16666667  0.16666667  0.16666667       0.009
   0.33333333  0.16666667  0.16666667       0.009
   0.50000000  0.16666667  0.16666667       0.009
  -0.33333333  0.16666667  0.16666667       0.009
  -0.16666667  0.16666667  0.16666667       0.009
  -0.00000000  0.33333333  0.16666667       0.009
   0.16666667  0.33333333  0.16666667       0.009
   0.33333333  0.33333333  0.16666667       0.009
   0.50000000  0.33333333  0.16666667       0.009
  -0.33333333  0.33333333  0.16666667       0.009
  -0.16666667  0.33333333  0.16666667       0.009
  -0.00000000  0.50000000  0.16666667       0.009
   0.16666667  0.50000000  0.16666667       0.009
   0.33333333  0.50000000  0.16666667       0.009
   0.50000000  0.50000000  0.16666667       0.009
  -0.33333333  0.50000000  0.16666667       0.009
  -0.16666667  0.50000000  0.16666667       0.009
  -0.00000000 -0.33333333  0.16666667       0.009
   0.16666667 -0.33333333  0.16666667       0.009
   0.33333333 -0.33333333  0.16666667       0.009
   0.50000000 -0.33333333  0.16666667       0.009
  -0.33333333 -0.33333333  0.16666667       0.009
  -0.16666667 -0.33333333  0.16666667       0.009
   0.00000000 -0.16666667  0.16666667       0.009
   0.16666667 -0.16666667  0.16666667       0.009
   0.33333333 -0.16666667  0.16666667       0.009
   0.50000000 -0.16666667  0.16666667       0.009
  -0.33333333 -0.16666667  0.16666667       0.009
  -0.16666667 -0.16666667  0.16666667       0.009
  -0.00000000  0.00000000  0.33333333       0.009
   0.16666667 -0.00000000  0.33333333       0.009
   0.33333333  0.00000000  0.33333333       0.009
   0.50000000 -0.00000000  0.33333333       0.009
  -0.33333333  0.00000000  0.33333333       0.009
  -0.16666667  0.00000000  0.33333333       0.009
  -0.00000000  0.16666667  0.33333333       0.009
   0.16666667  0.16666667  0.33333333       0.009
   0.33333333  0.16666667  0.33333333       0.009
   0.50000000  0.16666667  0.33333333       0.009
  -0.33333333  0.16666667  0.33333333       0.009
  -0.16666667  0.16666667  0.33333333       0.009
  -0.00000000  0.33333333  0.33333333       0.009
   0.16666667  0.33333333  0.33333333       0.009
   0.33333333  0.33333333  0.33333333       0.009
   0.50000000  0.33333333  0.33333333       0.009
  -0.33333333  0.33333333  0.33333333       0.009
  -0.16666667  0.33333333  0.33333333       0.009
   0.00000000  0.50000000  0.33333333       0.009
   0.16666667  0.50000000  0.33333333       0.009
   0.33333333  0.50000000  0.33333333       0.009
   0.50000000  0.50000000  0.33333333       0.009
  -0.33333333  0.50000000  0.33333333       0.009
  -0.16666667  0.50000000  0.33333333       0.009
  -0.00000000 -0.33333333  0.33333333       0.009
   0.16666667 -0.33333333  0.33333333       0.009
   0.33333333 -0.33333333  0.33333333       0.009
   0.50000000 -0.33333333  0.33333333       0.009
  -0.33333333 -0.33333333  0.33333333       0.009
  -0.16666667 -0.33333333  0.33333333       0.009
  -0.00000000 -0.16666667  0.33333333       0.009
   0.16666667 -0.16666667  0.33333333       0.009
   0.33333333 -0.16666667  0.33333333       0.009
   0.50000000 -0.16666667  0.33333333       0.009
  -0.33333333 -0.16666667  0.33333333       0.009
  -0.16666667 -0.16666667  0.33333333       0.009
   0.00000000 -0.00000000  0.50000000       0.005
   0.16666667  0.00000000  0.50000000       0.009
   0.33333333  0.00000000  0.50000000       0.009
   0.50000000 -0.00000000  0.50000000       0.005
   0.00000000  0.16666667  0.50000000       0.009
   0.16666667  0.16666667  0.50000000       0.009
   0.33333333  0.16666667  0.50000000       0.009
   0.50000000  0.16666667  0.50000000       0.009
  -0.33333333  0.16666667  0.50000000       0.009
  -0.16666667  0.16666667  0.50000000       0.009
   0.00000000  0.33333333  0.50000000       0.009
   0.16666667  0.33333333  0.50000000       0.009
   0.33333333  0.33333333  0.50000000       0.009
   0.50000000  0.33333333  0.50000000       0.009
  -0.33333333  0.33333333  0.50000000       0.009
  -0.16666667  0.33333333  0.50000000       0.009
   0.00000000  0.50000000  0.50000000       0.005
   0.16666667  0.50000000  0.50000000       0.009
   0.33333333  0.50000000  0.50000000       0.009
   0.50000000  0.50000000  0.50000000       0.005
 
 position of ions in fractional coordinates (direct lattice) 
   0.00000000  0.00000000  0.00000000
 
 position of ions in cartesian coordinates  (Angst):
   0.00000000  0.00000000  0.00000000
 


--------------------------------------------------------------------------------------------------------


 k-point  1 :   0.0000 0.0000 0.0000  plane waves:     725
 k-point  2 :   0.1667 0.0000 0.0000  plane waves:     718
 k-point  3 :   0.3333-0.0000 0.0000  plane waves:     745
 k-point  4 :   0.5000 0.0000 0.0000  plane waves:     718
 k-point  5 :  -0.0000 0.1667 0.0000  plane waves:     718
 k-point  6 :   0.1667 0.1667 0.0000  plane waves:     709
 k-point  7 :   0.3333 0.1667 0.0000  plane waves:     731
 k-point  8 :   0.5000 0.1667 0.0000  plane waves:     732
 k-point  9 :  -0.3333 0.1667-0.0000  plane waves:     726
 k-point 10 :  -0.1667 0.1667 0.0000  plane waves:     732
 k-point 11 :  -0.0000 0.3333 0.0000  plane waves:     745
 k-point 12 :   0.1667 0.3333 0.0000  plane waves:     731
 k-point 13 :   0.3333 0.3333 0.0000  plane waves:     717
 k-point 14 :   0.5000 0.3333 0.0000  plane waves:     729
 k-point 15 :  -0.3333 0.3333-0.0000  plane waves:     718
 k-point 16 :  -0.1667 0.3333 0.0000  plane waves:     726
 k-point 17 :   0.0000 0.5000 0.0000  plane waves:     718
 k-point 18 :   0.1667 0.5000 0.0000  plane waves:     732
 k-point 19 :   0.3333 0.5000 0.0000  plane waves:     729
 k-point 20 :   0.5000 0.5000 0.0000  plane waves:     740
 k-point 21 :  -0.0000-0.0000 0.1667  plane waves:     718
 k-point 22 :   0.1667 0.0000 0.1667  plane waves:     709
 k-point 23 :   0.3333-0.0000 0.1667  plane waves:     731
 k-point 24 :   0.5000 0.0000 0.1667  plane waves:     732
 k-point 25 :  -0.3333-0.0000 0.1667  plane waves:     726
 k-point 26 :  -0.1667 0.0000 0.1667  plane waves:     732
 k-point 27 :  -0.0000 0.1667 0.1667  plane waves:     709
 k-point 28 :   0.1667 0.1667 0.1667  plane waves:     718
 k-point 29 :   0.3333 0.1667 0.1667  plane waves:     732
 k-point 30 :   0.5000 0.1667 0.1667  plane waves:     726
 k-point 31 :  -0.3333 0.1667 0.1667  plane waves:     732
 k-point 32 :  -0.1667 0.1667 0.1667  plane waves:     731
 k-point 33 :  -0.0000 0.3333 0.1667  plane waves:     731
 k-point 34 :   0.1667 0.3333 0.1667  plane waves:     732
 k-point 35 :   0.3333 0.3333 0.1667  plane waves:     731
 k-point 36 :   0.5000 0.3333 0.1667  plane waves:     728
 k-point 37 :  -0.3333 0.3333 0.1667  plane waves:     730
 k-point 38 :  -0.1667 0.3333 0.1667  plane waves:     728
 k-point 39 :  -0.0000 0.5000 0.1667  plane waves:     732
 k-point 40 :   0.1667 0.5000 0.1667  plane waves:     726
 k-point 41 :   0.3333 0.5000 0.1667  plane waves:     728
 k-point 42 :   0.5000 0.5000 0.1667  plane waves:     729
 k-point 43 :  -0.3333 0.5000 0.1667  plane waves:     718
 k-point 44 :  -0.1667 0.5000 0.1667  plane waves:     730
 k-point 45 :  -0.0000-0.3333 0.1667  plane waves:     726
 k-point 46 :   0.1667-0.3333 0.1667  plane waves:     732
 k-point 47 :   0.3333-0.3333 0.1667  plane waves:     730
 k-point 48 :   0.5000-0.3333 0.1667  plane waves:     718
 k-point 49 :  -0.3333-0.3333 0.1667  plane waves:     729
 k-point 50 :  -0.1667-0.3333 0.1667  plane waves:     728
 k-point 51 :   0.0000-0.1667 0.1667  plane waves:     732
 k-point 52 :   0.1667-0.1667 0.1667  plane waves:     731
 k-point 53 :   0.3333-0.1667 0.1667  plane waves:     728
 k-point 54 :   0.5000-0.1667 0.1667  plane waves:     730
 k-point 55 :  -0.3333-0.1667 0.1667  plane waves:     728
 k-point 56 :  -0.1667-0.1667 0.1667  plane waves:     731
 k-point 57 :  -0.0000 0.0000 0.3333  plane waves:     745
 k-point 58 :   0.1667-0.0000 0.3333  plane waves:     731
 k-point 59 :   0.3333 0.0000 0.3333  plane waves:     717
 k-point 60 :   0.5000-0.0000 0.3333  plane waves:     729
 k-point 61 :  -0.3333 0.0000 0.3333  plane waves:     718
 k-point 62 :  -0.1667 0.0000 0.3333  plane waves:     726
 k-point 63 :  -0.0000 0.1667 0.3333  plane waves:     731
 k-point 64 :   0.1667 0.1667 0.3333  plane waves:     732
 k-point 65 :   0.3333 0.1667 0.3333  plane waves:     731
 k-point 66 :   0.5000 0.1667 0.3333  plane waves:     728
 k-point 67 :  -0.3333 0.1667 0.3333  plane waves:     730
 k-point 68 :  -0.1667 0.1667 0.3333  plane waves:     728
 k-point 69 :  -0.0000 0.3333 0.3333  plane waves:     717
 k-point 70 :   0.1667 0.3333 0.3333  plane waves:     731
 k-point 71 :   0.3333 0.3333 0.3333  plane waves:     745
 k-point 72 :   0.5000 0.3333 0.3333  plane waves:     726
 k-point 73 :  -0.3333 0.3333 0.3333  plane waves:     718
 k-point 74 :  -0.1667 0.3333 0.3333  plane waves:     729
 k-point 75 :   0.0000 0.5000 0.3333  plane waves:     729
 k-point 76 :   0.1667 0.5000 0.3333  plane waves:     728
 k-point 77 :   0.3333 0.5000 0.3333  plane waves:     726
 k-point 78 :   0.5000 0.5000 0.3333  plane waves:     732
 k-point 79 :  -0.3333 0.5000 0.3333  plane waves:     730
 k-point 80 :  -0.1667 0.5000 0.3333  plane waves:     718
 k-point 81 :  -0.0000-0.3333 0.3333  plane waves:     718
 k-point 82 :   0.1667-0.3333 0.3333  plane waves:     730
 k-point 83 :   0.3333-0.3333 0.3333  plane waves:     718
 k-point 84 :   0.5000-0.3333 0.3333  plane waves:     730
 k-point 85 :  -0.3333-0.3333 0.3333  plane waves:     718
 k-point 86 :  -0.1667-0.3333 0.3333  plane waves:     730
 k-point 87 :  -0.0000-0.1667 0.3333  plane waves:     726
 k-point 88 :   0.1667-0.1667 0.3333  plane waves:     728
 k-point 89 :   0.3333-0.1667 0.3333  plane waves:     729
 k-point 90 :   0.5000-0.1667 0.3333  plane waves:     718
 k-point 91 :  -0.3333-0.1667 0.3333  plane waves:     730
 k-point 92 :  -0.1667-0.1667 0.3333  plane waves:     732
 k-point 93 :   0.0000-0.0000 0.5000  plane waves:     718
 k-point 94 :   0.1667 0.0000 0.5000  plane waves:     732
 k-point 95 :   0.3333 0.0000 0.5000  plane waves:     729
 k-point 96 :   0.5000-0.0000 0.5000  plane waves:     740
 k-point 97 :   0.0000 0.1667 0.5000  plane waves:     732
 k-point 98 :   0.1667 0.1667 0.5000  plane waves:     726
 k-point 99 :   0.3333 0.1667 0.5000  plane waves:     728
 k-point ** :   0.5000 0.1667 0.5000  plane waves:     729
 k-point ** :  -0.3333 0.1667 0.5000  plane waves:     718
 k-point ** :  -0.1667 0.1667 0.5000  plane waves:     730
 k-point ** :   0.0000 0.3333 0.5000  plane waves:     729
 k-point ** :   0.1667 0.3333 0.5000  plane waves:     728
 k-point ** :   0.3333 0.3333 0.5000  plane waves:     726
 k-point ** :   0.5000 0.3333 0.5000  plane waves:     732
 k-point ** :  -0.3333 0.3333 0.5000  plane waves:     730
 k-point ** :  -0.1667 0.3333 0.5000  plane waves:     718
 k-point ** :   0.0000 0.5000 0.5000  plane waves:     740
 k-point ** :   0.1667 0.5000 0.5000  plane waves:     729
 k-point ** :   0.3333 0.5000 0.5000  plane waves:     732
 k-point ** :   0.5000 0.5000 0.5000  plane waves:     718

 maximum and minimum number of plane-waves per node :       101       81

 maximum number of plane-waves:       745
 maximum index in each direction: 
   IXMAX=    6   IYMAX=    6   IZMAX=    6
   IXMIN=   -6   IYMIN=   -6   IZMIN=   -6


 parallel 3D FFT for wavefunctions:
    minimum data exchange during FFTs selected (reduces bandwidth)
 parallel 3D FFT for charge:
    minimum data exchange during FFTs selected (reduces bandwidth)


 total amount of memory used by VASP MPI-rank0    52188. kBytes
=======================================================================

   base      :      30000. kBytes
   nonl-proj :       2811. kBytes
   fftplans  :       3316. kBytes
   grid      :       1103. kBytes
   one-center:         49. kBytes
   wavefun   :      14909. kBytes
 
     INWAV:  cpu time    1.8742: real time    1.8742
 Broyden mixing: mesh for mixing (old mesh)
   NGX = 13   NGY = 13   NGZ = 13
  (NGX  = 56   NGY  = 56   NGZ  = 56)
  gives a total of   2197 points

 charge density for first step will be calculated from the start-wavefunctions


--------------------------------------------------------------------------------------------------------


 Maximum index for augmentation-charges         8473 (set IRDMAX)


--------------------------------------------------------------------------------------------------------


 initial charge from wavefunction
 First call to EWALD:  gamma=   0.449
 Maximum number of real-space cells 3x 3x 3
 Maximum number of reciprocal cells 3x 3x 3

    FEWALD:  cpu time    0.0023: real time    0.0023


--------------------------------------- Iteration      1(   1)  ---------------------------------------


    POTLOK:  cpu time    0.0131: real time    0.0139
    SETDIJ:  cpu time    0.0229: real time    0.0229

 total amount of memory used by VASP MPI-rank0   139082. kBytes
=======================================================================

   base      :      30000. kBytes
   nonl-proj :       2811. kBytes
   fftplans  :       3316. kBytes
   grid      :       1103. kBytes
   one-center:         49. kBytes
   wavefun   :     101803. kBytes
 
    EDDIAG:  cpu time   22.0779: real time   22.0781
       DOS:  cpu time    0.0019: real time    0.0019
    --------------------------------------------
      LOOP:  cpu time   22.1159: real time   22.1169

 eigenvalue-minimisations  :     0
 total energy-change (2. order) :-0.6001875E-02  ( 0.0000000E+00)
 number of electron       8.0000000 magnetization 
 augmentation part       -1.3411261 magnetization 

 Free energy of the ion-electron system (eV)
  ---------------------------------------------------
  alpha Z        PSCENC =        21.17661221
  Ewald energy   TEWEN  =      -337.05282163
  -Hartree energ DENC   =       -68.69940347
  -exchange      EXHF   =         0.00000000
  -V(xc)+E(xc)   XCENC  =       -72.82312616
  PAW double counting   =       431.18015288     -343.06464115
  entropy T*S    EENTRO =         0.00000000
  eigenvalues    EBANDS =       -60.22555505
  atomic energy  EATOM  =       429.50278051
  Solvation  Ediel_sol  =         0.00000000
  ---------------------------------------------------
  free energy    TOTEN  =        -0.00600187 eV

  energy without entropy =       -0.00600187  energy(sigma->0) =       -0.00600187


--------------------------------------------------------------------------------------------------------




--------------------------------------- Iteration      1(   2)  ---------------------------------------



 total amount of memory used by VASP MPI-rank0   139082. kBytes
=======================================================================

   base      :      30000. kBytes
   nonl-proj :       2811. kBytes
   fftplans  :       3316. kBytes
   grid      :       1103. kBytes
   one-center:         49. kBytes
   wavefun   :     101803. kBytes
 
    EDDIAG:  cpu time   22.0655: real time   22.0657
       DOS:  cpu time    0.0017: real time    0.0020
    --------------------------------------------
      LOOP:  cpu time   22.0672: real time   22.0677

 eigenvalue-minimisations  :     0
 total energy-change (2. order) :-0.1045919E-10  ( 0.0000000E+00)
 number of electron       8.0000000 magnetization 
 augmentation part       -1.3411261 magnetization 

 Free energy of the ion-electron system (eV)
  ---------------------------------------------------
  alpha Z        PSCENC =        21.17661221
  Ewald energy   TEWEN  =      -337.05282163
  -Hartree energ DENC   =       -68.69940347
  -exchange      EXHF   =         0.00000000
  -V(xc)+E(xc)   XCENC  =       -72.82312616
  PAW double counting   =       431.18015288     -343.06464115
  entropy T*S    EENTRO =         0.00000000
  eigenvalues    EBANDS =       -60.22555505
  atomic energy  EATOM  =       429.50278051
  Solvation  Ediel_sol  =         0.00000000
  ---------------------------------------------------
  free energy    TOTEN  =        -0.00600187 eV

  energy without entropy =       -0.00600187  energy(sigma->0) =       -0.00600187


--------------------------------------------------------------------------------------------------------




--------------------------------------- Iteration      1(   3)  ---------------------------------------



 total amount of memory used by VASP MPI-rank0   139082. kBytes
=======================================================================

   base      :      30000. kBytes
   nonl-proj :       2811. kBytes
   fftplans  :       3316. kBytes
   grid      :       1103. kBytes
   one-center:         49. kBytes
   wavefun   :     101803. kBytes
 
    EDDIAG:  cpu time   22.0588: real time   22.0589
       DOS:  cpu time    0.0019: real time    0.0019
    --------------------------------------------
      LOOP:  cpu time   22.0607: real time   22.0608

 eigenvalue-minimisations  :     0
 total energy-change (2. order) : 0.1602984E-10  ( 0.0000000E+00)
 number of electron       8.0000000 magnetization 
 augmentation part       -1.3411261 magnetization 

 Free energy of the ion-electron system (eV)
  ---------------------------------------------------
  alpha Z        PSCENC =        21.17661221
  Ewald energy   TEWEN  =      -337.05282163
  -Hartree energ DENC   =       -68.69940347
  -exchange      EXHF   =         0.00000000
  -V(xc)+E(xc)   XCENC  =       -72.82312616
  PAW double counting   =       431.18015288     -343.06464115
  entropy T*S    EENTRO =         0.00000000
  eigenvalues    EBANDS =       -60.22555505
  atomic energy  EATOM  =       429.50278051
  Solvation  Ediel_sol  =         0.00000000
  ---------------------------------------------------
  free energy    TOTEN  =        -0.00600187 eV

  energy without entropy =       -0.00600187  energy(sigma->0) =       -0.00600187


--------------------------------------------------------------------------------------------------------




--------------------------------------- Iteration      1(   4)  ---------------------------------------



 total amount of memory used by VASP MPI-rank0   139082. kBytes
=======================================================================

   base      :      30000. kBytes
   nonl-proj :       2811. kBytes
   fftplans  :       3316. kBytes
   grid      :       1103. kBytes
   one-center:         49. kBytes
   wavefun   :     101803. kBytes
 
    EDDIAG:  cpu time   22.0595: real time   22.0599
       DOS:  cpu time    0.0018: real time    0.0018
    --------------------------------------------
      LOOP:  cpu time   22.0613: real time   22.0617

 eigenvalue-minimisations  :     0
 total energy-change (2. order) :-0.2160050E-11  ( 0.0000000E+00)
 number of electron       8.0000000 magnetization 
 augmentation part       -1.3411261 magnetization 

 Free energy of the ion-electron system (eV)
  ---------------------------------------------------
  alpha Z        PSCENC =        21.17661221
  Ewald energy   TEWEN  =      -337.05282163
  -Hartree energ DENC   =       -68.69940347
  -exchange      EXHF   =         0.00000000
  -V(xc)+E(xc)   XCENC  =       -72.82312616
  PAW double counting   =       431.18015288     -343.06464115
  entropy T*S    EENTRO =         0.00000000
  eigenvalues    EBANDS =       -60.22555505
  atomic energy  EATOM  =       429.50278051
  Solvation  Ediel_sol  =         0.00000000
  ---------------------------------------------------
  free energy    TOTEN  =        -0.00600187 eV

  energy without entropy =       -0.00600187  energy(sigma->0) =       -0.00600187


--------------------------------------------------------------------------------------------------------




--------------------------------------- Iteration      1(   5)  ---------------------------------------



 total amount of memory used by VASP MPI-rank0   139082. kBytes
=======================================================================

   base      :      30000. kBytes
   nonl-proj :       2811. kBytes
   fftplans  :       3316. kBytes
   grid      :       1103. kBytes
   one-center:         49. kBytes
   wavefun   :     101803. kBytes
 
    EDDIAG:  cpu time   22.1041: real time   22.1041
       DOS:  cpu time    0.0020: real time    0.0020
    CHARGE:  cpu time    0.0433: real time    0.0433
    MIXING:  cpu time    0.0014: real time    0.0014
    --------------------------------------------
      LOOP:  cpu time   22.1508: real time   22.1509

 eigenvalue-minimisations  :     0
 total energy-change (2. order) : 0.7958079E-12  ( 0.0000000E+00)
 number of electron       8.0000000 magnetization 
 augmentation part       -1.3411262 magnetization 

 Broyden mixing:
  rms(total) = 0.86581E-07    rms(broyden)= 0.86578E-07
  rms(prec ) = 0.23979E-06
  weight for this iteration     100.00

 Free energy of the ion-electron system (eV)
  ---------------------------------------------------
  alpha Z        PSCENC =        21.17661221
  Ewald energy   TEWEN  =      -337.05282163
  -Hartree energ DENC   =       -68.69940347
  -exchange      EXHF   =         0.00000000
  -V(xc)+E(xc)   XCENC  =       -72.82312616
  PAW double counting   =       431.18015288     -343.06464115
  entropy T*S    EENTRO =         0.00000000
  eigenvalues    EBANDS =       -60.22555505
  atomic energy  EATOM  =       429.50278051
  Solvation  Ediel_sol  =         0.00000000
  ---------------------------------------------------
  free energy    TOTEN  =        -0.00600187 eV

  energy without entropy =       -0.00600187  energy(sigma->0) =       -0.00600187


--------------------------------------------------------------------------------------------------------




--------------------------------------- Iteration      1(   6)  ---------------------------------------


    POTLOK:  cpu time    0.0099: real time    0.0100
    SETDIJ:  cpu time    0.0225: real time    0.0225

 total amount of memory used by VASP MPI-rank0   139082. kBytes
=======================================================================

   base      :      30000. kBytes
   nonl-proj :       2811. kBytes
   fftplans  :       3316. kBytes
   grid      :       1103. kBytes
   one-center:         49. kBytes
   wavefun   :     101803. kBytes
 
    EDDIAG:  cpu time   22.0196: real time   22.0197
       DOS:  cpu time    0.0021: real time    0.0021
    --------------------------------------------
      LOOP:  cpu time   22.0542: real time   22.0544

 eigenvalue-minimisations  :     0
 total energy-change (2. order) :-0.8049028E-10  ( 0.0000000E+00)
 number of electron       8.0000000 magnetization 
 augmentation part       -1.3411262 magnetization 

 Free energy of the ion-electron system (eV)
  ---------------------------------------------------
  alpha Z        PSCENC =        21.17661221
  Ewald energy   TEWEN  =      -337.05282163
  -Hartree energ DENC   =       -68.69940479
  -exchange      EXHF   =         0.00000000
  -V(xc)+E(xc)   XCENC  =       -72.82312611
  PAW double counting   =       431.18014588     -343.06463425
  entropy T*S    EENTRO =         0.00000000
  eigenvalues    EBANDS =       -60.22555369
  atomic energy  EATOM  =       429.50278051
  Solvation  Ediel_sol  =         0.00000000
  ---------------------------------------------------
  free energy    TOTEN  =        -0.00600188 eV

  energy without entropy =       -0.00600188  energy(sigma->0) =       -0.00600188


--------------------------------------------------------------------------------------------------------




 average (electrostatic) potential at core
  the test charge radii are     1.1266
  (the norm of the test charge is              1.0000)
       1 -57.5413
 
 
 
 E-fermi :  -3.9044     XC(G=0):  -6.6419     alpha+bet : -3.5563


 k-point     1 :       0.0000    0.0000    0.0000
  band No.  band energies     occupation 
      1     -16.3311      2.00000
      2      -4.0229      2.00000
      3      -4.0229      2.00000
      4      -4.0229      2.00000
      5       2.1939      0.00000
      6       6.6825      0.00000
      7       6.6825      0.00000
      8       6.6825      0.00000
      9       8.7978      0.00000
     10       8.7978      0.00000
     11       9.3887      0.00000
     12      11.4433      0.00000
     13      11.4433      0.00000
     14      11.4433      0.00000
     15      13.8889      0.00000
     16      18.6416      0.00000
     17      18.6416      0.00000
     18      18.6416      0.00000
     19      21.1675      0.00000
     20      21.1675      0.00000
     21      21.1675      0.00000
     22      22.5665      0.00000
     23      22.7236      0.00000
     24      22.7236      0.00000
     25      22.7236      0.00000
     26      24.1137      0.00000
     27      24.1137      0.00000
     28      24.1137      0.00000
     29      24.5942      0.00000
     30      24.5942      0.00000
     31      27.4781      0.00000
     32      31.9483      0.00000
     33      31.9483      0.00000
     34      31.9483      0.00000
     35      33.2517      0.00000
     36      33.2517      0.00000
     37      35.3542      0.00000
     38      35.3542      0.00000
     39      35.3542      0.00000
     40      35.6491      0.00000
     41      35.6491      0.00000
     42      35.6491      0.00000
     43      36.6429      0.00000
     44      36.6429      0.00000
     45      36.6429      0.00000
     46      39.1519      0.00000
     47      39.1519      0.00000
     48      39.1519      0.00000
     49      39.7247      0.00000
     50      39.8715      0.00000
     51      39.8715      0.00000
     52      40.9689      0.00000
     53      40.9689      0.00000
     54      40.9689      0.00000
     55      41.1126      0.00000
     56      41.1126      0.00000
     57      41.1126      0.00000
     58      42.1315      0.00000
     59      42.5011      0.00000
     60      43.1461      0.00000
     61      43.1461      0.00000
     62      43.1461      0.00000
     63      44.1374      0.00000
     64      44.1374      0.00000
     65      44.1374      0.00000
     66      45.7156      0.00000
     67      55.7810      0.00000
     68      55.7810      0.00000
     69      56.5790      0.00000
     70      58.1719      0.00000
     71      58.1719      0.00000
     72      58.1719      0.00000
     73      61.8817      0.00000
     74      61.8817      0.00000
     75      62.7389      0.00000
     76      62.7389      0.00000
     77      62.7389      0.00000
     78      65.8378      0.00000
     79      65.8378      0.00000
     80      65.8378      0.00000
     81      67.2454      0.00000
     82      67.2454      0.00000
     83      67.2454      0.00000
     84      68.1649      0.00000
     85      68.1649      0.00000
     86      68.1649      0.00000
     87      68.8892      0.00000
     88      68.8892      0.00000
     89      69.1434      0.00000
     90      69.1434      0.00000
     91      69.1434      0.00000
     92      69.3324      0.00000
     93      69.3324      0.00000
     94      69.3324      0.00000
     95      70.0724      0.00000
     96      70.0724      0.00000
     97      70.0724      0.00000
     98      70.8631      0.00000
     99      70.8631      0.00000
    100      71.1520      0.00000
    101      72.0704      0.00000
    102      72.2015      0.00000
    103      72.6463      0.00000
    104      72.6463      0.00000
    105      72.6463      0.00000
    106      73.1321      0.00000
    107      73.1321      0.00000
    108      73.1321      0.00000
    109      73.4425      0.00000
    110      73.4425      0.00000
    111      73.4425      0.00000
    112      73.9420      0.00000
    113      73.9420      0.00000
    114      74.9851      0.00000
    115      74.9851      0.00000
    116      74.9851      0.00000
    117      75.1726      0.00000
    118      75.1726      0.00000
    119      75.1726      0.00000
    120      77.0019      0.00000
    121      84.7809      0.00000
    122      84.7809      0.00000
    123      84.7809      0.00000
    124      85.7654      0.00000
    125      85.7654      0.00000
    126      85.7654      0.00000
    127      85.8238      0.00000
    128      85.8238      0.00000

 k-point     2 :       0.1667    0.0000    0.0000
  band No.  band energies     occupation 
      1     -16.2855      2.00000
      2      -4.4634      2.00000
      3      -4.0692      2.00000
      4      -4.0692      2.00000
      5       2.8552      0.00000
      6       6.0838      0.00000
      7       6.8883      0.00000
      8       6.8883      0.00000
      9       8.3387      0.00000
     10       8.3387      0.00000
     11      10.1103      0.00000
     12      11.1965      0.00000
     13      12.7830      0.00000
     14      12.7830      0.00000
     15      15.6585      0.00000
     16      17.3019      0.00000
     17      17.3019      0.00000
     18      18.1810      0.00000
     19      18.6990      0.00000
     20      20.5206      0.00000
     21      20.5206      0.00000
     22      22.3020      0.00000
     23      22.8907      0.00000
     24      22.8907      0.00000
     25      23.0129      0.00000
     26      23.6636      0.00000
     27      23.6636      0.00000
     28      25.0504      0.00000
     29      26.1257      0.00000
     30      26.1257      0.00000
     31      29.2224      0.00000
     32      30.7743      0.00000
     33      30.7743      0.00000
     34      31.4778      0.00000
     35      31.5878      0.00000
     36      33.0163      0.00000
     37      33.0163      0.00000
     38      34.0997      0.00000
     39      34.0997      0.00000
     40      35.5123      0.00000
     41      35.5123      0.00000
     42      35.9822      0.00000
     43      36.0519      0.00000
     44      36.5354      0.00000
     45      36.5354      0.00000
     46      36.6626      0.00000
     47      38.1449      0.00000
     48      38.1449      0.00000
     49      39.0151      0.00000
     50      40.5795      0.00000
     51      40.5795      0.00000
     52      40.9363      0.00000
     53      42.3374      0.00000
     54      42.3374      0.00000
     55      42.4316      0.00000
     56      42.8445      0.00000
     57      43.2601      0.00000
     58      43.5747      0.00000
     59      43.5747      0.00000
     60      45.4146      0.00000
     61      45.4146      0.00000
     62      45.4818      0.00000
     63      46.2193      0.00000
     64      46.2193      0.00000
     65      46.5638      0.00000
     66      50.6741      0.00000
     67      52.3512      0.00000
     68      52.3512      0.00000
     69      53.5111      0.00000
     70      57.8915      0.00000
     71      57.8915      0.00000
     72      58.0233      0.00000
     73      61.4040      0.00000
     74      61.4040      0.00000
     75      61.6939      0.00000
     76      62.2084      0.00000
     77      62.2084      0.00000
     78      62.2865      0.00000
     79      62.2865      0.00000
     80      62.5092      0.00000
     81      63.6954      0.00000
     82      64.7266      0.00000
     83      64.7266      0.00000
     84      65.8702      0.00000
     85      66.3023      0.00000
     86      66.3023      0.00000
     87      66.8208      0.00000
     88      66.8208      0.00000
     89      68.1211      0.00000
     90      68.1211      0.00000
     91      68.4769      0.00000
     92      68.5220      0.00000
     93      69.3987      0.00000
     94      69.3987      0.00000
     95      70.0052      0.00000
     96      70.0052      0.00000
     97      70.1425      0.00000
     98      71.0347      0.00000
     99      71.1356      0.00000
    100      71.2813      0.00000
    101      71.2813      0.00000
    102      71.7965      0.00000
    103      74.1195      0.00000
    104      74.1195      0.00000
    105      74.8867      0.00000
    106      75.1004      0.00000
    107      75.1004      0.00000
    108      75.8509      0.00000
    109      75.9845      0.00000
    110      75.9845      0.00000
    111      76.0770      0.00000
    112      76.6867      0.00000
    113      76.6867      0.00000
    114      77.6786      0.00000
    115      77.6786      0.00000
    116      77.9496      0.00000
    117      79.1094      0.00000
    118      79.8836      0.00000
    119      79.8836      0.00000
    120      79.8946      0.00000
    121      81.6573      0.00000
    122      81.6573      0.00000
    123      81.8371      0.00000
    124      82.0998      0.00000
    125      82.0998      0.00000
    126      83.0702      0.00000
    127      83.0702      0.00000
    128      83.2390      0.00000

 k-point     3 :       0.3333   -0.0000    0.0000
  band No.  band energies     occupation 
      1     -16.1922      2.00000
      2      -5.1888      2.00000
      3      -4.1584      2.00000
      4      -4.1584      2.00000
      5       3.6578      0.00000
      6       6.2007      0.00000
      7       6.6278      0.00000
      8       6.6278      0.00000
      9       9.1359      0.00000
     10       9.1359      0.00000
     11       9.3570      0.00000
     12      13.8464      0.00000
     13      14.3793      0.00000
     14      14.3793      0.00000
     15      14.5890      0.00000
     16      15.3382      0.00000
     17      15.3382      0.00000
     18      18.7555      0.00000
     19      18.8070      0.00000
     20      20.4281      0.00000
     21      20.4281      0.00000
     22      21.1033      0.00000
     23      21.7825      0.00000
     24      21.7825      0.00000
     25      23.1749      0.00000
     26      24.1105      0.00000
     27      24.1105      0.00000
     28      25.0239      0.00000
     29      26.2997      0.00000
     30      26.2997      0.00000
     31      27.3435      0.00000
     32      29.2440      0.00000
     33      29.2440      0.00000
     34      30.4836      0.00000
     35      30.8555      0.00000
     36      31.3743      0.00000
     37      31.3743      0.00000
     38      33.2468      0.00000
     39      33.6403      0.00000
     40      33.6403      0.00000
     41      35.2939      0.00000
     42      35.5447      0.00000
     43      35.5447      0.00000
     44      36.9660      0.00000
     45      36.9660      0.00000
     46      37.0521      0.00000
     47      38.9821      0.00000
     48      39.0936      0.00000
     49      39.0936      0.00000
     50      40.7983      0.00000
     51      41.8577      0.00000
     52      41.8577      0.00000
     53      43.1378      0.00000
     54      45.3587      0.00000
     55      45.3587      0.00000
     56      46.2343      0.00000
     57      46.2343      0.00000
     58      46.5699      0.00000
     59      46.7151      0.00000
     60      48.6955      0.00000
     61      48.6955      0.00000
     62      48.8476      0.00000
     63      49.7631      0.00000
     64      49.7631      0.00000
     65      49.7732      0.00000
     66      51.1257      0.00000
     67      51.1257      0.00000
     68      51.8069      0.00000
     69      52.2645      0.00000
     70      52.8534      0.00000
     71      52.8534      0.00000
     72      56.1672      0.00000
     73      56.1672      0.00000
     74      56.8548      0.00000
     75      57.4518      0.00000
     76      58.3564      0.00000
     77      58.3564      0.00000
     78      59.3319      0.00000
     79      59.7872      0.00000
     80      60.1197      0.00000
     81      60.1197      0.00000
     82      61.9706      0.00000
     83      61.9706      0.00000
     84      66.1811      0.00000
     85      66.1811      0.00000
     86      66.2253      0.00000
     87      67.5486      0.00000
     88      67.5486      0.00000
     89      67.6448      0.00000
     90      67.8118      0.00000
     91      67.8118      0.00000
     92      68.5023      0.00000
     93      68.7378      0.00000
     94      68.7378      0.00000
     95      69.0504      0.00000
     96      69.0504      0.00000
     97      69.2532      0.00000
     98      70.0554      0.00000
     99      71.1689      0.00000
    100      71.3010      0.00000
    101      71.3010      0.00000
    102      71.8838      0.00000
    103      72.8162      0.00000
    104      72.8162      0.00000
    105      74.1573      0.00000
    106      77.0046      0.00000
    107      77.4375      0.00000
    108      77.4375      0.00000
    109      77.6522      0.00000
    110      78.1265      0.00000
    111      78.1265      0.00000
    112      78.5434      0.00000
    113      78.5434      0.00000
    114      78.5978      0.00000
    115      78.9307      0.00000
    116      78.9307      0.00000
    117      80.1434      0.00000
    118      80.8567      0.00000
    119      80.9735      0.00000
    120      80.9735      0.00000
    121      81.9835      0.00000
    122      82.2880      0.00000
    123      82.2880      0.00000
    124      83.5451      0.00000
    125      85.6238      0.00000
    126      85.6238      0.00000
    127      86.0033      0.00000
    128      86.0033      0.00000

 k-point     4 :       0.5000    0.0000    0.0000
  band No.  band energies     occupation 
      1     -16.1432      2.00000
      2      -5.5028      2.00000
      3      -4.2013      2.00000
      4      -4.2013      2.00000
      5       3.7148      0.00000
      6       6.3851      0.00000
      7       6.3851      0.00000
      8       6.8577      0.00000
      9       9.4485      0.00000
     10      10.5955      0.00000
     11      10.5955      0.00000
     12      12.2955      0.00000
     13      12.2955      0.00000
     14      12.3294      0.00000
     15      16.7467      0.00000
     16      17.2419      0.00000
     17      17.2419      0.00000
     18      18.7767      0.00000
     19      18.8877      0.00000
     20      19.8916      0.00000
     21      19.8916      0.00000
     22      20.8379      0.00000
     23      20.9199      0.00000
     24      20.9199      0.00000
     25      24.0117      0.00000
     26      24.2008      0.00000
     27      24.9680      0.00000
     28      24.9680      0.00000
     29      25.0753      0.00000
     30      25.0753      0.00000
     31      26.7986      0.00000
     32      27.3486      0.00000
     33      29.7859      0.00000
     34      29.7859      0.00000
     35      29.9427      0.00000
     36      29.9427      0.00000
     37      30.5143      0.00000
     38      33.4264      0.00000
     39      33.4264      0.00000
     40      33.5139      0.00000
     41      35.3053      0.00000
     42      35.3053      0.00000
     43      35.3137      0.00000
     44      37.7455      0.00000
     45      37.7455      0.00000
     46      37.8431      0.00000
     47      40.7847      0.00000
     48      40.9862      0.00000
     49      40.9862      0.00000
     50      42.1453      0.00000
     51      42.7180      0.00000
     52      43.6101      0.00000
     53      43.6101      0.00000
     54      45.1552      0.00000
     55      45.1552      0.00000
     56      45.9095      0.00000
     57      46.8676      0.00000
     58      46.8676      0.00000
     59      47.8875      0.00000
     60      49.3465      0.00000
     61      49.3465      0.00000
     62      50.6049      0.00000
     63      50.6049      0.00000
     64      50.9069      0.00000
     65      50.9447      0.00000
     66      51.7786      0.00000
     67      51.7786      0.00000
     68      52.5056      0.00000
     69      52.6729      0.00000
     70      54.0141      0.00000
     71      54.2457      0.00000
     72      54.2457      0.00000
     73      54.4387      0.00000
     74      54.4387      0.00000
     75      54.9747      0.00000
     76      55.3533      0.00000
     77      55.3533      0.00000
     78      58.8461      0.00000
     79      59.1425      0.00000
     80      59.1425      0.00000
     81      60.6231      0.00000
     82      60.6231      0.00000
     83      61.1053      0.00000
     84      61.9155      0.00000
     85      61.9155      0.00000
     86      66.6862      0.00000
     87      66.6862      0.00000
     88      67.2698      0.00000
     89      67.2698      0.00000
     90      67.2996      0.00000
     91      67.6646      0.00000
     92      68.3845      0.00000
     93      68.6562      0.00000
     94      68.7801      0.00000
     95      68.7801      0.00000
     96      69.0976      0.00000
     97      70.2940      0.00000
     98      72.2237      0.00000
     99      72.2237      0.00000
    100      72.4277      0.00000
    101      73.6257      0.00000
    102      73.8578      0.00000
    103      73.8578      0.00000
    104      74.0554      0.00000
    105      74.0554      0.00000
    106      75.1491      0.00000
    107      75.1491      0.00000
    108      75.5529      0.00000
    109      75.5529      0.00000
    110      75.5821      0.00000
    111      77.0800      0.00000
    112      77.6671      0.00000
    113      78.0099      0.00000
    114      78.0099      0.00000
    115      78.2907      0.00000
    116      81.6175      0.00000
    117      81.6175      0.00000
    118      82.2483      0.00000
    119      82.3924      0.00000
    120      82.3924      0.00000
    121      82.3968      0.00000
    122      82.3968      0.00000
    123      82.4091      0.00000
    124      83.8559      0.00000
    125      83.8559      0.00000
    126      84.6512      0.00000
    127      85.1186      0.00000
    128      85.5826      0.00000

 k-point     5 :      -0.0000    0.1667    0.0000
  band No.  band energies     occupation 
      1     -16.2855      2.00000
      2      -4.4634      2.00000
      3      -4.0692      2.00000
      4      -4.0692      2.00000
      5       2.8552      0.00000
      6       6.0838      0.00000
      7       6.8883      0.00000
      8       6.8883      0.00000
      9       8.3387      0.00000
     10       8.3387      0.00000
     11      10.1103      0.00000
     12      11.1965      0.00000
     13      12.7830      0.00000
     14      12.7830      0.00000
     15      15.6585      0.00000
     16      17.3019      0.00000
     17      17.3019      0.00000
     18      18.1810      0.00000
     19      18.6990      0.00000
     20      20.5206      0.00000
     21      20.5206      0.00000
     22      22.3020      0.00000
     23      22.8907      0.00000
     24      22.8907      0.00000
     25      23.0129      0.00000
     26      23.6636      0.00000
     27      23.6636      0.00000
     28      25.0504      0.00000
     29      26.1257      0.00000
     30      26.1257      0.00000
     31      29.2224      0.00000
     32      30.7743      0.00000
     33      30.7743      0.00000
     34      31.4778      0.00000
     35      31.5878      0.00000
     36      33.0163      0.00000
     37      33.0163      0.00000
     38      34.0997      0.00000
     39      34.0997      0.00000
     40      35.5123      0.00000
     41      35.5123      0.00000
     42      35.9822      0.00000
     43      36.0519      0.00000
     44      36.5354      0.00000
     45      36.5354      0.00000
     46      36.6626      0.00000
     47      38.1449      0.00000
     48      38.1449      0.00000
     49      39.0151      0.00000
     50      40.5795      0.00000
     51      40.5795      0.00000
     52      40.9363      0.00000
     53      42.3374      0.00000
     54      42.3374      0.00000
     55      42.4316      0.00000
     56      42.8445      0.00000
     57      43.2601      0.00000
     58      43.5747      0.00000
     59      43.5747      0.00000
     60      45.4146      0.00000
     61      45.4146      0.00000
     62      45.4818      0.00000
     63      46.2193      0.00000
     64      46.2193      0.00000
     65      46.5638      0.00000
     66      50.6741      0.00000
     67      52.3512      0.00000
     68      52.3512      0.00000
     69      53.5111      0.00000
     70      57.8915      0.00000
     71      57.8915      0.00000
     72      58.0233      0.00000
     73      61.4040      0.00000
     74      61.4040      0.00000
     75      61.6939      0.00000
     76      62.2084      0.00000
     77      62.2084      0.00000
     78      62.2865      0.00000
     79      62.2865      0.00000
     80      62.5092      0.00000
     81      63.6954      0.00000
     82      64.7266      0.00000
     83      64.7266      0.00000
     84      65.8702      0.00000
     85      66.3023      0.00000
     86      66.3023      0.00000
     87      66.8208      0.00000
     88      66.8208      0.00000
     89      68.1211      0.00000
     90      68.1211      0.00000
     91      68.4769      0.00000
     92      68.5220      0.00000
     93      69.3987      0.00000
     94      69.3987      0.00000
     95      70.0052      0.00000
     96      70.0052      0.00000
     97      70.1425      0.00000
     98      71.0347      0.00000
     99      71.1356      0.00000
    100      71.2813      0.00000
    101      71.2813      0.00000
    102      71.7965      0.00000
    103      74.1195      0.00000
    104      74.1195      0.00000
    105      74.8867      0.00000
    106      75.1004      0.00000
    107      75.1004      0.00000
    108      75.8509      0.00000
    109      75.9845      0.00000
    110      75.9845      0.00000
    111      76.0770      0.00000
    112      76.6867      0.00000
    113      76.6867      0.00000
    114      77.6786      0.00000
    115      77.6786      0.00000
    116      77.9496      0.00000
    117      79.1094      0.00000
    118      79.8836      0.00000
    119      79.8836      0.00000
    120      79.8946      0.00000
[...]
  112.431629    0.984127    0.984127    0.984127   -0.000000   -0.000000   -0.000000
  113.709262    0.984500    0.984500    0.984500   -0.000000   -0.000000   -0.000000
  114.986894    0.984859    0.984859    0.984859   -0.000000   -0.000000   -0.000000
  116.264526    0.985205    0.985205    0.985205   -0.000000   -0.000000   -0.000000
  117.542158    0.985538    0.985538    0.985538   -0.000000   -0.000000   -0.000000
  118.819790    0.985860    0.985860    0.985860   -0.000000   -0.000000   -0.000000
  120.097422    0.986171    0.986171    0.986171   -0.000000   -0.000000   -0.000000
  121.375054    0.986471    0.986471    0.986471   -0.000000   -0.000000   -0.000000
  122.652687    0.986761    0.986761    0.986761   -0.000000   -0.000000   -0.000000
  123.930319    0.987041    0.987041    0.987041   -0.000000   -0.000000   -0.000000
  125.207951    0.987313    0.987313    0.987313   -0.000000   -0.000000   -0.000000
  126.485583    0.987575    0.987575    0.987575   -0.000000   -0.000000   -0.000000

  frequency dependent IMAGINARY DIELECTRIC FUNCTION (independent particle, no local field effects) current-current (2nd set in vasprun.xml)
     E(ev)      X         Y         Z        XY        YZ        ZX
  --------------------------------------------------------------------------------------------------------------
    0.000000    0.000000    0.000000    0.000000    0.000000    0.000000    0.000000
    1.277632    0.000000    0.000000    0.000000    0.000000    0.000000    0.000000
    2.555264    0.000000    0.000000    0.000000    0.000000    0.000000    0.000000
    3.832896    0.000000    0.000000    0.000000    0.000000    0.000000    0.000000
    5.110529    0.000000    0.000000    0.000000    0.000000    0.000000    0.000000
    6.388161    0.000000    0.000000    0.000000    0.000000    0.000000    0.000000
    7.665793    0.000000    0.000000    0.000000    0.000000    0.000000    0.000000
    8.943425    2.624807    2.624807    2.624807   -0.000000   -0.000000   -0.000000
   10.221057    0.000000    0.000000    0.000000    0.000000    0.000000    0.000000
   11.498689    4.055702    4.055702    4.055702   -0.000000   -0.000000   -0.000000
   12.776322    1.633932    1.633932    1.633932    0.000000    0.000000    0.000000
   14.053954    0.728396    0.728396    0.728396   -0.000000   -0.000000   -0.000000
   15.331586    1.202162    1.202162    1.202162    0.000000    0.000000    0.000000
   16.609218    1.593977    1.593977    1.593977   -0.000000   -0.000000    0.000000
   17.886850    0.182660    0.182660    0.182660   -0.000000    0.000000    0.000000
   19.164482    0.233205    0.233205    0.233205   -0.000000   -0.000000   -0.000000
   20.442114    0.263266    0.263266    0.263266    0.000000    0.000000    0.000000
   21.719747    0.100168    0.100168    0.100168    0.000000    0.000000    0.000000
   22.997379    0.437654    0.437654    0.437654   -0.000000   -0.000000   -0.000000
   24.275011    0.098783    0.098783    0.098783    0.000000    0.000000    0.000000
   25.552643    0.036644    0.036644    0.036644    0.000000    0.000000    0.000000
   26.830275    0.023803    0.023803    0.023803    0.000000    0.000000    0.000000
   28.107907    0.034247    0.034247    0.034247   -0.000000   -0.000000   -0.000000
   29.385540    0.033039    0.033039    0.033039   -0.000000   -0.000000   -0.000000
   30.663172    0.004953    0.004953    0.004953   -0.000000   -0.000000   -0.000000
   31.940804    0.001585    0.001585    0.001585   -0.000000   -0.000000   -0.000000
   33.218436    0.023619    0.023619    0.023619    0.000000    0.000000    0.000000
   34.496068    0.019038    0.019038    0.019039    0.000000    0.000000    0.000000
   35.773700    0.006754    0.006754    0.006754    0.000000    0.000000   -0.000000
   37.051332    0.022797    0.022797    0.022797    0.000000    0.000000    0.000000
   38.328965    0.015238    0.015238    0.015238    0.000000   -0.000000    0.000000
   39.606597    0.004131    0.004131    0.004131   -0.000000   -0.000000   -0.000000
   40.884229    0.001119    0.001119    0.001119    0.000000    0.000000    0.000000
   42.161861    0.011148    0.011148    0.011148   -0.000000   -0.000000   -0.000000
   43.439493    0.012039    0.012039    0.012039    0.000000    0.000000    0.000000
   44.717125    0.000863    0.000863    0.000863    0.000000    0.000000    0.000000
   45.994757    0.002958    0.002958    0.002958    0.000000    0.000000    0.000000
   47.272390    0.010937    0.010937    0.010937   -0.000000   -0.000000   -0.000000
   48.550022    0.001003    0.001003    0.001003    0.000000    0.000000    0.000000
   49.827654    0.003512    0.003512    0.003512    0.000000    0.000000   -0.000000
   51.105286    0.003952    0.003952    0.003952    0.000000    0.000000    0.000000
   52.382918    0.001428    0.001428    0.001428    0.000000   -0.000000   -0.000000
   53.660550    0.003011    0.003011    0.003011   -0.000000   -0.000000   -0.000000
   54.938183    0.007705    0.007705    0.007705   -0.000000   -0.000000   -0.000000
   56.215815    0.002167    0.002167    0.002167    0.000000    0.000000    0.000000
   57.493447    0.004726    0.004726    0.004726   -0.000000   -0.000000   -0.000000
   58.771079    0.000504    0.000504    0.000504   -0.000000   -0.000000    0.000000
   60.048711    0.000629    0.000629    0.000629   -0.000000   -0.000000   -0.000000
   61.326343    0.003018    0.003018    0.003018   -0.000000   -0.000000   -0.000000
   62.603975    0.002295    0.002295    0.002295    0.000000   -0.000000    0.000000
   63.881608    0.002086    0.002086    0.002086    0.000000    0.000000    0.000000
   65.159240    0.000207    0.000207    0.000207    0.000000    0.000000    0.000000
   66.436872    0.002011    0.002011    0.002011    0.000000    0.000000    0.000000
   67.714504    0.001556    0.001556    0.001556   -0.000000   -0.000000   -0.000000
   68.992136    0.000793    0.000793    0.000793    0.000000    0.000000    0.000000
   70.269768    0.001527    0.001527    0.001527   -0.000000   -0.000000   -0.000000
   71.547401    0.003883    0.003883    0.003883   -0.000000   -0.000000   -0.000000
   72.825033    0.001651    0.001651    0.001651    0.000000   -0.000000    0.000000
   74.102665    0.002201    0.002201    0.002201    0.000000    0.000000    0.000000
   75.380297    0.001462    0.001462    0.001462    0.000000    0.000000    0.000000
   76.657929    0.000441    0.000441    0.000441   -0.000000   -0.000000   -0.000000
   77.935561    0.001253    0.001253    0.001253    0.000000    0.000000    0.000000
   79.213193    0.001183    0.001183    0.001183   -0.000000   -0.000000   -0.000000
   80.490826    0.001174    0.001174    0.001174    0.000000    0.000000    0.000000
   81.768458    0.001104    0.001104    0.001104   -0.000000   -0.000000   -0.000000
   83.046090    0.001564    0.001564    0.001564   -0.000000   -0.000000   -0.000000
   84.323722    0.000811    0.000811    0.000811   -0.000000   -0.000000   -0.000000
   85.601354    0.001218    0.001218    0.001218    0.000000   -0.000000    0.000000
   86.878986    0.001310    0.001310    0.001310   -0.000000   -0.000000   -0.000000
   88.156619    0.002179    0.002179    0.002179    0.000000    0.000000    0.000000
   89.434251    0.000839    0.000839    0.000839    0.000000   -0.000000    0.000000
   90.711883    0.000517    0.000517    0.000517   -0.000000   -0.000000   -0.000000
   91.989515    0.000258    0.000258    0.000258    0.000000    0.000000    0.000000
   93.267147    0.000255    0.000255    0.000255    0.000000    0.000000    0.000000
   94.544779    0.000381    0.000381    0.000381    0.000000    0.000000    0.000000
   95.822411    0.001011    0.001011    0.001011   -0.000000   -0.000000    0.000000
   97.100044    0.000210    0.000210    0.000210    0.000000    0.000000    0.000000
   98.377676    0.000110    0.000110    0.000110   -0.000000   -0.000000    0.000000
   99.655308    0.000372    0.000372    0.000372   -0.000000   -0.000000   -0.000000
  100.932940    0.000135    0.000135    0.000135   -0.000000   -0.000000   -0.000000
  102.210572    0.000068    0.000068    0.000068    0.000000    0.000000    0.000000
  103.488204    0.000020    0.000020    0.000020   -0.000000   -0.000000   -0.000000
  104.765836    0.000000    0.000000    0.000000    0.000000    0.000000    0.000000
  106.043469    0.000000    0.000000    0.000000    0.000000    0.000000    0.000000
  107.321101    0.000000    0.000000    0.000000    0.000000    0.000000    0.000000
  108.598733    0.000000    0.000000    0.000000    0.000000    0.000000    0.000000
  109.876365    0.000000    0.000000    0.000000    0.000000    0.000000    0.000000
  111.153997    0.000000    0.000000    0.000000    0.000000    0.000000    0.000000
  112.431629    0.000000    0.000000    0.000000    0.000000    0.000000    0.000000
  113.709262    0.000000    0.000000    0.000000    0.000000    0.000000    0.000000
  114.986894    0.000000    0.000000    0.000000    0.000000    0.000000    0.000000
  116.264526    0.000000    0.000000    0.000000    0.000000    0.000000    0.000000
  117.542158    0.000000    0.000000    0.000000    0.000000    0.000000    0.000000
  118.819790    0.000000    0.000000    0.000000    0.000000    0.000000    0.000000
  120.097422    0.000000    0.000000    0.000000    0.000000    0.000000    0.000000
  121.375054    0.000000    0.000000    0.000000    0.000000    0.000000    0.000000
  122.652687    0.000000    0.000000    0.000000    0.000000    0.000000    0.000000
  123.930319    0.000000    0.000000    0.000000    0.000000    0.000000    0.000000
  125.207951    0.000000    0.000000    0.000000    0.000000    0.000000    0.000000
  126.485583    0.000000    0.000000    0.000000    0.000000    0.000000    0.000000

  frequency dependent      REAL DIELECTRIC FUNCTION (independent particle, no local field effects) current-current (2nd set in vasprun.xml)
     E(ev)        X           Y           Z          XY          YZ          ZX
  --------------------------------------------------------------------------------------------------------------
    0.000000    2.480688    2.480688    2.481623   -0.000000    0.000000   -0.000000
    1.277632    2.506198    2.506198    2.506198   -0.000000   -0.000000   -0.000000
    2.555264    2.587994    2.587994    2.587994   -0.000000   -0.000000   -0.000000
    3.832896    2.751508    2.751508    2.751508   -0.000000   -0.000000   -0.000000
    5.110529    3.072030    3.072030    3.072030   -0.000000   -0.000000   -0.000000
    6.388161    3.713342    3.713341    3.713342   -0.000000   -0.000000   -0.000000
    7.665793    5.702594    5.702594    5.702594   -0.000000   -0.000000   -0.000000
    8.943425    2.447132    2.447131    2.447132    0.000000    0.000000    0.000000
   10.221057    0.611846    0.611846    0.611846   -0.000000   -0.000000   -0.000000
   11.498689   -0.608724   -0.608724   -0.608724    0.000000   -0.000000    0.000000
   12.776322   -0.240643   -0.240643   -0.240643    0.000000    0.000000    0.000000
   14.053954   -0.008755   -0.008755   -0.008755    0.000000    0.000000    0.000000
   15.331586    0.038674    0.038674    0.038674    0.000000    0.000000    0.000000
   16.609218   -0.363384   -0.363384   -0.363384   -0.000000   -0.000000   -0.000000
   17.886850    0.145673    0.145673    0.145673    0.000000    0.000000    0.000000
   19.164482    0.294283    0.294283    0.294283    0.000000    0.000000    0.000000
   20.442114    0.212413    0.212413    0.212413    0.000000    0.000000    0.000000
   21.719747    0.473767    0.473767    0.473767    0.000000    0.000000    0.000000
   22.997379    0.499358    0.499358    0.499358    0.000000    0.000000    0.000000
   24.275011    0.555042    0.555042    0.555042    0.000000    0.000000    0.000000
   25.552643    0.630023    0.630023    0.630023    0.000000    0.000000    0.000000
   26.830275    0.678891    0.678891    0.678891    0.000000    0.000000    0.000000
   28.107907    0.705742    0.705742    0.705742    0.000000    0.000000    0.000000
   29.385540    0.740294    0.740294    0.740294    0.000000    0.000000    0.000000
   30.663172    0.747371    0.747371    0.747371    0.000000    0.000000    0.000000
   31.940804    0.771162    0.771162    0.771162    0.000000    0.000000    0.000000
   33.218436    0.787474    0.787474    0.787474    0.000000    0.000000    0.000000
   34.496068    0.807976    0.807976    0.807976    0.000000    0.000000    0.000000
   35.773700    0.816831    0.816831    0.816831    0.000000    0.000000    0.000000
   37.051332    0.828080    0.828080    0.828080    0.000000    0.000000    0.000000
   38.328965    0.845637    0.845637    0.845637    0.000000    0.000000    0.000000
   39.606597    0.866786    0.866786    0.866786    0.000000    0.000000    0.000000
   40.884229    0.870903    0.870903    0.870903    0.000000    0.000000    0.000000
   42.161861    0.883444    0.883444    0.883444    0.000000    0.000000    0.000000
   43.439493    0.879183    0.879183    0.879183    0.000000    0.000000    0.000000
   44.717125    0.892768    0.892768    0.892768    0.000000    0.000000    0.000000
   45.994757    0.901353    0.901353    0.901353    0.000000    0.000000    0.000000
   47.272390    0.908087    0.908087    0.908087    0.000000    0.000000    0.000000
   48.550022    0.908381    0.908381    0.908381    0.000000    0.000000    0.000000
   49.827654    0.915878    0.915878    0.915878    0.000000    0.000000    0.000000
   51.105286    0.917081    0.917081    0.917081    0.000000    0.000000    0.000000
   52.382918    0.923268    0.923268    0.923268    0.000000    0.000000    0.000000
   53.660550    0.929438    0.929438    0.929438    0.000000    0.000000    0.000000
   54.938183    0.931466    0.931466    0.931466    0.000000    0.000000    0.000000
   56.215815    0.933087    0.933087    0.933087    0.000000    0.000000    0.000000
   57.493447    0.936923    0.936923    0.936923    0.000000    0.000000    0.000000
   58.771079    0.939513    0.939513    0.939513    0.000000    0.000000    0.000000
   60.048711    0.942622    0.942622    0.942622    0.000000    0.000000    0.000000
   61.326343    0.945709    0.945709    0.945709    0.000000    0.000000    0.000000
   62.603975    0.947444    0.947444    0.947444    0.000000    0.000000    0.000000
   63.881608    0.949967    0.949967    0.949967    0.000000    0.000000    0.000000
   65.159240    0.952752    0.952752    0.952752    0.000000    0.000000    0.000000
   66.436872    0.953596    0.953596    0.953596    0.000000    0.000000    0.000000
   67.714504    0.955985    0.955985    0.955985    0.000000    0.000000    0.000000
   68.992136    0.958216    0.958216    0.958216    0.000000    0.000000    0.000000
   70.269768    0.957862    0.957862    0.957861    0.000000    0.000000    0.000000
   71.547401    0.960560    0.960560    0.960560    0.000000    0.000000    0.000000
   72.825033    0.960653    0.960653    0.960653    0.000000    0.000000    0.000000
   74.102665    0.963042    0.963042    0.963042    0.000000    0.000000    0.000000
   75.380297    0.963461    0.963461    0.963461    0.000000    0.000000    0.000000
   76.657929    0.965537    0.965537    0.965537    0.000000    0.000000    0.000000
   77.935561    0.966483    0.966483    0.966483    0.000000    0.000000    0.000000
   79.213193    0.968248    0.968248    0.968248    0.000000    0.000000    0.000000
   80.490826    0.968681    0.968681    0.968681    0.000000    0.000000    0.000000
   81.768458    0.968989    0.968989    0.968989    0.000000    0.000000    0.000000
   83.046090    0.970009    0.970009    0.970009    0.000000    0.000000    0.000000
   84.323722    0.971457    0.971457    0.971457    0.000000    0.000000    0.000000
   85.601354    0.972106    0.972106    0.972106    0.000000    0.000000    0.000000
   86.878986    0.973235    0.973235    0.973235    0.000000    0.000000    0.000000
   88.156619    0.973472    0.973472    0.973472   -0.000000    0.000000   -0.000000
   89.434251    0.974103    0.974103    0.974103    0.000000    0.000000    0.000000
   90.711883    0.974758    0.974758    0.974757    0.000000    0.000000    0.000000
   91.989515    0.975905    0.975905    0.975906   -0.000000   -0.000000   -0.000000
   93.267147    0.976466    0.976466    0.976466   -0.000000   -0.000000   -0.000000
   94.544779    0.977404    0.977404    0.977404   -0.000000   -0.000000   -0.000000
   95.822411    0.977771    0.977771    0.977771    0.000000   -0.000000    0.000000
   97.100044    0.978357    0.978357    0.978357    0.000000    0.000000    0.000000
   98.377676    0.978869    0.978869    0.978869    0.000000    0.000000    0.000000
   99.655308    0.979419    0.979419    0.979418    0.000001    0.000000    0.000000
  100.932940    0.980054    0.980055    0.980055   -0.000000   -0.000000   -0.000000
  102.210572    0.980364    0.980364    0.980364   -0.000000   -0.000000   -0.000000
  103.488204    0.980965    0.980965    0.980965   -0.000000   -0.000000   -0.000000
  104.765836    0.981501    0.981501    0.981501   -0.000000   -0.000000   -0.000000
  106.043469    0.982036    0.982036    0.982036   -0.000000   -0.000000   -0.000000
  107.321101    0.982451    0.982451    0.982452   -0.000000   -0.000000   -0.000000
  108.598733    0.982898    0.982898    0.982898   -0.000000   -0.000000   -0.000000
  109.876365    0.983321    0.983321    0.983321   -0.000000   -0.000000   -0.000000
  111.153997    0.983726    0.983726    0.983726   -0.000000   -0.000000   -0.000000
  112.431629    0.984114    0.984114    0.984114   -0.000000   -0.000000   -0.000000
  113.709262    0.984488    0.984488    0.984488   -0.000000   -0.000000   -0.000000
  114.986894    0.984847    0.984847    0.984847   -0.000000   -0.000000   -0.000000
  116.264526    0.985193    0.985193    0.985193   -0.000000   -0.000000   -0.000000
  117.542158    0.985526    0.985526    0.985526   -0.000000   -0.000000   -0.000000
  118.819790    0.985848    0.985848    0.985848   -0.000000   -0.000000   -0.000000
  120.097422    0.986159    0.986159    0.986159   -0.000000   -0.000000   -0.000000
  121.375054    0.986460    0.986460    0.986460   -0.000000   -0.000000   -0.000000
  122.652687    0.986750    0.986750    0.986750   -0.000000   -0.000000   -0.000000
  123.930319    0.987031    0.987031    0.987031   -0.000000   -0.000000   -0.000000
  125.207951    0.987302    0.987302    0.987302   -0.000000   -0.000000   -0.000000
  126.485583    0.987565    0.987565    0.987565   -0.000000   -0.000000   -0.000000
 
 The outermost node in the dielectric function lies at epsilon=  17.6


--------------------------------------------------------------------------------------------------------


    OPTICS:  cpu time    0.2606: real time    0.2629
    4ORBIT:  cpu time    0.0000: real time    0.0000

 total amount of memory used by VASP MPI-rank0    52188. kBytes
=======================================================================

   base      :      30000. kBytes
   nonl-proj :       2811. kBytes
   fftplans  :       3316. kBytes
   grid      :       1103. kBytes
   one-center:         49. kBytes
   wavefun   :      14909. kBytes
 
  
  
 General timing and accounting informations for this job:
 ========================================================
  
                  Total CPU time used (sec):      138.984
                            User time (sec):      137.496
                          System time (sec):        1.488
                         Elapsed time (sec):      139.670
  
                   Maximum memory used (kb):      194704.
                   Average memory used (kb):           0.
  
                          Minor page faults:        76995
                          Major page faults:            0
                 Voluntary context switches:         1312
