   1   1   0   0
  0.4557239E+02  0.4009334E-09  0.4009334E-09  0.4009334E-09  0.1000000E-15
  1.000000000000000E-004
  CAR 
 Og_FCC                                  
     16.43843109    -19.96451440  301     -3.43150999      1.00000000
    -19.965  0.0000E+00  0.0000E+00
    -19.843  0.0000E+00  0.0000E+00
    -19.722  0.0000E+00  0.0000E+00
    -19.600  0.0000E+00  0.0000E+00
    -19.479  0.0000E+00  0.0000E+00
    -19.358  0.0000E+00  0.0000E+00
    -19.236  0.0000E+00  0.0000E+00
    -19.115  0.0000E+00  0.0000E+00
    -18.994  0.0000E+00  0.0000E+00
    -18.872  0.0000E+00  0.0000E+00
    -18.751  0.0000E+00  0.0000E+00
    -18.630  0.0000E+00  0.0000E+00
    -18.508  0.0000E+00  0.0000E+00
    -18.387  0.0000E+00  0.0000E+00
    -18.266  0.2360E+00  0.8112E-01
    -18.144  0.1153E+01  0.6589E+00
    -18.023  0.0000E+00  0.2000E+01
    -17.902  0.0000E+00  0.2000E+01
    -17.780  0.0000E+00  0.2000E+01
    -17.659  0.0000E+00  0.2000E+01
    -17.538  0.0000E+00  0.2000E+01
    -17.416  0.0000E+00  0.2000E+01
    -17.295  0.0000E+00  0.2000E+01
    -17.174  0.0000E+00  0.2000E+01
    -17.052  0.0000E+00  0.2000E+01
    -16.931  0.0000E+00  0.2000E+01
    -16.810  0.0000E+00  0.2000E+01
    -16.688  0.0000E+00  0.2000E+01
    -16.567  0.0000E+00  0.2000E+01
    -16.446  0.0000E+00  0.2000E+01
    -16.324  0.0000E+00  0.2000E+01
    -16.203  0.0000E+00  0.2000E+01
    -16.082  0.0000E+00  0.2000E+01
    -15.960  0.0000E+00  0.2000E+01
    -15.839  0.0000E+00  0.2000E+01
    -15.718  0.0000E+00  0.2000E+01
    -15.596  0.0000E+00  0.2000E+01
    -15.475  0.0000E+00  0.2000E+01
    -15.353  0.0000E+00  0.2000E+01
    -15.232  0.0000E+00  0.2000E+01
    -15.111  0.0000E+00  0.2000E+01
    -14.989  0.0000E+00  0.2000E+01
    -14.868  0.0000E+00  0.2000E+01
    -14.747  0.0000E+00  0.2000E+01
    -14.625  0.0000E+00  0.2000E+01
    -14.504  0.0000E+00  0.2000E+01
    -14.383  0.0000E+00  0.2000E+01
    -14.261  0.0000E+00  0.2000E+01
    -14.140  0.0000E+00  0.2000E+01
    -14.019  0.0000E+00  0.2000E+01
    -13.897  0.0000E+00  0.2000E+01
    -13.776  0.0000E+00  0.2000E+01
    -13.655  0.0000E+00  0.2000E+01
    -13.533  0.0000E+00  0.2000E+01
    -13.412  0.0000E+00  0.2000E+01
    -13.291  0.0000E+00  0.2000E+01
    -13.169  0.0000E+00  0.2000E+01
    -13.048  0.0000E+00  0.2000E+01
    -12.927  0.0000E+00  0.2000E+01
    -12.805  0.0000E+00  0.2000E+01
    -12.684  0.0000E+00  0.2000E+01
    -12.563  0.0000E+00  0.2000E+01
    -12.441  0.0000E+00  0.2000E+01
    -12.320  0.0000E+00  0.2000E+01
    -12.199  0.0000E+00  0.2000E+01
    -12.077  0.0000E+00  0.2000E+01
    -11.956  0.0000E+00  0.2000E+01
    -11.835  0.0000E+00  0.2000E+01
    -11.713  0.0000E+00  0.2000E+01
    -11.592  0.0000E+00  0.2000E+01
    -11.470  0.0000E+00  0.2000E+01
    -11.349  0.0000E+00  0.2000E+01
    -11.228  0.0000E+00  0.2000E+01
    -11.106  0.0000E+00  0.2000E+01
    -10.985  0.0000E+00  0.2000E+01
    -10.864  0.0000E+00  0.2000E+01
    -10.742  0.0000E+00  0.2000E+01
    -10.621  0.0000E+00  0.2000E+01
    -10.500  0.0000E+00  0.2000E+01
    -10.378  0.0000E+00  0.2000E+01
    -10.257  0.0000E+00  0.2000E+01
    -10.136  0.0000E+00  0.2000E+01
    -10.014  0.0000E+00  0.2000E+01
     -9.893  0.0000E+00  0.2000E+01
     -9.772  0.0000E+00  0.2000E+01
     -9.650  0.0000E+00  0.2000E+01
     -9.529  0.0000E+00  0.2000E+01
     -9.408  0.0000E+00  0.2000E+01
     -9.286  0.0000E+00  0.2000E+01
     -9.165  0.0000E+00  0.2000E+01
     -9.044  0.0000E+00  0.2000E+01
     -8.922  0.0000E+00  0.2000E+01
     -8.801  0.0000E+00  0.2000E+01
     -8.680  0.0000E+00  0.2000E+01
     -8.558  0.0000E+00  0.2000E+01
     -8.437  0.0000E+00  0.2000E+01
     -8.316  0.0000E+00  0.2000E+01
     -8.194  0.0000E+00  0.2000E+01
     -8.073  0.0000E+00  0.2000E+01
     -7.952  0.0000E+00  0.2000E+01
     -7.830  0.0000E+00  0.2000E+01
     -7.709  0.0000E+00  0.2000E+01
     -7.588  0.0000E+00  0.2000E+01
     -7.466  0.0000E+00  0.2000E+01
     -7.345  0.0000E+00  0.2000E+01
     -7.223  0.0000E+00  0.2000E+01
     -7.102  0.0000E+00  0.2000E+01
     -6.981  0.0000E+00  0.2000E+01
     -6.859  0.0000E+00  0.2000E+01
     -6.738  0.0000E+00  0.2000E+01
     -6.617  0.0000E+00  0.2000E+01
     -6.495  0.0000E+00  0.2000E+01
     -6.374  0.0000E+00  0.2000E+01
     -6.253  0.0000E+00  0.2000E+01
     -6.131  0.0000E+00  0.2000E+01
     -6.010  0.0000E+00  0.2000E+01
     -5.889  0.0000E+00  0.2000E+01
     -5.767  0.0000E+00  0.2000E+01
     -5.646  0.0000E+00  0.2000E+01
     -5.525  0.0000E+00  0.2000E+01
     -5.403  0.0000E+00  0.2000E+01
     -5.282  0.0000E+00  0.2000E+01
     -5.161  0.0000E+00  0.2187E+01
     -5.039  0.0000E+00  0.2991E+01
     -4.918  0.0000E+00  0.3481E+01
     -4.797  0.0000E+00  0.3703E+01
     -4.675  0.0000E+00  0.3843E+01
     -4.554  0.0000E+00  0.3913E+01
     -4.433  0.5766E+00  0.4262E+01
     -4.311  0.0000E+00  0.4869E+01
     -4.190  0.0000E+00  0.5294E+01
     -4.069  0.7810E-08  0.5889E+01
     -3.947  0.3020E+01  0.6734E+01
     -3.826  0.0000E+00  0.7102E+01
     -3.705  0.1153E+01  0.7743E+01
     -3.583  0.0000E+00  0.7942E+01
     -3.462  0.0000E+00  0.8000E+01
     -3.341  0.0000E+00  0.8000E+01
     -3.219  0.0000E+00  0.8000E+01
     -3.098  0.0000E+00  0.8000E+01
     -2.976  0.0000E+00  0.8000E+01
     -2.855  0.0000E+00  0.8000E+01
     -2.734  0.0000E+00  0.8000E+01
     -2.612  0.0000E+00  0.8000E+01
     -2.491  0.0000E+00  0.8000E+01
     -2.370  0.0000E+00  0.8000E+01
     -2.248  0.0000E+00  0.8000E+01
     -2.127  0.0000E+00  0.8000E+01
     -2.006  0.0000E+00  0.8000E+01
     -1.884  0.0000E+00  0.8000E+01
     -1.763  0.0000E+00  0.8000E+01
     -1.642  0.0000E+00  0.8000E+01
     -1.520  0.0000E+00  0.8000E+01
     -1.399  0.0000E+00  0.8000E+01
     -1.278  0.0000E+00  0.8000E+01
     -1.156  0.0000E+00  0.8000E+01
     -1.035  0.0000E+00  0.8000E+01
     -0.914  0.0000E+00  0.8000E+01
     -0.792  0.0000E+00  0.8000E+01
     -0.671  0.0000E+00  0.8000E+01
     -0.550  0.0000E+00  0.8000E+01
     -0.428  0.0000E+00  0.8000E+01
     -0.307  0.0000E+00  0.8000E+01
     -0.186  0.0000E+00  0.8000E+01
     -0.064  0.0000E+00  0.8000E+01
      0.057  0.0000E+00  0.8000E+01
      0.178  0.0000E+00  0.8000E+01
      0.300  0.0000E+00  0.8000E+01
      0.421  0.0000E+00  0.8000E+01
      0.542  0.0000E+00  0.8000E+01
      0.664  0.0000E+00  0.8000E+01
      0.785  0.0000E+00  0.8000E+01
      0.907  0.0000E+00  0.8000E+01
      1.028  0.0000E+00  0.8000E+01
      1.149  0.0000E+00  0.8000E+01
      1.271  0.0000E+00  0.8000E+01
      1.392  0.0000E+00  0.8000E+01
      1.513  0.0000E+00  0.8000E+01
      1.635  0.0000E+00  0.8000E+01
      1.756  0.0000E+00  0.8000E+01
      1.877  0.0000E+00  0.8000E+01
      1.999  0.0000E+00  0.8000E+01
      2.120  0.0000E+00  0.8000E+01
      2.241  0.0000E+00  0.8000E+01
      2.363  0.0000E+00  0.8000E+01
      2.484  0.0000E+00  0.8000E+01
      2.605  0.0000E+00  0.8000E+01
      2.727  0.0000E+00  0.8000E+01
      2.848  0.0000E+00  0.8000E+01
      2.969  0.0000E+00  0.8000E+01
      3.091  0.0000E+00  0.8000E+01
      3.212  0.0000E+00  0.8000E+01
      3.333  0.0000E+00  0.8000E+01
      3.455  0.0000E+00  0.8000E+01
      3.576  0.0000E+00  0.8006E+01
      3.697  0.0000E+00  0.8006E+01
      3.819  0.0000E+00  0.8006E+01
      3.940  0.0000E+00  0.8006E+01
      4.061  0.0000E+00  0.8006E+01
      4.183  0.0000E+00  0.8052E+01
      4.304  0.0000E+00  0.8087E+01
      4.425  0.0000E+00  0.8087E+01
      4.547  0.0000E+00  0.8087E+01
      4.668  0.0000E+00  0.8087E+01
      4.789  0.0000E+00  0.8087E+01
      4.911  0.0000E+00  0.8157E+01
      5.032  0.0000E+00  0.8157E+01
      5.154  0.0000E+00  0.8157E+01
      5.275  0.0000E+00  0.8344E+01
      5.396  0.0000E+00  0.8344E+01
      5.518  0.0000E+00  0.8344E+01
      5.639  0.0000E+00  0.8379E+01
      5.760  0.2112E-02  0.8379E+01
      5.882  0.0000E+00  0.8461E+01
      6.003  0.5766E+00  0.8671E+01
      6.124  0.0000E+00  0.8671E+01
      6.246  0.0000E+00  0.9090E+01
      6.367  0.1153E+01  0.9230E+01
      6.488  0.0000E+00  0.9370E+01
      6.610  0.0000E+00  0.9370E+01
      6.731  0.0000E+00  0.9510E+01
      6.852  0.7705E-07  0.9510E+01
      6.974  0.2306E+01  0.9930E+01
      7.095  0.0000E+00  0.9965E+01
      7.216  0.5766E+00  0.1010E+02
      7.338  0.0000E+00  0.1010E+02
      7.459  0.0000E+00  0.1010E+02
      7.580  0.0000E+00  0.1038E+02
      7.702  0.2830E-10  0.1087E+02
      7.823  0.0000E+00  0.1091E+02
      7.944  0.0000E+00  0.1105E+02
      8.066  0.6034E-13  0.1119E+02
      8.187  0.0000E+00  0.1147E+02
      8.308  0.6822E-05  0.1147E+02
      8.430  0.0000E+00  0.1175E+02
      8.551  0.0000E+00  0.1187E+02
      8.672  0.5766E+00  0.1240E+02
      8.794  0.0000E+00  0.1254E+02
      8.915  0.0000E+00  0.1254E+02
      9.036  0.0000E+00  0.1300E+02
      9.158  0.0000E+00  0.1328E+02
      9.279  0.0000E+00  0.1350E+02
      9.401  0.0000E+00  0.1350E+02
      9.522  0.0000E+00  0.1364E+02
      9.643  0.0000E+00  0.1373E+02
      9.765  0.0000E+00  0.1380E+02
      9.886  0.0000E+00  0.1391E+02
     10.007  0.0000E+00  0.1416E+02
     10.129  0.1153E+01  0.1439E+02
     10.250  0.0000E+00  0.1453E+02
     10.371  0.0000E+00  0.1460E+02
     10.493  0.0000E+00  0.1474E+02
     10.614  0.0000E+00  0.1530E+02
     10.735  0.0000E+00  0.1530E+02
     10.857  0.0000E+00  0.1534E+02
     10.978  0.0000E+00  0.1555E+02
     11.099  0.0000E+00  0.1569E+02
     11.221  0.0000E+00  0.1569E+02
     11.342  0.0000E+00  0.1583E+02
     11.463  0.1180E-09  0.1600E+02
     11.585  0.0000E+00  0.1617E+02
     11.706  0.0000E+00  0.1631E+02
     11.827  0.0000E+00  0.1631E+02
     11.949  0.0000E+00  0.1655E+02
     12.070  0.0000E+00  0.1655E+02
     12.191  0.0000E+00  0.1655E+02
     12.313  0.0000E+00  0.1655E+02
     12.434  0.0000E+00  0.1672E+02
     12.555  0.0000E+00  0.1679E+02
     12.677  0.5724E+00  0.1704E+02
     12.798  0.0000E+00  0.1732E+02
     12.919  0.0000E+00  0.1760E+02
     13.041  0.0000E+00  0.1781E+02
     13.162  0.0000E+00  0.1784E+02
     13.284  0.1707E+00  0.1790E+02
     13.405  0.0000E+00  0.1792E+02
     13.526  0.0000E+00  0.1810E+02
     13.648  0.5766E+00  0.1831E+02
     13.769  0.0000E+00  0.1845E+02
     13.890  0.0000E+00  0.1845E+02
     14.012  0.0000E+00  0.1892E+02
     14.133  0.0000E+00  0.1892E+02
     14.254  0.6018E-14  0.1906E+02
     14.376  0.0000E+00  0.1965E+02
     14.497  0.0000E+00  0.1979E+02
     14.618  0.5766E+00  0.1986E+02
     14.740  0.0000E+00  0.1986E+02
     14.861  0.0000E+00  0.2000E+02
     14.982  0.0000E+00  0.2000E+02
     15.104  0.0000E+00  0.2000E+02
     15.225  0.0000E+00  0.2000E+02
     15.346  0.0000E+00  0.2000E+02
     15.468  0.0000E+00  0.2000E+02
     15.589  0.0000E+00  0.2000E+02
     15.710  0.0000E+00  0.2000E+02
     15.832  0.0000E+00  0.2000E+02
     15.953  0.0000E+00  0.2000E+02
     16.074  0.0000E+00  0.2000E+02
     16.196  0.0000E+00  0.2000E+02
     16.317  0.0000E+00  0.2000E+02
     16.438  0.0000E+00  0.2000E+02
