   1   1   0   0
  0.6400541E+02  0.4489975E-09  0.4489975E-09  0.4489975E-09  0.2000000E-16
  1.000000000000000E-004
  CAR 
 Og_FCC                                  
     31.36215241    -31.82047732  301      0.79577046      1.00000000
    -31.820  0.0000E+00  0.0000E+00
    -31.610  0.0000E+00  0.0000E+00
    -31.399  0.0000E+00  0.0000E+00
    -31.189  0.0000E+00  0.0000E+00
    -30.978  0.0000E+00  0.0000E+00
    -30.767  0.0000E+00  0.0000E+00
    -30.557  0.0000E+00  0.0000E+00
    -30.346  0.0000E+00  0.0000E+00
    -30.136  0.0000E+00  0.0000E+00
    -29.925 -0.4828E-41 -0.1017E-41
    -29.714 -0.3825E-25 -0.8055E-26
    -29.504 -0.3832E-13 -0.8071E-14
    -29.293 -0.4569E-05 -0.9622E-06
    -29.083 -0.3135E-01 -0.6603E-02
    -28.872  0.9689E+00  0.1975E+00
    -28.661  0.3170E-01  0.2041E+00
    -28.451 -0.2287E-03  0.2041E+00
    -28.240 -0.3474E-10  0.2041E+00
    -28.030  0.0000E+00  0.2041E+00
    -27.819  0.0000E+00  0.2041E+00
    -27.608  0.0000E+00  0.2041E+00
    -27.398  0.0000E+00  0.2041E+00
    -27.187  0.0000E+00  0.2041E+00
    -26.976  0.0000E+00  0.2041E+00
    -26.766  0.0000E+00  0.2041E+00
    -26.555  0.0000E+00  0.2041E+00
    -26.345  0.0000E+00  0.2041E+00
    -26.134  0.0000E+00  0.2041E+00
    -25.923  0.0000E+00  0.2041E+00
    -25.713  0.0000E+00  0.2041E+00
    -25.502  0.0000E+00  0.2041E+00
    -25.292  0.0000E+00  0.2041E+00
    -25.081  0.0000E+00  0.2041E+00
    -24.870  0.0000E+00  0.2041E+00
    -24.660  0.0000E+00  0.2041E+00
    -24.449  0.0000E+00  0.2041E+00
    -24.239  0.0000E+00  0.2041E+00
    -24.028  0.0000E+00  0.2041E+00
    -23.817  0.0000E+00  0.2041E+00
    -23.607  0.0000E+00  0.2041E+00
    -23.396  0.0000E+00  0.2041E+00
    -23.186  0.0000E+00  0.2041E+00
    -22.975  0.0000E+00  0.2041E+00
    -22.764 -0.3732E-31  0.2041E+00
    -22.554 -0.4734E-18  0.2041E+00
    -22.343 -0.9177E-09  0.2041E+00
    -22.132 -0.3259E-03  0.2040E+00
    -21.922  0.4160E-01  0.2128E+00
    -21.711  0.1561E+00  0.2456E+00
    -21.501 -0.3568E-02  0.2449E+00
    -21.290 -0.1458E-06  0.2449E+00
    -21.079 -0.4611E-15  0.2449E+00
    -20.869  0.0000E+00  0.2449E+00
    -20.658  0.0000E+00  0.2449E+00
    -20.448  0.0000E+00  0.2449E+00
    -20.237  0.0000E+00  0.2449E+00
    -20.026  0.0000E+00  0.2449E+00
    -19.816  0.0000E+00  0.2449E+00
    -19.605  0.0000E+00  0.2449E+00
    -19.395  0.0000E+00  0.2449E+00
    -19.184  0.0000E+00  0.2449E+00
    -18.973  0.0000E+00  0.2449E+00
    -18.763  0.0000E+00  0.2449E+00
    -18.552  0.0000E+00  0.2449E+00
    -18.342  0.0000E+00  0.2449E+00
    -18.131  0.0000E+00  0.2449E+00
    -17.920  0.0000E+00  0.2449E+00
    -17.710  0.0000E+00  0.2449E+00
    -17.499  0.0000E+00  0.2449E+00
    -17.288  0.0000E+00  0.2449E+00
    -17.078  0.0000E+00  0.2449E+00
    -16.867  0.0000E+00  0.2449E+00
    -16.657  0.0000E+00  0.2449E+00
    -16.446  0.0000E+00  0.2449E+00
    -16.235  0.0000E+00  0.2449E+00
    -16.025  0.0000E+00  0.2449E+00
    -15.814  0.0000E+00  0.2449E+00
    -15.604  0.0000E+00  0.2449E+00
    -15.393  0.0000E+00  0.2449E+00
    -15.182  0.0000E+00  0.2449E+00
    -14.972  0.0000E+00  0.2449E+00
    -14.761  0.0000E+00  0.2449E+00
    -14.551  0.0000E+00  0.2449E+00
    -14.340  0.0000E+00  0.2449E+00
    -14.129  0.0000E+00  0.2449E+00
    -13.919  0.0000E+00  0.2449E+00
    -13.708  0.0000E+00  0.2449E+00
    -13.498  0.0000E+00  0.2449E+00
    -13.287  0.0000E+00  0.2449E+00
    -13.076  0.0000E+00  0.2449E+00
    -12.866  0.0000E+00  0.2449E+00
    -12.655  0.0000E+00  0.2449E+00
    -12.444  0.0000E+00  0.2449E+00
    -12.234  0.0000E+00  0.2449E+00
    -12.023  0.0000E+00  0.2449E+00
    -11.813  0.0000E+00  0.2449E+00
    -11.602  0.0000E+00  0.2449E+00
    -11.391  0.0000E+00  0.2449E+00
    -11.181  0.0000E+00  0.2449E+00
    -10.970  0.0000E+00  0.2449E+00
    -10.760  0.0000E+00  0.2449E+00
    -10.549  0.0000E+00  0.2449E+00
    -10.338  0.0000E+00  0.2449E+00
    -10.128  0.0000E+00  0.2449E+00
     -9.917  0.0000E+00  0.2449E+00
     -9.707  0.0000E+00  0.2449E+00
     -9.496  0.0000E+00  0.2449E+00
     -9.285  0.0000E+00  0.2449E+00
     -9.075  0.0000E+00  0.2449E+00
     -8.864  0.0000E+00  0.2449E+00
     -8.654  0.0000E+00  0.2449E+00
     -8.443  0.0000E+00  0.2449E+00
     -8.232  0.0000E+00  0.2449E+00
     -8.022  0.0000E+00  0.2449E+00
     -7.811  0.0000E+00  0.2449E+00
     -7.600  0.0000E+00  0.2449E+00
     -7.390  0.0000E+00  0.2449E+00
     -7.179  0.0000E+00  0.2449E+00
     -6.969  0.0000E+00  0.2449E+00
     -6.758  0.0000E+00  0.2449E+00
     -6.547  0.0000E+00  0.2449E+00
     -6.337  0.0000E+00  0.2449E+00
     -6.126  0.0000E+00  0.2449E+00
     -5.916  0.0000E+00  0.2449E+00
     -5.705  0.0000E+00  0.2449E+00
     -5.494  0.0000E+00  0.2449E+00
     -5.284  0.0000E+00  0.2449E+00
     -5.073  0.0000E+00  0.2449E+00
     -4.863  0.0000E+00  0.2449E+00
     -4.652  0.0000E+00  0.2449E+00
     -4.441  0.0000E+00  0.2449E+00
     -4.231  0.0000E+00  0.2449E+00
     -4.020  0.0000E+00  0.2449E+00
     -3.810  0.0000E+00  0.2449E+00
     -3.599  0.0000E+00  0.2449E+00
     -3.388  0.0000E+00  0.2449E+00
     -3.178  0.0000E+00  0.2449E+00
     -2.967  0.0000E+00  0.2449E+00
     -2.756 -0.4939E-43  0.2449E+00
     -2.546 -0.2843E-27  0.2449E+00
     -2.335 -0.2095E-15  0.2449E+00
     -2.125 -0.2037E-07  0.2449E+00
     -1.914 -0.1942E-03  0.2449E+00
     -1.703  0.7056E-02  0.2463E+00
     -1.493  0.3820E-01  0.2544E+00
     -1.282  0.8401E-01  0.2721E+00
     -1.072  0.3573E-01  0.2796E+00
     -0.861  0.1897E-01  0.2836E+00
     -0.650  0.3203E-01  0.2903E+00
     -0.440  0.3592E-01  0.2979E+00
     -0.229  0.4173E-01  0.3067E+00
     -0.019  0.6603E-01  0.3206E+00
      0.192  0.7882E-01  0.3372E+00
      0.403  0.7416E-01  0.3528E+00
      0.613  0.5387E-01  0.3642E+00
      0.824  0.1536E-01  0.3674E+00
      1.034 -0.2919E-03  0.3673E+00
      1.245 -0.4921E-06  0.3673E+00
      1.456 -0.5939E-13  0.3673E+00
      1.666  0.0000E+00  0.3673E+00
      1.877  0.0000E+00  0.3673E+00
      2.088 -0.5560E-33  0.3673E+00
      2.298 -0.8102E-20  0.3673E+00
      2.509 -0.1382E-10  0.3673E+00
      2.719 -0.2126E-05  0.3673E+00
      2.930  0.1588E-03  0.3674E+00
      3.141  0.1102E-03  0.3674E+00
      3.351 -0.3095E-05  0.3674E+00
      3.562  0.3636E-03  0.3675E+00
      3.772  0.1897E-02  0.3679E+00
      3.983  0.1511E-02  0.3682E+00
      4.194 -0.9282E-04  0.3682E+00
      4.404  0.2407E-02  0.3687E+00
      4.615  0.1284E-02  0.3690E+00
      4.825  0.7716E-02  0.3706E+00
      5.036  0.2876E-03  0.3706E+00
      5.247  0.2389E-02  0.3711E+00
      5.457  0.1059E-01  0.3734E+00
      5.668  0.1203E-01  0.3759E+00
      5.878  0.2306E-01  0.3808E+00
      6.089  0.1482E-01  0.3839E+00
      6.300  0.1794E-01  0.3877E+00
      6.510  0.2953E-01  0.3939E+00
      6.721  0.3121E-01  0.4005E+00
      6.932  0.1129E-01  0.4028E+00
      7.142  0.1361E-01  0.4057E+00
      7.353  0.1545E-01  0.4090E+00
      7.563  0.1548E-01  0.4122E+00
      7.774  0.6266E-02  0.4135E+00
      7.985  0.1720E-01  0.4172E+00
      8.195  0.4175E-01  0.4259E+00
      8.406  0.5028E-01  0.4365E+00
      8.616  0.2019E-01  0.4408E+00
      8.827  0.7727E-01  0.4571E+00
      9.038  0.2849E-01  0.4631E+00
      9.248  0.4133E-02  0.4639E+00
      9.459  0.7870E-02  0.4656E+00
      9.669  0.1727E-01  0.4692E+00
      9.880  0.6390E-01  0.4827E+00
     10.091  0.4960E-01  0.4931E+00
     10.301  0.4417E-01  0.5024E+00
     10.512  0.4673E-01  0.5123E+00
     10.722  0.1291E-01  0.5150E+00
     10.933  0.4052E-01  0.5235E+00
     11.144  0.2019E-01  0.5278E+00
     11.354  0.1377E-01  0.5307E+00
     11.565  0.4095E-01  0.5393E+00
     11.776  0.7157E-01  0.5544E+00
     11.986  0.5677E-01  0.5663E+00
     12.197  0.4464E-01  0.5757E+00
     12.407  0.1221E-01  0.5783E+00
     12.618  0.4054E-01  0.5869E+00
     12.829  0.3976E-01  0.5952E+00
     13.039  0.4026E-01  0.6037E+00
     13.250  0.7271E-01  0.6190E+00
     13.460  0.5868E-01  0.6314E+00
     13.671  0.2375E-01  0.6364E+00
     13.882  0.1873E-01  0.6403E+00
     14.092  0.1893E-01  0.6443E+00
     14.303  0.2822E-01  0.6503E+00
     14.513  0.2899E-01  0.6564E+00
     14.724  0.1728E-01  0.6600E+00
     14.935  0.4609E-01  0.6697E+00
     15.145  0.5666E-01  0.6816E+00
     15.356  0.2970E-01  0.6879E+00
     15.566  0.7364E-01  0.7034E+00
     15.777  0.4982E-01  0.7139E+00
     15.988  0.6977E-01  0.7286E+00
     16.198  0.6951E-01  0.7432E+00
     16.409  0.5541E-01  0.7549E+00
     16.620  0.6837E-01  0.7693E+00
     16.830  0.9006E-01  0.7883E+00
     17.041  0.1176E+00  0.8130E+00
     17.251  0.1119E+00  0.8366E+00
     17.462  0.6896E-01  0.8511E+00
     17.673  0.6440E-01  0.8647E+00
     17.883  0.6412E-01  0.8782E+00
     18.094  0.3990E-01  0.8866E+00
     18.304  0.2792E-01  0.8925E+00
     18.515  0.5639E-01  0.9043E+00
     18.726  0.5601E-01  0.9161E+00
     18.936  0.6552E-01  0.9299E+00
     19.147  0.3860E-01  0.9381E+00
     19.357  0.3862E-02  0.9389E+00
     19.568  0.9769E-02  0.9409E+00
     19.779  0.7821E-02  0.9426E+00
     19.989  0.2568E-03  0.9426E+00
     20.200  0.2459E-01  0.9478E+00
     20.410  0.5452E-01  0.9593E+00
     20.621  0.3570E-01  0.9668E+00
     20.832  0.2871E-01  0.9729E+00
     21.042  0.3084E-01  0.9794E+00
     21.253  0.4580E-01  0.9890E+00
     21.464  0.3932E-01  0.9973E+00
     21.674  0.4767E-01  0.1007E+01
     21.885  0.5692E-01  0.1019E+01
     22.095  0.3849E-01  0.1027E+01
     22.306  0.6221E-01  0.1041E+01
     22.517  0.6985E-01  0.1055E+01
     22.727  0.7370E-01  0.1071E+01
     22.938  0.1048E+00  0.1093E+01
     23.148  0.1058E+00  0.1115E+01
     23.359  0.8240E-01  0.1132E+01
     23.570  0.3885E-01  0.1141E+01
     23.780  0.6263E-01  0.1154E+01
     23.991  0.3557E-01  0.1161E+01
     24.201  0.2890E-01  0.1167E+01
     24.412  0.2944E-01  0.1174E+01
     24.623  0.3456E-02  0.1174E+01
     24.833  0.4089E-01  0.1183E+01
     25.044  0.5007E-01  0.1194E+01
     25.254  0.4983E-01  0.1204E+01
     25.465  0.9315E-01  0.1224E+01
     25.676  0.3529E-01  0.1231E+01
     25.886  0.1434E-01  0.1234E+01
     26.097  0.2747E-01  0.1240E+01
     26.308  0.1231E-01  0.1242E+01
     26.518  0.3117E-01  0.1249E+01
     26.729  0.6084E-01  0.1262E+01
     26.939  0.3345E-01  0.1269E+01
     27.150  0.2711E-01  0.1275E+01
     27.361  0.2868E-01  0.1281E+01
     27.571  0.2570E-01  0.1286E+01
     27.782  0.3974E-01  0.1294E+01
     27.992  0.2152E-01  0.1299E+01
     28.203  0.8963E-02  0.1301E+01
     28.414  0.1982E-01  0.1305E+01
     28.624  0.5432E-02  0.1306E+01
     28.835 -0.1309E-03  0.1306E+01
     29.045 -0.1448E-07  0.1306E+01
     29.256 -0.1318E-15  0.1306E+01
     29.467  0.0000E+00  0.1306E+01
     29.677  0.0000E+00  0.1306E+01
     29.888  0.0000E+00  0.1306E+01
     30.098  0.0000E+00  0.1306E+01
     30.309  0.0000E+00  0.1306E+01
     30.520  0.0000E+00  0.1306E+01
     30.730  0.0000E+00  0.1306E+01
     30.941  0.0000E+00  0.1306E+01
     31.152  0.0000E+00  0.1306E+01
     31.362  0.0000E+00  0.1306E+01
