   1   1   0   0
  0.6325587E+02  0.4472379E-09  0.4472379E-09  0.4472379E-09  0.2000000E-16
  1.000000000000000E-004
  CAR 
 Og_FCC                                  
     17.87725393    -30.94807821  301      1.02689760      1.00000000
    -30.948  0.0000E+00  0.0000E+00
    -30.785  0.0000E+00  0.0000E+00
    -30.623  0.0000E+00  0.0000E+00
    -30.460  0.0000E+00  0.0000E+00
    -30.297  0.0000E+00  0.0000E+00
    -30.134  0.0000E+00  0.0000E+00
    -29.972  0.0000E+00  0.0000E+00
    -29.809  0.0000E+00  0.0000E+00
    -29.646 -0.4289E-36 -0.6980E-37
    -29.483 -0.2634E-24 -0.4287E-25
    -29.321 -0.7753E-15 -0.1262E-15
    -29.158 -0.1006E-07 -0.1637E-08
    -28.995 -0.5460E-03 -0.8887E-04
    -28.832 -0.3899E-01 -0.6435E-02
    -28.670  0.1161E+01  0.1825E+00
    -28.507  0.1380E+00  0.2050E+00
    -28.344 -0.5504E-02  0.2041E+00
    -28.181 -0.6713E-06  0.2041E+00
    -28.019 -0.3005E-12  0.2041E+00
    -27.856  0.0000E+00  0.2041E+00
    -27.693  0.0000E+00  0.2041E+00
    -27.530  0.0000E+00  0.2041E+00
    -27.368  0.0000E+00  0.2041E+00
    -27.205  0.0000E+00  0.2041E+00
    -27.042  0.0000E+00  0.2041E+00
    -26.879  0.0000E+00  0.2041E+00
    -26.717  0.0000E+00  0.2041E+00
    -26.554  0.0000E+00  0.2041E+00
    -26.391  0.0000E+00  0.2041E+00
    -26.228  0.0000E+00  0.2041E+00
    -26.066  0.0000E+00  0.2041E+00
    -25.903  0.0000E+00  0.2041E+00
    -25.740  0.0000E+00  0.2041E+00
    -25.577  0.0000E+00  0.2041E+00
    -25.415  0.0000E+00  0.2041E+00
    -25.252  0.0000E+00  0.2041E+00
    -25.089  0.0000E+00  0.2041E+00
    -24.926  0.0000E+00  0.2041E+00
    -24.764  0.0000E+00  0.2041E+00
    -24.601  0.0000E+00  0.2041E+00
    -24.438  0.0000E+00  0.2041E+00
    -24.275  0.0000E+00  0.2041E+00
    -24.113  0.0000E+00  0.2041E+00
    -23.950  0.0000E+00  0.2041E+00
    -23.787  0.0000E+00  0.2041E+00
    -23.624  0.0000E+00  0.2041E+00
    -23.462  0.0000E+00  0.2041E+00
    -23.299  0.0000E+00  0.2041E+00
    -23.136  0.0000E+00  0.2041E+00
    -22.973  0.0000E+00  0.2041E+00
    -22.811  0.0000E+00  0.2041E+00
    -22.648 -0.1324E-39  0.2041E+00
    -22.485 -0.1434E-27  0.2041E+00
    -22.322 -0.8038E-18  0.2041E+00
    -22.160 -0.2328E-10  0.2041E+00
    -21.997 -0.3984E-05  0.2041E+00
    -21.834 -0.3597E-02  0.2035E+00
    -21.671  0.9031E-01  0.2182E+00
    -21.509  0.1714E+00  0.2461E+00
    -21.346 -0.7340E-02  0.2449E+00
    -21.183 -0.2429E-04  0.2449E+00
    -21.020 -0.2074E-09  0.2449E+00
    -20.858 -0.2750E-17  0.2449E+00
    -20.695  0.0000E+00  0.2449E+00
    -20.532  0.0000E+00  0.2449E+00
    -20.369  0.0000E+00  0.2449E+00
    -20.207  0.0000E+00  0.2449E+00
    -20.044  0.0000E+00  0.2449E+00
    -19.881  0.0000E+00  0.2449E+00
    -19.718  0.0000E+00  0.2449E+00
    -19.556  0.0000E+00  0.2449E+00
    -19.393  0.0000E+00  0.2449E+00
    -19.230  0.0000E+00  0.2449E+00
    -19.067  0.0000E+00  0.2449E+00
    -18.904  0.0000E+00  0.2449E+00
    -18.742  0.0000E+00  0.2449E+00
    -18.579  0.0000E+00  0.2449E+00
    -18.416  0.0000E+00  0.2449E+00
    -18.253  0.0000E+00  0.2449E+00
    -18.091  0.0000E+00  0.2449E+00
    -17.928  0.0000E+00  0.2449E+00
    -17.765  0.0000E+00  0.2449E+00
    -17.602  0.0000E+00  0.2449E+00
    -17.440  0.0000E+00  0.2449E+00
    -17.277  0.0000E+00  0.2449E+00
    -17.114  0.0000E+00  0.2449E+00
    -16.951  0.0000E+00  0.2449E+00
    -16.789  0.0000E+00  0.2449E+00
    -16.626  0.0000E+00  0.2449E+00
    -16.463  0.0000E+00  0.2449E+00
    -16.300  0.0000E+00  0.2449E+00
    -16.138  0.0000E+00  0.2449E+00
    -15.975  0.0000E+00  0.2449E+00
    -15.812  0.0000E+00  0.2449E+00
    -15.649  0.0000E+00  0.2449E+00
    -15.487  0.0000E+00  0.2449E+00
    -15.324  0.0000E+00  0.2449E+00
    -15.161  0.0000E+00  0.2449E+00
    -14.998  0.0000E+00  0.2449E+00
    -14.836  0.0000E+00  0.2449E+00
    -14.673  0.0000E+00  0.2449E+00
    -14.510  0.0000E+00  0.2449E+00
    -14.347  0.0000E+00  0.2449E+00
    -14.185  0.0000E+00  0.2449E+00
    -14.022  0.0000E+00  0.2449E+00
    -13.859  0.0000E+00  0.2449E+00
    -13.696  0.0000E+00  0.2449E+00
    -13.534  0.0000E+00  0.2449E+00
    -13.371  0.0000E+00  0.2449E+00
    -13.208  0.0000E+00  0.2449E+00
    -13.045  0.0000E+00  0.2449E+00
    -12.883  0.0000E+00  0.2449E+00
    -12.720  0.0000E+00  0.2449E+00
    -12.557  0.0000E+00  0.2449E+00
    -12.394  0.0000E+00  0.2449E+00
    -12.232  0.0000E+00  0.2449E+00
    -12.069  0.0000E+00  0.2449E+00
    -11.906  0.0000E+00  0.2449E+00
    -11.743  0.0000E+00  0.2449E+00
    -11.581  0.0000E+00  0.2449E+00
    -11.418  0.0000E+00  0.2449E+00
    -11.255  0.0000E+00  0.2449E+00
    -11.092  0.0000E+00  0.2449E+00
    -10.930  0.0000E+00  0.2449E+00
    -10.767  0.0000E+00  0.2449E+00
    -10.604  0.0000E+00  0.2449E+00
    -10.441  0.0000E+00  0.2449E+00
    -10.279  0.0000E+00  0.2449E+00
    -10.116  0.0000E+00  0.2449E+00
     -9.953  0.0000E+00  0.2449E+00
     -9.790  0.0000E+00  0.2449E+00
     -9.628  0.0000E+00  0.2449E+00
     -9.465  0.0000E+00  0.2449E+00
     -9.302  0.0000E+00  0.2449E+00
     -9.139  0.0000E+00  0.2449E+00
     -8.977  0.0000E+00  0.2449E+00
     -8.814  0.0000E+00  0.2449E+00
     -8.651  0.0000E+00  0.2449E+00
     -8.488  0.0000E+00  0.2449E+00
     -8.326  0.0000E+00  0.2449E+00
     -8.163  0.0000E+00  0.2449E+00
     -8.000  0.0000E+00  0.2449E+00
     -7.837  0.0000E+00  0.2449E+00
     -7.675  0.0000E+00  0.2449E+00
     -7.512  0.0000E+00  0.2449E+00
     -7.349  0.0000E+00  0.2449E+00
     -7.186  0.0000E+00  0.2449E+00
     -7.024  0.0000E+00  0.2449E+00
     -6.861  0.0000E+00  0.2449E+00
     -6.698  0.0000E+00  0.2449E+00
     -6.535  0.0000E+00  0.2449E+00
     -6.373  0.0000E+00  0.2449E+00
     -6.210  0.0000E+00  0.2449E+00
     -6.047  0.0000E+00  0.2449E+00
     -5.884  0.0000E+00  0.2449E+00
     -5.722  0.0000E+00  0.2449E+00
     -5.559  0.0000E+00  0.2449E+00
     -5.396  0.0000E+00  0.2449E+00
     -5.233  0.0000E+00  0.2449E+00
     -5.071  0.0000E+00  0.2449E+00
     -4.908  0.0000E+00  0.2449E+00
     -4.745  0.0000E+00  0.2449E+00
     -4.582  0.0000E+00  0.2449E+00
     -4.420  0.0000E+00  0.2449E+00
     -4.257  0.0000E+00  0.2449E+00
     -4.094  0.0000E+00  0.2449E+00
     -3.931  0.0000E+00  0.2449E+00
     -3.769  0.0000E+00  0.2449E+00
     -3.606  0.0000E+00  0.2449E+00
     -3.443  0.0000E+00  0.2449E+00
     -3.280  0.0000E+00  0.2449E+00
     -3.118  0.0000E+00  0.2449E+00
     -2.955  0.0000E+00  0.2449E+00
     -2.792  0.0000E+00  0.2449E+00
     -2.629  0.0000E+00  0.2449E+00
     -2.467 -0.3500E-36  0.2449E+00
     -2.304 -0.7425E-25  0.2449E+00
     -2.141 -0.7376E-16  0.2449E+00
     -1.978 -0.3557E-09  0.2449E+00
     -1.816 -0.8003E-05  0.2449E+00
     -1.653 -0.2415E-03  0.2449E+00
     -1.490  0.9650E-02  0.2464E+00
     -1.327  0.3287E-01  0.2518E+00
     -1.165  0.7196E-01  0.2635E+00
     -1.002  0.7483E-01  0.2757E+00
     -0.839  0.2623E-01  0.2799E+00
     -0.676  0.1817E-01  0.2829E+00
     -0.514  0.3327E-01  0.2883E+00
     -0.351  0.2628E-01  0.2926E+00
     -0.188  0.3835E-01  0.2988E+00
     -0.025  0.4067E-01  0.3054E+00
      0.137  0.7194E-01  0.3172E+00
      0.300  0.5826E-01  0.3266E+00
      0.463  0.8946E-01  0.3412E+00
      0.626  0.7031E-01  0.3526E+00
      0.788  0.5999E-01  0.3624E+00
      0.951  0.2582E-01  0.3666E+00
      1.114  0.4784E-02  0.3674E+00
      1.277 -0.2335E-03  0.3673E+00
      1.439 -0.3361E-06  0.3673E+00
      1.602 -0.2303E-11  0.3673E+00
      1.765  0.0000E+00  0.3673E+00
      1.928  0.0000E+00  0.3673E+00
      2.090  0.0000E+00  0.3673E+00
      2.253  0.0000E+00  0.3673E+00
      2.416 -0.2995E-32  0.3673E+00
      2.579 -0.7356E-22  0.3673E+00
      2.741 -0.8153E-14  0.3673E+00
      2.904 -0.4003E-08  0.3673E+00
      3.067 -0.6060E-05  0.3673E+00
      3.230  0.1509E-03  0.3674E+00
      3.392  0.2082E-03  0.3674E+00
      3.555 -0.8979E-05  0.3674E+00
      3.718 -0.1771E-04  0.3674E+00
      3.881  0.4734E-03  0.3675E+00
      4.043  0.2322E-02  0.3679E+00
      4.206  0.1738E-02  0.3681E+00
      4.369  0.3127E-03  0.3682E+00
      4.532 -0.9447E-04  0.3682E+00
      4.694  0.2010E-02  0.3685E+00
      4.857  0.2194E-02  0.3689E+00
      5.020  0.2927E-02  0.3693E+00
      5.183  0.8264E-02  0.3707E+00
      5.345 -0.2219E-03  0.3706E+00
      5.508  0.8214E-03  0.3708E+00
      5.671  0.1126E-01  0.3726E+00
      5.834  0.7300E-02  0.3738E+00
      5.996  0.1338E-01  0.3760E+00
      6.159  0.2642E-01  0.3803E+00
      6.322  0.1223E-01  0.3823E+00
      6.485  0.1390E-01  0.3845E+00
      6.647  0.2632E-01  0.3888E+00
      6.810  0.2816E-01  0.3934E+00
      6.973  0.3196E-01  0.3986E+00
      7.136  0.2422E-01  0.4025E+00
      7.298  0.2568E-02  0.4030E+00
      7.461  0.1696E-01  0.4057E+00
      7.624  0.1558E-01  0.4083E+00
      7.787  0.1924E-01  0.4114E+00
      7.949  0.4735E-02  0.4122E+00
      8.112  0.1166E-01  0.4141E+00
      8.275  0.1582E-01  0.4166E+00
      8.438  0.2738E-01  0.4211E+00
      8.600  0.6315E-01  0.4314E+00
      8.763  0.3621E-01  0.4373E+00
      8.926  0.1948E-01  0.4404E+00
      9.089  0.6729E-01  0.4514E+00
      9.251  0.6079E-01  0.4613E+00
      9.414  0.1237E-01  0.4633E+00
      9.577  0.4252E-02  0.4640E+00
      9.740  0.8691E-02  0.4654E+00
      9.902  0.8645E-02  0.4668E+00
     10.065  0.4094E-01  0.4735E+00
     10.228  0.5978E-01  0.4832E+00
     10.391  0.5589E-01  0.4923E+00
     10.553  0.3933E-01  0.4987E+00
     10.716  0.5511E-01  0.5077E+00
     10.879  0.3522E-01  0.5134E+00
     11.042  0.8866E-02  0.5148E+00
     11.204  0.4491E-01  0.5221E+00
     11.367  0.2943E-01  0.5269E+00
     11.530  0.5302E-02  0.5278E+00
     11.693  0.1803E-01  0.5307E+00
     11.855  0.4143E-01  0.5375E+00
     12.018  0.7486E-01  0.5497E+00
     12.181  0.4774E-01  0.5574E+00
     12.344  0.6544E-01  0.5681E+00
     12.506  0.4438E-01  0.5753E+00
     12.669  0.1454E-01  0.5777E+00
     12.832  0.2124E-01  0.5811E+00
     12.995  0.5093E-01  0.5894E+00
     13.157  0.3134E-01  0.5945E+00
     13.320  0.4026E-01  0.6011E+00
     13.483  0.6177E-01  0.6111E+00
     13.646  0.6632E-01  0.6219E+00
     13.808  0.4911E-01  0.6299E+00
     13.971  0.1045E-01  0.6316E+00
     14.134  0.1458E-01  0.6340E+00
     14.297  0.8013E-02  0.6353E+00
     14.459  0.4403E-02  0.6360E+00
     14.622  0.2494E-01  0.6401E+00
     14.785  0.2811E-01  0.6446E+00
     14.948  0.1282E-03  0.6446E+00
     15.110  0.2641E-02  0.6451E+00
     15.273  0.1727E-01  0.6479E+00
     15.436  0.1547E-01  0.6504E+00
     15.599  0.5897E-02  0.6514E+00
     15.761  0.1077E-01  0.6531E+00
     15.924 -0.3455E-03  0.6531E+00
     16.087 -0.4525E-05  0.6531E+00
     16.250 -0.9572E-10  0.6531E+00
     16.412 -0.9167E-17  0.6531E+00
     16.575  0.0000E+00  0.6531E+00
     16.738  0.0000E+00  0.6531E+00
     16.901  0.0000E+00  0.6531E+00
     17.063  0.0000E+00  0.6531E+00
     17.226  0.0000E+00  0.6531E+00
     17.389  0.0000E+00  0.6531E+00
     17.552  0.0000E+00  0.6531E+00
     17.715  0.0000E+00  0.6531E+00
     17.877  0.0000E+00  0.6531E+00
