    1    1   49    1
  0.6325587E+02  0.4472379E-09  0.4472379E-09  0.4472379E-09  0.2000000E-16
  1.000000000000000E-004
  CAR 
 Og_FCC                                  
     18     35     16
 
  0.0000000E+00  0.0000000E+00  0.0000000E+00  0.1371742E-02
    1      -28.726947   1.000000
    2      -28.726947   1.000000
    3      -28.726947   1.000000
    4      -28.724526   1.000000
    5      -28.724526   1.000000
    6      -21.718917   1.000000
    7        0.989168   0.795494
    8        0.989168   0.795494
    9        0.989168   0.795493
   10        3.239039  -0.000000
   11       10.174047   0.000000
   12       10.174047   0.000000
   13       10.174047   0.000000
   14       10.663707   0.000000
   15       12.745980   0.000000
   16       12.746063   0.000000
 
  0.1111111E+00  0.7953140E-17  0.6938894E-17  0.1097394E-01
    1      -28.726744   1.000000
    2      -28.726606   1.000000
    3      -28.726606   1.000000
    4      -28.724441   1.000000
    5      -28.724441   1.000000
    6      -21.711186   1.000000
    7        0.399905   1.000000
    8        0.947148   0.989403
    9        0.947148   0.989403
   10        3.924461   0.000000
   11        9.446940   0.000000
   12       10.296291   0.000000
   13       10.296291   0.000000
   14       11.645783   0.000000
   15       11.952995   0.000000
   16       11.953008   0.000000
 
  0.2222222E+00  0.1590628E-16 -0.1387779E-16  0.1097394E-01
    1      -28.726269   1.000000
    2      -28.726194   1.000000
    3      -28.726194   1.000000
    4      -28.723767   1.000000
    5      -28.723767   1.000000
    6      -21.691376   1.000000
    7       -0.505751   1.000000
    8        0.844318   1.013460
    9        0.844319   1.013460
   10        4.962344   0.000000
   11        9.218541   0.000000
   12       10.325920   0.000000
   13       10.325920   0.000000
   14       11.271193   0.000000
   15       11.749672   0.000000
   16       11.749672   0.000000
 
  0.3333333E+00  0.3079831E-16  0.1387779E-16  0.1097394E-01
    1      -28.726264   1.000000
    2      -28.726264   1.000000
    3      -28.725746   1.000000
    4      -28.722466   1.000000
    5      -28.722466   1.000000
    6      -21.668663   1.000000
    7       -1.206598   1.000000
    8        0.732929   1.000130
    9        0.732929   1.000130
   10        5.516207   0.000000
   11        9.930511   0.000000
   12       10.004067   0.000000
   13       10.004067   0.000000
   14       10.780217   0.000000
   15       12.472138   0.000000
   16       12.472138   0.000000
 
  0.4444444E+00  0.3181256E-16 -0.2775558E-16  0.1097394E-01
    1      -28.726420   1.000000
    2      -28.726420   1.000000
    3      -28.725389   1.000000
    4      -28.721511   1.000000
    5      -28.721511   1.000000
    6      -21.653738   1.000000
    7       -1.577991   1.000000
    8        0.663049   1.000002
    9        0.663049   1.000002
   10        5.635262   0.000000
   11        9.773432   0.000000
   12        9.773432   0.000000
   13       10.193836   0.000000
   14       11.675983   0.000000
   15       13.444636   0.000000
   16       13.444636   0.000000
 
  0.1111111E+00  0.1111111E+00  0.1387779E-16  0.8230453E-02
    1      -28.727158   1.000000
    2      -28.726196   1.000000
    3      -28.726196   1.000000
    4      -28.724725   1.000000
    5      -28.724201   1.000000
    6      -21.708600   1.000000
    7        0.367856   1.000000
    8        0.856276   1.018277
    9        0.856276   1.018277
   10        4.159039   0.000000
   11        9.151048   0.000000
   12       10.470123   0.000000
   13       10.470123   0.000000
   14       10.912964   0.000000
   15       11.967861   0.000000
   16       13.050045   0.000000
 
  0.2222222E+00  0.1111111E+00 -0.1387779E-16  0.3292181E-01
    1      -28.727056   1.000000
    2      -28.725612   1.000000
    3      -28.725585   1.000000
    4      -28.724548   1.000000
    5      -28.723576   1.000000
    6      -21.692813   1.000000
    7       -0.311056   1.000000
    8        0.720456   1.000065
    9        0.757979   1.000477
   10        5.086982   0.000000
   11        8.779369   0.000000
   12        9.925457   0.000000
   13       10.695491   0.000000
   14       11.068454   0.000000
   15       12.423872   0.000000
   16       12.591388   0.000000
 
  0.3333333E+00  0.1111111E+00  0.2775558E-16  0.3292181E-01
    1      -28.726639   1.000000
    2      -28.725561   1.000000
    3      -28.725529   1.000000
    4      -28.723441   1.000000
    5      -28.722334   1.000000
    6      -21.671063   1.000000
    7       -0.995055   1.000000
    8        0.605307   1.000000
    9        0.607180   1.000000
   10        5.839504   0.000000
   11        9.136532   0.000000
   12        9.280594   0.000000
   13       10.502713   0.000000
   14       11.905882   0.000000
   15       12.007257   0.000000
   16       12.994455   0.000000
 
  0.4444444E+00  0.1111111E+00  0.0000000E+00  0.3292181E-01
    1      -28.726500   1.000000
    2      -28.725759   1.000000
    3      -28.725203   1.000000
    4      -28.722307   1.000000
    5      -28.721441   1.000000
    6      -21.653517   1.000000
    7       -1.429101   1.000000
    8        0.441700   1.000000
    9        0.559462   1.000000
   10        6.086501   0.000000
   11        8.916407   0.000000
   12       10.166666   0.000000
   13       10.351903   0.000000
   14       11.645870   0.000000
   15       12.998315   0.000000
   16       13.732387   0.000000
 
 -0.4444444E+00  0.1111111E+00 -0.1387779E-16  0.3292181E-01
    1      -28.726434   1.000000
    2      -28.725869   1.000000
    3      -28.725052   1.000000
    4      -28.721678   1.000000
    5      -28.721532   1.000000
    6      -21.648544   1.000000
    7       -1.538105   1.000000
    8        0.338476   1.000000
    9        0.600559   1.000000
   10        6.123826   0.000000
   11        8.861442   0.000000
   12        9.987431   0.000000
   13       11.123844   0.000000
   14       11.917004   0.000000
   15       12.811188   0.000000
   16       13.307273   0.000000
 
 -0.3333333E+00  0.1111111E+00 -0.1387779E-16  0.3292181E-01
    1      -28.726247   1.000000
    2      -28.725802   1.000000
    3      -28.725387   1.000000
    4      -28.722601   1.000000
    5      -28.721845   1.000000
    6      -21.658509   1.000000
    7       -1.310495   1.000000
    8        0.344979   1.000000
    9        0.712571   1.000041
   10        6.059063   0.000000
   11        9.110370   0.000000
   12       10.045849   0.000000
   13       10.083703   0.000000
   14       11.863101   0.000000
   15       12.167076   0.000000
   16       13.575578   0.000000
 
 -0.2222222E+00  0.1111111E+00 -0.6938894E-17  0.3292181E-01
    1      -28.726132   1.000000
    2      -28.725916   1.000000
    3      -28.725693   1.000000
    4      -28.724049   1.000000
    5      -28.722731   1.000000
    6      -21.678636   1.000000
    7       -0.789585   1.000000
    8        0.473367   1.000000
    9        0.848614   1.015100
   10        5.632559   0.000000
   11        9.101868   0.000000
   12        9.632003   0.000000
   13       10.348416   0.000000
   14       11.215080   0.000000
   15       12.143988   0.000000
   16       12.948980   0.000000
 
 -0.1111111E+00  0.1111111E+00  0.1027003E-16  0.1646091E-01
    1      -28.726610   1.000000
    2      -28.726176   1.000000
    3      -28.726052   1.000000
    4      -28.724613   1.000000
    5      -28.723821   1.000000
    6      -21.699402   1.000000
    7       -0.112290   1.000000
    8        0.708227   1.000032
    9        0.943911   0.997299
   10        4.698303   0.000000
   11        9.055721   0.000000
   12       10.247514   0.000000
   13       10.448553   0.000000
   14       11.106777   0.000000
   15       11.843316   0.000000
   16       12.439624   0.000000
 
  0.2222222E+00  0.2222222E+00  0.0000000E+00  0.8230453E-02
    1      -28.727705   1.000000
    2      -28.725223   1.000000
    3      -28.724311   1.000000
    4      -28.724311   1.000000
    5      -28.723373   1.000000
    6      -21.682213   1.000000
    7       -0.487338   1.000000
    8        0.546141   1.000000
    9        0.546141   1.000000
   10        5.695110   0.000000
   11        8.218471   0.000000
   12        9.456512   0.000000
   13       11.239233   0.000000
   14       11.239233   0.000000
   15       13.443670   0.000000
   16       13.710796   0.000000
 
  0.3333333E+00  0.2222222E+00 -0.2775558E-16  0.3292181E-01
    1      -28.727637   1.000000
    2      -28.725476   1.000000
    3      -28.724001   1.000000
    4      -28.723241   1.000000
    5      -28.722283   1.000000
    6      -21.664542   1.000000
    7       -0.908159   1.000000
    8        0.343032   1.000000
    9        0.404655   1.000000
   10        6.321819   0.000000
   11        8.109716   0.000000
   12        9.098300   0.000000
   13       11.395573   0.000000
   14       12.004045   0.000000
   15       13.604200   0.000000
   16       13.674162   0.000000
 
  0.4444444E+00  0.2222222E+00  0.0000000E+00  0.3292181E-01
    1      -28.727117   1.000000
    2      -28.725197   1.000000
    3      -28.724205   1.000000
    4      -28.722601   1.000000
    5      -28.721354   1.000000
    6      -21.647959   1.000000
    7       -1.225214   1.000000
    8        0.043443   1.000000
    9        0.353286   1.000000
   10        6.675779   0.000000
   11        8.594843   0.000000
   12        9.026902   0.000000
   13       11.075489   0.000000
   14       12.830948   0.000000
   15       13.558792   0.000000
   16       14.080022   0.000000
 
 -0.4444444E+00  0.2222222E+00  0.4163336E-16  0.3292181E-01
    1      -28.726743   1.000000
    2      -28.724397   1.000000
    3      -28.724339   1.000000
    4      -28.722528   1.000000
    5      -28.721455   1.000000
    6      -21.640317   1.000000
    7       -1.320043   1.000000
    8       -0.228002   1.000000
    9        0.410931   1.000000
   10        6.863015   0.000000
   11        8.526211   0.000000
   12       10.257823   0.000000
   13       10.749739   0.000000
   14       12.012096   0.000000
   15       13.350610   0.000000
   16       13.399480   0.000000
 
 -0.3333333E+00  0.2222222E+00  0.2775558E-16  0.3292181E-01
    1      -28.726425   1.000000
    2      -28.724435   1.000000
    3      -28.724362   1.000000
    4      -28.722605   1.000000
    5      -28.722263   1.000000
    6      -21.645239   1.000000
    7       -1.216136   1.000000
    8       -0.298127   1.000000
    9        0.556572   1.000000
   10        6.990538   0.000000
   11        8.536289   0.000000
   12       10.058021   0.000000
   13       10.581738   0.000000
   14       12.146812   0.000000
   15       12.314909   0.000000
   16       13.536549   0.000000
 
 -0.2222222E+00  0.2222222E+00  0.9589299E-17  0.1646091E-01
    1      -28.726113   1.000000
    2      -28.725300   1.000000
    3      -28.724330   1.000000
    4      -28.724262   1.000000
    5      -28.722121   1.000000
    6      -21.660429   1.000000
    7       -1.025902   1.000000
    8       -0.033097   1.000000
    9        0.730579   1.000115
   10        6.608040   0.000000
   11        8.873837   0.000000
   12        9.147326   0.000000
   13       10.543966   0.000000
   14       11.266408   0.000000
   15       13.544406   0.000000
   16       13.738342   0.000000
 
  0.3333333E+00  0.3333333E+00  0.2775558E-16  0.8230453E-02
    1      -28.728345   1.000000
    2      -28.725824   1.000000
    3      -28.722459   1.000000
    4      -28.722195   1.000000
    5      -28.722195   1.000000
    6      -21.652133   1.000000
    7       -1.086684   1.000000
    8        0.230051   1.000000
    9        0.230052   1.000000
   10        6.282952   0.000000
   11        7.590743   0.000000
   12        9.820531   0.000000
   13       12.245827   0.000000
   14       12.245827   0.000000
   15       13.913589   0.000000
   16       15.262912   0.000000
 
  0.4444444E+00  0.3333333E+00 -0.5551115E-16  0.3292181E-01
    1      -28.728149   1.000000
    2      -28.725880   1.000000
    3      -28.722557   1.000000
    4      -28.721576   1.000000
    5      -28.721202   1.000000
    6      -21.639605   1.000000
    7       -1.248440   1.000000
    8       -0.022890   1.000000
    9        0.152100   1.000000
   10        6.349809   0.000000
   11        7.672006   0.000000
   12       10.223384   0.000000
   13       12.272639   0.000000
   14       13.006632   0.000000
   15       14.296607   0.000000
   16       15.264110   0.000000
 
 -0.4444444E+00  0.3333333E+00  0.2775558E-16  0.3292181E-01
    1      -28.727434   1.000000
    2      -28.725183   1.000000
    3      -28.722792   1.000000
    4      -28.721868   1.000000
    5      -28.721224   1.000000
    6      -21.632889   1.000000
    7       -1.189471   1.000000
    8       -0.467495   1.000000
    9        0.198508   1.000000
   10        6.614379   0.000000
   11        8.443218   0.000000
   12       10.198345   0.000000
   13       11.857095   0.000000
   14       12.039917   0.000000
   15       13.603988   0.000000
   16       15.189516   0.000000
 
 -0.3333333E+00  0.3333333E+00 -0.2449897E-16  0.1646091E-01
    1      -28.726855   1.000000
    2      -28.723675   1.000000
    3      -28.723184   1.000000
    4      -28.722948   1.000000
    5      -28.722135   1.000000
    6      -21.635145   1.000000
    7       -0.923662   1.000000
    8       -0.850671   1.000000
    9        0.353331   1.000000
   10        6.969341   0.000000
   11        9.075144   0.000000
   12       10.435500   0.000000
   13       10.678980   0.000000
   14       11.308911   0.000000
   15       12.587446   0.000000
   16       15.352454   0.000000
 
  0.4444444E+00  0.4444444E+00  0.0000000E+00  0.8230453E-02
    1      -28.728745   1.000000
    2      -28.726233   1.000000
    3      -28.721849   1.000000
    4      -28.720795   1.000000
    5      -28.720795   1.000000
    6      -21.632389   1.000000
    7       -1.382148   1.000000
    8        0.040372   1.000000
    9        0.040372   1.000000
   10        5.991413   0.000000
   11        7.276044   0.000000
   12       11.820165   0.000000
   13       13.147248   0.000000
   14       13.147248   0.000000
   15       14.445517   0.000000
   16       14.622155   0.000000
 
 -0.4444444E+00  0.4444444E+00  0.1917860E-16  0.1646091E-01
    1      -28.728354   1.000000
    2      -28.726055   1.000000
    3      -28.721963   1.000000
    4      -28.720912   1.000000
    5      -28.720773   1.000000
    6      -21.629724   1.000000
    7       -1.351983   1.000000
    8       -0.167396   1.000000
    9        0.057766   1.000000
   10        6.158222   0.000000
   11        7.523039   0.000000
   12       12.105425   0.000000
   13       12.182248   0.000000
   14       12.872509   0.000000
   15       14.160564   0.000000
   16       15.089865   0.000000
 
  0.3333333E+00  0.2222222E+00  0.1111111E+00  0.3292181E-01
    1      -28.726922   1.000000
    2      -28.725569   1.000000
    3      -28.724585   1.000000
    4      -28.724399   1.000000
    5      -28.722677   1.000000
    6      -21.676056   1.000000
    7       -0.723575   1.000000
    8        0.367385   1.000000
    9        0.702241   1.000022
   10        5.945509   0.000000
   11        8.556834   0.000000
   12        9.232985   0.000000
   13       11.093991   0.000000
   14       11.149577   0.000000
   15       12.956853   0.000000
   16       13.381495   0.000000
 
  0.4444444E+00  0.2222222E+00  0.1111111E+00  0.6584362E-01
    1      -28.726374   1.000000
    2      -28.725652   1.000000
    3      -28.724593   1.000000
    4      -28.723169   1.000000
    5      -28.721865   1.000000
    6      -21.656897   1.000000
    7       -1.121093   1.000000
    8        0.083168   1.000000
    9        0.572736   1.000000
   10        6.641035   0.000000
   11        8.658315   0.000000
   12        9.014385   0.000000
   13       10.804491   0.000000
   14       12.003550   0.000000
   15       13.135141   0.000000
   16       13.769788   0.000000
 
 -0.4444444E+00  0.2222222E+00  0.1111111E+00  0.6584362E-01
    1      -28.726265   1.000000
    2      -28.725469   1.000000
    3      -28.724269   1.000000
    4      -28.722457   1.000000
    5      -28.721532   1.000000
    6      -21.644329   1.000000
    7       -1.356091   1.000000
    8       -0.052657   1.000000
    9        0.459507   1.000000
   10        6.852323   0.000000
   11        8.338871   0.000000
   12       10.266053   0.000000
   13       10.626778   0.000000
   14       12.289844   0.000000
   15       12.818905   0.000000
   16       13.436114   0.000000
 
  0.4444444E+00  0.3333333E+00  0.1111111E+00  0.3292181E-01
    1      -28.727450   1.000000
    2      -28.725622   1.000000
    3      -28.723615   1.000000
    4      -28.722227   1.000000
    5      -28.721725   1.000000
    6      -21.649420   1.000000
    7       -1.113850   1.000000
    8        0.025466   1.000000
    9        0.295249   1.000000
   10        6.714897   0.000000
   11        8.061775   0.000000
   12        9.075618   0.000000
   13       11.956664   0.000000
   14       12.265496   0.000000
   15       13.995120   0.000000
   16       14.727188   0.000000
 
 -0.4444444E+00  0.3333333E+00  0.1111111E+00  0.6584362E-01
    1      -28.726734   1.000000
    2      -28.725285   1.000000
    3      -28.723676   1.000000
    4      -28.722144   1.000000
    5      -28.721310   1.000000
    6      -21.637819   1.000000
    7       -1.178159   1.000000
    8       -0.317217   1.000000
    9        0.191773   1.000000
   10        7.082641   0.000000
   11        8.562910   0.000000
   12        9.038391   0.000000
   13       11.701856   0.000000
   14       12.451811   0.000000
   15       13.521207   0.000000
   16       14.615813   0.000000
 
 -0.3333333E+00  0.3333333E+00  0.1111111E+00  0.6584362E-01
    1      -28.726302   1.000000
    2      -28.724558   1.000000
    3      -28.723381   1.000000
    4      -28.723125   1.000000
    5      -28.721413   1.000000
    6      -21.635141   1.000000
    7       -1.095996   1.000000
    8       -0.584539   1.000000
    9        0.237730   1.000000
   10        7.398415   0.000000
   11        8.433870   0.000000
   12       10.096454   0.000000
   13       10.624660   0.000000
   14       11.836927   0.000000
   15       13.284594   0.000000
   16       14.584425   0.000000
 
 -0.2222222E+00  0.3333333E+00  0.1111111E+00  0.3292181E-01
    1      -28.725997   1.000000
    2      -28.725227   1.000000
    3      -28.724000   1.000000
    4      -28.722305   1.000000
    5      -28.722245   1.000000
    6      -21.642693   1.000000
    7       -1.104189   1.000000
    8       -0.423163   1.000000
    9        0.403829   1.000000
   10        7.530690   0.000000
   11        8.195144   0.000000
   12        9.235637   0.000000
   13       11.281187   0.000000
   14       12.273262   0.000000
   15       12.426501   0.000000
   16       14.699083   0.000000
 
 -0.4444444E+00  0.4444444E+00  0.1111111E+00  0.3292181E-01
    1      -28.727808   1.000000
    2      -28.725871   1.000000
    3      -28.722417   1.000000
    4      -28.721497   1.000000
    5      -28.720804   1.000000
    6      -21.632049   1.000000
    7       -1.270688   1.000000
    8       -0.177580   1.000000
    9       -0.002102   1.000000
   10        6.488298   0.000000
   11        7.791158   0.000000
   12       10.534912   0.000000
   13       12.244971   0.000000
   14       13.256357   0.000000
   15       13.793220   0.000000
   16       15.317172   0.000000
 
 -0.3333333E+00  0.4444444E+00  0.1111111E+00  0.3292181E-01
    1      -28.726885   1.000000
    2      -28.725191   1.000000
    3      -28.722666   1.000000
    4      -28.722601   1.000000
    5      -28.720824   1.000000
    6      -21.630290   1.000000
    7       -1.096717   1.000000
    8       -0.559977   1.000000
    9        0.035589   1.000000
   10        6.945367   0.000000
   11        8.545325   0.000000
   12       10.083169   0.000000
   13       10.845878   0.000000
   14       12.911418   0.000000
   15       13.697316   0.000000
   16       15.657921   0.000000
 
 -0.3333333E+00  0.4444444E+00  0.2222222E+00  0.3292181E-01
    1      -28.725411   1.000000
    2      -28.725385   1.000000
    3      -28.723945   1.000000
    4      -28.722733   1.000000
    5      -28.720810   1.000000
    6      -21.631198   1.000000
    7       -0.967612   1.000000
    8       -0.650577   1.000000
    9       -0.032702   1.000000
   10        7.731502   0.000000
   11        8.681829   0.000000
   12        9.124584   0.000000
   13       10.431296   0.000000
   14       13.305022   0.000000
   15       13.491227   0.000000
   16       15.580233   0.000000
