<?xml version="1.0" encoding="ISO-8859-1"?>
<modeling>
 <generator>
  <i name="program" type="string">vasp </i>
  <i name="version" type="string">5.4.4.18Apr17-6-g9f103f2a35  </i>
  <i name="subversion" type="string">(build Nov 03 2018 10:20:43) complex            parallel </i>
  <i name="platform" type="string">LinuxIFC </i>
  <i name="date" type="string">2018 11 29 </i>
  <i name="time" type="string">15:18:46 </i>
 </generator>
 <incar>
  <i type="string" name="SYSTEM">   Og_FCC</i>
  <i type="string" name="PREC">accurate</i>
  <i type="string" name="ALGO">   Fast</i>
  <i type="logical" name="ADDGRID"> T  </i>
  <i type="logical" name="LSORBIT"> F  </i>
  <i type="int" name="ISPIN">     1</i>
  <i type="int" name="MAXMIX">    50</i>
  <i type="int" name="NELM">   100</i>
  <i type="int" name="NELMDL">    -5</i>
  <i type="int" name="NELMIN">     5</i>
  <i type="int" name="IBRION">     6</i>
  <i type="int" name="NFREE">     5</i>
  <i name="EDIFF">      0.00000001</i>
  <i name="EDIFFG">      0.00001000</i>
  <i type="int" name="NSW">   999</i>
  <i type="int" name="ISIF">     3</i>
  <i type="int" name="ISYM">     2</i>
  <i name="SYMPREC">      0.00000010</i>
  <i name="ENCUT">    600.00000000</i>
  <i name="POTIM">      0.02000000</i>
  <i type="logical" name="LREAL"> F  </i>
  <i type="int" name="ISMEAR">     1</i>
  <i name="SIGMA">      0.10000000</i>
  <i name="KSPACING">      0.20000000</i>
  <i type="int" name="NWRITE">     2</i>
  <i type="logical" name="LWAVE"> F  </i>
  <i type="logical" name="LCHARG"> F  </i>
  <i type="logical" name="LVTOT"> F  </i>
  <i type="logical" name="GGA_COMPAT"> F  </i>
  <v type="int" name="KPOINT_BSE">    -1     0     0     0</v>
  <i type="int" name="NELM">   100</i>
  <i type="string" name="GGA"> PE</i>
 </incar>
 <structure name="primitive_cell" >
  <crystal>
   <varray name="basis" >
    <v>       4.47237916       0.00000000       0.00000000 </v>
    <v>       2.23618958       3.87319397      -0.00000000 </v>
    <v>       2.23618958       1.29106466       3.65168229 </v>
   </varray>
   <i name="volume">     63.25587216 </i>
   <varray name="rec_basis" >
    <v>       0.22359464      -0.12909242      -0.09128213 </v>
    <v>       0.00000000       0.25818485      -0.09128213 </v>
    <v>      -0.00000000       0.00000000       0.27384639 </v>
   </varray>
  </crystal>
  <varray name="positions" >
   <v>       0.00000000       0.00000000       0.00000000 </v>
  </varray>
 </structure>
 <varray name="primitive_index" >
  <v type="int" >        1 </v>
 </varray>
 <kpoints>
  <generation param="Gamma">
   <v type="int" name="divisions">       9        9        9 </v>
   <v name="usershift">      0.00000000       0.00000000       0.00000000 </v>
   <v name="genvec1">      0.11111111       0.00000000       0.00000000 </v>
   <v name="genvec2">      0.00000000       0.11111111       0.00000000 </v>
   <v name="genvec3">      0.00000000      -0.00000000       0.11111111 </v>
   <v name="shift">      0.00000000       0.00000000       0.00000000 </v>
  </generation>
  <varray name="kpointlist" >
   <v>       0.00000000       0.00000000       0.00000000 </v>
   <v>       0.11111111       0.00000000       0.00000000 </v>
   <v>       0.22222222       0.00000000      -0.00000000 </v>
   <v>       0.33333333       0.00000000       0.00000000 </v>
   <v>       0.44444444       0.00000000      -0.00000000 </v>
   <v>       0.11111111       0.11111111       0.00000000 </v>
   <v>       0.22222222       0.11111111      -0.00000000 </v>
   <v>       0.33333333       0.11111111       0.00000000 </v>
   <v>       0.44444444       0.11111111       0.00000000 </v>
   <v>      -0.44444444       0.11111111      -0.00000000 </v>
   <v>      -0.33333333       0.11111111      -0.00000000 </v>
   <v>      -0.22222222       0.11111111      -0.00000000 </v>
   <v>      -0.11111111       0.11111111       0.00000000 </v>
   <v>       0.22222222       0.22222222       0.00000000 </v>
   <v>       0.33333333       0.22222222      -0.00000000 </v>
   <v>       0.44444444       0.22222222       0.00000000 </v>
   <v>      -0.44444444       0.22222222       0.00000000 </v>
   <v>      -0.33333333       0.22222222       0.00000000 </v>
   <v>      -0.22222222       0.22222222       0.00000000 </v>
   <v>       0.33333333       0.33333333       0.00000000 </v>
   <v>       0.44444444       0.33333333      -0.00000000 </v>
   <v>      -0.44444444       0.33333333       0.00000000 </v>
   <v>      -0.33333333       0.33333333      -0.00000000 </v>
   <v>       0.44444444       0.44444444       0.00000000 </v>
   <v>      -0.44444444       0.44444444       0.00000000 </v>
   <v>       0.33333333       0.22222222       0.11111111 </v>
   <v>       0.44444444       0.22222222       0.11111111 </v>
   <v>      -0.44444444       0.22222222       0.11111111 </v>
   <v>       0.44444444       0.33333333       0.11111111 </v>
   <v>      -0.44444444       0.33333333       0.11111111 </v>
   <v>      -0.33333333       0.33333333       0.11111111 </v>
   <v>      -0.22222222       0.33333333       0.11111111 </v>
   <v>      -0.44444444       0.44444444       0.11111111 </v>
   <v>      -0.33333333       0.44444444       0.11111111 </v>
   <v>      -0.33333333       0.44444444       0.22222222 </v>
  </varray>
  <varray name="weights" >
   <v>       0.00137174 </v>
   <v>       0.01097394 </v>
   <v>       0.01097394 </v>
   <v>       0.01097394 </v>
   <v>       0.01097394 </v>
   <v>       0.00823045 </v>
   <v>       0.03292181 </v>
   <v>       0.03292181 </v>
   <v>       0.03292181 </v>
   <v>       0.03292181 </v>
   <v>       0.03292181 </v>
   <v>       0.03292181 </v>
   <v>       0.01646091 </v>
   <v>       0.00823045 </v>
   <v>       0.03292181 </v>
   <v>       0.03292181 </v>
   <v>       0.03292181 </v>
   <v>       0.03292181 </v>
   <v>       0.01646091 </v>
   <v>       0.00823045 </v>
   <v>       0.03292181 </v>
   <v>       0.03292181 </v>
   <v>       0.01646091 </v>
   <v>       0.00823045 </v>
   <v>       0.01646091 </v>
   <v>       0.03292181 </v>
   <v>       0.06584362 </v>
   <v>       0.06584362 </v>
   <v>       0.03292181 </v>
   <v>       0.06584362 </v>
   <v>       0.06584362 </v>
   <v>       0.03292181 </v>
   <v>       0.03292181 </v>
   <v>       0.03292181 </v>
   <v>       0.03292181 </v>
  </varray>
 </kpoints>
 <parameters>
  <separator name="general" >
   <i type="string" name="SYSTEM">Og_FCC</i>
   <i type="logical" name="LCOMPAT"> F  </i>
  </separator>
  <separator name="electronic" >
   <i type="string" name="PREC">accura</i>
   <i name="ENMAX">    600.00000000</i>
   <i name="ENAUG">    361.02500000</i>
   <i name="EDIFF">      0.00000001</i>
   <i type="int" name="IALGO">    68</i>
   <i type="int" name="IWAVPR">    11</i>
   <i type="int" name="NBANDS">    16</i>
   <i name="NELECT">     18.00000000</i>
   <i type="int" name="TURBO">     0</i>
   <i type="int" name="IRESTART">     0</i>
   <i type="int" name="NREBOOT">     0</i>
   <i type="int" name="NMIN">     0</i>
   <i name="EREF">      0.00000000</i>
   <separator name="electronic smearing" >
    <i type="int" name="ISMEAR">     1</i>
    <i name="SIGMA">      0.10000000</i>
    <i name="KSPACING">      0.20000000</i>
    <i type="logical" name="KGAMMA"> T  </i>
   </separator>
   <separator name="electronic projectors" >
    <i type="logical" name="LREAL"> F  </i>
    <v name="ROPT">      0.00000000</v>
    <i type="int" name="LMAXPAW">  -100</i>
    <i type="int" name="LMAXMIX">     2</i>
    <i type="logical" name="NLSPLINE"> F  </i>
   </separator>
   <separator name="electronic startup" >
    <i type="int" name="ISTART">     0</i>
    <i type="int" name="ICHARG">     2</i>
    <i type="int" name="INIWAV">     1</i>
   </separator>
   <separator name="electronic spin" >
    <i type="int" name="ISPIN">     1</i>
    <i type="logical" name="LNONCOLLINEAR"> F  </i>
    <v name="MAGMOM">      1.00000000</v>
    <i name="NUPDOWN">     -1.00000000</i>
    <i type="logical" name="LSORBIT"> F  </i>
    <v name="SAXIS">      0.00000000      0.00000000      1.00000000</v>
    <i type="logical" name="LSPIRAL"> F  </i>
    <v name="QSPIRAL">      0.00000000      0.00000000      0.00000000</v>
    <i type="logical" name="LZEROZ"> F  </i>
   </separator>
   <separator name="electronic exchange-correlation" >
    <i type="logical" name="LASPH"> F  </i>
    <i type="logical" name="LMETAGGA"> F  </i>
   </separator>
   <separator name="electronic convergence" >
    <i type="int" name="NELM">   100</i>
    <i type="int" name="NELMDL">    -5</i>
    <i type="int" name="NELMIN">     5</i>
    <i name="ENINI">    600.00000000</i>
    <separator name="electronic convergence detail" >
     <i type="logical" name="LDIAG"> T  </i>
     <i type="logical" name="LSUBROT"> F  </i>
     <i name="WEIMIN">      0.00100000</i>
     <i name="EBREAK">      0.00000000</i>
     <i name="DEPER">      0.30000000</i>
     <i type="int" name="NRMM">     4</i>
     <i name="TIME">      0.40000000</i>
    </separator>
   </separator>
   <separator name="electronic mixer" >
    <i name="AMIX">      0.40000000</i>
    <i name="BMIX">      1.00000000</i>
    <i name="AMIN">      0.10000000</i>
    <i name="AMIX_MAG">      1.60000000</i>
    <i name="BMIX_MAG">      1.00000000</i>
    <separator name="electronic mixer details" >
     <i type="int" name="IMIX">     4</i>
     <i type="logical" name="MIXFIRST"> F  </i>
     <i type="int" name="MAXMIX">    50</i>
     <i name="WC">    100.00000000</i>
     <i type="int" name="INIMIX">     1</i>
     <i type="int" name="MIXPRE">     1</i>
     <i type="int" name="MREMOVE">     5</i>
    </separator>
   </separator>
   <separator name="electronic dipolcorrection" >
    <i type="logical" name="LDIPOL"> F  </i>
    <i type="logical" name="LMONO"> F  </i>
    <i type="int" name="IDIPOL">     0</i>
    <i name="EPSILON">      1.00000000</i>
    <v name="DIPOL">   -100.00000000   -100.00000000   -100.00000000</v>
    <i name="EFIELD">      0.00000000</i>
   </separator>
  </separator>
  <separator name="grids" >
   <i type="int" name="NGX">    36</i>
   <i type="int" name="NGY">    36</i>
   <i type="int" name="NGZ">    36</i>
   <i type="int" name="NGXF">    72</i>
   <i type="int" name="NGYF">    72</i>
   <i type="int" name="NGZF">    72</i>
   <i type="logical" name="ADDGRID"> T  </i>
  </separator>
  <separator name="ionic" >
   <i type="int" name="NSW">    49</i>
   <i type="int" name="IBRION">     6</i>
   <i type="int" name="MDALGO">     0</i>
   <i type="int" name="ISIF">     3</i>
   <i name="PSTRESS">      0.00000000</i>
   <i name="EDIFFG">      0.00001000</i>
   <i type="int" name="NFREE">     2</i>
   <i name="POTIM">      0.02000000</i>
   <i name="SMASS">     -3.00000000</i>
   <i name="SCALEE">      1.00000000</i>
  </separator>
  <separator name="ionic md" >
   <i name="TEBEG">      0.00010000</i>
   <i name="TEEND">      0.00010000</i>
   <i type="int" name="NBLOCK">     1</i>
   <i type="int" name="KBLOCK">    49</i>
   <i type="int" name="NPACO">   256</i>
   <i name="APACO">     16.00000000</i>
  </separator>
  <separator name="symmetry" >
   <i type="int" name="ISYM">     2</i>
   <i name="SYMPREC">      0.00000010</i>
  </separator>
  <separator name="dos" >
   <i type="int" name="LORBIT">     0</i>
   <v name="RWIGS">     -1.00000000</v>
   <i type="int" name="NEDOS">   301</i>
   <i name="EMIN">     10.00000000</i>
   <i name="EMAX">    -10.00000000</i>
   <i name="EFERMI">      0.00000000</i>
  </separator>
  <separator name="writing" >
   <i type="int" name="NWRITE">     2</i>
   <i type="logical" name="LWAVE"> F  </i>
   <i type="logical" name="LDOWNSAMPLE"> F  </i>
   <i type="logical" name="LCHARG"> F  </i>
   <i type="logical" name="LPARD"> F  </i>
   <i type="logical" name="LVTOT"> F  </i>
   <i type="logical" name="LVHAR"> F  </i>
   <i type="logical" name="LELF"> F  </i>
   <i type="logical" name="LOPTICS"> F  </i>
   <v name="STM">      0.00000000      0.00000000      0.00000000      0.00000000      0.00000000      0.00000000      0.00000000</v>
  </separator>
  <separator name="performance" >
   <i type="int" name="NPAR">     8</i>
   <i type="int" name="NSIM">     4</i>
   <i type="int" name="NBLK">    -1</i>
   <i type="logical" name="LPLANE"> T  </i>
   <i type="logical" name="LSCALAPACK"> T  </i>
   <i type="logical" name="LSCAAWARE"> F  </i>
   <i type="logical" name="LSCALU"> F  </i>
   <i type="logical" name="LASYNC"> F  </i>
   <i type="logical" name="LORBITALREAL"> F  </i>
  </separator>
  <separator name="miscellaneous" >
   <i type="int" name="IDIOT">     3</i>
   <i type="int" name="ISPECIAL">     0</i>
   <i type="logical" name="LMUSIC"> F  </i>
   <v name="POMASS">      0.01000000</v>
   <v name="DARWINR">      0.00000000</v>
   <v name="DARWINV">      1.00000000</v>
   <i type="logical" name="LCORR"> T  </i>
  </separator>
  <i type="logical" name="GGA_COMPAT"> F  </i>
  <i type="logical" name="LBERRY"> F  </i>
  <i type="int" name="ICORELEVEL">     0</i>
  <i type="logical" name="LDAU"> F  </i>
  <i type="int" name="I_CONSTRAINED_M">     0</i>
  <separator name="electronic exchange-correlation" >
   <i type="string" name="GGA">PE</i>
   <i type="int" name="VOSKOWN">     0</i>
   <i type="logical" name="LHFCALC"> F  </i>
   <i type="string" name="PRECFOCK"></i>
   <i type="logical" name="LSYMGRAD"> F  </i>
   <i type="logical" name="LHFONE"> F  </i>
   <i type="logical" name="LRHFCALC"> F  </i>
   <i type="logical" name="LTHOMAS"> F  </i>
   <i type="logical" name="LMODELHF"> F  </i>
   <i name="ENCUT4O">     -1.00000000</i>
   <i type="int" name="EXXOEP">     0</i>
   <i type="int" name="FOURORBIT">     0</i>
   <i name="AEXX">      0.00000000</i>
   <i name="HFALPHA">      0.00000000</i>
   <i name="MCALPHA">      0.00000000</i>
   <i name="ALDAX">      1.00000000</i>
   <i name="AGGAX">      1.00000000</i>
   <i name="ALDAC">      1.00000000</i>
   <i name="AGGAC">      1.00000000</i>
   <i type="int" name="NKREDX">     1</i>
   <i type="int" name="NKREDY">     1</i>
   <i type="int" name="NKREDZ">     1</i>
   <i type="logical" name="SHIFTRED"> F  </i>
   <i type="logical" name="ODDONLY"> F  </i>
   <i type="logical" name="EVENONLY"> F  </i>
   <i type="int" name="LMAXFOCK">     0</i>
   <i type="int" name="NMAXFOCKAE">     0</i>
   <i type="logical" name="LFOCKAEDFT"> F  </i>
   <i name="HFSCREEN">      0.00000000</i>
   <i name="HFSCREENC">      0.00000000</i>
   <i type="int" name="NBANDSGWLOW">     0</i>
  </separator>
  <separator name="vdW DFT" >
   <i type="logical" name="LUSE_VDW"> F  </i>
   <i name="Zab_VDW">     -0.84910000</i>
   <i name="PARAM1">      0.12340000</i>
   <i name="PARAM2">      1.00000000</i>
   <i name="PARAM3">      0.00000000</i>
  </separator>
  <separator name="model GW" >
   <i type="int" name="MODEL_GW">     0</i>
   <i name="MODEL_EPS0">     37.95352330</i>
   <i name="MODEL_ALPHA">      1.00000000</i>
  </separator>
  <separator name="linear response parameters" >
   <i type="logical" name="LEPSILON"> F  </i>
   <i type="logical" name="LRPA"> F  </i>
   <i type="logical" name="LNABLA"> F  </i>
   <i type="logical" name="LVEL"> F  </i>
   <i type="int" name="KINTER">     0</i>
   <i name="CSHIFT">      0.10000000</i>
   <i name="OMEGAMAX">     -1.00000000</i>
   <i name="DEG_THRESHOLD">      0.00200000</i>
   <i name="RTIME">     -0.10000000</i>
   <i name="WPLASMAI">      0.00000000</i>
   <v name="DFIELD">      0.00000000      0.00000000      0.00000000</v>
   <v name="WPLASMA">      0.00000000      0.00000000      0.00000000      0.00000000      0.00000000      0.00000000      0.00000000      0.00000000      0.00000000</v>
  </separator>
  <separator name="orbital magnetization" >
   <i type="logical" name="NUCIND"> F  </i>
   <v name="MAGPOS">      0.00000000      0.00000000      0.00000000</v>
   <i type="logical" name="LNICSALL"> T  </i>
   <i type="logical" name="ORBITALMAG"> F  </i>
   <i type="logical" name="LMAGBLOCH"> F  </i>
   <i type="logical" name="LCHIMAG"> F  </i>
   <i type="logical" name="LGAUGE"> T  </i>
   <i type="int" name="MAGATOM">     0</i>
   <v name="MAGDIPOL">      0.00000000      0.00000000      0.00000000</v>
   <v name="AVECCONST">      0.00000000      0.00000000      0.00000000</v>
  </separator>
  <separator name="response functions" >
   <i type="logical" name="LADDER"> F  </i>
   <i type="logical" name="LRPAFORCE"> F  </i>
   <i type="logical" name="LFXC"> F  </i>
   <i type="logical" name="LHARTREE"> T  </i>
   <i type="int" name="IBSE">     0</i>
   <v type="int" name="KPOINT">    -1     0     0     0</v>
   <i type="logical" name="LTCTE"> F  </i>
   <i type="logical" name="LTETE"> F  </i>
   <i type="logical" name="LTRIPLET"> F  </i>
   <i type="logical" name="LFXCEPS"> F  </i>
   <i type="logical" name="LFXHEG"> F  </i>
   <i type="int" name="NATURALO">     2</i>
   <i type="logical" name="L2ORDER"> F  </i>
   <i type="logical" name="LMP2LT"> F  </i>
   <i type="logical" name="LUSEW"> F  </i>
   <i name="ENCUTGW">     -2.00000000</i>
   <i name="ENCUTGWSOFT">     -2.00000000</i>
   <i name="ENCUTLF">     -1.00000000</i>
   <i type="int" name="LMAXMP2">    -1</i>
   <i name="SCISSOR">      0.00000000</i>
   <i type="int" name="NOMEGA">     0</i>
   <i type="int" name="NOMEGAR">     0</i>
   <i type="int" name="NBANDSGW">    -1</i>
   <i type="int" name="NBANDSO">    -1</i>
   <i type="int" name="NBANDSV">    -1</i>
   <i type="int" name="NELM">   100</i>
   <i type="int" name="NELMHF">     1</i>
   <i type="int" name="DIM">     3</i>
   <i type="int" name="ANTIRES">     0</i>
   <i name="OMEGAMAX">    -30.00000000</i>
   <i name="OMEGAMIN">    -30.00000000</i>
   <i name="OMEGATL">   -200.00000000</i>
   <i type="int" name="OMEGAGRID">   140</i>
   <i name="CSHIFT">     -0.10000000</i>
   <i type="logical" name="SELFENERGY"> F  </i>
   <i type="logical" name="LSPECTRAL"> F  </i>
   <i type="logical" name="LSPECTRALGW"> F  </i>
   <i type="logical" name="LSINGLES"> F  </i>
   <i type="logical" name="LFERMIGW"> F  </i>
   <i type="logical" name="ODDONLYGW"> F  </i>
   <i type="logical" name="EVENONLYGW"> F  </i>
   <i type="int" name="NKREDLFX">     1</i>
   <i type="int" name="NKREDLFY">     1</i>
   <i type="int" name="NKREDLFZ">     1</i>
   <i type="int" name="MAXMEM">  2800</i>
   <i type="int" name="TELESCOPE">     0</i>
   <i type="int" name="TAUPAR">     1</i>
   <i type="int" name="OMEGAPAR">    -1</i>
   <i name="LAMBDA">      1.00000000</i>
  </separator>
  <separator name="External order field" >
   <i name="OFIELD_KAPPA">      0.00000000</i>
   <v name="OFIELD_K">      0.00000000      0.00000000      0.00000000</v>
   <i name="OFIELD_Q6_NEAR">      0.00000000</i>
   <i name="OFIELD_Q6_FAR">      0.00000000</i>
   <i name="OFIELD_A">      0.00000000</i>
  </separator>
 </parameters>
 <atominfo>
  <atoms>       1 </atoms>
  <types>       1 </types>
  <array name="atoms" >
   <dimension dim="1">ion</dimension>
   <field type="string">element</field>
   <field type="int">atomtype</field>
   <set>
    <rc><c>Og</c><c>   1</c></rc>
   </set>
  </array>
  <array name="atomtypes" >
   <dimension dim="1">type</dimension>
   <field type="int">atomspertype</field>
   <field type="string">element</field>
   <field>mass</field>
   <field>valence</field>
   <field type="string">pseudopotential</field>
   <set>
    <rc><c>   1</c><c>Og</c><c>      0.01000000</c><c>     18.00000000</c><c>  PAW Og, JanMewes Oct 18               </c></rc>
   </set>
  </array>
 </atominfo>
 <structure name="initialpos" >
  <crystal>
   <varray name="basis" >
    <v>       4.47237916       0.00000000       0.00000000 </v>
    <v>       2.23618958       3.87319397      -0.00000000 </v>
    <v>       2.23618958       1.29106466       3.65168229 </v>
   </varray>
   <i name="volume">     63.25587216 </i>
   <varray name="rec_basis" >
    <v>       0.22359464      -0.12909242      -0.09128213 </v>
    <v>       0.00000000       0.25818485      -0.09128213 </v>
    <v>      -0.00000000       0.00000000       0.27384639 </v>
   </varray>
  </crystal>
  <varray name="positions" >
   <v>       0.00000000       0.00000000       0.00000000 </v>
  </varray>
 </structure>
 <calculation>
  <scstep>
   <time name="dav">    0.92    0.92</time>
   <time name="total">    1.07    1.07</time>
   <energy>
    <i name="alphaZ">     60.31466281 </i>
    <i name="ewald">  -1691.00055387 </i>
    <i name="hartreedc">   -693.49867529 </i>
    <i name="XCdc">    -69.39474782 </i>
    <i name="pawpsdc">   2268.42939301 </i>
    <i name="pawaedc">  -2184.22833953 </i>
    <i name="eentropy">     -0.00008292 </i>
    <i name="bandstr">    -50.74668851 </i>
    <i name="atom">   2640.52872706 </i>
    <i name="e_fr_energy">    280.40369492 </i>
    <i name="e_wo_entrp">    280.40377784 </i>
    <i name="e_0_energy">    280.40372256 </i>
   </energy>
  </scstep>
  <scstep>
   <time name="dav">    1.06    1.06</time>
   <time name="total">    1.06    1.06</time>
   <energy>
    <i name="e_fr_energy">      7.19143424 </i>
    <i name="e_wo_entrp">      7.19099648 </i>
    <i name="e_0_energy">      7.19128832 </i>
   </energy>
  </scstep>
  <scstep>
   <time name="dav">    1.15    1.15</time>
   <time name="total">    1.17    1.17</time>
   <energy>
    <i name="e_fr_energy">      0.17316681 </i>
    <i name="e_wo_entrp">      0.17259765 </i>
    <i name="e_0_energy">      0.17297709 </i>
   </energy>
  </scstep>
  <scstep>
   <time name="dav">    1.11    1.11</time>
   <time name="total">    1.11    1.11</time>
   <energy>
    <i name="e_fr_energy">      0.04327501 </i>
    <i name="e_wo_entrp">      0.04270022 </i>
    <i name="e_0_energy">      0.04308341 </i>
   </energy>
  </scstep>
  <scstep>
   <time name="dav">    1.14    1.14</time>
   <time name="total">    1.29    1.29</time>
   <energy>
    <i name="e_fr_energy">      0.04027931 </i>
    <i name="e_wo_entrp">      0.03970452 </i>
    <i name="e_0_energy">      0.04008772 </i>
   </energy>
  </scstep>
  <scstep>
   <time name="diag">    0.23    0.23</time>
   <time name="diis">    0.61    0.61</time>
   <time name="orth">    0.01    0.01</time>
   <time name="total">    1.14    1.14</time>
   <energy>
    <i name="e_fr_energy">      0.03981842 </i>
    <i name="e_wo_entrp">      0.03924354 </i>
    <i name="e_0_energy">      0.03962679 </i>
   </energy>
  </scstep>
  <scstep>
   <time name="diag">    0.26    0.26</time>
   <time name="diis">    0.65    0.65</time>
   <time name="orth">    0.01    0.01</time>
   <time name="total">    1.16    1.16</time>
   <energy>
    <i name="e_fr_energy">      0.03950528 </i>
    <i name="e_wo_entrp">      0.03893044 </i>
    <i name="e_0_energy">      0.03931367 </i>
   </energy>
  </scstep>
  <scstep>
   <time name="diag">    0.21    0.21</time>
   <time name="diis">    0.72    0.72</time>
   <time name="orth">    0.01    0.01</time>
   <time name="total">    1.18    1.18</time>
   <energy>
    <i name="e_fr_energy">      0.03948163 </i>
    <i name="e_wo_entrp">      0.03890718 </i>
    <i name="e_0_energy">      0.03929015 </i>
   </energy>
  </scstep>
  <scstep>
   <time name="diag">    0.18    0.18</time>
   <time name="diis">    0.79    0.79</time>
   <time name="orth">    0.01    0.01</time>
   <time name="total">    1.24    1.24</time>
   <energy>
    <i name="e_fr_energy">      0.03947978 </i>
    <i name="e_wo_entrp">      0.03890533 </i>
    <i name="e_0_energy">      0.03928830 </i>
   </energy>
  </scstep>
  <scstep>
   <time name="diag">    0.17    0.17</time>
   <time name="diis">    0.69    0.69</time>
   <time name="orth">    0.02    0.02</time>
   <time name="total">    1.16    1.16</time>
   <energy>
    <i name="e_fr_energy">      0.03947829 </i>
    <i name="e_wo_entrp">      0.03890383 </i>
    <i name="e_0_energy">      0.03928680 </i>
   </energy>
  </scstep>
  <scstep>
   <time name="diag">    0.24    0.24</time>
   <time name="diis">    0.73    0.73</time>
   <time name="orth">    0.01    0.01</time>
   <time name="total">    1.32    1.32</time>
   <energy>
    <i name="e_fr_energy">      0.03947845 </i>
    <i name="e_wo_entrp">      0.03890398 </i>
    <i name="e_0_energy">      0.03928696 </i>
   </energy>
  </scstep>
  <scstep>
   <time name="diag">    0.23    0.23</time>
   <time name="diis">    0.57    0.57</time>
   <time name="orth">    0.01    0.01</time>
   <time name="total">    1.14    1.14</time>
   <energy>
    <i name="e_fr_energy">      0.03947834 </i>
    <i name="e_wo_entrp">      0.03890386 </i>
    <i name="e_0_energy">      0.03928685 </i>
   </energy>
  </scstep>
  <scstep>
   <time name="diag">    0.24    0.24</time>
   <time name="diis">    0.60    0.60</time>
   <time name="orth">    0.02    0.02</time>
   <time name="total">    1.18    1.18</time>
   <energy>
    <i name="e_fr_energy">      0.03947829 </i>
    <i name="e_wo_entrp">      0.03890381 </i>
    <i name="e_0_energy">      0.03928680 </i>
   </energy>
  </scstep>
  <scstep>
   <time name="diag">    0.25    0.25</time>
   <time name="diis">    0.58    0.58</time>
   <time name="orth">    0.01    0.01</time>
   <time name="total">    1.17    1.17</time>
   <energy>
    <i name="e_fr_energy">      0.03947830 </i>
    <i name="e_wo_entrp">      0.03890382 </i>
    <i name="e_0_energy">      0.03928681 </i>
   </energy>
  </scstep>
  <scstep>
   <time name="diag">    0.22    0.22</time>
   <time name="diis">    0.59    0.59</time>
   <time name="orth">    0.02    0.02</time>
   <time name="total">    0.97    0.97</time>
   <energy>
    <i name="alphaZ">     60.31466281 </i>
    <i name="ewald">  -1691.00055387 </i>
    <i name="hartreedc">   -692.79135024 </i>
    <i name="XCdc">    -69.43860397 </i>
    <i name="pawpsdc">   2265.75653646 </i>
    <i name="pawaedc">  -2181.53323574 </i>
    <i name="eentropy">      0.00057448 </i>
    <i name="bandstr">   -331.79727868 </i>
    <i name="atom">   2640.52872706 </i>
    <i name="e_fr_energy">      0.03947830 </i>
    <i name="e_wo_entrp">      0.03890382 </i>
    <i name="e_0_energy">      0.03928681 </i>
   </energy>
  </scstep>
  <structure>
   <crystal>
    <varray name="basis" >
     <v>       4.47237916       0.00000000       0.00000000 </v>
     <v>       2.23618958       3.87319397      -0.00000000 </v>
     <v>       2.23618958       1.29106466       3.65168229 </v>
    </varray>
    <i name="volume">     63.25587216 </i>
    <varray name="rec_basis" >
     <v>       0.22359464      -0.12909242      -0.09128213 </v>
     <v>       0.00000000       0.25818485      -0.09128213 </v>
     <v>      -0.00000000       0.00000000       0.27384639 </v>
    </varray>
   </crystal>
   <varray name="positions" >
    <v>       0.00000000       0.00000000       0.00000000 </v>
   </varray>
  </structure>
  <varray name="forces" >
   <v>       0.00000000       0.00000000       0.00000000 </v>
  </varray>
  <varray name="stress" >
   <v>      -0.05080339      -0.00000000       0.00000000 </v>
   <v>      -0.00000000      -0.05080339       0.00000000 </v>
   <v>       0.00000000       0.00000000      -0.05080339 </v>
  </varray>
  <energy>
   <i name="e_fr_energy">     -0.36171701 </i>
   <i name="e_wo_entrp">     -0.36190850 </i>
   <i name="e_0_energy">      0.00057448 </i>
  </energy>
  <kpoints>
   <generation param="Gamma">
    <v type="int" name="divisions">       9        9        9 </v>
    <v name="usershift">      0.00000000       0.00000000       0.00000000 </v>
    <v name="genvec1">      0.11111111       0.00000000       0.00000000 </v>
    <v name="genvec2">      0.00000000       0.11111111       0.00000000 </v>
    <v name="genvec3">      0.00000000      -0.00000000       0.11111111 </v>
    <v name="shift">      0.00000000       0.00000000       0.00000000 </v>
   </generation>
   <varray name="kpointlist" >
    <v>       0.00000000       0.00000000       0.00000000 </v>
    <v>       0.11111111       0.00000000       0.00000000 </v>
    <v>       0.22222222       0.00000000       0.00000000 </v>
    <v>       0.33333333       0.00000000       0.00000000 </v>
    <v>       0.44444444       0.00000000       0.00000000 </v>
    <v>       0.00000000       0.11111111       0.00000000 </v>
    <v>       0.11111111       0.11111111       0.00000000 </v>
    <v>       0.22222222       0.11111111       0.00000000 </v>
    <v>       0.33333333       0.11111111       0.00000000 </v>
    <v>       0.44444444       0.11111111       0.00000000 </v>
    <v>      -0.44444444       0.11111111      -0.00000000 </v>
    <v>      -0.33333333       0.11111111      -0.00000000 </v>
    <v>      -0.22222222       0.11111111      -0.00000000 </v>
    <v>      -0.11111111       0.11111111      -0.00000000 </v>
    <v>       0.00000000       0.22222222       0.00000000 </v>
    <v>       0.11111111       0.22222222       0.00000000 </v>
    <v>       0.22222222       0.22222222       0.00000000 </v>
    <v>       0.33333333       0.22222222       0.00000000 </v>
    <v>       0.44444444       0.22222222       0.00000000 </v>
    <v>      -0.44444444       0.22222222      -0.00000000 </v>
    <v>      -0.33333333       0.22222222      -0.00000000 </v>
    <v>      -0.22222222       0.22222222      -0.00000000 </v>
    <v>      -0.11111111       0.22222222       0.00000000 </v>
    <v>       0.00000000       0.33333333      -0.00000000 </v>
    <v>       0.11111111       0.33333333      -0.00000000 </v>
    <v>       0.22222222       0.33333333      -0.00000000 </v>
    <v>       0.33333333       0.33333333       0.00000000 </v>
    <v>       0.44444444       0.33333333       0.00000000 </v>
    <v>      -0.44444444       0.33333333      -0.00000000 </v>
    <v>      -0.33333333       0.33333333      -0.00000000 </v>
    <v>      -0.22222222       0.33333333      -0.00000000 </v>
    <v>      -0.11111111       0.33333333       0.00000000 </v>
    <v>       0.00000000       0.44444444       0.00000000 </v>
    <v>       0.11111111       0.44444444       0.00000000 </v>
    <v>       0.22222222       0.44444444       0.00000000 </v>
    <v>       0.33333333       0.44444444      -0.00000000 </v>
    <v>       0.44444444       0.44444444       0.00000000 </v>
    <v>      -0.44444444       0.44444444      -0.00000000 </v>
    <v>      -0.33333333       0.44444444      -0.00000000 </v>
    <v>      -0.22222222       0.44444444       0.00000000 </v>
    <v>      -0.11111111       0.44444444       0.00000000 </v>
    <v>       0.00000000       0.11111111       0.11111111 </v>
    <v>       0.22222222       0.11111111       0.11111111 </v>
    <v>       0.33333333       0.11111111       0.11111111 </v>
    <v>       0.44444444       0.11111111       0.11111111 </v>
    <v>      -0.44444444       0.11111111       0.11111111 </v>
    <v>      -0.33333333       0.11111111       0.11111111 </v>
    <v>      -0.22222222       0.11111111       0.11111111 </v>
    <v>      -0.11111111       0.11111111       0.11111111 </v>
    <v>      -0.00000000       0.22222222       0.11111111 </v>
    <v>       0.33333333       0.22222222       0.11111111 </v>
    <v>       0.44444444       0.22222222       0.11111111 </v>
    <v>      -0.44444444       0.22222222       0.11111111 </v>
    <v>      -0.33333333       0.22222222       0.11111111 </v>
    <v>      -0.22222222       0.22222222       0.11111111 </v>
    <v>      -0.11111111       0.22222222       0.11111111 </v>
    <v>       0.00000000       0.33333333       0.11111111 </v>
    <v>       0.22222222       0.33333333       0.11111111 </v>
    <v>       0.44444444       0.33333333       0.11111111 </v>
    <v>      -0.44444444       0.33333333       0.11111111 </v>
    <v>      -0.33333333       0.33333333       0.11111111 </v>
    <v>      -0.22222222       0.33333333       0.11111111 </v>
    <v>      -0.11111111       0.33333333       0.11111111 </v>
    <v>      -0.00000000       0.44444444       0.11111111 </v>
    <v>       0.22222222       0.44444444       0.11111111 </v>
    <v>       0.33333333       0.44444444       0.11111111 </v>
    <v>      -0.44444444       0.44444444       0.11111111 </v>
    <v>      -0.33333333       0.44444444       0.11111111 </v>
    <v>      -0.22222222       0.44444444       0.11111111 </v>
    <v>      -0.11111111       0.44444444       0.11111111 </v>
    <v>      -0.00000000      -0.44444444       0.11111111 </v>
    <v>       0.22222222      -0.44444444       0.11111111 </v>
    <v>       0.33333333      -0.44444444       0.11111111 </v>
    <v>       0.44444444      -0.44444444       0.11111111 </v>
    <v>      -0.33333333      -0.44444444       0.11111111 </v>
    <v>      -0.22222222      -0.44444444       0.11111111 </v>
    <v>      -0.11111111      -0.44444444       0.11111111 </v>
    <v>      -0.00000000      -0.33333333       0.11111111 </v>
    <v>       0.33333333      -0.33333333       0.11111111 </v>
    <v>       0.44444444      -0.33333333       0.11111111 </v>
    <v>      -0.22222222      -0.33333333       0.11111111 </v>
    <v>      -0.11111111      -0.33333333       0.11111111 </v>
    <v>      -0.00000000      -0.22222222       0.11111111 </v>
    <v>       0.33333333      -0.22222222       0.11111111 </v>
    <v>       0.44444444      -0.22222222       0.11111111 </v>
    <v>      -0.44444444      -0.22222222       0.11111111 </v>
    <v>      -0.11111111      -0.22222222       0.11111111 </v>
    <v>      -0.00000000      -0.11111111       0.11111111 </v>
    <v>       0.33333333      -0.11111111       0.11111111 </v>
    <v>       0.44444444      -0.11111111       0.11111111 </v>
    <v>      -0.00000000       0.22222222       0.22222222 </v>
    <v>       0.44444444       0.22222222       0.22222222 </v>
    <v>      -0.44444444       0.22222222       0.22222222 </v>
    <v>      -0.33333333       0.22222222       0.22222222 </v>
    <v>      -0.22222222       0.22222222       0.22222222 </v>
    <v>      -0.11111111       0.22222222       0.22222222 </v>
    <v>      -0.00000000       0.33333333       0.22222222 </v>
    <v>      -0.44444444       0.33333333       0.22222222 </v>
    <v>      -0.33333333       0.33333333       0.22222222 </v>
    <v>      -0.22222222       0.33333333       0.22222222 </v>
    <v>      -0.11111111       0.33333333       0.22222222 </v>
    <v>      -0.00000000       0.44444444       0.22222222 </v>
    <v>      -0.33333333       0.44444444       0.22222222 </v>
    <v>      -0.22222222       0.44444444       0.22222222 </v>
    <v>      -0.11111111       0.44444444       0.22222222 </v>
    <v>      -0.00000000      -0.44444444       0.22222222 </v>
    <v>      -0.22222222      -0.44444444       0.22222222 </v>
    <v>      -0.11111111      -0.44444444       0.22222222 </v>
    <v>      -0.00000000      -0.33333333       0.22222222 </v>
    <v>       0.44444444      -0.33333333       0.22222222 </v>
    <v>      -0.11111111      -0.33333333       0.22222222 </v>
    <v>      -0.00000000      -0.22222222       0.22222222 </v>
    <v>      -0.00000000       0.33333333       0.33333333 </v>
    <v>      -0.33333333       0.33333333       0.33333333 </v>
    <v>      -0.22222222       0.33333333       0.33333333 </v>
    <v>      -0.11111111       0.33333333       0.33333333 </v>
    <v>      -0.00000000       0.44444444       0.33333333 </v>
    <v>      -0.22222222       0.44444444       0.33333333 </v>
    <v>      -0.11111111       0.44444444       0.33333333 </v>
    <v>      -0.00000000      -0.44444444       0.33333333 </v>
    <v>      -0.11111111      -0.44444444       0.33333333 </v>
    <v>      -0.00000000      -0.33333333       0.33333333 </v>
    <v>      -0.00000000       0.44444444       0.44444444 </v>
    <v>      -0.11111111       0.44444444       0.44444444 </v>
    <v>      -0.00000000      -0.44444444       0.44444444 </v>
   </varray>
   <varray name="weights" >
    <v>       0.00137174 </v>
    <v>       0.00548697 </v>
    <v>       0.00548697 </v>
    <v>       0.00548697 </v>
    <v>       0.00548697 </v>
    <v>       0.00548697 </v>
    <v>       0.00548697 </v>
    <v>       0.01097394 </v>
    <v>       0.01097394 </v>
    <v>       0.01097394 </v>
    <v>       0.01097394 </v>
    <v>       0.01097394 </v>
    <v>       0.01097394 </v>
    <v>       0.01097394 </v>
    <v>       0.00548697 </v>
    <v>       0.01097394 </v>
    <v>       0.00548697 </v>
    <v>       0.01097394 </v>
    <v>       0.01097394 </v>
    <v>       0.01097394 </v>
    <v>       0.01097394 </v>
    <v>       0.01097394 </v>
    <v>       0.01097394 </v>
    <v>       0.00548697 </v>
    <v>       0.01097394 </v>
    <v>       0.01097394 </v>
    <v>       0.00548697 </v>
    <v>       0.01097394 </v>
    <v>       0.01097394 </v>
    <v>       0.01097394 </v>
    <v>       0.01097394 </v>
    <v>       0.01097394 </v>
    <v>       0.00548697 </v>
    <v>       0.01097394 </v>
    <v>       0.01097394 </v>
    <v>       0.01097394 </v>
    <v>       0.00548697 </v>
    <v>       0.01097394 </v>
    <v>       0.01097394 </v>
    <v>       0.01097394 </v>
    <v>       0.01097394 </v>
    <v>       0.00274348 </v>
    <v>       0.00274348 </v>
    <v>       0.00548697 </v>
    <v>       0.00548697 </v>
    <v>       0.00548697 </v>
    <v>       0.00548697 </v>
    <v>       0.00548697 </v>
    <v>       0.00548697 </v>
    <v>       0.00548697 </v>
    <v>       0.00548697 </v>
    <v>       0.01097394 </v>
    <v>       0.01097394 </v>
    <v>       0.01097394 </v>
    <v>       0.01097394 </v>
    <v>       0.01097394 </v>
    <v>       0.00548697 </v>
    <v>       0.01097394 </v>
    <v>       0.00548697 </v>
    <v>       0.01097394 </v>
    <v>       0.01097394 </v>
    <v>       0.01097394 </v>
    <v>       0.01097394 </v>
    <v>       0.00548697 </v>
    <v>       0.01097394 </v>
    <v>       0.01097394 </v>
    <v>       0.00548697 </v>
    <v>       0.01097394 </v>
    <v>       0.01097394 </v>
    <v>       0.01097394 </v>
    <v>       0.00548697 </v>
    <v>       0.01097394 </v>
    <v>       0.01097394 </v>
    <v>       0.01097394 </v>
    <v>       0.00548697 </v>
    <v>       0.01097394 </v>
    <v>       0.01097394 </v>
    <v>       0.00548697 </v>
    <v>       0.01097394 </v>
    <v>       0.01097394 </v>
    <v>       0.00548697 </v>
    <v>       0.01097394 </v>
    <v>       0.00548697 </v>
    <v>       0.01097394 </v>
    <v>       0.01097394 </v>
    <v>       0.01097394 </v>
    <v>       0.00548697 </v>
    <v>       0.00274348 </v>
    <v>       0.01097394 </v>
    <v>       0.01097394 </v>
    <v>       0.00274348 </v>
    <v>       0.00274348 </v>
    <v>       0.00548697 </v>
    <v>       0.00548697 </v>
    <v>       0.00548697 </v>
    <v>       0.00548697 </v>
    <v>       0.00548697 </v>
    <v>       0.00548697 </v>
    <v>       0.01097394 </v>
    <v>       0.01097394 </v>
    <v>       0.01097394 </v>
    <v>       0.00548697 </v>
    <v>       0.00548697 </v>
    <v>       0.01097394 </v>
    <v>       0.01097394 </v>
    <v>       0.00548697 </v>
    <v>       0.00548697 </v>
    <v>       0.01097394 </v>
    <v>       0.00548697 </v>
    <v>       0.01097394 </v>
    <v>       0.00548697 </v>
    <v>       0.00274348 </v>
    <v>       0.00274348 </v>
    <v>       0.00274348 </v>
    <v>       0.00548697 </v>
    <v>       0.00548697 </v>
    <v>       0.00548697 </v>
    <v>       0.00548697 </v>
    <v>       0.01097394 </v>
    <v>       0.00548697 </v>
    <v>       0.00548697 </v>
    <v>       0.00274348 </v>
    <v>       0.00274348 </v>
    <v>       0.00274348 </v>
    <v>       0.00274348 </v>
   </varray>
  </kpoints>
  <time name="totalsc">   21.36   21.36</time>
 </calculation>
 <calculation>
  <scstep>
   <time name="dav">    3.50    3.49</time>
   <time name="total">    3.98    3.97</time>
   <energy>
    <i name="alphaZ">     59.13202236 </i>
    <i name="ewald">  -1679.80652414 </i>
    <i name="hartreedc">   -688.21494049 </i>
    <i name="XCdc">    -69.61104000 </i>
    <i name="pawpsdc">   2265.75673796 </i>
    <i name="pawaedc">  -2181.53344388 </i>
    <i name="eentropy">      0.00014319 </i>
    <i name="bandstr">   -346.38683644 </i>
    <i name="atom">   2640.52872706 </i>
    <i name="e_fr_energy">     -0.13515439 </i>
    <i name="e_wo_entrp">     -0.13529757 </i>
    <i name="e_0_energy">     -0.13520212 </i>
   </energy>
  </scstep>
  <scstep>
   <time name="diag">    0.77    0.77</time>
   <time name="diis">    2.48    2.48</time>
   <time name="orth">    0.06    0.06</time>
   <time name="total">    3.75    3.75</time>
   <energy>
    <i name="e_fr_energy">      0.01055504 </i>
    <i name="e_wo_entrp">      0.01004155 </i>
    <i name="e_0_energy">      0.01038388 </i>
   </energy>
  </scstep>
  <scstep>
   <time name="diag">    0.77    0.77</time>
   <time name="diis">    2.69    2.69</time>
   <time name="orth">    0.05    0.05</time>
   <time name="total">    3.99    3.99</time>
   <energy>
    <i name="e_fr_energy">      0.03330647 </i>
    <i name="e_wo_entrp">      0.03272417 </i>
    <i name="e_0_energy">      0.03311237 </i>
   </energy>
  </scstep>
  <scstep>
   <time name="diag">    0.92    0.92</time>
   <time name="diis">    2.85    2.85</time>
   <time name="orth">    0.04    0.04</time>
   <time name="total">    4.32    4.31</time>
   <energy>
    <i name="e_fr_energy">      0.03236706 </i>
    <i name="e_wo_entrp">      0.03177433 </i>
    <i name="e_0_energy">      0.03216948 </i>
   </energy>
  </scstep>
  <scstep>
   <time name="diag">    0.83    0.83</time>
   <time name="diis">    3.24    3.24</time>
   <time name="orth">    0.04    0.04</time>
   <time name="total">    4.62    4.61</time>
   <energy>
    <i name="e_fr_energy">      0.03194710 </i>
    <i name="e_wo_entrp">      0.03134393 </i>
    <i name="e_0_energy">      0.03174605 </i>
   </energy>
  </scstep>
  <scstep>
   <time name="diag">    0.81    0.81</time>
   <time name="diis">    2.25    2.25</time>
   <time name="orth">    0.04    0.04</time>
   <time name="total">    3.58    3.57</time>
   <energy>
    <i name="e_fr_energy">      0.03193356 </i>
    <i name="e_wo_entrp">      0.03133596 </i>
    <i name="e_0_energy">      0.03173436 </i>
   </energy>
  </scstep>
  <scstep>
   <time name="diag">    0.77    0.77</time>
   <time name="diis">    2.52    2.52</time>
   <time name="orth">    0.04    0.04</time>
   <time name="total">    3.73    3.73</time>
   <energy>
    <i name="e_fr_energy">      0.03193092 </i>
    <i name="e_wo_entrp">      0.03133362 </i>
    <i name="e_0_energy">      0.03173182 </i>
   </energy>
  </scstep>
  <scstep>
   <time name="diag">    0.76    0.76</time>
   <time name="diis">    2.67    2.67</time>
   <time name="orth">    0.04    0.04</time>
   <time name="total">    3.96    3.95</time>
   <energy>
    <i name="e_fr_energy">      0.03193128 </i>
    <i name="e_wo_entrp">      0.03133361 </i>
    <i name="e_0_energy">      0.03173205 </i>
   </energy>
  </scstep>
  <scstep>
   <time name="diag">    0.87    0.87</time>
   <time name="diis">    3.01    3.01</time>
   <time name="orth">    0.04    0.04</time>
   <time name="total">    4.41    4.41</time>
   <energy>
    <i name="e_fr_energy">      0.03193121 </i>
    <i name="e_wo_entrp">      0.03133382 </i>
    <i name="e_0_energy">      0.03173208 </i>
   </energy>
  </scstep>
  <scstep>
   <time name="diag">    0.81    0.81</time>
   <time name="diis">    2.29    2.29</time>
   <time name="orth">    0.04    0.04</time>
   <time name="total">    3.63    3.63</time>
   <energy>
    <i name="e_fr_energy">      0.03193122 </i>
    <i name="e_wo_entrp">      0.03133377 </i>
    <i name="e_0_energy">      0.03173207 </i>
   </energy>
  </scstep>
  <scstep>
   <time name="diag">    0.84    0.84</time>
   <time name="diis">    1.50    1.49</time>
   <time name="orth">    0.12    0.12</time>
   <time name="total">    2.91    2.91</time>
   <energy>
    <i name="e_fr_energy">      0.03193119 </i>
    <i name="e_wo_entrp">      0.03133368 </i>
    <i name="e_0_energy">      0.03173202 </i>
   </energy>
  </scstep>
  <scstep>
   <time name="diag">    0.79    0.78</time>
   <time name="diis">    1.66    1.66</time>
   <time name="orth">    0.09    0.09</time>
   <time name="total">    2.98    2.98</time>
   <energy>
    <i name="e_fr_energy">      0.03193121 </i>
    <i name="e_wo_entrp">      0.03133369 </i>
    <i name="e_0_energy">      0.03173203 </i>
   </energy>
  </scstep>
  <scstep>
   <time name="diag">    0.66    0.66</time>
   <time name="diis">    1.69    1.69</time>
   <time name="orth">    0.05    0.05</time>
   <time name="total">    2.84    2.84</time>
   <energy>
    <i name="e_fr_energy">      0.03193123 </i>
    <i name="e_wo_entrp">      0.03133369 </i>
    <i name="e_0_energy">      0.03173205 </i>
   </energy>
  </scstep>
  <scstep>
   <time name="diag">    0.85    0.85</time>
   <time name="diis">    2.04    2.04</time>
   <time name="orth">    0.05    0.05</time>
   <time name="total">    3.04    3.04</time>
   <energy>
    <i name="alphaZ">     59.13202236 </i>
    <i name="ewald">  -1679.80652414 </i>
    <i name="hartreedc">   -700.35741818 </i>
    <i name="XCdc">    -69.45640830 </i>
    <i name="pawpsdc">   2265.72683017 </i>
    <i name="pawaedc">  -2181.50270682 </i>
    <i name="eentropy">      0.00059754 </i>
    <i name="bandstr">   -334.23318845 </i>
    <i name="atom">   2640.52872706 </i>
    <i name="e_fr_energy">      0.03193123 </i>
    <i name="e_wo_entrp">      0.03133369 </i>
    <i name="e_0_energy">      0.03173205 </i>
   </energy>
  </scstep>
  <structure>
   <crystal>
    <varray name="basis" >
     <v>       4.56182675       0.00000000       0.00000000 </v>
     <v>       2.28091337       3.87319397      -0.00000000 </v>
     <v>       2.28091337       1.29106466       3.65168229 </v>
    </varray>
    <i name="volume">     64.52098961 </i>
    <varray name="rec_basis" >
     <v>       0.21921043      -0.12909242      -0.09128213 </v>
     <v>       0.00000000       0.25818485      -0.09128213 </v>
     <v>      -0.00000000       0.00000000       0.27384639 </v>
    </varray>
   </crystal>
   <varray name="positions" >
    <v>       0.00000000       0.00000000       0.00000000 </v>
   </varray>
  </structure>
  <varray name="forces" >
   <v>      -0.00000000       0.00000000       0.00000000 </v>
  </varray>
  <varray name="stress" >
   <v>      -2.24230796       0.00000000       0.00000000 </v>
   <v>       0.00000000      -0.91214060      -0.20544470 </v>
   <v>       0.00000000      -0.20544470      -0.76686926 </v>
  </varray>
  <energy>
   <i name="e_fr_energy">     -0.36080958 </i>
   <i name="e_wo_entrp">     -0.36100876 </i>
   <i name="e_0_energy">      0.00059754 </i>
  </energy>
  <kpoints>
   <generation param="Gamma">
    <v type="int" name="divisions">       9        9        9 </v>
    <v name="usershift">      0.00000000       0.00000000       0.00000000 </v>
    <v name="genvec1">      0.11111111       0.00000000       0.00000000 </v>
    <v name="genvec2">      0.00000000       0.11111111      -0.00000000 </v>
    <v name="genvec3">     -0.00000000      -0.00000000       0.11111111 </v>
    <v name="shift">      0.00000000       0.00000000       0.00000000 </v>
   </generation>
   <varray name="kpointlist" >
    <v>       0.00000000       0.00000000       0.00000000 </v>
    <v>       0.11111111       0.00000000      -0.00000000 </v>
    <v>       0.22222222      -0.00000000      -0.00000000 </v>
    <v>       0.33333333       0.00000000      -0.00000000 </v>
    <v>       0.44444444      -0.00000000      -0.00000000 </v>
    <v>      -0.00000000       0.11111111       0.00000000 </v>
    <v>       0.11111111       0.11111111      -0.00000000 </v>
    <v>       0.22222222       0.11111111      -0.00000000 </v>
    <v>       0.33333333       0.11111111      -0.00000000 </v>
    <v>       0.44444444       0.11111111      -0.00000000 </v>
    <v>      -0.44444444       0.11111111       0.00000000 </v>
    <v>      -0.33333333       0.11111111       0.00000000 </v>
    <v>      -0.22222222       0.11111111       0.00000000 </v>
    <v>      -0.11111111       0.11111111       0.00000000 </v>
    <v>      -0.00000000       0.22222222      -0.00000000 </v>
    <v>       0.11111111       0.22222222      -0.00000000 </v>
    <v>       0.22222222       0.22222222      -0.00000000 </v>
    <v>       0.33333333       0.22222222      -0.00000000 </v>
    <v>       0.44444444       0.22222222      -0.00000000 </v>
    <v>      -0.44444444       0.22222222       0.00000000 </v>
    <v>      -0.33333333       0.22222222       0.00000000 </v>
    <v>      -0.22222222       0.22222222       0.00000000 </v>
    <v>      -0.11111111       0.22222222       0.00000000 </v>
    <v>      -0.00000000       0.33333333       0.00000000 </v>
    <v>       0.11111111       0.33333333      -0.00000000 </v>
    <v>       0.22222222       0.33333333      -0.00000000 </v>
    <v>       0.33333333       0.33333333       0.00000000 </v>
    <v>       0.44444444       0.33333333      -0.00000000 </v>
    <v>      -0.44444444       0.33333333       0.00000000 </v>
    <v>      -0.33333333       0.33333333       0.00000000 </v>
    <v>      -0.22222222       0.33333333       0.00000000 </v>
    <v>      -0.11111111       0.33333333       0.00000000 </v>
    <v>      -0.00000000       0.44444444      -0.00000000 </v>
    <v>       0.11111111       0.44444444       0.00000000 </v>
    <v>       0.22222222       0.44444444      -0.00000000 </v>
    <v>       0.33333333       0.44444444      -0.00000000 </v>
    <v>       0.44444444       0.44444444      -0.00000000 </v>
    <v>      -0.44444444       0.44444444       0.00000000 </v>
    <v>      -0.33333333       0.44444444       0.00000000 </v>
    <v>      -0.22222222       0.44444444       0.00000000 </v>
    <v>      -0.11111111       0.44444444       0.00000000 </v>
    <v>       0.00000000       0.11111111       0.11111111 </v>
    <v>       0.22222222       0.11111111       0.11111111 </v>
    <v>       0.33333333       0.11111111       0.11111111 </v>
    <v>       0.44444444       0.11111111       0.11111111 </v>
    <v>      -0.44444444       0.11111111       0.11111111 </v>
    <v>      -0.33333333       0.11111111       0.11111111 </v>
    <v>      -0.22222222       0.11111111       0.11111111 </v>
    <v>      -0.11111111       0.11111111       0.11111111 </v>
    <v>      -0.00000000       0.22222222       0.11111111 </v>
    <v>       0.33333333       0.22222222       0.11111111 </v>
    <v>       0.44444444       0.22222222       0.11111111 </v>
    <v>      -0.44444444       0.22222222       0.11111111 </v>
    <v>      -0.33333333       0.22222222       0.11111111 </v>
    <v>      -0.22222222       0.22222222       0.11111111 </v>
    <v>      -0.11111111       0.22222222       0.11111111 </v>
    <v>      -0.00000000       0.33333333       0.11111111 </v>
    <v>       0.22222222       0.33333333       0.11111111 </v>
    <v>       0.44444444       0.33333333       0.11111111 </v>
    <v>      -0.44444444       0.33333333       0.11111111 </v>
    <v>      -0.33333333       0.33333333       0.11111111 </v>
    <v>      -0.22222222       0.33333333       0.11111111 </v>
    <v>      -0.11111111       0.33333333       0.11111111 </v>
    <v>      -0.00000000       0.44444444       0.11111111 </v>
    <v>       0.22222222       0.44444444       0.11111111 </v>
    <v>       0.33333333       0.44444444       0.11111111 </v>
    <v>      -0.44444444       0.44444444       0.11111111 </v>
    <v>      -0.33333333       0.44444444       0.11111111 </v>
    <v>      -0.22222222       0.44444444       0.11111111 </v>
    <v>      -0.11111111       0.44444444       0.11111111 </v>
    <v>       0.00000000      -0.44444444       0.11111111 </v>
    <v>       0.22222222      -0.44444444       0.11111111 </v>
    <v>       0.33333333      -0.44444444       0.11111111 </v>
    <v>       0.44444444      -0.44444444       0.11111111 </v>
    <v>      -0.33333333      -0.44444444       0.11111111 </v>
    <v>      -0.22222222      -0.44444444       0.11111111 </v>
    <v>      -0.11111111      -0.44444444       0.11111111 </v>
    <v>       0.00000000      -0.33333333       0.11111111 </v>
    <v>       0.33333333      -0.33333333       0.11111111 </v>
    <v>       0.44444444      -0.33333333       0.11111111 </v>
    <v>      -0.22222222      -0.33333333       0.11111111 </v>
    <v>      -0.11111111      -0.33333333       0.11111111 </v>
    <v>       0.00000000      -0.22222222       0.11111111 </v>
    <v>       0.33333333      -0.22222222       0.11111111 </v>
    <v>       0.44444444      -0.22222222       0.11111111 </v>
    <v>      -0.44444444      -0.22222222       0.11111111 </v>
    <v>      -0.11111111      -0.22222222       0.11111111 </v>
    <v>      -0.00000000      -0.11111111       0.11111111 </v>
    <v>       0.33333333      -0.11111111       0.11111111 </v>
    <v>       0.44444444      -0.11111111       0.11111111 </v>
    <v>       0.00000000       0.22222222       0.22222222 </v>
    <v>       0.44444444       0.22222222       0.22222222 </v>
    <v>      -0.44444444       0.22222222       0.22222222 </v>
    <v>      -0.33333333       0.22222222       0.22222222 </v>
    <v>      -0.22222222       0.22222222       0.22222222 </v>
    <v>      -0.11111111       0.22222222       0.22222222 </v>
    <v>      -0.00000000       0.33333333       0.22222222 </v>
    <v>      -0.44444444       0.33333333       0.22222222 </v>
    <v>      -0.33333333       0.33333333       0.22222222 </v>
    <v>      -0.22222222       0.33333333       0.22222222 </v>
    <v>      -0.11111111       0.33333333       0.22222222 </v>
    <v>      -0.00000000       0.44444444       0.22222222 </v>
    <v>      -0.33333333       0.44444444       0.22222222 </v>
    <v>      -0.22222222       0.44444444       0.22222222 </v>
    <v>      -0.11111111       0.44444444       0.22222222 </v>
    <v>       0.00000000      -0.44444444       0.22222222 </v>
    <v>      -0.22222222      -0.44444444       0.22222222 </v>
    <v>      -0.11111111      -0.44444444       0.22222222 </v>
    <v>       0.00000000      -0.33333333       0.22222222 </v>
    <v>       0.44444444      -0.33333333       0.22222222 </v>
    <v>      -0.11111111      -0.33333333       0.22222222 </v>
    <v>       0.00000000      -0.22222222       0.22222222 </v>
    <v>       0.00000000       0.33333333       0.33333333 </v>
    <v>      -0.33333333       0.33333333       0.33333333 </v>
    <v>      -0.22222222       0.33333333       0.33333333 </v>
    <v>      -0.11111111       0.33333333       0.33333333 </v>
    <v>       0.00000000       0.44444444       0.33333333 </v>
    <v>      -0.22222222       0.44444444       0.33333333 </v>
    <v>      -0.11111111       0.44444444       0.33333333 </v>
    <v>       0.00000000      -0.44444444       0.33333333 </v>
    <v>      -0.11111111      -0.44444444       0.33333333 </v>
    <v>       0.00000000      -0.33333333       0.33333333 </v>
    <v>       0.00000000       0.44444444       0.44444444 </v>
    <v>      -0.11111111       0.44444444       0.44444444 </v>
    <v>       0.00000000      -0.44444444       0.44444444 </v>
   </varray>
   <varray name="weights" >
    <v>       0.00137174 </v>
    <v>       0.00548697 </v>
    <v>       0.00548697 </v>
    <v>       0.00548697 </v>
    <v>       0.00548697 </v>
    <v>       0.00548697 </v>
    <v>       0.00548697 </v>
    <v>       0.01097394 </v>
    <v>       0.01097394 </v>
    <v>       0.01097394 </v>
    <v>       0.01097394 </v>
    <v>       0.01097394 </v>
    <v>       0.01097394 </v>
    <v>       0.01097394 </v>
    <v>       0.00548697 </v>
    <v>       0.01097394 </v>
    <v>       0.00548697 </v>
    <v>       0.01097394 </v>
    <v>       0.01097394 </v>
    <v>       0.01097394 </v>
    <v>       0.01097394 </v>
    <v>       0.01097394 </v>
    <v>       0.01097394 </v>
    <v>       0.00548697 </v>
    <v>       0.01097394 </v>
    <v>       0.01097394 </v>
    <v>       0.00548697 </v>
    <v>       0.01097394 </v>
    <v>       0.01097394 </v>
    <v>       0.01097394 </v>
    <v>       0.01097394 </v>
    <v>       0.01097394 </v>
    <v>       0.00548697 </v>
    <v>       0.01097394 </v>
    <v>       0.01097394 </v>
    <v>       0.01097394 </v>
    <v>       0.00548697 </v>
    <v>       0.01097394 </v>
    <v>       0.01097394 </v>
    <v>       0.01097394 </v>
    <v>       0.01097394 </v>
    <v>       0.00274348 </v>
    <v>       0.00274348 </v>
    <v>       0.00548697 </v>
    <v>       0.00548697 </v>
    <v>       0.00548697 </v>
    <v>       0.00548697 </v>
    <v>       0.00548697 </v>
    <v>       0.00548697 </v>
    <v>       0.00548697 </v>
    <v>       0.00548697 </v>
    <v>       0.01097394 </v>
    <v>       0.01097394 </v>
    <v>       0.01097394 </v>
    <v>       0.01097394 </v>
    <v>       0.01097394 </v>
    <v>       0.00548697 </v>
    <v>       0.01097394 </v>
    <v>       0.00548697 </v>
    <v>       0.01097394 </v>
    <v>       0.01097394 </v>
    <v>       0.01097394 </v>
    <v>       0.01097394 </v>
    <v>       0.00548697 </v>
    <v>       0.01097394 </v>
    <v>       0.01097394 </v>
    <v>       0.00548697 </v>
    <v>       0.01097394 </v>
    <v>       0.01097394 </v>
    <v>       0.01097394 </v>
    <v>       0.00548697 </v>
    <v>       0.01097394 </v>
    <v>       0.01097394 </v>
    <v>       0.01097394 </v>
    <v>       0.00548697 </v>
    <v>       0.01097394 </v>
    <v>       0.01097394 </v>
    <v>       0.00548697 </v>
    <v>       0.01097394 </v>
    <v>       0.01097394 </v>
    <v>       0.00548697 </v>
    <v>       0.01097394 </v>
    <v>       0.00548697 </v>
    <v>       0.01097394 </v>
    <v>       0.01097394 </v>
    <v>       0.01097394 </v>
    <v>       0.00548697 </v>
    <v>       0.00274348 </v>
    <v>       0.01097394 </v>
    <v>       0.01097394 </v>
    <v>       0.00274348 </v>
    <v>       0.00274348 </v>
    <v>       0.00548697 </v>
    <v>       0.00548697 </v>
    <v>       0.00548697 </v>
    <v>       0.00548697 </v>
    <v>       0.00548697 </v>
    <v>       0.00548697 </v>
    <v>       0.01097394 </v>
    <v>       0.01097394 </v>
    <v>       0.01097394 </v>
    <v>       0.00548697 </v>
    <v>       0.00548697 </v>
    <v>       0.01097394 </v>
    <v>       0.01097394 </v>
    <v>       0.00548697 </v>
    <v>       0.00548697 </v>
    <v>       0.01097394 </v>
    <v>       0.00548697 </v>
    <v>       0.01097394 </v>
    <v>       0.00548697 </v>
    <v>       0.00274348 </v>
    <v>       0.00274348 </v>
    <v>       0.00274348 </v>
    <v>       0.00548697 </v>
    <v>       0.00548697 </v>
    <v>       0.00548697 </v>
    <v>       0.00548697 </v>
    <v>       0.01097394 </v>
    <v>       0.00548697 </v>
    <v>       0.00548697 </v>
    <v>       0.00274348 </v>
    <v>       0.00274348 </v>
    <v>       0.00274348 </v>
    <v>       0.00274348 </v>
   </varray>
  </kpoints>
  <time name="totalsc">   56.85   56.82</time>
 </calculation>
 <calculation>
  <scstep>
   <time name="dav">    3.76    3.76</time>
   <time name="total">    4.24    4.24</time>
   <energy>
    <i name="alphaZ">     61.54557429 </i>
    <i name="ewald">  -1702.34993281 </i>
    <i name="hartreedc">   -709.48984723 </i>
    <i name="XCdc">    -69.09585920 </i>
    <i name="pawpsdc">   2265.72713263 </i>
    <i name="pawaedc">  -2181.50300737 </i>
    <i name="eentropy">      0.00033236 </i>
    <i name="bandstr">   -305.99330662 </i>
    <i name="atom">   2640.52872706 </i>
    <i name="e_fr_energy">     -0.63018688 </i>
    <i name="e_wo_entrp">     -0.63051925 </i>
    <i name="e_0_energy">     -0.63029767 </i>
   </energy>
  </scstep>
  <scstep>
   <time name="diag">    0.76    0.76</time>
   <time name="diis">    2.28    2.28</time>
   <time name="orth">    0.04    0.04</time>
   <time name="total">    3.52    3.52</time>
   <energy>
    <i name="e_fr_energy">      0.05770826 </i>
    <i name="e_wo_entrp">      0.05726043 </i>
    <i name="e_0_energy">      0.05755899 </i>
   </energy>
  </scstep>
  <scstep>
   <time name="diag">    0.89    0.89</time>
   <time name="diis">    2.55    2.55</time>
   <time name="orth">    0.04    0.04</time>
   <time name="total">    3.95    3.95</time>
   <energy>
    <i name="e_fr_energy">      0.04913187 </i>
    <i name="e_wo_entrp">      0.04872113 </i>
    <i name="e_0_energy">      0.04899496 </i>
   </energy>
  </scstep>
  <scstep>
   <time name="diag">    0.83    0.83</time>
   <time name="diis">    3.01    3.01</time>
   <time name="orth">    0.04    0.04</time>
   <time name="total">    4.33    4.33</time>
   <energy>
    <i name="e_fr_energy">      0.04875764 </i>
    <i name="e_wo_entrp">      0.04828475 </i>
    <i name="e_0_energy">      0.04860001 </i>
   </energy>
  </scstep>
  <scstep>
   <time name="diag">    0.69    0.69</time>
   <time name="diis">    2.33    2.33</time>
   <time name="orth">    0.05    0.05</time>
   <time name="total">    3.52    3.52</time>
   <energy>
    <i name="e_fr_energy">      0.04897636 </i>
    <i name="e_wo_entrp">      0.04847700 </i>
    <i name="e_0_energy">      0.04880991 </i>
   </energy>
  </scstep>
  <scstep>
   <time name="diag">    0.73    0.73</time>
   <time name="diis">    2.69    2.69</time>
   <time name="orth">    0.05    0.05</time>
   <time name="total">    3.90    3.90</time>
   <energy>
    <i name="e_fr_energy">      0.04901787 </i>
    <i name="e_wo_entrp">      0.04850654 </i>
    <i name="e_0_energy">      0.04884743 </i>
   </energy>
  </scstep>
  <scstep>
   <time name="diag">    0.78    0.78</time>
   <time name="diis">    2.43    2.43</time>
   <time name="orth">    0.04    0.04</time>
   <time name="total">    3.71    3.71</time>
   <energy>
    <i name="e_fr_energy">      0.03854944 </i>
    <i name="e_wo_entrp">      0.03800023 </i>
    <i name="e_0_energy">      0.03836637 </i>
   </energy>
  </scstep>
  <scstep>
   <time name="diag">    0.74    0.73</time>
   <time name="diis">    2.78    2.78</time>
   <time name="orth">    0.04    0.04</time>
   <time name="total">    4.02    4.01</time>
   <energy>
    <i name="e_fr_energy">      0.04917904 </i>
    <i name="e_wo_entrp">      0.04866237 </i>
    <i name="e_0_energy">      0.04900681 </i>
   </energy>
  </scstep>
  <scstep>
   <time name="diag">    0.77    0.76</time>
   <time name="diis">    2.51    2.51</time>
   <time name="orth">    0.06    0.06</time>
   <time name="total">    3.80    3.80</time>
   <energy>
    <i name="e_fr_energy">      0.04906451 </i>
    <i name="e_wo_entrp">      0.04855492 </i>
    <i name="e_0_energy">      0.04889465 </i>
   </energy>
  </scstep>
  <scstep>
   <time name="diag">    0.75    0.75</time>
   <time name="diis">    2.41    2.41</time>
   <time name="orth">    0.04    0.04</time>
   <time name="total">    3.66    3.66</time>
   <energy>
    <i name="e_fr_energy">      0.04902136 </i>
    <i name="e_wo_entrp">      0.04850907 </i>
    <i name="e_0_energy">      0.04885060 </i>
   </energy>
  </scstep>
  <scstep>
   <time name="diag">    0.73    0.73</time>
   <time name="diis">    2.52    2.52</time>
   <time name="orth">    0.04    0.04</time>
   <time name="total">    3.72    3.72</time>
   <energy>
    <i name="e_fr_energy">      0.04902086 </i>
    <i name="e_wo_entrp">      0.04850706 </i>
    <i name="e_0_energy">      0.04884959 </i>
   </energy>
  </scstep>
  <scstep>
   <time name="diag">    0.83    0.83</time>
   <time name="diis">    2.53    2.53</time>
   <time name="orth">    0.04    0.04</time>
   <time name="total">    3.83    3.83</time>
   <energy>
    <i name="e_fr_energy">      0.04902168 </i>
    <i name="e_wo_entrp">      0.04850689 </i>
    <i name="e_0_energy">      0.04885008 </i>
   </energy>
  </scstep>
  <scstep>
   <time name="diag">    0.69    0.69</time>
   <time name="diis">    2.77    2.76</time>
   <time name="orth">    0.05    0.05</time>
   <time name="total">    4.00    4.00</time>
   <energy>
    <i name="e_fr_energy">      0.04902108 </i>
    <i name="e_wo_entrp">      0.04850619 </i>
    <i name="e_0_energy">      0.04884945 </i>
   </energy>
  </scstep>
  <scstep>
   <time name="diag">    0.97    0.97</time>
   <time name="diis">    2.76    2.76</time>
   <time name="orth">    0.04    0.04</time>
   <time name="total">    4.29    4.29</time>
   <energy>
    <i name="e_fr_energy">      0.04902459 </i>
    <i name="e_wo_entrp">      0.04850623 </i>
    <i name="e_0_energy">      0.04885181 </i>
   </energy>
  </scstep>
  <scstep>
   <time name="diag">    0.85    0.85</time>
   <time name="diis">    2.81    2.81</time>
   <time name="orth">    0.04    0.04</time>
   <time name="total">    4.21    4.20</time>
   <energy>
    <i name="e_fr_energy">      0.04902135 </i>
    <i name="e_wo_entrp">      0.04850642 </i>
    <i name="e_0_energy">      0.04884970 </i>
   </energy>
  </scstep>
  <scstep>
   <time name="diag">    0.82    0.82</time>
   <time name="diis">    2.31    2.30</time>
   <time name="orth">    0.13    0.13</time>
   <time name="total">    3.73    3.73</time>
   <energy>
    <i name="e_fr_energy">      0.04902127 </i>
    <i name="e_wo_entrp">      0.04850637 </i>
    <i name="e_0_energy">      0.04884964 </i>
   </energy>
  </scstep>
  <scstep>
   <time name="diag">    0.79    0.79</time>
   <time name="diis">    1.97    1.97</time>
   <time name="orth">    0.04    0.04</time>
   <time name="total">    3.26    3.26</time>
   <energy>
    <i name="e_fr_energy">      0.04902131 </i>
    <i name="e_wo_entrp">      0.04850639 </i>
    <i name="e_0_energy">      0.04884967 </i>
   </energy>
  </scstep>
  <scstep>
   <time name="diag">    0.70    0.70</time>
   <time name="diis">    1.64    1.64</time>
   <time name="orth">    0.06    0.06</time>
   <time name="total">    2.90    2.90</time>
   <energy>
    <i name="e_fr_energy">      0.04902129 </i>
    <i name="e_wo_entrp">      0.04850638 </i>
    <i name="e_0_energy">      0.04884965 </i>
   </energy>
  </scstep>
  <scstep>
   <time name="diag">    0.79    0.79</time>
   <time name="diis">    2.05    2.05</time>
   <time name="orth">    0.04    0.04</time>
   <time name="total">    3.37    3.37</time>
   <energy>
    <i name="e_fr_energy">      0.04902128 </i>
    <i name="e_wo_entrp">      0.04850636 </i>
    <i name="e_0_energy">      0.04884964 </i>
   </energy>
  </scstep>
  <scstep>
   <time name="diag">    0.84    0.84</time>
   <time name="diis">    1.99    1.99</time>
   <time name="orth">    0.04    0.04</time>
   <time name="total">    3.38    3.37</time>
   <energy>
    <i name="e_fr_energy">      0.04902126 </i>
    <i name="e_wo_entrp">      0.04850632 </i>
    <i name="e_0_energy">      0.04884962 </i>
   </energy>
  </scstep>
  <scstep>
   <time name="diag">    0.80    0.80</time>
   <time name="diis">    1.94    1.94</time>
   <time name="orth">    0.04    0.04</time>
   <time name="total">    3.28    3.28</time>
   <energy>
    <i name="e_fr_energy">      0.04902124 </i>
    <i name="e_wo_entrp">      0.04850626 </i>
    <i name="e_0_energy">      0.04884958 </i>
   </energy>
  </scstep>
  <scstep>
   <time name="diag">    0.89    0.89</time>
   <time name="diis">    1.59    1.59</time>
   <time name="orth">    0.05    0.05</time>
   <time name="total">    2.67    2.66</time>
   <energy>
    <i name="alphaZ">     61.54557429 </i>
    <i name="ewald">  -1702.34993281 </i>
    <i name="hartreedc">   -685.22034527 </i>
    <i name="XCdc">    -69.41864884 </i>
    <i name="pawpsdc">   2265.82340640 </i>
    <i name="pawaedc">  -2181.60141389 </i>
    <i name="eentropy">      0.00051499 </i>
    <i name="bandstr">   -329.25886070 </i>
    <i name="atom">   2640.52872706 </i>
    <i name="e_fr_energy">      0.04902123 </i>
    <i name="e_wo_entrp">      0.04850624 </i>
    <i name="e_0_energy">      0.04884956 </i>
   </energy>
  </scstep>
  <structure>
   <crystal>
    <varray name="basis" >
     <v>       4.38293158       0.00000000       0.00000000 </v>
     <v>       2.19146579       3.87319397      -0.00000000 </v>
     <v>       2.19146579       1.29106466       3.65168229 </v>
    </varray>
    <i name="volume">     61.99075472 </i>
    <varray name="rec_basis" >
     <v>       0.22815779      -0.12909242      -0.09128213 </v>
     <v>       0.00000000       0.25818485      -0.09128213 </v>
     <v>      -0.00000000       0.00000000       0.27384639 </v>
    </varray>
   </crystal>
   <varray name="positions" >
    <v>       0.00000000       0.00000000       0.00000000 </v>
   </varray>
  </structure>
  <varray name="forces" >
   <v>      -0.00000000       0.00000000       0.00000000 </v>
  </varray>
  <varray name="stress" >
   <v>       2.49726670      -0.00000000       0.00000000 </v>
   <v>      -0.00000000       0.88228103       0.26258460 </v>
   <v>       0.00000000       0.26258460       0.69660568 </v>
  </varray>
  <energy>
   <i name="e_fr_energy">     -0.36081268 </i>
   <i name="e_wo_entrp">     -0.36098434 </i>
   <i name="e_0_energy">      0.00051499 </i>
  </energy>
  <kpoints>
   <generation param="Gamma">
    <v type="int" name="divisions">       9        9        9 </v>
    <v name="usershift">      0.00000000       0.00000000       0.00000000 </v>
    <v name="genvec1">      0.11111111      -0.00000000       0.00000000 </v>
    <v name="genvec2">      0.00000000       0.11111111      -0.00000000 </v>
    <v name="genvec3">     -0.00000000      -0.00000000       0.11111111 </v>
    <v name="shift">      0.00000000       0.00000000       0.00000000 </v>
   </generation>
   <varray name="kpointlist" >
    <v>       0.00000000       0.00000000       0.00000000 </v>
    <v>       0.11111111       0.00000000      -0.00000000 </v>
    <v>       0.22222222      -0.00000000      -0.00000000 </v>
    <v>       0.33333333      -0.00000000      -0.00000000 </v>
    <v>       0.44444444      -0.00000000      -0.00000000 </v>
    <v>      -0.00000000       0.11111111       0.00000000 </v>
    <v>       0.11111111       0.11111111       0.00000000 </v>
    <v>       0.22222222       0.11111111      -0.00000000 </v>
    <v>       0.33333333       0.11111111      -0.00000000 </v>
    <v>       0.44444444       0.11111111      -0.00000000 </v>
    <v>      -0.44444444       0.11111111       0.00000000 </v>
    <v>      -0.33333333       0.11111111       0.00000000 </v>
    <v>      -0.22222222       0.11111111       0.00000000 </v>
    <v>      -0.11111111       0.11111111       0.00000000 </v>
    <v>      -0.00000000       0.22222222       0.00000000 </v>
    <v>       0.11111111       0.22222222       0.00000000 </v>
    <v>       0.22222222       0.22222222      -0.00000000 </v>
    <v>       0.33333333       0.22222222      -0.00000000 </v>
    <v>       0.44444444       0.22222222      -0.00000000 </v>
    <v>      -0.44444444       0.22222222       0.00000000 </v>
    <v>      -0.33333333       0.22222222       0.00000000 </v>
    <v>      -0.22222222       0.22222222       0.00000000 </v>
    <v>      -0.11111111       0.22222222       0.00000000 </v>
    <v>      -0.00000000       0.33333333       0.00000000 </v>
    <v>       0.11111111       0.33333333       0.00000000 </v>
    <v>       0.22222222       0.33333333      -0.00000000 </v>
    <v>       0.33333333       0.33333333      -0.00000000 </v>
    <v>       0.44444444       0.33333333       0.00000000 </v>
    <v>      -0.44444444       0.33333333       0.00000000 </v>
    <v>      -0.33333333       0.33333333       0.00000000 </v>
    <v>      -0.22222222       0.33333333       0.00000000 </v>
    <v>      -0.11111111       0.33333333       0.00000000 </v>
    <v>      -0.00000000       0.44444444       0.00000000 </v>
    <v>       0.11111111       0.44444444       0.00000000 </v>
    <v>       0.22222222       0.44444444       0.00000000 </v>
    <v>       0.33333333       0.44444444      -0.00000000 </v>
    <v>       0.44444444       0.44444444      -0.00000000 </v>
    <v>      -0.44444444       0.44444444       0.00000000 </v>
    <v>      -0.33333333       0.44444444       0.00000000 </v>
    <v>      -0.22222222       0.44444444       0.00000000 </v>
    <v>      -0.11111111       0.44444444       0.00000000 </v>
    <v>       0.00000000       0.00000000       0.11111111 </v>
    <v>       0.22222222      -0.00000000       0.11111111 </v>
    <v>       0.33333333      -0.00000000       0.11111111 </v>
    <v>       0.44444444      -0.00000000       0.11111111 </v>
    <v>      -0.44444444       0.00000000       0.11111111 </v>
    <v>      -0.33333333      -0.00000000       0.11111111 </v>
    <v>      -0.22222222       0.00000000       0.11111111 </v>
    <v>      -0.11111111      -0.00000000       0.11111111 </v>
    <v>       0.00000000       0.11111111       0.11111111 </v>
    <v>       0.22222222       0.11111111       0.11111111 </v>
    <v>       0.33333333       0.11111111       0.11111111 </v>
    <v>       0.44444444       0.11111111       0.11111111 </v>
    <v>      -0.44444444       0.11111111       0.11111111 </v>
    <v>      -0.33333333       0.11111111       0.11111111 </v>
    <v>      -0.22222222       0.11111111       0.11111111 </v>
    <v>      -0.11111111       0.11111111       0.11111111 </v>
    <v>       0.00000000       0.22222222       0.11111111 </v>
    <v>       0.33333333       0.22222222       0.11111111 </v>
    <v>       0.44444444       0.22222222       0.11111111 </v>
    <v>      -0.44444444       0.22222222       0.11111111 </v>
    <v>      -0.33333333       0.22222222       0.11111111 </v>
    <v>      -0.22222222       0.22222222       0.11111111 </v>
    <v>      -0.11111111       0.22222222       0.11111111 </v>
    <v>       0.00000000       0.33333333       0.11111111 </v>
    <v>       0.22222222       0.33333333       0.11111111 </v>
    <v>       0.33333333       0.33333333       0.11111111 </v>
    <v>       0.44444444       0.33333333       0.11111111 </v>
    <v>      -0.44444444       0.33333333       0.11111111 </v>
    <v>      -0.33333333       0.33333333       0.11111111 </v>
    <v>      -0.22222222       0.33333333       0.11111111 </v>
    <v>      -0.11111111       0.33333333       0.11111111 </v>
    <v>       0.00000000       0.44444444       0.11111111 </v>
    <v>       0.22222222       0.44444444       0.11111111 </v>
    <v>       0.33333333       0.44444444       0.11111111 </v>
    <v>       0.44444444       0.44444444       0.11111111 </v>
    <v>      -0.44444444       0.44444444       0.11111111 </v>
    <v>      -0.33333333       0.44444444       0.11111111 </v>
    <v>      -0.22222222       0.44444444       0.11111111 </v>
    <v>      -0.11111111       0.44444444       0.11111111 </v>
    <v>       0.00000000      -0.44444444       0.11111111 </v>
    <v>       0.22222222      -0.44444444       0.11111111 </v>
    <v>       0.33333333      -0.44444444       0.11111111 </v>
    <v>       0.44444444      -0.44444444       0.11111111 </v>
    <v>      -0.44444444      -0.44444444       0.11111111 </v>
    <v>      -0.33333333      -0.44444444       0.11111111 </v>
    <v>      -0.22222222      -0.44444444       0.11111111 </v>
    <v>      -0.11111111      -0.44444444       0.11111111 </v>
    <v>       0.00000000      -0.33333333       0.11111111 </v>
    <v>       0.33333333      -0.33333333       0.11111111 </v>
    <v>       0.44444444      -0.33333333       0.11111111 </v>
    <v>      -0.44444444      -0.33333333       0.11111111 </v>
    <v>      -0.33333333      -0.33333333       0.11111111 </v>
    <v>      -0.22222222      -0.33333333       0.11111111 </v>
    <v>      -0.11111111      -0.33333333       0.11111111 </v>
    <v>       0.00000000      -0.22222222       0.11111111 </v>
    <v>       0.33333333      -0.22222222       0.11111111 </v>
    <v>       0.44444444      -0.22222222       0.11111111 </v>
    <v>      -0.44444444      -0.22222222       0.11111111 </v>
    <v>      -0.33333333      -0.22222222       0.11111111 </v>
    <v>      -0.22222222      -0.22222222       0.11111111 </v>
    <v>      -0.11111111      -0.22222222       0.11111111 </v>
    <v>       0.00000000      -0.11111111       0.11111111 </v>
    <v>       0.33333333      -0.11111111       0.11111111 </v>
    <v>       0.44444444      -0.11111111       0.11111111 </v>
    <v>      -0.44444444      -0.11111111       0.11111111 </v>
    <v>      -0.33333333      -0.11111111       0.11111111 </v>
    <v>      -0.22222222      -0.11111111       0.11111111 </v>
    <v>      -0.11111111      -0.11111111       0.11111111 </v>
    <v>       0.00000000       0.00000000       0.22222222 </v>
    <v>       0.44444444      -0.00000000       0.22222222 </v>
    <v>      -0.44444444       0.00000000       0.22222222 </v>
    <v>      -0.33333333      -0.00000000       0.22222222 </v>
    <v>      -0.22222222       0.00000000       0.22222222 </v>
    <v>      -0.11111111      -0.00000000       0.22222222 </v>
    <v>       0.00000000       0.11111111       0.22222222 </v>
    <v>       0.44444444       0.11111111       0.22222222 </v>
    <v>      -0.44444444       0.11111111       0.22222222 </v>
    <v>      -0.33333333       0.11111111       0.22222222 </v>
    <v>      -0.22222222       0.11111111       0.22222222 </v>
    <v>      -0.11111111       0.11111111       0.22222222 </v>
    <v>       0.00000000       0.22222222       0.22222222 </v>
    <v>       0.44444444       0.22222222       0.22222222 </v>
    <v>      -0.44444444       0.22222222       0.22222222 </v>
    <v>      -0.33333333       0.22222222       0.22222222 </v>
    <v>      -0.22222222       0.22222222       0.22222222 </v>
    <v>      -0.11111111       0.22222222       0.22222222 </v>
    <v>       0.00000000       0.33333333       0.22222222 </v>
    <v>      -0.44444444       0.33333333       0.22222222 </v>
    <v>      -0.33333333       0.33333333       0.22222222 </v>
    <v>      -0.22222222       0.33333333       0.22222222 </v>
    <v>      -0.11111111       0.33333333       0.22222222 </v>
    <v>       0.00000000       0.44444444       0.22222222 </v>
    <v>      -0.44444444       0.44444444       0.22222222 </v>
    <v>      -0.33333333       0.44444444       0.22222222 </v>
    <v>      -0.22222222       0.44444444       0.22222222 </v>
    <v>      -0.11111111       0.44444444       0.22222222 </v>
    <v>       0.00000000      -0.44444444       0.22222222 </v>
    <v>       0.44444444      -0.44444444       0.22222222 </v>
    <v>      -0.44444444      -0.44444444       0.22222222 </v>
    <v>      -0.33333333      -0.44444444       0.22222222 </v>
    <v>      -0.22222222      -0.44444444       0.22222222 </v>
    <v>      -0.11111111      -0.44444444       0.22222222 </v>
    <v>       0.00000000      -0.33333333       0.22222222 </v>
    <v>       0.44444444      -0.33333333       0.22222222 </v>
    <v>      -0.44444444      -0.33333333       0.22222222 </v>
    <v>      -0.33333333      -0.33333333       0.22222222 </v>
    <v>      -0.22222222      -0.33333333       0.22222222 </v>
    <v>      -0.11111111      -0.33333333       0.22222222 </v>
    <v>       0.00000000      -0.22222222       0.22222222 </v>
    <v>      -0.44444444      -0.22222222       0.22222222 </v>
    <v>      -0.33333333      -0.22222222       0.22222222 </v>
    <v>      -0.22222222      -0.22222222       0.22222222 </v>
    <v>      -0.11111111      -0.22222222       0.22222222 </v>
    <v>       0.00000000      -0.11111111       0.22222222 </v>
    <v>      -0.44444444      -0.11111111       0.22222222 </v>
    <v>      -0.33333333      -0.11111111       0.22222222 </v>
    <v>      -0.22222222      -0.11111111       0.22222222 </v>
[...]
       <r>    6.7149    0.0000 </r>
       <r>    8.0618    0.0000 </r>
       <r>    9.0756    0.0000 </r>
       <r>   11.9567    0.0000 </r>
       <r>   12.2655    0.0000 </r>
       <r>   13.9951    0.0000 </r>
       <r>   14.7272    0.0000 </r>
      </set>
      <set comment="kpoint 30">
       <r>  -28.7267    1.0000 </r>
       <r>  -28.7253    1.0000 </r>
       <r>  -28.7237    1.0000 </r>
       <r>  -28.7221    1.0000 </r>
       <r>  -28.7213    1.0000 </r>
       <r>  -21.6378    1.0000 </r>
       <r>   -1.1782    1.0000 </r>
       <r>   -0.3172    1.0000 </r>
       <r>    0.1918    1.0000 </r>
       <r>    7.0826    0.0000 </r>
       <r>    8.5629    0.0000 </r>
       <r>    9.0384    0.0000 </r>
       <r>   11.7019    0.0000 </r>
       <r>   12.4518    0.0000 </r>
       <r>   13.5212    0.0000 </r>
       <r>   14.6158    0.0000 </r>
      </set>
      <set comment="kpoint 31">
       <r>  -28.7263    1.0000 </r>
       <r>  -28.7246    1.0000 </r>
       <r>  -28.7234    1.0000 </r>
       <r>  -28.7231    1.0000 </r>
       <r>  -28.7214    1.0000 </r>
       <r>  -21.6351    1.0000 </r>
       <r>   -1.0960    1.0000 </r>
       <r>   -0.5845    1.0000 </r>
       <r>    0.2377    1.0000 </r>
       <r>    7.3984    0.0000 </r>
       <r>    8.4339    0.0000 </r>
       <r>   10.0965    0.0000 </r>
       <r>   10.6247    0.0000 </r>
       <r>   11.8369    0.0000 </r>
       <r>   13.2846    0.0000 </r>
       <r>   14.5844    0.0000 </r>
      </set>
      <set comment="kpoint 32">
       <r>  -28.7260    1.0000 </r>
       <r>  -28.7252    1.0000 </r>
       <r>  -28.7240    1.0000 </r>
       <r>  -28.7223    1.0000 </r>
       <r>  -28.7222    1.0000 </r>
       <r>  -21.6427    1.0000 </r>
       <r>   -1.1042    1.0000 </r>
       <r>   -0.4232    1.0000 </r>
       <r>    0.4038    1.0000 </r>
       <r>    7.5307    0.0000 </r>
       <r>    8.1951    0.0000 </r>
       <r>    9.2356    0.0000 </r>
       <r>   11.2812    0.0000 </r>
       <r>   12.2733    0.0000 </r>
       <r>   12.4265    0.0000 </r>
       <r>   14.6991    0.0000 </r>
      </set>
      <set comment="kpoint 33">
       <r>  -28.7278    1.0000 </r>
       <r>  -28.7259    1.0000 </r>
       <r>  -28.7224    1.0000 </r>
       <r>  -28.7215    1.0000 </r>
       <r>  -28.7208    1.0000 </r>
       <r>  -21.6320    1.0000 </r>
       <r>   -1.2707    1.0000 </r>
       <r>   -0.1776    1.0000 </r>
       <r>   -0.0021    1.0000 </r>
       <r>    6.4883    0.0000 </r>
       <r>    7.7912    0.0000 </r>
       <r>   10.5349    0.0000 </r>
       <r>   12.2450    0.0000 </r>
       <r>   13.2564    0.0000 </r>
       <r>   13.7932    0.0000 </r>
       <r>   15.3172    0.0000 </r>
      </set>
      <set comment="kpoint 34">
       <r>  -28.7269    1.0000 </r>
       <r>  -28.7252    1.0000 </r>
       <r>  -28.7227    1.0000 </r>
       <r>  -28.7226    1.0000 </r>
       <r>  -28.7208    1.0000 </r>
       <r>  -21.6303    1.0000 </r>
       <r>   -1.0967    1.0000 </r>
       <r>   -0.5600    1.0000 </r>
       <r>    0.0356    1.0000 </r>
       <r>    6.9454    0.0000 </r>
       <r>    8.5453    0.0000 </r>
       <r>   10.0832    0.0000 </r>
       <r>   10.8459    0.0000 </r>
       <r>   12.9114    0.0000 </r>
       <r>   13.6973    0.0000 </r>
       <r>   15.6579    0.0000 </r>
      </set>
      <set comment="kpoint 35">
       <r>  -28.7254    1.0000 </r>
       <r>  -28.7254    1.0000 </r>
       <r>  -28.7239    1.0000 </r>
       <r>  -28.7227    1.0000 </r>
       <r>  -28.7208    1.0000 </r>
       <r>  -21.6312    1.0000 </r>
       <r>   -0.9676    1.0000 </r>
       <r>   -0.6506    1.0000 </r>
       <r>   -0.0327    1.0000 </r>
       <r>    7.7315    0.0000 </r>
       <r>    8.6818    0.0000 </r>
       <r>    9.1246    0.0000 </r>
       <r>   10.4313    0.0000 </r>
       <r>   13.3050    0.0000 </r>
       <r>   13.4912    0.0000 </r>
       <r>   15.5802    0.0000 </r>
      </set>
     </set>
    </set>
   </array>
  </eigenvalues>
  <separator name="orbital magnetization" >
   <v name="MAGDIPOLOUT">      0.00000000      0.00000000      0.00000000</v>
  </separator>
  <dos>
   <i name="efermi">      1.02689760 </i>
   <total>
    <array>
     <dimension dim="1">gridpoints</dimension>
     <dimension dim="2">spin</dimension>
     <field>energy</field>
     <field>total</field>
     <field>integrated</field>
     <set>
      <set comment="spin 1">
       <r>   -30.9481     0.0000     0.0000 </r>
       <r>   -30.7853     0.0000     0.0000 </r>
       <r>   -30.6226     0.0000     0.0000 </r>
       <r>   -30.4598     0.0000     0.0000 </r>
       <r>   -30.2971     0.0000     0.0000 </r>
       <r>   -30.1343     0.0000     0.0000 </r>
       <r>   -29.9716     0.0000     0.0000 </r>
       <r>   -29.8088     0.0000     0.0000 </r>
       <r>   -29.6461    -0.0000    -0.0000 </r>
       <r>   -29.4833    -0.0000    -0.0000 </r>
       <r>   -29.3206    -0.0000    -0.0000 </r>
       <r>   -29.1578    -0.0000    -0.0000 </r>
       <r>   -28.9951    -0.0268    -0.0044 </r>
       <r>   -28.8323    -1.9107    -0.3153 </r>
       <r>   -28.6696    56.8867     8.9431 </r>
       <r>   -28.5068     6.7640    10.0439 </r>
       <r>   -28.3441    -0.2697    10.0000 </r>
       <r>   -28.1813    -0.0000    10.0000 </r>
       <r>   -28.0186    -0.0000    10.0000 </r>
       <r>   -27.8558     0.0000    10.0000 </r>
       <r>   -27.6931     0.0000    10.0000 </r>
       <r>   -27.5303     0.0000    10.0000 </r>
       <r>   -27.3676     0.0000    10.0000 </r>
       <r>   -27.2048     0.0000    10.0000 </r>
       <r>   -27.0421     0.0000    10.0000 </r>
       <r>   -26.8793     0.0000    10.0000 </r>
       <r>   -26.7165     0.0000    10.0000 </r>
       <r>   -26.5538     0.0000    10.0000 </r>
       <r>   -26.3910     0.0000    10.0000 </r>
       <r>   -26.2283     0.0000    10.0000 </r>
       <r>   -26.0655     0.0000    10.0000 </r>
       <r>   -25.9028     0.0000    10.0000 </r>
       <r>   -25.7400     0.0000    10.0000 </r>
       <r>   -25.5773     0.0000    10.0000 </r>
       <r>   -25.4145     0.0000    10.0000 </r>
       <r>   -25.2518     0.0000    10.0000 </r>
       <r>   -25.0890     0.0000    10.0000 </r>
       <r>   -24.9263     0.0000    10.0000 </r>
       <r>   -24.7635     0.0000    10.0000 </r>
       <r>   -24.6008     0.0000    10.0000 </r>
       <r>   -24.4380     0.0000    10.0000 </r>
       <r>   -24.2753     0.0000    10.0000 </r>
       <r>   -24.1125     0.0000    10.0000 </r>
       <r>   -23.9498     0.0000    10.0000 </r>
       <r>   -23.7870     0.0000    10.0000 </r>
       <r>   -23.6243     0.0000    10.0000 </r>
       <r>   -23.4615     0.0000    10.0000 </r>
       <r>   -23.2988     0.0000    10.0000 </r>
       <r>   -23.1360     0.0000    10.0000 </r>
       <r>   -22.9733     0.0000    10.0000 </r>
       <r>   -22.8105     0.0000    10.0000 </r>
       <r>   -22.6478    -0.0000    10.0000 </r>
       <r>   -22.4850    -0.0000    10.0000 </r>
       <r>   -22.3223    -0.0000    10.0000 </r>
       <r>   -22.1595    -0.0000    10.0000 </r>
       <r>   -21.9968    -0.0002    10.0000 </r>
       <r>   -21.8340    -0.1762     9.9713 </r>
       <r>   -21.6713     4.4254    10.6915 </r>
       <r>   -21.5085     8.4006    12.0587 </r>
       <r>   -21.3458    -0.3597    12.0002 </r>
       <r>   -21.1830    -0.0012    12.0000 </r>
       <r>   -21.0203    -0.0000    12.0000 </r>
       <r>   -20.8575    -0.0000    12.0000 </r>
       <r>   -20.6948     0.0000    12.0000 </r>
       <r>   -20.5320     0.0000    12.0000 </r>
       <r>   -20.3693     0.0000    12.0000 </r>
       <r>   -20.2065     0.0000    12.0000 </r>
       <r>   -20.0438     0.0000    12.0000 </r>
       <r>   -19.8810     0.0000    12.0000 </r>
       <r>   -19.7183     0.0000    12.0000 </r>
       <r>   -19.5555     0.0000    12.0000 </r>
       <r>   -19.3927     0.0000    12.0000 </r>
       <r>   -19.2300     0.0000    12.0000 </r>
       <r>   -19.0672     0.0000    12.0000 </r>
       <r>   -18.9045     0.0000    12.0000 </r>
       <r>   -18.7417     0.0000    12.0000 </r>
       <r>   -18.5790     0.0000    12.0000 </r>
       <r>   -18.4162     0.0000    12.0000 </r>
       <r>   -18.2535     0.0000    12.0000 </r>
       <r>   -18.0907     0.0000    12.0000 </r>
       <r>   -17.9280     0.0000    12.0000 </r>
       <r>   -17.7652     0.0000    12.0000 </r>
       <r>   -17.6025     0.0000    12.0000 </r>
       <r>   -17.4397     0.0000    12.0000 </r>
       <r>   -17.2770     0.0000    12.0000 </r>
       <r>   -17.1142     0.0000    12.0000 </r>
       <r>   -16.9515     0.0000    12.0000 </r>
       <r>   -16.7887     0.0000    12.0000 </r>
       <r>   -16.6260     0.0000    12.0000 </r>
       <r>   -16.4632     0.0000    12.0000 </r>
       <r>   -16.3005     0.0000    12.0000 </r>
       <r>   -16.1377     0.0000    12.0000 </r>
       <r>   -15.9750     0.0000    12.0000 </r>
       <r>   -15.8122     0.0000    12.0000 </r>
       <r>   -15.6495     0.0000    12.0000 </r>
       <r>   -15.4867     0.0000    12.0000 </r>
       <r>   -15.3240     0.0000    12.0000 </r>
       <r>   -15.1612     0.0000    12.0000 </r>
       <r>   -14.9985     0.0000    12.0000 </r>
       <r>   -14.8357     0.0000    12.0000 </r>
       <r>   -14.6730     0.0000    12.0000 </r>
       <r>   -14.5102     0.0000    12.0000 </r>
       <r>   -14.3475     0.0000    12.0000 </r>
       <r>   -14.1847     0.0000    12.0000 </r>
       <r>   -14.0220     0.0000    12.0000 </r>
       <r>   -13.8592     0.0000    12.0000 </r>
       <r>   -13.6965     0.0000    12.0000 </r>
       <r>   -13.5337     0.0000    12.0000 </r>
       <r>   -13.3710     0.0000    12.0000 </r>
       <r>   -13.2082     0.0000    12.0000 </r>
       <r>   -13.0455     0.0000    12.0000 </r>
       <r>   -12.8827     0.0000    12.0000 </r>
       <r>   -12.7200     0.0000    12.0000 </r>
       <r>   -12.5572     0.0000    12.0000 </r>
       <r>   -12.3945     0.0000    12.0000 </r>
       <r>   -12.2317     0.0000    12.0000 </r>
       <r>   -12.0689     0.0000    12.0000 </r>
       <r>   -11.9062     0.0000    12.0000 </r>
       <r>   -11.7434     0.0000    12.0000 </r>
       <r>   -11.5807     0.0000    12.0000 </r>
       <r>   -11.4179     0.0000    12.0000 </r>
       <r>   -11.2552     0.0000    12.0000 </r>
       <r>   -11.0924     0.0000    12.0000 </r>
       <r>   -10.9297     0.0000    12.0000 </r>
       <r>   -10.7669     0.0000    12.0000 </r>
       <r>   -10.6042     0.0000    12.0000 </r>
       <r>   -10.4414     0.0000    12.0000 </r>
       <r>   -10.2787     0.0000    12.0000 </r>
       <r>   -10.1159     0.0000    12.0000 </r>
       <r>    -9.9532     0.0000    12.0000 </r>
       <r>    -9.7904     0.0000    12.0000 </r>
       <r>    -9.6277     0.0000    12.0000 </r>
       <r>    -9.4649     0.0000    12.0000 </r>
       <r>    -9.3022     0.0000    12.0000 </r>
       <r>    -9.1394     0.0000    12.0000 </r>
       <r>    -8.9767     0.0000    12.0000 </r>
       <r>    -8.8139     0.0000    12.0000 </r>
       <r>    -8.6512     0.0000    12.0000 </r>
       <r>    -8.4884     0.0000    12.0000 </r>
       <r>    -8.3257     0.0000    12.0000 </r>
       <r>    -8.1629     0.0000    12.0000 </r>
       <r>    -8.0002     0.0000    12.0000 </r>
       <r>    -7.8374     0.0000    12.0000 </r>
       <r>    -7.6747     0.0000    12.0000 </r>
       <r>    -7.5119     0.0000    12.0000 </r>
       <r>    -7.3492     0.0000    12.0000 </r>
       <r>    -7.1864     0.0000    12.0000 </r>
       <r>    -7.0237     0.0000    12.0000 </r>
       <r>    -6.8609     0.0000    12.0000 </r>
       <r>    -6.6982     0.0000    12.0000 </r>
       <r>    -6.5354     0.0000    12.0000 </r>
       <r>    -6.3727     0.0000    12.0000 </r>
       <r>    -6.2099     0.0000    12.0000 </r>
       <r>    -6.0472     0.0000    12.0000 </r>
       <r>    -5.8844     0.0000    12.0000 </r>
       <r>    -5.7217     0.0000    12.0000 </r>
       <r>    -5.5589     0.0000    12.0000 </r>
       <r>    -5.3962     0.0000    12.0000 </r>
       <r>    -5.2334     0.0000    12.0000 </r>
       <r>    -5.0707     0.0000    12.0000 </r>
       <r>    -4.9079     0.0000    12.0000 </r>
       <r>    -4.7451     0.0000    12.0000 </r>
       <r>    -4.5824     0.0000    12.0000 </r>
       <r>    -4.4196     0.0000    12.0000 </r>
       <r>    -4.2569     0.0000    12.0000 </r>
       <r>    -4.0941     0.0000    12.0000 </r>
       <r>    -3.9314     0.0000    12.0000 </r>
       <r>    -3.7686     0.0000    12.0000 </r>
       <r>    -3.6059     0.0000    12.0000 </r>
       <r>    -3.4431     0.0000    12.0000 </r>
       <r>    -3.2804     0.0000    12.0000 </r>
       <r>    -3.1176     0.0000    12.0000 </r>
       <r>    -2.9549     0.0000    12.0000 </r>
       <r>    -2.7921     0.0000    12.0000 </r>
       <r>    -2.6294     0.0000    12.0000 </r>
       <r>    -2.4666    -0.0000    12.0000 </r>
       <r>    -2.3039    -0.0000    12.0000 </r>
       <r>    -2.1411    -0.0000    12.0000 </r>
       <r>    -1.9784    -0.0000    12.0000 </r>
       <r>    -1.8156    -0.0004    11.9999 </r>
       <r>    -1.6529    -0.0118    11.9980 </r>
       <r>    -1.4901     0.4728    12.0750 </r>
       <r>    -1.3274     1.6109    12.3371 </r>
       <r>    -1.1646     3.5260    12.9110 </r>
       <r>    -1.0019     3.6667    13.5078 </r>
       <r>    -0.8391     1.2854    13.7170 </r>
       <r>    -0.6764     0.8901    13.8618 </r>
       <r>    -0.5136     1.6304    14.1272 </r>
       <r>    -0.3509     1.2880    14.3368 </r>
       <r>    -0.1881     1.8791    14.6426 </r>
       <r>    -0.0254     1.9927    14.9669 </r>
       <r>     0.1374     3.5249    15.5406 </r>
       <r>     0.3001     2.8545    16.0052 </r>
       <r>     0.4629     4.3838    16.7186 </r>
       <r>     0.6256     3.4452    17.2794 </r>
       <r>     0.7884     2.9397    17.7578 </r>
       <r>     0.9511     1.2652    17.9637 </r>
       <r>     1.1139     0.2344    18.0019 </r>
       <r>     1.2766    -0.0114    18.0000 </r>
       <r>     1.4394    -0.0000    18.0000 </r>
       <r>     1.6021    -0.0000    18.0000 </r>
       <r>     1.7649     0.0000    18.0000 </r>
       <r>     1.9276     0.0000    18.0000 </r>
       <r>     2.0904     0.0000    18.0000 </r>
       <r>     2.2531     0.0000    18.0000 </r>
       <r>     2.4159    -0.0000    18.0000 </r>
       <r>     2.5786    -0.0000    18.0000 </r>
       <r>     2.7414    -0.0000    18.0000 </r>
       <r>     2.9042    -0.0000    18.0000 </r>
       <r>     3.0669    -0.0003    18.0000 </r>
       <r>     3.2297     0.0074    18.0012 </r>
       <r>     3.3924     0.0102    18.0028 </r>
       <r>     3.5552    -0.0004    18.0027 </r>
       <r>     3.7179    -0.0009    18.0026 </r>
       <r>     3.8807     0.0232    18.0064 </r>
       <r>     4.0434     0.1138    18.0249 </r>
       <r>     4.2062     0.0851    18.0388 </r>
       <r>     4.3689     0.0153    18.0412 </r>
       <r>     4.5317    -0.0046    18.0405 </r>
       <r>     4.6944     0.0985    18.0565 </r>
       <r>     4.8572     0.1075    18.0740 </r>
       <r>     5.0199     0.1434    18.0974 </r>
       <r>     5.1827     0.4049    18.1633 </r>
       <r>     5.3454    -0.0109    18.1615 </r>
       <r>     5.5082     0.0402    18.1681 </r>
       <r>     5.6709     0.5518    18.2579 </r>
       <r>     5.8337     0.3577    18.3161 </r>
       <r>     5.9964     0.6556    18.4228 </r>
       <r>     6.1592     1.2947    18.6335 </r>
       <r>     6.3219     0.5992    18.7310 </r>
       <r>     6.4847     0.6813    18.8419 </r>
       <r>     6.6474     1.2898    19.0518 </r>
       <r>     6.8102     1.3800    19.2764 </r>
       <r>     6.9729     1.5662    19.5313 </r>
       <r>     7.1357     1.1867    19.7244 </r>
       <r>     7.2984     0.1259    19.7449 </r>
       <r>     7.4612     0.8311    19.8802 </r>
       <r>     7.6239     0.7632    20.0044 </r>
       <r>     7.7867     0.9427    20.1578 </r>
       <r>     7.9494     0.2320    20.1956 </r>
       <r>     8.1122     0.5712    20.2885 </r>
       <r>     8.2749     0.7751    20.4147 </r>
       <r>     8.4377     1.3419    20.6331 </r>
       <r>     8.6004     3.0942    21.1367 </r>
       <r>     8.7632     1.7744    21.4254 </r>
       <r>     8.9259     0.9547    21.5808 </r>
       <r>     9.0887     3.2972    22.1174 </r>
       <r>     9.2514     2.9787    22.6022 </r>
       <r>     9.4142     0.6060    22.7009 </r>
       <r>     9.5769     0.2084    22.7348 </r>
       <r>     9.7397     0.4259    22.8041 </r>
       <r>     9.9024     0.4236    22.8730 </r>
       <r>    10.0652     2.0060    23.1995 </r>
       <r>    10.2280     2.9294    23.6763 </r>
       <r>    10.3907     2.7384    24.1220 </r>
       <r>    10.5535     1.9272    24.4356 </r>
       <r>    10.7162     2.7005    24.8751 </r>
       <r>    10.8790     1.7256    25.1560 </r>
       <r>    11.0417     0.4344    25.2267 </r>
       <r>    11.2045     2.2005    25.5848 </r>
       <r>    11.3672     1.4423    25.8195 </r>
       <r>    11.5300     0.2598    25.8618 </r>
       <r>    11.6927     0.8833    26.0056 </r>
       <r>    11.8555     2.0300    26.3360 </r>
       <r>    12.0182     3.6680    26.9329 </r>
       <r>    12.1810     2.3394    27.3137 </r>
       <r>    12.3437     3.2064    27.8355 </r>
       <r>    12.5065     2.1744    28.1894 </r>
       <r>    12.6692     0.7123    28.3053 </r>
       <r>    12.8320     1.0407    28.4747 </r>
       <r>    12.9947     2.4954    28.8808 </r>
       <r>    13.1575     1.5355    29.1307 </r>
       <r>    13.3202     1.9725    29.4518 </r>
       <r>    13.4830     3.0267    29.9444 </r>
       <r>    13.6457     3.2498    30.4733 </r>
       <r>    13.8085     2.4066    30.8650 </r>
       <r>    13.9712     0.5123    30.9483 </r>
       <r>    14.1340     0.7145    31.0646 </r>
       <r>    14.2967     0.3926    31.1285 </r>
       <r>    14.4595     0.2158    31.1637 </r>
       <r>    14.6222     1.2220    31.3625 </r>
       <r>    14.7850     1.3771    31.5867 </r>
       <r>    14.9477     0.0063    31.5877 </r>
       <r>    15.1105     0.1294    31.6087 </r>
       <r>    15.2732     0.8465    31.7465 </r>
       <r>    15.4360     0.7582    31.8699 </r>
       <r>    15.5987     0.2889    31.9169 </r>
       <r>    15.7615     0.5276    32.0028 </r>
       <r>    15.9242    -0.0169    32.0000 </r>
       <r>    16.0870    -0.0002    32.0000 </r>
       <r>    16.2497    -0.0000    32.0000 </r>
       <r>    16.4125    -0.0000    32.0000 </r>
       <r>    16.5752     0.0000    32.0000 </r>
       <r>    16.7380     0.0000    32.0000 </r>
       <r>    16.9007     0.0000    32.0000 </r>
       <r>    17.0635     0.0000    32.0000 </r>
       <r>    17.2262     0.0000    32.0000 </r>
       <r>    17.3890     0.0000    32.0000 </r>
       <r>    17.5518     0.0000    32.0000 </r>
       <r>    17.7145     0.0000    32.0000 </r>
       <r>    17.8773     0.0000    32.0000 </r>
      </set>
     </set>
    </array>
   </total>
  </dos>
 </calculation>
 <structure name="finalpos" >
  <crystal>
   <varray name="basis" >
    <v>       4.47237916       0.00000000       0.00000000 </v>
    <v>       2.23618958       3.87319397      -0.00000000 </v>
    <v>       2.23618958       1.29106466       3.65168229 </v>
   </varray>
   <i name="volume">     63.25587216 </i>
   <varray name="rec_basis" >
    <v>       0.22359464      -0.12909242      -0.09128213 </v>
    <v>       0.00000000       0.25818485      -0.09128213 </v>
    <v>      -0.00000000       0.00000000       0.27384639 </v>
   </varray>
  </crystal>
  <varray name="positions" >
   <v>      -0.00447189      -0.00000000       0.00000000 </v>
  </varray>
 </structure>
</modeling>
