Og_FCC                                  
           1
     4.472379    0.000000    0.000000
     2.236190    3.873194   -0.000000
     2.236190    1.291065    3.651682
   Og
   1
Direct configuration=     1
   0.00000000  0.00000000  0.00000000
Og_FCC                                  
           1
     4.561827    0.000000    0.000000
     2.280913    3.873194   -0.000000
     2.280913    1.291065    3.651682
   Og
   1
Direct configuration=     2
   0.00000000  0.00000000  0.00000000
Og_FCC                                  
           1
     4.382932    0.000000    0.000000
     2.191466    3.873194   -0.000000
     2.191466    1.291065    3.651682
   Og
   1
Direct configuration=     3
   0.00000000  0.00000000  0.00000000
Og_FCC                                  
           1
     4.472379    0.000000    0.000000
     2.236190    3.950658   -0.000000
     2.236190    1.316886    3.651682
   Og
   1
Direct configuration=     4
   0.00000000  0.00000000  0.00000000
Og_FCC                                  
           1
     4.472379    0.000000    0.000000
     2.236190    3.795730   -0.000000
     2.236190    1.265243    3.651682
   Og
   1
Direct configuration=     5
   0.00000000  0.00000000  0.00000000
Og_FCC                                  
           1
     4.472379    0.000000    0.000000
     2.236190    3.873194   -0.000000
     2.236190    1.291065    3.724716
   Og
   1
Direct configuration=     6
   0.00000000  0.00000000  0.00000000
Og_FCC                                  
           1
     4.472379    0.000000    0.000000
     2.236190    3.873194   -0.000000
     2.236190    1.291065    3.578649
   Og
   1
Direct configuration=     7
   0.00000000  0.00000000  0.00000000
Og_FCC                                  
           1
     4.472379    0.089448    0.000000
     2.236190    3.917918   -0.000000
     2.236190    1.335788    3.651682
   Og
   1
Direct configuration=     8
   0.00000000  0.00000000  0.00000000
Og_FCC                                  
           1
     4.472379   -0.089448    0.000000
     2.236190    3.828470   -0.000000
     2.236190    1.246341    3.651682
   Og
   1
Direct configuration=     9
   0.00000000  0.00000000  0.00000000
Og_FCC                                  
           1
     4.472379    0.000000    0.000000
     2.236190    3.873194    0.077464
     2.236190    1.291065    3.677504
   Og
   1
Direct configuration=    10
   0.00000000  0.00000000  0.00000000
Og_FCC                                  
           1
     4.472379    0.000000    0.000000
     2.236190    3.873194   -0.077464
     2.236190    1.291065    3.625861
   Og
   1
Direct configuration=    11
   0.00000000  0.00000000  0.00000000
Og_FCC                                  
           1
     4.472379    0.000000    0.000000
     2.236190    3.873194   -0.000000
     2.309223    1.291065    3.651682
   Og
   1
Direct configuration=    12
   0.00000000  0.00000000  0.00000000
Og_FCC                                  
           1
     4.472379    0.000000    0.000000
     2.236190    3.873194   -0.000000
     2.163156    1.291065    3.651682
   Og
   1
Direct configuration=    13
   0.00000000  0.00000000  0.00000000
Og_FCC                                  
           1
     4.472379    0.000000    0.000000
     2.236190    3.873194   -0.000000
     2.236190    1.291065    3.651682
   Og
   1
Direct configuration=    14
   0.00447189  0.00000000 -0.00000000
Og_FCC                                  
           1
     4.472379    0.000000    0.000000
     2.236190    3.873194   -0.000000
     2.236190    1.291065    3.651682
   Og
   1
Direct configuration=    15
  -0.00447189 -0.00000000  0.00000000
