   1   1   0   0
  0.6083477E+02  0.4414576E-09  0.4414576E-09  0.4414576E-09  0.1000000E-15
  1.000000000000000E-004
  CAR 
 Og_FCC                                  
     77.29857471    -49.53157863  301     -0.70196960      1.00000000
    -49.532  0.0000E+00  0.0000E+00
    -49.109  0.0000E+00  0.0000E+00
    -48.686  0.0000E+00  0.0000E+00
    -48.263  0.0000E+00  0.0000E+00
    -47.841  0.0000E+00  0.0000E+00
    -47.418  0.0000E+00  0.0000E+00
    -46.995  0.0000E+00  0.0000E+00
    -46.572  0.0000E+00  0.0000E+00
    -46.149  0.0000E+00  0.0000E+00
    -45.727  0.0000E+00  0.0000E+00
    -45.304  0.0000E+00  0.0000E+00
    -44.881  0.0000E+00  0.0000E+00
    -44.458  0.0000E+00  0.0000E+00
    -44.036  0.0000E+00  0.0000E+00
    -43.613  0.0000E+00  0.4000E+01
    -43.190  0.0000E+00  0.4000E+01
    -42.767  0.0000E+00  0.4000E+01
    -42.345  0.0000E+00  0.4000E+01
    -41.922  0.0000E+00  0.4000E+01
    -41.499  0.0000E+00  0.4000E+01
    -41.076  0.0000E+00  0.4000E+01
    -40.653  0.0000E+00  0.4000E+01
    -40.231  0.0000E+00  0.4000E+01
    -39.808  0.0000E+00  0.4000E+01
    -39.385  0.0000E+00  0.4000E+01
    -38.962  0.0000E+00  0.1000E+02
    -38.540  0.0000E+00  0.1000E+02
    -38.117  0.0000E+00  0.1000E+02
    -37.694  0.0000E+00  0.1000E+02
    -37.271  0.0000E+00  0.1000E+02
    -36.849  0.0000E+00  0.1000E+02
    -36.426  0.0000E+00  0.1000E+02
    -36.003  0.0000E+00  0.1000E+02
    -35.580  0.0000E+00  0.1000E+02
    -35.157  0.0000E+00  0.1000E+02
    -34.735  0.0000E+00  0.1000E+02
    -34.312  0.0000E+00  0.1000E+02
    -33.889  0.0000E+00  0.1000E+02
    -33.466  0.0000E+00  0.1000E+02
    -33.044  0.0000E+00  0.1000E+02
    -32.621  0.0000E+00  0.1000E+02
    -32.198  0.0000E+00  0.1000E+02
    -31.775  0.0000E+00  0.1000E+02
    -31.353  0.0000E+00  0.1000E+02
    -30.930  0.0000E+00  0.1000E+02
    -30.507  0.0000E+00  0.1000E+02
    -30.084  0.0000E+00  0.1000E+02
    -29.662  0.0000E+00  0.1000E+02
    -29.239  0.0000E+00  0.1000E+02
    -28.816  0.0000E+00  0.1000E+02
    -28.393  0.0000E+00  0.1000E+02
    -27.970  0.0000E+00  0.1000E+02
    -27.548  0.0000E+00  0.1000E+02
    -27.125  0.0000E+00  0.1000E+02
    -26.702  0.0000E+00  0.1000E+02
    -26.279  0.0000E+00  0.1000E+02
    -25.857  0.0000E+00  0.1000E+02
    -25.434  0.0000E+00  0.1000E+02
    -25.011  0.0000E+00  0.1000E+02
    -24.588  0.0000E+00  0.1000E+02
    -24.166  0.0000E+00  0.1000E+02
    -23.743  0.0000E+00  0.1000E+02
    -23.320  0.0000E+00  0.1000E+02
    -22.897  0.0000E+00  0.1000E+02
    -22.474  0.0000E+00  0.1000E+02
    -22.052  0.0000E+00  0.1000E+02
    -21.629  0.0000E+00  0.1000E+02
    -21.206  0.0000E+00  0.1000E+02
    -20.783  0.0000E+00  0.1000E+02
    -20.361  0.0000E+00  0.1000E+02
    -19.938  0.0000E+00  0.1000E+02
    -19.515  0.0000E+00  0.1000E+02
    -19.092  0.0000E+00  0.1000E+02
    -18.670  0.0000E+00  0.1000E+02
    -18.247  0.0000E+00  0.1000E+02
    -17.824  0.0000E+00  0.1000E+02
    -17.401  0.0000E+00  0.1000E+02
    -16.979  0.1655E+00  0.1016E+02
    -16.556  0.0000E+00  0.1200E+02
    -16.133  0.0000E+00  0.1200E+02
    -15.710  0.0000E+00  0.1200E+02
    -15.287  0.0000E+00  0.1200E+02
    -14.865  0.0000E+00  0.1200E+02
    -14.442  0.0000E+00  0.1200E+02
    -14.019  0.0000E+00  0.1200E+02
    -13.596  0.0000E+00  0.1200E+02
    -13.174  0.0000E+00  0.1200E+02
    -12.751  0.0000E+00  0.1200E+02
    -12.328  0.0000E+00  0.1200E+02
    -11.905  0.0000E+00  0.1200E+02
    -11.483  0.0000E+00  0.1200E+02
    -11.060  0.0000E+00  0.1200E+02
    -10.637  0.0000E+00  0.1200E+02
    -10.214  0.0000E+00  0.1200E+02
     -9.791  0.0000E+00  0.1200E+02
     -9.369  0.0000E+00  0.1200E+02
     -8.946  0.0000E+00  0.1200E+02
     -8.523  0.0000E+00  0.1200E+02
     -8.100  0.0000E+00  0.1200E+02
     -7.678  0.0000E+00  0.1200E+02
     -7.255  0.0000E+00  0.1200E+02
     -6.832  0.0000E+00  0.1200E+02
     -6.409  0.0000E+00  0.1200E+02
     -5.987  0.0000E+00  0.1200E+02
     -5.564  0.0000E+00  0.1200E+02
     -5.141  0.8275E-01  0.1366E+02
     -4.718  0.0000E+00  0.1399E+02
     -4.295  0.0000E+00  0.1400E+02
     -3.873  0.0000E+00  0.1400E+02
     -3.450  0.0000E+00  0.1400E+02
     -3.027  0.0000E+00  0.1400E+02
     -2.604  0.0000E+00  0.1400E+02
     -2.182  0.0000E+00  0.1562E+02
     -1.759  0.0000E+00  0.1640E+02
     -1.336  0.0000E+00  0.1746E+02
     -0.913  0.0000E+00  0.1799E+02
     -0.491  0.0000E+00  0.1800E+02
     -0.068  0.0000E+00  0.1800E+02
      0.355  0.0000E+00  0.1800E+02
      0.778  0.0000E+00  0.1800E+02
      1.200  0.0000E+00  0.1800E+02
      1.623  0.0000E+00  0.1800E+02
      2.046  0.0000E+00  0.1800E+02
      2.469  0.0000E+00  0.1800E+02
      2.892  0.0000E+00  0.1801E+02
      3.314  0.0000E+00  0.1801E+02
      3.737  0.0000E+00  0.1805E+02
      4.160  0.0000E+00  0.1809E+02
      4.583  0.0000E+00  0.1824E+02
      5.005  0.0000E+00  0.1853E+02
      5.428  0.0000E+00  0.1937E+02
      5.851  0.0000E+00  0.1976E+02
      6.274  0.0000E+00  0.2042E+02
      6.696  0.0000E+00  0.2105E+02
      7.119  0.0000E+00  0.2185E+02
      7.542  0.0000E+00  0.2223E+02
      7.965  0.0000E+00  0.2327E+02
      8.388  0.0000E+00  0.2410E+02
      8.810  0.8275E-01  0.2488E+02
      9.233  0.1655E+00  0.2537E+02
      9.656  0.0000E+00  0.2586E+02
     10.079  0.0000E+00  0.2665E+02
     10.501  0.0000E+00  0.2695E+02
     10.924  0.0000E+00  0.2767E+02
     11.347  0.0000E+00  0.2848E+02
     11.770  0.0000E+00  0.2933E+02
     12.192  0.0000E+00  0.3007E+02
     12.615  0.0000E+00  0.3077E+02
     13.038  0.0000E+00  0.3133E+02
     13.461  0.1362E-05  0.3198E+02
     13.883  0.0000E+00  0.3280E+02
     14.306  0.0000E+00  0.3412E+02
     14.729  0.0000E+00  0.3532E+02
     15.152  0.0000E+00  0.3609E+02
     15.575  0.0000E+00  0.3766E+02
     15.997  0.0000E+00  0.3815E+02
     16.420  0.8275E-01  0.3894E+02
     16.843  0.0000E+00  0.4026E+02
     17.266  0.3070E-03  0.4255E+02
     17.688  0.0000E+00  0.4403E+02
     18.111  0.0000E+00  0.4494E+02
     18.534  0.0000E+00  0.4549E+02
     18.957  0.2758E-01  0.4619E+02
     19.379  0.0000E+00  0.4664E+02
     19.802  0.0000E+00  0.4741E+02
     20.225  0.0000E+00  0.4850E+02
     20.648  0.3281E+00  0.4942E+02
     21.071  0.6620E+00  0.5065E+02
     21.493  0.0000E+00  0.5153E+02
     21.916  0.1103E+00  0.5289E+02
     22.339  0.3310E+00  0.5447E+02
     22.762  0.0000E+00  0.5558E+02
     23.184  0.0000E+00  0.5683E+02
     23.607  0.0000E+00  0.5733E+02
     24.030  0.3310E+00  0.5795E+02
     24.453  0.0000E+00  0.5905E+02
     24.875  0.0000E+00  0.5987E+02
     25.298  0.0000E+00  0.6061E+02
     25.721  0.0000E+00  0.6126E+02
     26.144  0.0000E+00  0.6212E+02
     26.567  0.0000E+00  0.6353E+02
     26.989  0.0000E+00  0.6434E+02
     27.412  0.0000E+00  0.6558E+02
     27.835  0.1468E+00  0.6697E+02
     28.258  0.4782E-01  0.6874E+02
     28.680  0.3310E+00  0.6967E+02
     29.103  0.0000E+00  0.7096E+02
     29.526  0.2315E-01  0.7199E+02
     29.949  0.0000E+00  0.7263E+02
     30.371  0.0000E+00  0.7284E+02
     30.794  0.3294E+00  0.7413E+02
     31.217  0.1103E+00  0.7507E+02
     31.640  0.0000E+00  0.7666E+02
     32.062  0.3310E+00  0.7781E+02
     32.485  0.0000E+00  0.7951E+02
     32.908  0.0000E+00  0.8048E+02
     33.331  0.6956E-01  0.8169E+02
     33.754  0.3310E+00  0.8309E+02
     34.176  0.0000E+00  0.8394E+02
     34.599  0.1103E+00  0.8432E+02
     35.022  0.0000E+00  0.8612E+02
     35.445  0.0000E+00  0.8699E+02
     35.867  0.0000E+00  0.8762E+02
     36.290  0.1103E+00  0.8920E+02
     36.713  0.0000E+00  0.9002E+02
     37.136  0.0000E+00  0.9073E+02
     37.558  0.0000E+00  0.9240E+02
     37.981  0.0000E+00  0.9342E+02
     38.404  0.3310E+00  0.9504E+02
     38.827  0.0000E+00  0.9641E+02
     39.250  0.3310E+00  0.9706E+02
     39.672  0.0000E+00  0.9804E+02
     40.095  0.0000E+00  0.9947E+02
     40.518  0.0000E+00  0.1001E+03
     40.941  0.8275E-01  0.1019E+03
     41.363  0.0000E+00  0.1033E+03
     41.786  0.0000E+00  0.1044E+03
     42.209  0.0000E+00  0.1055E+03
     42.632  0.8275E-01  0.1069E+03
     43.054  0.0000E+00  0.1080E+03
     43.477  0.0000E+00  0.1097E+03
     43.900  0.6617E+00  0.1113E+03
     44.323  0.0000E+00  0.1122E+03
     44.746  0.0000E+00  0.1134E+03
     45.168  0.0000E+00  0.1145E+03
     45.591  0.9751E-01  0.1159E+03
     46.014  0.0000E+00  0.1175E+03
     46.437  0.0000E+00  0.1182E+03
     46.859  0.0000E+00  0.1193E+03
     47.282  0.3310E+00  0.1200E+03
     47.705  0.0000E+00  0.1215E+03
     48.128  0.0000E+00  0.1231E+03
     48.550  0.0000E+00  0.1243E+03
     48.973  0.0000E+00  0.1259E+03
     49.396  0.8275E-01  0.1272E+03
     49.819  0.2191E+00  0.1285E+03
     50.241  0.0000E+00  0.1301E+03
     50.664  0.0000E+00  0.1309E+03
     51.087  0.0000E+00  0.1326E+03
     51.510  0.0000E+00  0.1338E+03
     51.933  0.0000E+00  0.1358E+03
     52.355  0.0000E+00  0.1367E+03
     52.778  0.0000E+00  0.1377E+03
     53.201  0.0000E+00  0.1391E+03
     53.624  0.0000E+00  0.1400E+03
     54.046  0.0000E+00  0.1414E+03
     54.469  0.0000E+00  0.1428E+03
     54.892  0.0000E+00  0.1441E+03
     55.315  0.0000E+00  0.1454E+03
     55.737  0.4594E-16  0.1471E+03
     56.160  0.2057E-01  0.1481E+03
     56.583  0.0000E+00  0.1495E+03
     57.006  0.1055E-04  0.1507E+03
     57.429  0.0000E+00  0.1526E+03
     57.851  0.2592E-01  0.1535E+03
     58.274  0.0000E+00  0.1553E+03
     58.697  0.0000E+00  0.1568E+03
     59.120  0.0000E+00  0.1580E+03
     59.542  0.0000E+00  0.1602E+03
     59.965  0.8275E-01  0.1616E+03
     60.388  0.0000E+00  0.1626E+03
     60.811  0.8309E-13  0.1642E+03
     61.233  0.0000E+00  0.1655E+03
     61.656  0.0000E+00  0.1675E+03
     62.079  0.3310E+00  0.1698E+03
     62.502  0.1655E+00  0.1709E+03
     62.924  0.0000E+00  0.1720E+03
     63.347  0.0000E+00  0.1734E+03
     63.770  0.1187E-09  0.1741E+03
     64.193  0.0000E+00  0.1751E+03
     64.616  0.3352E-13  0.1769E+03
     65.038  0.0000E+00  0.1784E+03
     65.461  0.8275E-01  0.1805E+03
     65.884  0.1101E+00  0.1818E+03
     66.307  0.5977E-04  0.1834E+03
     66.729  0.0000E+00  0.1845E+03
     67.152  0.1373E-07  0.1858E+03
     67.575  0.0000E+00  0.1870E+03
     67.998  0.9632E+00  0.1891E+03
     68.420  0.0000E+00  0.1910E+03
     68.843  0.3310E+00  0.1922E+03
     69.266  0.0000E+00  0.1931E+03
     69.689  0.0000E+00  0.1939E+03
     70.112  0.0000E+00  0.1948E+03
     70.534  0.0000E+00  0.1954E+03
     70.957  0.0000E+00  0.1955E+03
     71.380  0.0000E+00  0.1960E+03
     71.803  0.0000E+00  0.1960E+03
     72.225  0.0000E+00  0.1960E+03
     72.648  0.0000E+00  0.1960E+03
     73.071  0.0000E+00  0.1960E+03
     73.494  0.0000E+00  0.1960E+03
     73.916  0.0000E+00  0.1960E+03
     74.339  0.0000E+00  0.1960E+03
     74.762  0.0000E+00  0.1960E+03
     75.185  0.0000E+00  0.1960E+03
     75.608  0.0000E+00  0.1960E+03
     76.030  0.0000E+00  0.1960E+03
     76.453  0.0000E+00  0.1960E+03
     76.876  0.0000E+00  0.1960E+03
     77.299  0.0000E+00  0.1960E+03
