<?xml version="1.0" encoding="ISO-8859-1"?>
<modeling>
 <generator>
  <i name="program" type="string">vasp </i>
  <i name="version" type="string">5.4.4.18Apr17-6-g9f103f2a35  </i>
  <i name="subversion" type="string">(build Nov 03 2018 10:20:46) complex            parallel </i>
  <i name="platform" type="string">LinuxIFC </i>
  <i name="date" type="string">2018 12 18 </i>
  <i name="time" type="string">10:11:07 </i>
 </generator>
 <incar>
  <i type="string" name="SYSTEM">   Og_FCC</i>
  <i type="string" name="PREC">accurate</i>
  <i type="string" name="ALGO">   EXACT</i>
  <i type="logical" name="ADDGRID"> T  </i>
  <i type="logical" name="LSORBIT"> T  </i>
  <i type="int" name="ISPIN">     1</i>
  <i type="int" name="MAXMIX">    50</i>
  <i type="int" name="NELM">    50</i>
  <i type="int" name="NELMDL">    -5</i>
  <i type="int" name="NELMIN">     2</i>
  <i type="int" name="IBRION">    -1</i>
  <i type="int" name="NFREE">     5</i>
  <i name="EDIFF">      0.00000001</i>
  <i name="EDIFFG">      0.00001000</i>
  <i type="int" name="NSW">     1</i>
  <i type="int" name="ISIF">     3</i>
  <i type="int" name="ISYM">     0</i>
  <i name="SYMPREC">      0.00000010</i>
  <i name="ENCUT">    300.00000000</i>
  <i type="int" name="NBANDS">   196</i>
  <i name="POTIM">      0.10000000</i>
  <i type="logical" name="LREAL"> F  </i>
  <i type="int" name="ISMEAR">     0</i>
  <i name="SIGMA">      0.00100000</i>
  <i type="int" name="NWRITE">     2</i>
  <i type="logical" name="LWAVE"> T  </i>
  <i type="logical" name="LCHARG"> F  </i>
  <i type="logical" name="LVTOT"> F  </i>
  <i type="logical" name="LOPTICS"> T  </i>
  <i type="logical" name="GGA_COMPAT"> F  </i>
  <v type="int" name="KPOINT_BSE">    -1     0     0     0</v>
  <i type="int" name="NELM">    50</i>
  <i type="string" name="GGA"> PE</i>
 </incar>
 <structure name="primitive_cell" >
  <crystal>
   <varray name="basis" >
    <v>       4.41457561       0.00000000       0.00000000 </v>
    <v>       2.20728780       3.82313462      -0.00000000 </v>
    <v>       2.20728780       1.27437821       3.60448589 </v>
   </varray>
   <i name="volume">     60.83477135 </i>
   <varray name="rec_basis" >
    <v>       0.22652234      -0.13078273      -0.09247736 </v>
    <v>       0.00000000       0.26156547      -0.09247736 </v>
    <v>      -0.00000000       0.00000000       0.27743208 </v>
   </varray>
  </crystal>
  <varray name="positions" >
   <v>       0.00000000       0.00000000       0.00000000 </v>
  </varray>
 </structure>
 <varray name="primitive_index" >
  <v type="int" >        1 </v>
 </varray>
 <kpoints>
  <generation param="Gamma">
   <v type="int" name="divisions">       7        7        7 </v>
   <v name="usershift">      0.00000000       0.00000000       0.00000000 </v>
   <v name="genvec1">      0.14285714      -0.00000000       0.00000000 </v>
   <v name="genvec2">      0.00000000       0.14285714       0.00000000 </v>
   <v name="genvec3">     -0.00000000       0.00000000       0.14285714 </v>
   <v name="shift">      0.00000000       0.00000000       0.00000000 </v>
  </generation>
  <varray name="kpointlist" >
   <v>       0.00000000       0.00000000       0.00000000 </v>
   <v>       0.14285714      -0.00000000      -0.00000000 </v>
   <v>       0.28571429       0.00000000      -0.00000000 </v>
   <v>       0.42857143       0.00000000       0.00000000 </v>
   <v>      -0.42857143      -0.00000000      -0.00000000 </v>
   <v>      -0.28571429      -0.00000000       0.00000000 </v>
   <v>      -0.14285714       0.00000000       0.00000000 </v>
   <v>       0.00000000       0.14285714       0.00000000 </v>
   <v>       0.14285714       0.14285714      -0.00000000 </v>
   <v>       0.28571429       0.14285714      -0.00000000 </v>
   <v>       0.42857143       0.14285714       0.00000000 </v>
   <v>      -0.42857143       0.14285714      -0.00000000 </v>
   <v>      -0.28571429       0.14285714       0.00000000 </v>
   <v>      -0.14285714       0.14285714      -0.00000000 </v>
   <v>       0.00000000       0.28571429       0.00000000 </v>
   <v>       0.14285714       0.28571429      -0.00000000 </v>
   <v>       0.28571429       0.28571429      -0.00000000 </v>
   <v>       0.42857143       0.28571429       0.00000000 </v>
   <v>      -0.42857143       0.28571429       0.00000000 </v>
   <v>      -0.28571429       0.28571429       0.00000000 </v>
   <v>      -0.14285714       0.28571429      -0.00000000 </v>
   <v>       0.00000000       0.42857143       0.00000000 </v>
   <v>       0.14285714       0.42857143       0.00000000 </v>
   <v>       0.28571429       0.42857143       0.00000000 </v>
   <v>       0.42857143       0.42857143       0.00000000 </v>
   <v>      -0.42857143       0.42857143      -0.00000000 </v>
   <v>      -0.28571429       0.42857143      -0.00000000 </v>
   <v>      -0.14285714       0.42857143       0.00000000 </v>
   <v>       0.00000000      -0.42857143       0.00000000 </v>
   <v>       0.14285714      -0.42857143      -0.00000000 </v>
   <v>       0.28571429      -0.42857143       0.00000000 </v>
   <v>       0.42857143      -0.42857143       0.00000000 </v>
   <v>      -0.42857143      -0.42857143       0.00000000 </v>
   <v>      -0.28571429      -0.42857143       0.00000000 </v>
   <v>      -0.14285714      -0.42857143       0.00000000 </v>
   <v>       0.00000000      -0.28571429      -0.00000000 </v>
   <v>       0.14285714      -0.28571429       0.00000000 </v>
   <v>       0.28571429      -0.28571429      -0.00000000 </v>
   <v>       0.42857143      -0.28571429       0.00000000 </v>
   <v>      -0.42857143      -0.28571429       0.00000000 </v>
   <v>      -0.28571429      -0.28571429       0.00000000 </v>
   <v>      -0.14285714      -0.28571429       0.00000000 </v>
   <v>       0.00000000      -0.14285714      -0.00000000 </v>
   <v>       0.14285714      -0.14285714       0.00000000 </v>
   <v>       0.28571429      -0.14285714      -0.00000000 </v>
   <v>       0.42857143      -0.14285714       0.00000000 </v>
   <v>      -0.42857143      -0.14285714       0.00000000 </v>
   <v>      -0.28571429      -0.14285714       0.00000000 </v>
   <v>      -0.14285714      -0.14285714       0.00000000 </v>
   <v>       0.00000000       0.00000000       0.14285714 </v>
   <v>       0.14285714      -0.00000000       0.14285714 </v>
   <v>       0.28571429      -0.00000000       0.14285714 </v>
   <v>       0.42857143       0.00000000       0.14285714 </v>
   <v>      -0.42857143      -0.00000000       0.14285714 </v>
   <v>      -0.28571429      -0.00000000       0.14285714 </v>
   <v>      -0.14285714       0.00000000       0.14285714 </v>
   <v>      -0.00000000       0.14285714       0.14285714 </v>
   <v>       0.14285714       0.14285714       0.14285714 </v>
   <v>       0.28571429       0.14285714       0.14285714 </v>
   <v>       0.42857143       0.14285714       0.14285714 </v>
   <v>      -0.42857143       0.14285714       0.14285714 </v>
   <v>      -0.28571429       0.14285714       0.14285714 </v>
   <v>      -0.14285714       0.14285714       0.14285714 </v>
   <v>      -0.00000000       0.28571429       0.14285714 </v>
   <v>       0.14285714       0.28571429       0.14285714 </v>
   <v>       0.28571429       0.28571429       0.14285714 </v>
   <v>       0.42857143       0.28571429       0.14285714 </v>
   <v>      -0.42857143       0.28571429       0.14285714 </v>
   <v>      -0.28571429       0.28571429       0.14285714 </v>
   <v>      -0.14285714       0.28571429       0.14285714 </v>
   <v>      -0.00000000       0.42857143       0.14285714 </v>
   <v>       0.14285714       0.42857143       0.14285714 </v>
   <v>       0.28571429       0.42857143       0.14285714 </v>
   <v>       0.42857143       0.42857143       0.14285714 </v>
   <v>      -0.42857143       0.42857143       0.14285714 </v>
   <v>      -0.28571429       0.42857143       0.14285714 </v>
   <v>      -0.14285714       0.42857143       0.14285714 </v>
   <v>       0.00000000      -0.42857143       0.14285714 </v>
   <v>       0.14285714      -0.42857143       0.14285714 </v>
   <v>       0.28571429      -0.42857143       0.14285714 </v>
   <v>       0.42857143      -0.42857143       0.14285714 </v>
   <v>      -0.42857143      -0.42857143       0.14285714 </v>
   <v>      -0.28571429      -0.42857143       0.14285714 </v>
   <v>      -0.14285714      -0.42857143       0.14285714 </v>
   <v>       0.00000000      -0.28571429       0.14285714 </v>
   <v>       0.14285714      -0.28571429       0.14285714 </v>
   <v>       0.28571429      -0.28571429       0.14285714 </v>
   <v>       0.42857143      -0.28571429       0.14285714 </v>
   <v>      -0.42857143      -0.28571429       0.14285714 </v>
   <v>      -0.28571429      -0.28571429       0.14285714 </v>
   <v>      -0.14285714      -0.28571429       0.14285714 </v>
   <v>      -0.00000000      -0.14285714       0.14285714 </v>
   <v>       0.14285714      -0.14285714       0.14285714 </v>
   <v>       0.28571429      -0.14285714       0.14285714 </v>
   <v>       0.42857143      -0.14285714       0.14285714 </v>
   <v>      -0.42857143      -0.14285714       0.14285714 </v>
   <v>      -0.28571429      -0.14285714       0.14285714 </v>
   <v>      -0.14285714      -0.14285714       0.14285714 </v>
   <v>       0.00000000       0.00000000       0.28571429 </v>
   <v>       0.14285714       0.00000000       0.28571429 </v>
   <v>       0.28571429      -0.00000000       0.28571429 </v>
   <v>       0.42857143      -0.00000000       0.28571429 </v>
   <v>      -0.42857143      -0.00000000       0.28571429 </v>
   <v>      -0.28571429      -0.00000000       0.28571429 </v>
   <v>      -0.14285714       0.00000000       0.28571429 </v>
   <v>      -0.00000000       0.14285714       0.28571429 </v>
   <v>       0.14285714       0.14285714       0.28571429 </v>
   <v>       0.28571429       0.14285714       0.28571429 </v>
   <v>       0.42857143       0.14285714       0.28571429 </v>
   <v>      -0.42857143       0.14285714       0.28571429 </v>
   <v>      -0.28571429       0.14285714       0.28571429 </v>
   <v>      -0.14285714       0.14285714       0.28571429 </v>
   <v>      -0.00000000       0.28571429       0.28571429 </v>
   <v>       0.14285714       0.28571429       0.28571429 </v>
   <v>       0.28571429       0.28571429       0.28571429 </v>
   <v>       0.42857143       0.28571429       0.28571429 </v>
   <v>      -0.42857143       0.28571429       0.28571429 </v>
   <v>      -0.28571429       0.28571429       0.28571429 </v>
   <v>      -0.14285714       0.28571429       0.28571429 </v>
   <v>      -0.00000000       0.42857143       0.28571429 </v>
   <v>       0.14285714       0.42857143       0.28571429 </v>
   <v>       0.28571429       0.42857143       0.28571429 </v>
   <v>       0.42857143       0.42857143       0.28571429 </v>
   <v>      -0.42857143       0.42857143       0.28571429 </v>
   <v>      -0.28571429       0.42857143       0.28571429 </v>
   <v>      -0.14285714       0.42857143       0.28571429 </v>
   <v>       0.00000000      -0.42857143       0.28571429 </v>
   <v>       0.14285714      -0.42857143       0.28571429 </v>
   <v>       0.28571429      -0.42857143       0.28571429 </v>
   <v>       0.42857143      -0.42857143       0.28571429 </v>
   <v>      -0.42857143      -0.42857143       0.28571429 </v>
   <v>      -0.28571429      -0.42857143       0.28571429 </v>
   <v>      -0.14285714      -0.42857143       0.28571429 </v>
   <v>      -0.00000000      -0.28571429       0.28571429 </v>
   <v>       0.14285714      -0.28571429       0.28571429 </v>
   <v>       0.28571429      -0.28571429       0.28571429 </v>
   <v>       0.42857143      -0.28571429       0.28571429 </v>
   <v>      -0.42857143      -0.28571429       0.28571429 </v>
   <v>      -0.28571429      -0.28571429       0.28571429 </v>
   <v>      -0.14285714      -0.28571429       0.28571429 </v>
   <v>       0.00000000      -0.14285714       0.28571429 </v>
   <v>       0.14285714      -0.14285714       0.28571429 </v>
   <v>       0.28571429      -0.14285714       0.28571429 </v>
   <v>       0.42857143      -0.14285714       0.28571429 </v>
   <v>      -0.42857143      -0.14285714       0.28571429 </v>
   <v>      -0.28571429      -0.14285714       0.28571429 </v>
   <v>      -0.14285714      -0.14285714       0.28571429 </v>
   <v>      -0.00000000       0.00000000       0.42857143 </v>
   <v>       0.14285714      -0.00000000       0.42857143 </v>
   <v>       0.28571429       0.00000000       0.42857143 </v>
   <v>       0.42857143       0.00000000       0.42857143 </v>
   <v>      -0.42857143       0.00000000       0.42857143 </v>
   <v>      -0.28571429       0.00000000       0.42857143 </v>
   <v>      -0.14285714       0.00000000       0.42857143 </v>
   <v>      -0.00000000       0.14285714       0.42857143 </v>
   <v>       0.14285714       0.14285714       0.42857143 </v>
   <v>       0.28571429       0.14285714       0.42857143 </v>
   <v>       0.42857143       0.14285714       0.42857143 </v>
   <v>      -0.42857143       0.14285714       0.42857143 </v>
   <v>      -0.28571429       0.14285714       0.42857143 </v>
   <v>      -0.14285714       0.14285714       0.42857143 </v>
   <v>      -0.00000000       0.28571429       0.42857143 </v>
   <v>       0.14285714       0.28571429       0.42857143 </v>
   <v>       0.28571429       0.28571429       0.42857143 </v>
   <v>       0.42857143       0.28571429       0.42857143 </v>
   <v>      -0.42857143       0.28571429       0.42857143 </v>
   <v>      -0.28571429       0.28571429       0.42857143 </v>
   <v>      -0.14285714       0.28571429       0.42857143 </v>
   <v>      -0.00000000       0.42857143       0.42857143 </v>
   <v>       0.14285714       0.42857143       0.42857143 </v>
   <v>       0.28571429       0.42857143       0.42857143 </v>
   <v>       0.42857143       0.42857143       0.42857143 </v>
   <v>      -0.42857143       0.42857143       0.42857143 </v>
   <v>      -0.28571429       0.42857143       0.42857143 </v>
   <v>      -0.14285714       0.42857143       0.42857143 </v>
   <v>      -0.00000000      -0.42857143       0.42857143 </v>
   <v>       0.14285714      -0.42857143       0.42857143 </v>
   <v>       0.28571429      -0.42857143       0.42857143 </v>
   <v>       0.42857143      -0.42857143       0.42857143 </v>
   <v>      -0.42857143      -0.42857143       0.42857143 </v>
   <v>      -0.28571429      -0.42857143       0.42857143 </v>
   <v>      -0.14285714      -0.42857143       0.42857143 </v>
   <v>      -0.00000000      -0.28571429       0.42857143 </v>
   <v>       0.14285714      -0.28571429       0.42857143 </v>
   <v>       0.28571429      -0.28571429       0.42857143 </v>
   <v>       0.42857143      -0.28571429       0.42857143 </v>
   <v>      -0.42857143      -0.28571429       0.42857143 </v>
   <v>      -0.28571429      -0.28571429       0.42857143 </v>
   <v>      -0.14285714      -0.28571429       0.42857143 </v>
   <v>      -0.00000000      -0.14285714       0.42857143 </v>
   <v>       0.14285714      -0.14285714       0.42857143 </v>
   <v>       0.28571429      -0.14285714       0.42857143 </v>
   <v>       0.42857143      -0.14285714       0.42857143 </v>
   <v>      -0.42857143      -0.14285714       0.42857143 </v>
   <v>      -0.28571429      -0.14285714       0.42857143 </v>
   <v>      -0.14285714      -0.14285714       0.42857143 </v>
   <v>       0.00000000       0.00000000      -0.42857143 </v>
   <v>       0.14285714      -0.00000000      -0.42857143 </v>
   <v>       0.28571429      -0.00000000      -0.42857143 </v>
   <v>       0.42857143      -0.00000000      -0.42857143 </v>
   <v>      -0.42857143      -0.00000000      -0.42857143 </v>
   <v>      -0.28571429      -0.00000000      -0.42857143 </v>
   <v>      -0.14285714       0.00000000      -0.42857143 </v>
   <v>       0.00000000       0.14285714      -0.42857143 </v>
   <v>       0.14285714       0.14285714      -0.42857143 </v>
   <v>       0.28571429       0.14285714      -0.42857143 </v>
   <v>       0.42857143       0.14285714      -0.42857143 </v>
   <v>      -0.42857143       0.14285714      -0.42857143 </v>
   <v>      -0.28571429       0.14285714      -0.42857143 </v>
   <v>      -0.14285714       0.14285714      -0.42857143 </v>
   <v>       0.00000000       0.28571429      -0.42857143 </v>
   <v>       0.14285714       0.28571429      -0.42857143 </v>
   <v>       0.28571429       0.28571429      -0.42857143 </v>
   <v>       0.42857143       0.28571429      -0.42857143 </v>
   <v>      -0.42857143       0.28571429      -0.42857143 </v>
   <v>      -0.28571429       0.28571429      -0.42857143 </v>
   <v>      -0.14285714       0.28571429      -0.42857143 </v>
   <v>       0.00000000       0.42857143      -0.42857143 </v>
   <v>       0.14285714       0.42857143      -0.42857143 </v>
   <v>       0.28571429       0.42857143      -0.42857143 </v>
   <v>       0.42857143       0.42857143      -0.42857143 </v>
   <v>      -0.42857143       0.42857143      -0.42857143 </v>
   <v>      -0.28571429       0.42857143      -0.42857143 </v>
   <v>      -0.14285714       0.42857143      -0.42857143 </v>
   <v>       0.00000000      -0.42857143      -0.42857143 </v>
   <v>       0.14285714      -0.42857143      -0.42857143 </v>
   <v>       0.28571429      -0.42857143      -0.42857143 </v>
   <v>       0.42857143      -0.42857143      -0.42857143 </v>
   <v>      -0.42857143      -0.42857143      -0.42857143 </v>
   <v>      -0.28571429      -0.42857143      -0.42857143 </v>
   <v>      -0.14285714      -0.42857143      -0.42857143 </v>
   <v>       0.00000000      -0.28571429      -0.42857143 </v>
   <v>       0.14285714      -0.28571429      -0.42857143 </v>
   <v>       0.28571429      -0.28571429      -0.42857143 </v>
   <v>       0.42857143      -0.28571429      -0.42857143 </v>
   <v>      -0.42857143      -0.28571429      -0.42857143 </v>
   <v>      -0.28571429      -0.28571429      -0.42857143 </v>
   <v>      -0.14285714      -0.28571429      -0.42857143 </v>
   <v>       0.00000000      -0.14285714      -0.42857143 </v>
   <v>       0.14285714      -0.14285714      -0.42857143 </v>
   <v>       0.28571429      -0.14285714      -0.42857143 </v>
   <v>       0.42857143      -0.14285714      -0.42857143 </v>
   <v>      -0.42857143      -0.14285714      -0.42857143 </v>
   <v>      -0.28571429      -0.14285714      -0.42857143 </v>
   <v>      -0.14285714      -0.14285714      -0.42857143 </v>
   <v>       0.00000000      -0.00000000      -0.28571429 </v>
   <v>       0.14285714      -0.00000000      -0.28571429 </v>
   <v>       0.28571429       0.00000000      -0.28571429 </v>
   <v>       0.42857143       0.00000000      -0.28571429 </v>
   <v>      -0.42857143       0.00000000      -0.28571429 </v>
   <v>      -0.28571429       0.00000000      -0.28571429 </v>
   <v>      -0.14285714      -0.00000000      -0.28571429 </v>
   <v>       0.00000000       0.14285714      -0.28571429 </v>
   <v>       0.14285714       0.14285714      -0.28571429 </v>
   <v>       0.28571429       0.14285714      -0.28571429 </v>
   <v>       0.42857143       0.14285714      -0.28571429 </v>
   <v>      -0.42857143       0.14285714      -0.28571429 </v>
   <v>      -0.28571429       0.14285714      -0.28571429 </v>
   <v>      -0.14285714       0.14285714      -0.28571429 </v>
   <v>       0.00000000       0.28571429      -0.28571429 </v>
   <v>       0.14285714       0.28571429      -0.28571429 </v>
   <v>       0.28571429       0.28571429      -0.28571429 </v>
   <v>       0.42857143       0.28571429      -0.28571429 </v>
   <v>      -0.42857143       0.28571429      -0.28571429 </v>
   <v>      -0.28571429       0.28571429      -0.28571429 </v>
   <v>      -0.14285714       0.28571429      -0.28571429 </v>
   <v>      -0.00000000       0.42857143      -0.28571429 </v>
   <v>       0.14285714       0.42857143      -0.28571429 </v>
   <v>       0.28571429       0.42857143      -0.28571429 </v>
   <v>       0.42857143       0.42857143      -0.28571429 </v>
   <v>      -0.42857143       0.42857143      -0.28571429 </v>
   <v>      -0.28571429       0.42857143      -0.28571429 </v>
   <v>      -0.14285714       0.42857143      -0.28571429 </v>
   <v>       0.00000000      -0.42857143      -0.28571429 </v>
   <v>       0.14285714      -0.42857143      -0.28571429 </v>
   <v>       0.28571429      -0.42857143      -0.28571429 </v>
   <v>       0.42857143      -0.42857143      -0.28571429 </v>
   <v>      -0.42857143      -0.42857143      -0.28571429 </v>
   <v>      -0.28571429      -0.42857143      -0.28571429 </v>
   <v>      -0.14285714      -0.42857143      -0.28571429 </v>
   <v>       0.00000000      -0.28571429      -0.28571429 </v>
   <v>       0.14285714      -0.28571429      -0.28571429 </v>
   <v>       0.28571429      -0.28571429      -0.28571429 </v>
   <v>       0.42857143      -0.28571429      -0.28571429 </v>
   <v>      -0.42857143      -0.28571429      -0.28571429 </v>
   <v>      -0.28571429      -0.28571429      -0.28571429 </v>
   <v>      -0.14285714      -0.28571429      -0.28571429 </v>
   <v>       0.00000000      -0.14285714      -0.28571429 </v>
   <v>       0.14285714      -0.14285714      -0.28571429 </v>
   <v>       0.28571429      -0.14285714      -0.28571429 </v>
   <v>       0.42857143      -0.14285714      -0.28571429 </v>
   <v>      -0.42857143      -0.14285714      -0.28571429 </v>
   <v>      -0.28571429      -0.14285714      -0.28571429 </v>
   <v>      -0.14285714      -0.14285714      -0.28571429 </v>
   <v>       0.00000000       0.00000000      -0.14285714 </v>
   <v>       0.14285714      -0.00000000      -0.14285714 </v>
   <v>       0.28571429       0.00000000      -0.14285714 </v>
   <v>       0.42857143       0.00000000      -0.14285714 </v>
   <v>      -0.42857143      -0.00000000      -0.14285714 </v>
   <v>      -0.28571429       0.00000000      -0.14285714 </v>
   <v>      -0.14285714       0.00000000      -0.14285714 </v>
   <v>      -0.00000000       0.14285714      -0.14285714 </v>
   <v>       0.14285714       0.14285714      -0.14285714 </v>
   <v>       0.28571429       0.14285714      -0.14285714 </v>
   <v>       0.42857143       0.14285714      -0.14285714 </v>
   <v>      -0.42857143       0.14285714      -0.14285714 </v>
   <v>      -0.28571429       0.14285714      -0.14285714 </v>
   <v>      -0.14285714       0.14285714      -0.14285714 </v>
   <v>      -0.00000000       0.28571429      -0.14285714 </v>
   <v>       0.14285714       0.28571429      -0.14285714 </v>
   <v>       0.28571429       0.28571429      -0.14285714 </v>
   <v>       0.42857143       0.28571429      -0.14285714 </v>
   <v>      -0.42857143       0.28571429      -0.14285714 </v>
   <v>      -0.28571429       0.28571429      -0.14285714 </v>
   <v>      -0.14285714       0.28571429      -0.14285714 </v>
   <v>       0.00000000       0.42857143      -0.14285714 </v>
   <v>       0.14285714       0.42857143      -0.14285714 </v>
   <v>       0.28571429       0.42857143      -0.14285714 </v>
   <v>       0.42857143       0.42857143      -0.14285714 </v>
   <v>      -0.42857143       0.42857143      -0.14285714 </v>
   <v>      -0.28571429       0.42857143      -0.14285714 </v>
   <v>      -0.14285714       0.42857143      -0.14285714 </v>
   <v>       0.00000000      -0.42857143      -0.14285714 </v>
   <v>       0.14285714      -0.42857143      -0.14285714 </v>
   <v>       0.28571429      -0.42857143      -0.14285714 </v>
   <v>       0.42857143      -0.42857143      -0.14285714 </v>
   <v>      -0.42857143      -0.42857143      -0.14285714 </v>
   <v>      -0.28571429      -0.42857143      -0.14285714 </v>
   <v>      -0.14285714      -0.42857143      -0.14285714 </v>
   <v>       0.00000000      -0.28571429      -0.14285714 </v>
   <v>       0.14285714      -0.28571429      -0.14285714 </v>
   <v>       0.28571429      -0.28571429      -0.14285714 </v>
   <v>       0.42857143      -0.28571429      -0.14285714 </v>
   <v>      -0.42857143      -0.28571429      -0.14285714 </v>
   <v>      -0.28571429      -0.28571429      -0.14285714 </v>
   <v>      -0.14285714      -0.28571429      -0.14285714 </v>
   <v>       0.00000000      -0.14285714      -0.14285714 </v>
   <v>       0.14285714      -0.14285714      -0.14285714 </v>
   <v>       0.28571429      -0.14285714      -0.14285714 </v>
   <v>       0.42857143      -0.14285714      -0.14285714 </v>
   <v>      -0.42857143      -0.14285714      -0.14285714 </v>
   <v>      -0.28571429      -0.14285714      -0.14285714 </v>
   <v>      -0.14285714      -0.14285714      -0.14285714 </v>
  </varray>
  <varray name="weights" >
   <v>       0.00291545 </v>
   <v>       0.00291545 </v>
   <v>       0.00291545 </v>
   <v>       0.00291545 </v>
   <v>       0.00291545 </v>
   <v>       0.00291545 </v>
   <v>       0.00291545 </v>
   <v>       0.00291545 </v>
   <v>       0.00291545 </v>
   <v>       0.00291545 </v>
   <v>       0.00291545 </v>
   <v>       0.00291545 </v>
   <v>       0.00291545 </v>
   <v>       0.00291545 </v>
   <v>       0.00291545 </v>
   <v>       0.00291545 </v>
   <v>       0.00291545 </v>
   <v>       0.00291545 </v>
   <v>       0.00291545 </v>
   <v>       0.00291545 </v>
   <v>       0.00291545 </v>
   <v>       0.00291545 </v>
   <v>       0.00291545 </v>
   <v>       0.00291545 </v>
   <v>       0.00291545 </v>
   <v>       0.00291545 </v>
   <v>       0.00291545 </v>
   <v>       0.00291545 </v>
   <v>       0.00291545 </v>
   <v>       0.00291545 </v>
   <v>       0.00291545 </v>
   <v>       0.00291545 </v>
   <v>       0.00291545 </v>
   <v>       0.00291545 </v>
   <v>       0.00291545 </v>
   <v>       0.00291545 </v>
   <v>       0.00291545 </v>
   <v>       0.00291545 </v>
   <v>       0.00291545 </v>
   <v>       0.00291545 </v>
   <v>       0.00291545 </v>
   <v>       0.00291545 </v>
   <v>       0.00291545 </v>
   <v>       0.00291545 </v>
   <v>       0.00291545 </v>
   <v>       0.00291545 </v>
   <v>       0.00291545 </v>
   <v>       0.00291545 </v>
   <v>       0.00291545 </v>
   <v>       0.00291545 </v>
   <v>       0.00291545 </v>
   <v>       0.00291545 </v>
   <v>       0.00291545 </v>
   <v>       0.00291545 </v>
   <v>       0.00291545 </v>
   <v>       0.00291545 </v>
   <v>       0.00291545 </v>
   <v>       0.00291545 </v>
   <v>       0.00291545 </v>
   <v>       0.00291545 </v>
   <v>       0.00291545 </v>
   <v>       0.00291545 </v>
   <v>       0.00291545 </v>
   <v>       0.00291545 </v>
   <v>       0.00291545 </v>
   <v>       0.00291545 </v>
   <v>       0.00291545 </v>
   <v>       0.00291545 </v>
   <v>       0.00291545 </v>
   <v>       0.00291545 </v>
   <v>       0.00291545 </v>
   <v>       0.00291545 </v>
   <v>       0.00291545 </v>
   <v>       0.00291545 </v>
   <v>       0.00291545 </v>
   <v>       0.00291545 </v>
   <v>       0.00291545 </v>
   <v>       0.00291545 </v>
   <v>       0.00291545 </v>
   <v>       0.00291545 </v>
   <v>       0.00291545 </v>
   <v>       0.00291545 </v>
   <v>       0.00291545 </v>
   <v>       0.00291545 </v>
   <v>       0.00291545 </v>
   <v>       0.00291545 </v>
   <v>       0.00291545 </v>
   <v>       0.00291545 </v>
   <v>       0.00291545 </v>
   <v>       0.00291545 </v>
   <v>       0.00291545 </v>
   <v>       0.00291545 </v>
   <v>       0.00291545 </v>
   <v>       0.00291545 </v>
   <v>       0.00291545 </v>
   <v>       0.00291545 </v>
   <v>       0.00291545 </v>
   <v>       0.00291545 </v>
   <v>       0.00291545 </v>
   <v>       0.00291545 </v>
   <v>       0.00291545 </v>
   <v>       0.00291545 </v>
   <v>       0.00291545 </v>
   <v>       0.00291545 </v>
   <v>       0.00291545 </v>
   <v>       0.00291545 </v>
   <v>       0.00291545 </v>
   <v>       0.00291545 </v>
   <v>       0.00291545 </v>
   <v>       0.00291545 </v>
   <v>       0.00291545 </v>
   <v>       0.00291545 </v>
   <v>       0.00291545 </v>
   <v>       0.00291545 </v>
   <v>       0.00291545 </v>
   <v>       0.00291545 </v>
   <v>       0.00291545 </v>
   <v>       0.00291545 </v>
   <v>       0.00291545 </v>
   <v>       0.00291545 </v>
   <v>       0.00291545 </v>
   <v>       0.00291545 </v>
   <v>       0.00291545 </v>
   <v>       0.00291545 </v>
   <v>       0.00291545 </v>
   <v>       0.00291545 </v>
   <v>       0.00291545 </v>
   <v>       0.00291545 </v>
   <v>       0.00291545 </v>
   <v>       0.00291545 </v>
   <v>       0.00291545 </v>
   <v>       0.00291545 </v>
   <v>       0.00291545 </v>
   <v>       0.00291545 </v>
   <v>       0.00291545 </v>
   <v>       0.00291545 </v>
   <v>       0.00291545 </v>
   <v>       0.00291545 </v>
   <v>       0.00291545 </v>
   <v>       0.00291545 </v>
   <v>       0.00291545 </v>
   <v>       0.00291545 </v>
   <v>       0.00291545 </v>
   <v>       0.00291545 </v>
   <v>       0.00291545 </v>
   <v>       0.00291545 </v>
   <v>       0.00291545 </v>
   <v>       0.00291545 </v>
   <v>       0.00291545 </v>
   <v>       0.00291545 </v>
   <v>       0.00291545 </v>
   <v>       0.00291545 </v>
   <v>       0.00291545 </v>
   <v>       0.00291545 </v>
   <v>       0.00291545 </v>
   <v>       0.00291545 </v>
   <v>       0.00291545 </v>
   <v>       0.00291545 </v>
   <v>       0.00291545 </v>
   <v>       0.00291545 </v>
   <v>       0.00291545 </v>
   <v>       0.00291545 </v>
   <v>       0.00291545 </v>
   <v>       0.00291545 </v>
   <v>       0.00291545 </v>
   <v>       0.00291545 </v>
   <v>       0.00291545 </v>
   <v>       0.00291545 </v>
   <v>       0.00291545 </v>
   <v>       0.00291545 </v>
   <v>       0.00291545 </v>
   <v>       0.00291545 </v>
   <v>       0.00291545 </v>
   <v>       0.00291545 </v>
   <v>       0.00291545 </v>
   <v>       0.00291545 </v>
   <v>       0.00291545 </v>
   <v>       0.00291545 </v>
   <v>       0.00291545 </v>
   <v>       0.00291545 </v>
   <v>       0.00291545 </v>
   <v>       0.00291545 </v>
   <v>       0.00291545 </v>
   <v>       0.00291545 </v>
   <v>       0.00291545 </v>
   <v>       0.00291545 </v>
   <v>       0.00291545 </v>
   <v>       0.00291545 </v>
   <v>       0.00291545 </v>
   <v>       0.00291545 </v>
   <v>       0.00291545 </v>
   <v>       0.00291545 </v>
   <v>       0.00291545 </v>
   <v>       0.00291545 </v>
   <v>       0.00291545 </v>
   <v>       0.00291545 </v>
   <v>       0.00291545 </v>
   <v>       0.00291545 </v>
   <v>       0.00291545 </v>
   <v>       0.00291545 </v>
   <v>       0.00291545 </v>
   <v>       0.00291545 </v>
   <v>       0.00291545 </v>
   <v>       0.00291545 </v>
   <v>       0.00291545 </v>
   <v>       0.00291545 </v>
   <v>       0.00291545 </v>
   <v>       0.00291545 </v>
   <v>       0.00291545 </v>
   <v>       0.00291545 </v>
   <v>       0.00291545 </v>
   <v>       0.00291545 </v>
   <v>       0.00291545 </v>
   <v>       0.00291545 </v>
   <v>       0.00291545 </v>
   <v>       0.00291545 </v>
   <v>       0.00291545 </v>
   <v>       0.00291545 </v>
   <v>       0.00291545 </v>
   <v>       0.00291545 </v>
   <v>       0.00291545 </v>
   <v>       0.00291545 </v>
   <v>       0.00291545 </v>
   <v>       0.00291545 </v>
   <v>       0.00291545 </v>
   <v>       0.00291545 </v>
   <v>       0.00291545 </v>
   <v>       0.00291545 </v>
   <v>       0.00291545 </v>
   <v>       0.00291545 </v>
   <v>       0.00291545 </v>
   <v>       0.00291545 </v>
   <v>       0.00291545 </v>
   <v>       0.00291545 </v>
   <v>       0.00291545 </v>
   <v>       0.00291545 </v>
   <v>       0.00291545 </v>
   <v>       0.00291545 </v>
   <v>       0.00291545 </v>
   <v>       0.00291545 </v>
   <v>       0.00291545 </v>
   <v>       0.00291545 </v>
   <v>       0.00291545 </v>
   <v>       0.00291545 </v>
   <v>       0.00291545 </v>
   <v>       0.00291545 </v>
   <v>       0.00291545 </v>
   <v>       0.00291545 </v>
   <v>       0.00291545 </v>
   <v>       0.00291545 </v>
   <v>       0.00291545 </v>
   <v>       0.00291545 </v>
   <v>       0.00291545 </v>
   <v>       0.00291545 </v>
   <v>       0.00291545 </v>
   <v>       0.00291545 </v>
   <v>       0.00291545 </v>
   <v>       0.00291545 </v>
   <v>       0.00291545 </v>
   <v>       0.00291545 </v>
   <v>       0.00291545 </v>
   <v>       0.00291545 </v>
   <v>       0.00291545 </v>
   <v>       0.00291545 </v>
   <v>       0.00291545 </v>
   <v>       0.00291545 </v>
   <v>       0.00291545 </v>
   <v>       0.00291545 </v>
   <v>       0.00291545 </v>
   <v>       0.00291545 </v>
   <v>       0.00291545 </v>
   <v>       0.00291545 </v>
   <v>       0.00291545 </v>
   <v>       0.00291545 </v>
   <v>       0.00291545 </v>
   <v>       0.00291545 </v>
   <v>       0.00291545 </v>
   <v>       0.00291545 </v>
   <v>       0.00291545 </v>
   <v>       0.00291545 </v>
   <v>       0.00291545 </v>
   <v>       0.00291545 </v>
   <v>       0.00291545 </v>
   <v>       0.00291545 </v>
   <v>       0.00291545 </v>
   <v>       0.00291545 </v>
   <v>       0.00291545 </v>
   <v>       0.00291545 </v>
   <v>       0.00291545 </v>
   <v>       0.00291545 </v>
   <v>       0.00291545 </v>
   <v>       0.00291545 </v>
   <v>       0.00291545 </v>
   <v>       0.00291545 </v>
   <v>       0.00291545 </v>
   <v>       0.00291545 </v>
   <v>       0.00291545 </v>
   <v>       0.00291545 </v>
   <v>       0.00291545 </v>
   <v>       0.00291545 </v>
   <v>       0.00291545 </v>
   <v>       0.00291545 </v>
   <v>       0.00291545 </v>
   <v>       0.00291545 </v>
   <v>       0.00291545 </v>
   <v>       0.00291545 </v>
   <v>       0.00291545 </v>
   <v>       0.00291545 </v>
   <v>       0.00291545 </v>
   <v>       0.00291545 </v>
   <v>       0.00291545 </v>
   <v>       0.00291545 </v>
   <v>       0.00291545 </v>
   <v>       0.00291545 </v>
   <v>       0.00291545 </v>
   <v>       0.00291545 </v>
   <v>       0.00291545 </v>
   <v>       0.00291545 </v>
   <v>       0.00291545 </v>
   <v>       0.00291545 </v>
   <v>       0.00291545 </v>
   <v>       0.00291545 </v>
   <v>       0.00291545 </v>
   <v>       0.00291545 </v>
   <v>       0.00291545 </v>
   <v>       0.00291545 </v>
   <v>       0.00291545 </v>
   <v>       0.00291545 </v>
   <v>       0.00291545 </v>
   <v>       0.00291545 </v>
   <v>       0.00291545 </v>
   <v>       0.00291545 </v>
   <v>       0.00291545 </v>
   <v>       0.00291545 </v>
   <v>       0.00291545 </v>
   <v>       0.00291545 </v>
   <v>       0.00291545 </v>
   <v>       0.00291545 </v>
   <v>       0.00291545 </v>
   <v>       0.00291545 </v>
   <v>       0.00291545 </v>
   <v>       0.00291545 </v>
   <v>       0.00291545 </v>
  </varray>
 </kpoints>
 <parameters>
  <separator name="general" >
   <i type="string" name="SYSTEM">Og_FCC</i>
   <i type="logical" name="LCOMPAT"> F  </i>
  </separator>
  <separator name="electronic" >
   <i type="string" name="PREC">accura</i>
   <i name="ENMAX">    300.00000000</i>
   <i name="ENAUG">    715.60700000</i>
   <i name="EDIFF">      0.00000001</i>
   <i type="int" name="IALGO">    90</i>
   <i type="int" name="IWAVPR">    10</i>
   <i type="int" name="NBANDS">   196</i>
   <i name="NELECT">     18.00000000</i>
   <i type="int" name="TURBO">     0</i>
   <i type="int" name="IRESTART">     0</i>
   <i type="int" name="NREBOOT">     0</i>
   <i type="int" name="NMIN">     0</i>
   <i name="EREF">      0.00000000</i>
   <separator name="electronic smearing" >
    <i type="int" name="ISMEAR">     0</i>
    <i name="SIGMA">      0.00100000</i>
    <i name="KSPACING">      0.50000000</i>
    <i type="logical" name="KGAMMA"> T  </i>
   </separator>
   <separator name="electronic projectors" >
    <i type="logical" name="LREAL"> F  </i>
    <v name="ROPT">      0.00000000</v>
    <i type="int" name="LMAXPAW">  -100</i>
    <i type="int" name="LMAXMIX">     2</i>
    <i type="logical" name="NLSPLINE"> F  </i>
   </separator>
   <separator name="electronic startup" >
    <i type="int" name="ISTART">     1</i>
    <i type="int" name="ICHARG">     0</i>
    <i type="int" name="INIWAV">     1</i>
   </separator>
   <separator name="electronic spin" >
    <i type="int" name="ISPIN">     1</i>
    <i type="logical" name="LNONCOLLINEAR"> T  </i>
    <v name="MAGMOM">      1.00000000      1.00000000      1.00000000</v>
    <i name="NUPDOWN">     -1.00000000</i>
    <i type="logical" name="LSORBIT"> T  </i>
    <v name="SAXIS">      0.00000000      0.00000000      1.00000000</v>
    <i type="logical" name="LSPIRAL"> F  </i>
    <v name="QSPIRAL">      0.00000000      0.00000000      0.00000000</v>
    <i type="logical" name="LZEROZ"> F  </i>
   </separator>
   <separator name="electronic exchange-correlation" >
    <i type="logical" name="LASPH"> F  </i>
    <i type="logical" name="LMETAGGA"> F  </i>
   </separator>
   <separator name="electronic convergence" >
    <i type="int" name="NELM">    50</i>
    <i type="int" name="NELMDL">    -5</i>
    <i type="int" name="NELMIN">     2</i>
    <i name="ENINI">    300.00000000</i>
    <separator name="electronic convergence detail" >
     <i type="logical" name="LDIAG"> T  </i>
     <i type="logical" name="LSUBROT"> F  </i>
     <i name="WEIMIN">      0.00000000</i>
     <i name="EBREAK">      0.00000000</i>
     <i name="DEPER">      0.30000000</i>
     <i type="int" name="NRMM">     4</i>
     <i name="TIME">      0.40000000</i>
    </separator>
   </separator>
   <separator name="electronic mixer" >
    <i name="AMIX">      0.40000000</i>
    <i name="BMIX">      1.00000000</i>
    <i name="AMIN">      0.10000000</i>
    <i name="AMIX_MAG">      1.60000000</i>
    <i name="BMIX_MAG">      1.00000000</i>
    <separator name="electronic mixer details" >
     <i type="int" name="IMIX">     4</i>
     <i type="logical" name="MIXFIRST"> F  </i>
     <i type="int" name="MAXMIX">    50</i>
     <i name="WC">    100.00000000</i>
     <i type="int" name="INIMIX">     1</i>
     <i type="int" name="MIXPRE">     1</i>
     <i type="int" name="MREMOVE">     5</i>
    </separator>
   </separator>
   <separator name="electronic dipolcorrection" >
    <i type="logical" name="LDIPOL"> F  </i>
    <i type="logical" name="LMONO"> F  </i>
    <i type="int" name="IDIPOL">     0</i>
    <i name="EPSILON">      1.00000000</i>
    <v name="DIPOL">   -100.00000000   -100.00000000   -100.00000000</v>
    <i name="EFIELD">      0.00000000</i>
   </separator>
  </separator>
  <separator name="grids" >
   <i type="int" name="NGX">    28</i>
   <i type="int" name="NGY">    28</i>
   <i type="int" name="NGZ">    28</i>
   <i type="int" name="NGXF">    56</i>
   <i type="int" name="NGYF">    56</i>
   <i type="int" name="NGZF">    56</i>
   <i type="logical" name="ADDGRID"> T  </i>
  </separator>
  <separator name="ionic" >
   <i type="int" name="NSW">     1</i>
   <i type="int" name="IBRION">    -1</i>
   <i type="int" name="MDALGO">     0</i>
   <i type="int" name="ISIF">     3</i>
   <i name="PSTRESS">      0.00000000</i>
   <i name="EDIFFG">      0.00001000</i>
   <i type="int" name="NFREE">     5</i>
   <i name="POTIM">      0.10000000</i>
   <i name="SMASS">     -3.00000000</i>
   <i name="SCALEE">      1.00000000</i>
  </separator>
  <separator name="ionic md" >
   <i name="TEBEG">      0.00010000</i>
   <i name="TEEND">      0.00010000</i>
   <i type="int" name="NBLOCK">     1</i>
   <i type="int" name="KBLOCK">     1</i>
   <i type="int" name="NPACO">   256</i>
   <i name="APACO">     16.00000000</i>
  </separator>
  <separator name="symmetry" >
   <i type="int" name="ISYM">     0</i>
   <i name="SYMPREC">      0.00000010</i>
  </separator>
  <separator name="dos" >
   <i type="int" name="LORBIT">     0</i>
   <v name="RWIGS">     -1.00000000</v>
   <i type="int" name="NEDOS">   301</i>
   <i name="EMIN">     10.00000000</i>
   <i name="EMAX">    -10.00000000</i>
   <i name="EFERMI">      0.00000000</i>
  </separator>
  <separator name="writing" >
   <i type="int" name="NWRITE">     2</i>
   <i type="logical" name="LWAVE"> T  </i>
   <i type="logical" name="LDOWNSAMPLE"> F  </i>
   <i type="logical" name="LCHARG"> F  </i>
   <i type="logical" name="LPARD"> F  </i>
   <i type="logical" name="LVTOT"> F  </i>
   <i type="logical" name="LVHAR"> F  </i>
   <i type="logical" name="LELF"> F  </i>
   <i type="logical" name="LOPTICS"> T  </i>
   <v name="STM">      0.00000000      0.00000000      0.00000000      0.00000000      0.00000000      0.00000000      0.00000000</v>
  </separator>
  <separator name="performance" >
   <i type="int" name="NPAR">     2</i>
   <i type="int" name="NSIM">     4</i>
   <i type="int" name="NBLK">    -1</i>
   <i type="logical" name="LPLANE"> T  </i>
   <i type="logical" name="LSCALAPACK"> T  </i>
   <i type="logical" name="LSCAAWARE"> T  </i>
   <i type="logical" name="LSCALU"> F  </i>
   <i type="logical" name="LASYNC"> F  </i>
   <i type="logical" name="LORBITALREAL"> F  </i>
  </separator>
  <separator name="miscellaneous" >
   <i type="int" name="IDIOT">     3</i>
   <i type="int" name="ISPECIAL">     0</i>
   <i type="logical" name="LMUSIC"> F  </i>
   <v name="POMASS">    220.17000000</v>
   <v name="DARWINR">      0.00000000</v>
   <v name="DARWINV">      1.00000000</v>
   <i type="logical" name="LCORR"> T  </i>
  </separator>
  <i type="logical" name="GGA_COMPAT"> F  </i>
  <i type="logical" name="LBERRY"> F  </i>
  <i type="int" name="ICORELEVEL">     0</i>
  <i type="logical" name="LDAU"> F  </i>
  <i type="int" name="I_CONSTRAINED_M">     0</i>
  <separator name="electronic exchange-correlation" >
   <i type="string" name="GGA">PE</i>
   <i type="int" name="VOSKOWN">     0</i>
   <i type="logical" name="LHFCALC"> F  </i>
   <i type="string" name="PRECFOCK"></i>
   <i type="logical" name="LSYMGRAD"> F  </i>
   <i type="logical" name="LHFONE"> F  </i>
   <i type="logical" name="LRHFCALC"> F  </i>
   <i type="logical" name="LTHOMAS"> F  </i>
   <i type="logical" name="LMODELHF"> F  </i>
   <i name="ENCUT4O">     -1.00000000</i>
   <i type="int" name="EXXOEP">     0</i>
   <i type="int" name="FOURORBIT">     0</i>
   <i name="AEXX">      0.00000000</i>
   <i name="HFALPHA">      0.00000000</i>
   <i name="MCALPHA">      0.00000000</i>
   <i name="ALDAX">      1.00000000</i>
   <i name="AGGAX">      1.00000000</i>
   <i name="ALDAC">      1.00000000</i>
   <i name="AGGAC">      1.00000000</i>
   <i type="int" name="NKREDX">     1</i>
   <i type="int" name="NKREDY">     1</i>
   <i type="int" name="NKREDZ">     1</i>
   <i type="logical" name="SHIFTRED"> F  </i>
   <i type="logical" name="ODDONLY"> F  </i>
   <i type="logical" name="EVENONLY"> F  </i>
   <i type="int" name="LMAXFOCK">     0</i>
   <i type="int" name="NMAXFOCKAE">     0</i>
   <i type="logical" name="LFOCKAEDFT"> F  </i>
   <i name="HFSCREEN">      0.00000000</i>
   <i name="HFSCREENC">      0.00000000</i>
   <i type="int" name="NBANDSGWLOW">     0</i>
  </separator>
  <separator name="vdW DFT" >
   <i type="logical" name="LUSE_VDW"> F  </i>
   <i name="Zab_VDW">     -0.84910000</i>
   <i name="PARAM1">      0.12340000</i>
   <i name="PARAM2">      1.00000000</i>
   <i name="PARAM3">      0.00000000</i>
  </separator>
  <separator name="model GW" >
   <i type="int" name="MODEL_GW">     0</i>
   <i name="MODEL_EPS0">     36.50086281</i>
   <i name="MODEL_ALPHA">      1.00000000</i>
  </separator>
  <separator name="linear response parameters" >
   <i type="logical" name="LEPSILON"> F  </i>
   <i type="logical" name="LRPA"> F  </i>
   <i type="logical" name="LNABLA"> F  </i>
   <i type="logical" name="LVEL"> F  </i>
   <i type="int" name="KINTER">     0</i>
   <i name="CSHIFT">      0.10000000</i>
   <i name="OMEGAMAX">     -1.00000000</i>
   <i name="DEG_THRESHOLD">      0.00200000</i>
   <i name="RTIME">     -0.10000000</i>
   <i name="WPLASMAI">      0.00000000</i>
   <v name="DFIELD">      0.00000000      0.00000000      0.00000000</v>
   <v name="WPLASMA">      0.00000000      0.00000000      0.00000000      0.00000000      0.00000000      0.00000000      0.00000000      0.00000000      0.00000000</v>
  </separator>
  <separator name="orbital magnetization" >
   <i type="logical" name="NUCIND"> F  </i>
   <v name="MAGPOS">      0.00000000      0.00000000      0.00000000</v>
   <i type="logical" name="LNICSALL"> T  </i>
   <i type="logical" name="ORBITALMAG"> F  </i>
   <i type="logical" name="LMAGBLOCH"> F  </i>
   <i type="logical" name="LCHIMAG"> F  </i>
   <i type="logical" name="LGAUGE"> T  </i>
   <i type="int" name="MAGATOM">     0</i>
   <v name="MAGDIPOL">      0.00000000      0.00000000      0.00000000</v>
   <v name="AVECCONST">      0.00000000      0.00000000      0.00000000</v>
  </separator>
  <separator name="response functions" >
   <i type="logical" name="LADDER"> F  </i>
   <i type="logical" name="LRPAFORCE"> F  </i>
   <i type="logical" name="LFXC"> F  </i>
   <i type="logical" name="LHARTREE"> T  </i>
   <i type="int" name="IBSE">     0</i>
   <v type="int" name="KPOINT">    -1     0     0     0</v>
   <i type="logical" name="LTCTE"> F  </i>
   <i type="logical" name="LTETE"> F  </i>
   <i type="logical" name="LTRIPLET"> F  </i>
   <i type="logical" name="LFXCEPS"> F  </i>
   <i type="logical" name="LFXHEG"> F  </i>
   <i type="int" name="NATURALO">     2</i>
   <i type="logical" name="L2ORDER"> F  </i>
   <i type="logical" name="LMP2LT"> F  </i>
   <i type="logical" name="LUSEW"> F  </i>
   <i name="ENCUTGW">     -2.00000000</i>
   <i name="ENCUTGWSOFT">     -2.00000000</i>
   <i name="ENCUTLF">     -1.00000000</i>
   <i type="int" name="LMAXMP2">    -1</i>
   <i name="SCISSOR">      0.00000000</i>
   <i type="int" name="NOMEGA">     0</i>
   <i type="int" name="NOMEGAR">     0</i>
   <i type="int" name="NBANDSGW">    -1</i>
   <i type="int" name="NBANDSO">    -1</i>
   <i type="int" name="NBANDSV">    -1</i>
   <i type="int" name="NELM">    50</i>
   <i type="int" name="NELMHF">     1</i>
   <i type="int" name="DIM">     3</i>
   <i type="int" name="ANTIRES">     0</i>
   <i name="OMEGAMAX">    -30.00000000</i>
   <i name="OMEGAMIN">    -30.00000000</i>
   <i name="OMEGATL">   -200.00000000</i>
   <i type="int" name="OMEGAGRID">   140</i>
   <i name="CSHIFT">     -0.10000000</i>
   <i type="logical" name="SELFENERGY"> F  </i>
   <i type="logical" name="LSPECTRAL"> F  </i>
   <i type="logical" name="LSPECTRALGW"> F  </i>
   <i type="logical" name="LSINGLES"> F  </i>
   <i type="logical" name="LFERMIGW"> F  </i>
   <i type="logical" name="ODDONLYGW"> F  </i>
   <i type="logical" name="EVENONLYGW"> F  </i>
   <i type="int" name="NKREDLFX">     1</i>
   <i type="int" name="NKREDLFY">     1</i>
   <i type="int" name="NKREDLFZ">     1</i>
   <i type="int" name="MAXMEM">  2800</i>
   <i type="int" name="TELESCOPE">     0</i>
   <i type="int" name="TAUPAR">     1</i>
   <i type="int" name="OMEGAPAR">    -1</i>
   <i name="LAMBDA">      1.00000000</i>
  </separator>
  <separator name="External order field" >
   <i name="OFIELD_KAPPA">      0.00000000</i>
   <v name="OFIELD_K">      0.00000000      0.00000000      0.00000000</v>
   <i name="OFIELD_Q6_NEAR">      0.00000000</i>
   <i name="OFIELD_Q6_FAR">      0.00000000</i>
   <i name="OFIELD_A">      0.00000000</i>
  </separator>
 </parameters>
 <atominfo>
  <atoms>       1 </atoms>
  <types>       1 </types>
  <array name="atoms" >
   <dimension dim="1">ion</dimension>
   <field type="string">element</field>
   <field type="int">atomtype</field>
   <set>
    <rc><c>Rn</c><c>   1</c></rc>
   </set>
  </array>
  <array name="atomtypes" >
   <dimension dim="1">type</dimension>
   <field type="int">atomspertype</field>
   <field type="string">element</field>
   <field>mass</field>
   <field>valence</field>
   <field type="string">pseudopotential</field>
   <set>
    <rc><c>   1</c><c>Rn</c><c>    220.17000000</c><c>     18.00000000</c><c>  PAW_PBE Rn_d_GW 14Apr2014             </c></rc>
   </set>
  </array>
 </atominfo>
 <structure name="initialpos" >
  <crystal>
   <varray name="basis" >
    <v>       4.41457561       0.00000000       0.00000000 </v>
    <v>       2.20728780       3.82313462      -0.00000000 </v>
    <v>       2.20728780       1.27437821       3.60448589 </v>
   </varray>
   <i name="volume">     60.83477135 </i>
   <varray name="rec_basis" >
    <v>       0.22652234      -0.13078273      -0.09247736 </v>
    <v>       0.00000000       0.26156547      -0.09247736 </v>
    <v>      -0.00000000       0.00000000       0.27743208 </v>
   </varray>
  </crystal>
  <varray name="positions" >
   <v>       0.00000000       0.00000000       0.00000000 </v>
  </varray>
  <varray name="velocities" >
   <v>       0.00000000       0.00000000       0.00000000 </v>
  </varray>
 </structure>
 <calculation>
  <scstep>
   <time name="diag">  128.93  128.89</time>
   <time name="total">  129.09  129.05</time>
   <energy>
    <i name="alphaZ">     69.69972675 </i>
    <i name="ewald">  -1713.14217088 </i>
    <i name="hartreedc">   -991.59811496 </i>
    <i name="XCdc">     36.87923497 </i>
    <i name="pawpsdc">   2509.69394113 </i>
    <i name="pawaedc">  -2480.61053084 </i>
    <i name="eentropy">      0.00000000 </i>
    <i name="bandstr">   -463.32038479 </i>
    <i name="atom">   3030.62410580 </i>
    <i name="e_fr_energy">     -1.77419282 </i>
    <i name="e_wo_entrp">     -1.77419282 </i>
    <i name="e_0_energy">     -1.77419282 </i>
   </energy>
  </scstep>
  <scstep>
   <time name="diag">  127.63  127.62</time>
   <time name="total">  127.63  127.63</time>
   <energy>
    <i name="e_fr_energy">     -1.77419282 </i>
    <i name="e_wo_entrp">     -1.77419282 </i>
    <i name="e_0_energy">     -1.77419282 </i>
   </energy>
  </scstep>
  <scstep>
   <time name="diag">  128.12  128.07</time>
   <time name="total">  128.13  128.08</time>
   <energy>
    <i name="e_fr_energy">     -1.77419282 </i>
    <i name="e_wo_entrp">     -1.77419282 </i>
    <i name="e_0_energy">     -1.77419282 </i>
   </energy>
  </scstep>
  <scstep>
   <time name="diag">  128.18  128.14</time>
   <time name="total">  128.18  128.14</time>
   <energy>
    <i name="e_fr_energy">     -1.77419282 </i>
    <i name="e_wo_entrp">     -1.77419282 </i>
    <i name="e_0_energy">     -1.77419282 </i>
   </energy>
  </scstep>
  <scstep>
   <time name="diag">  128.06  128.12</time>
   <time name="total">  128.33  128.39</time>
   <energy>
    <i name="e_fr_energy">     -1.77419282 </i>
    <i name="e_wo_entrp">     -1.77419282 </i>
    <i name="e_0_energy">     -1.77419282 </i>
   </energy>
  </scstep>
  <scstep>
   <time name="diag">  128.66  128.61</time>
   <time name="total">  128.82  128.78</time>
   <energy>
    <i name="alphaZ">     69.69972675 </i>
    <i name="ewald">  -1713.14217088 </i>
    <i name="hartreedc">   -991.59811169 </i>
    <i name="XCdc">     36.87923487 </i>
    <i name="pawpsdc">   2509.69393016 </i>
    <i name="pawaedc">  -2480.61051911 </i>
    <i name="eentropy">      0.00000000 </i>
    <i name="bandstr">   -463.32038871 </i>
    <i name="atom">   3030.62410580 </i>
    <i name="e_fr_energy">     -1.77419282 </i>
    <i name="e_wo_entrp">     -1.77419282 </i>
    <i name="e_0_energy">     -1.77419282 </i>
   </energy>
  </scstep>
  <structure>
   <crystal>
    <varray name="basis" >
     <v>       4.41457561       0.00000000       0.00000000 </v>
     <v>       2.20728780       3.82313462      -0.00000000 </v>
     <v>       2.20728780       1.27437821       3.60448589 </v>
    </varray>
    <i name="volume">     60.83477135 </i>
    <varray name="rec_basis" >
     <v>       0.22652234      -0.13078273      -0.09247736 </v>
     <v>       0.00000000       0.26156547      -0.09247736 </v>
     <v>      -0.00000000       0.00000000       0.27743208 </v>
    </varray>
   </crystal>
   <varray name="positions" >
    <v>       0.00000000       0.00000000       0.00000000 </v>
   </varray>
  </structure>
  <varray name="forces" >
   <v>       0.00000001      -0.00000001      -0.00000000 </v>
  </varray>
  <varray name="stress" >
   <v>      -0.33631851       0.00022766       0.00017271 </v>
   <v>       0.00022771      -0.33656266       0.00008342 </v>
   <v>       0.00017193       0.00008433      -0.33683916 </v>
  </varray>
  <energy>
   <i name="e_fr_energy">     -1.99818315 </i>
   <i name="e_wo_entrp">     -1.99818315 </i>
   <i name="e_0_energy">      0.00000000 </i>
  </energy>
  <time name="totalsc">  779.22  780.60</time>
  <eigenvalues>
   <array>
    <dimension dim="1">band</dimension>
    <dimension dim="2">kpoint</dimension>
    <dimension dim="3">spin</dimension>
    <field>eigene</field>
    <field>occ</field>
    <set>
     <set comment="spin 1">
      <set comment="kpoint 1">
       <r>  -43.7666    1.0000 </r>
       <r>  -43.7666    1.0000 </r>
       <r>  -43.7666    1.0000 </r>
       <r>  -43.7666    1.0000 </r>
       <r>  -39.3633    1.0000 </r>
       <r>  -39.3633    1.0000 </r>
       <r>  -39.3625    1.0000 </r>
       <r>  -39.3625    1.0000 </r>
       <r>  -39.3625    1.0000 </r>
       <r>  -39.3625    1.0000 </r>
       <r>  -17.0619    1.0000 </r>
       <r>  -17.0619    1.0000 </r>
       <r>   -4.6609    1.0000 </r>
       <r>   -4.6609    1.0000 </r>
       <r>   -0.8922    1.0000 </r>
       <r>   -0.8922    1.0000 </r>
       <r>   -0.8922    1.0000 </r>
       <r>   -0.8922    1.0000 </r>
       <r>    2.8225    0.0000 </r>
       <r>    2.8225    0.0000 </r>
       <r>    8.0763    0.0000 </r>
       <r>    8.0763    0.0000 </r>
       <r>    8.0763    0.0000 </r>
       <r>    8.0763    0.0000 </r>
       <r>    8.2420    0.0000 </r>
       <r>    8.2420    0.0000 </r>
       <r>    9.8344    0.0000 </r>
       <r>    9.8344    0.0000 </r>
       <r>   10.6878    0.0000 </r>
       <r>   10.6878    0.0000 </r>
       <r>   10.6878    0.0000 </r>
       <r>   10.6878    0.0000 </r>
       <r>   11.9030    0.0000 </r>
       <r>   11.9030    0.0000 </r>
       <r>   11.9983    0.0000 </r>
       <r>   11.9983    0.0000 </r>
       <r>   11.9983    0.0000 </r>
       <r>   11.9983    0.0000 </r>
       <r>   14.6542    0.0000 </r>
       <r>   14.6542    0.0000 </r>
       <r>   18.9189    0.0000 </r>
       <r>   18.9189    0.0000 </r>
       <r>   18.9537    0.0000 </r>
       <r>   18.9537    0.0000 </r>
       <r>   18.9537    0.0000 </r>
       <r>   18.9537    0.0000 </r>
       <r>   21.9823    0.0000 </r>
       <r>   21.9823    0.0000 </r>
       <r>   23.1655    0.0000 </r>
       <r>   23.1655    0.0000 </r>
       <r>   23.1655    0.0000 </r>
       <r>   23.1655    0.0000 </r>
       <r>   23.9211    0.0000 </r>
       <r>   23.9211    0.0000 </r>
       <r>   25.5531    0.0000 </r>
       <r>   25.5531    0.0000 </r>
       <r>   25.6023    0.0000 </r>
       <r>   25.6023    0.0000 </r>
       <r>   25.6023    0.0000 </r>
       <r>   25.6023    0.0000 </r>
       <r>   25.9719    0.0000 </r>
       <r>   25.9719    0.0000 </r>
       <r>   26.4942    0.0000 </r>
       <r>   26.4942    0.0000 </r>
       <r>   26.4942    0.0000 </r>
       <r>   26.4942    0.0000 </r>
       <r>   26.7905    0.0000 </r>
       <r>   26.7905    0.0000 </r>
       <r>   26.7905    0.0000 </r>
       <r>   26.7905    0.0000 </r>
       <r>   28.4337    0.0000 </r>
       <r>   28.4337    0.0000 </r>
       <r>   34.3223    0.0000 </r>
       <r>   34.3223    0.0000 </r>
       <r>   34.3529    0.0000 </r>
       <r>   34.3529    0.0000 </r>
       <r>   34.3529    0.0000 </r>
       <r>   34.3529    0.0000 </r>
       <r>   36.5204    0.0000 </r>
       <r>   36.5204    0.0000 </r>
       <r>   36.5204    0.0000 </r>
       <r>   36.5204    0.0000 </r>
       <r>   36.6750    0.0000 </r>
       <r>   36.6750    0.0000 </r>
       <r>   36.9762    0.0000 </r>
       <r>   36.9762    0.0000 </r>
       <r>   36.9762    0.0000 </r>
       <r>   36.9762    0.0000 </r>
       <r>   36.9762    0.0000 </r>
       <r>   36.9762    0.0000 </r>
       <r>   37.6842    0.0000 </r>
       <r>   37.6842    0.0000 </r>
       <r>   37.6842    0.0000 </r>
       <r>   37.6842    0.0000 </r>
       <r>   37.8678    0.0000 </r>
       <r>   37.8678    0.0000 </r>
       <r>   38.2428    0.0000 </r>
       <r>   38.2428    0.0000 </r>
       <r>   38.2428    0.0000 </r>
       <r>   38.2428    0.0000 </r>
       <r>   39.9506    0.0000 </r>
       <r>   39.9506    0.0000 </r>
       <r>   39.9506    0.0000 </r>
       <r>   39.9506    0.0000 </r>
       <r>   39.9876    0.0000 </r>
       <r>   39.9876    0.0000 </r>
       <r>   40.6847    0.0000 </r>
       <r>   40.6847    0.0000 </r>
       <r>   40.6847    0.0000 </r>
       <r>   40.6847    0.0000 </r>
       <r>   40.6939    0.0000 </r>
       <r>   40.6939    0.0000 </r>
       <r>   42.7944    0.0000 </r>
       <r>   42.7944    0.0000 </r>
       <r>   42.8142    0.0000 </r>
       <r>   42.8142    0.0000 </r>
       <r>   42.8142    0.0000 </r>
       <r>   42.8142    0.0000 </r>
       <r>   43.2466    0.0000 </r>
       <r>   43.2466    0.0000 </r>
       <r>   43.8064    0.0000 </r>
       <r>   43.8064    0.0000 </r>
       <r>   44.1596    0.0000 </r>
       <r>   44.1596    0.0000 </r>
       <r>   44.1596    0.0000 </r>
       <r>   44.1596    0.0000 </r>
       <r>   44.1767    0.0000 </r>
       <r>   44.1767    0.0000 </r>
       <r>   44.4467    0.0000 </r>
       <r>   44.4467    0.0000 </r>
       <r>   44.4978    0.0000 </r>
       <r>   44.4978    0.0000 </r>
       <r>   44.4978    0.0000 </r>
       <r>   44.4978    0.0000 </r>
       <r>   47.6531    0.0000 </r>
       <r>   47.6531    0.0000 </r>
       <r>   47.6531    0.0000 </r>
       <r>   47.6531    0.0000 </r>
       <r>   47.7713    0.0000 </r>
       <r>   47.7713    0.0000 </r>
       <r>   50.3492    0.0000 </r>
       <r>   50.3492    0.0000 </r>
       <r>   56.9296    0.0000 </r>
       <r>   56.9296    0.0000 </r>
       <r>   57.2018    0.0000 </r>
       <r>   57.2018    0.0000 </r>
       <r>   57.2018    0.0000 </r>
       <r>   57.2018    0.0000 </r>
       <r>   60.3580    0.0000 </r>
       <r>   60.3580    0.0000 </r>
       <r>   60.6680    0.0000 </r>
       <r>   60.6680    0.0000 </r>
       <r>   60.6680    0.0000 </r>
       <r>   60.6680    0.0000 </r>
       <r>   63.7207    0.0000 </r>
       <r>   63.7207    0.0000 </r>
       <r>   63.7207    0.0000 </r>
       <r>   63.7207    0.0000 </r>
       <r>   65.1735    0.0000 </r>
       <r>   65.1735    0.0000 </r>
       <r>   65.1735    0.0000 </r>
       <r>   65.1735    0.0000 </r>
       <r>   65.2597    0.0000 </r>
       <r>   65.2597    0.0000 </r>
       <r>   67.5655    0.0000 </r>
       <r>   67.5655    0.0000 </r>
       <r>   68.1099    0.0000 </r>
       <r>   68.1099    0.0000 </r>
       <r>   68.1099    0.0000 </r>
       <r>   68.1099    0.0000 </r>
       <r>   68.1099    0.0000 </r>
       <r>   68.1099    0.0000 </r>
       <r>   68.6664    0.0000 </r>
       <r>   68.6664    0.0000 </r>
       <r>   68.6664    0.0000 </r>
       <r>   68.6664    0.0000 </r>
       <r>   69.6960    0.0000 </r>
       <r>   69.6960    0.0000 </r>
       <r>   69.6960    0.0000 </r>
       <r>   69.6960    0.0000 </r>
       <r>   70.5128    0.0000 </r>
       <r>   70.5128    0.0000 </r>
       <r>   70.5128    0.0000 </r>
       <r>   70.5128    0.0000 </r>
       <r>   70.6702    0.0000 </r>
       <r>   70.6702    0.0000 </r>
       <r>   70.6781    0.0000 </r>
       <r>   70.6781    0.0000 </r>
       <r>   70.6781    0.0000 </r>
       <r>   70.6781    0.0000 </r>
       <r>   70.7984    0.0000 </r>
       <r>   70.7984    0.0000 </r>
       <r>   70.7984    0.0000 </r>
       <r>   70.7984    0.0000 </r>
       <r>   70.7984    0.0000 </r>
       <r>   70.7984    0.0000 </r>
      </set>
      <set comment="kpoint 2">
       <r>  -43.7665    1.0000 </r>
       <r>  -43.7665    1.0000 </r>
       <r>  -43.7665    1.0000 </r>
       <r>  -43.7665    1.0000 </r>
       <r>  -39.3629    1.0000 </r>
       <r>  -39.3629    1.0000 </r>
       <r>  -39.3623    1.0000 </r>
       <r>  -39.3623    1.0000 </r>
       <r>  -39.3621    1.0000 </r>
       <r>  -39.3621    1.0000 </r>
       <r>  -17.0301    1.0000 </r>
       <r>  -17.0301    1.0000 </r>
       <r>   -4.7824    1.0000 </r>
       <r>   -4.7824    1.0000 </r>
       <r>   -1.3590    1.0000 </r>
       <r>   -1.3590    1.0000 </r>
       <r>   -0.9518    1.0000 </r>
       <r>   -0.9518    1.0000 </r>
       <r>    3.5209    0.0000 </r>
       <r>    3.5209    0.0000 </r>
       <r>    7.4774    0.0000 </r>
       <r>    7.4774    0.0000 </r>
       <r>    8.2468    0.0000 </r>
       <r>    8.2468    0.0000 </r>
       <r>    8.3936    0.0000 </r>
       <r>    8.3936    0.0000 </r>
       <r>    9.9453    0.0000 </r>
       <r>    9.9453    0.0000 </r>
       <r>   10.0113    0.0000 </r>
       <r>   10.0113    0.0000 </r>
       <r>   10.7228    0.0000 </r>
       <r>   10.7228    0.0000 </r>
       <r>   11.6610    0.0000 </r>
       <r>   11.6610    0.0000 </r>
       <r>   13.2658    0.0000 </r>
       <r>   13.2658    0.0000 </r>
       <r>   13.3164    0.0000 </r>
       <r>   13.3164    0.0000 </r>
       <r>   16.0164    0.0000 </r>
       <r>   16.0164    0.0000 </r>
       <r>   18.2455    0.0000 </r>
       <r>   18.2455    0.0000 </r>
       <r>   18.3090    0.0000 </r>
       <r>   18.3090    0.0000 </r>
       <r>   18.9892    0.0000 </r>
       <r>   18.9892    0.0000 </r>
       <r>   20.4831    0.0000 </r>
       <r>   20.4831    0.0000 </r>
       <r>   22.1470    0.0000 </r>
       <r>   22.1470    0.0000 </r>
       <r>   22.6724    0.0000 </r>
       <r>   22.6724    0.0000 </r>
       <r>   23.6428    0.0000 </r>
       <r>   23.6428    0.0000 </r>
       <r>   24.6109    0.0000 </r>
       <r>   24.6109    0.0000 </r>
       <r>   24.8442    0.0000 </r>
       <r>   24.8442    0.0000 </r>
       <r>   24.9689    0.0000 </r>
       <r>   24.9689    0.0000 </r>
       <r>   26.2439    0.0000 </r>
       <r>   26.2439    0.0000 </r>
       <r>   26.4741    0.0000 </r>
       <r>   26.4741    0.0000 </r>
       <r>   27.2261    0.0000 </r>
       <r>   27.2261    0.0000 </r>
       <r>   27.6713    0.0000 </r>
       <r>   27.6713    0.0000 </r>
       <r>   28.3242    0.0000 </r>
       <r>   28.3242    0.0000 </r>
       <r>   31.0553    0.0000 </r>
       <r>   31.0553    0.0000 </r>
       <r>   33.3306    0.0000 </r>
       <r>   33.3306    0.0000 </r>
       <r>   33.5090    0.0000 </r>
       <r>   33.5090    0.0000 </r>
       <r>   33.7273    0.0000 </r>
       <r>   33.7273    0.0000 </r>
       <r>   33.7937    0.0000 </r>
       <r>   33.7937    0.0000 </r>
       <r>   34.5926    0.0000 </r>
       <r>   34.5926    0.0000 </r>
       <r>   34.8419    0.0000 </r>
       <r>   34.8419    0.0000 </r>
       <r>   36.4823    0.0000 </r>
       <r>   36.4823    0.0000 </r>
       <r>   36.6007    0.0000 </r>
       <r>   36.6007    0.0000 </r>
       <r>   37.1850    0.0000 </r>
       <r>   37.1850    0.0000 </r>
       <r>   37.3005    0.0000 </r>
       <r>   37.3005    0.0000 </r>
       <r>   37.7416    0.0000 </r>
       <r>   37.7416    0.0000 </r>
       <r>   37.9687    0.0000 </r>
       <r>   37.9687    0.0000 </r>
       <r>   38.0406    0.0000 </r>
       <r>   38.0406    0.0000 </r>
       <r>   38.0972    0.0000 </r>
       <r>   38.0972    0.0000 </r>
       <r>   38.5718    0.0000 </r>
       <r>   38.5718    0.0000 </r>
       <r>   39.9274    0.0000 </r>
       <r>   39.9274    0.0000 </r>
       <r>   40.2876    0.0000 </r>
       <r>   40.2876    0.0000 </r>
       <r>   40.5408    0.0000 </r>
       <r>   40.5408    0.0000 </r>
       <r>   41.8248    0.0000 </r>
       <r>   41.8248    0.0000 </r>
       <r>   41.9711    0.0000 </r>
       <r>   41.9711    0.0000 </r>
       <r>   41.9772    0.0000 </r>
       <r>   41.9772    0.0000 </r>
       <r>   43.5529    0.0000 </r>
       <r>   43.5529    0.0000 </r>
       <r>   43.6093    0.0000 </r>
       <r>   43.6093    0.0000 </r>
       <r>   44.4403    0.0000 </r>
       <r>   44.4403    0.0000 </r>
       <r>   45.0755    0.0000 </r>
       <r>   45.0755    0.0000 </r>
       <r>   45.4367    0.0000 </r>
       <r>   45.4367    0.0000 </r>
       <r>   45.5488    0.0000 </r>
       <r>   45.5488    0.0000 </r>
       <r>   45.5902    0.0000 </r>
       <r>   45.5902    0.0000 </r>
       <r>   46.5093    0.0000 </r>
       <r>   46.5093    0.0000 </r>
       <r>   46.5728    0.0000 </r>
       <r>   46.5728    0.0000 </r>
       <r>   47.3251    0.0000 </r>
       <r>   47.3251    0.0000 </r>
       <r>   48.1647    0.0000 </r>
       <r>   48.1647    0.0000 </r>
       <r>   48.2289    0.0000 </r>
       <r>   48.2289    0.0000 </r>
       <r>   49.3704    0.0000 </r>
       <r>   49.3704    0.0000 </r>
       <r>   51.4676    0.0000 </r>
       <r>   51.4676    0.0000 </r>
       <r>   55.1388    0.0000 </r>
       <r>   55.1388    0.0000 </r>
       <r>   55.1906    0.0000 </r>
       <r>   55.1906    0.0000 </r>
       <r>   55.7265    0.0000 </r>
       <r>   55.7265    0.0000 </r>
       <r>   60.5104    0.0000 </r>
       <r>   60.5104    0.0000 </r>
       <r>   60.8364    0.0000 </r>
       <r>   60.8364    0.0000 </r>
       <r>   62.0867    0.0000 </r>
       <r>   62.0867    0.0000 </r>
       <r>   62.1000    0.0000 </r>
       <r>   62.1000    0.0000 </r>
       <r>   62.2580    0.0000 </r>
       <r>   62.2580    0.0000 </r>
       <r>   62.4937    0.0000 </r>
       <r>   62.4937    0.0000 </r>
       <r>   64.7971    0.0000 </r>
       <r>   64.7971    0.0000 </r>
       <r>   64.8437    0.0000 </r>
       <r>   64.8437    0.0000 </r>
       <r>   64.9153    0.0000 </r>
       <r>   64.9153    0.0000 </r>
       <r>   65.1062    0.0000 </r>
       <r>   65.1062    0.0000 </r>
       <r>   65.8152    0.0000 </r>
       <r>   65.8152    0.0000 </r>
       <r>   65.8818    0.0000 </r>
       <r>   65.8818    0.0000 </r>
       <r>   66.7375    0.0000 </r>
       <r>   66.7375    0.0000 </r>
       <r>   66.9547    0.0000 </r>
       <r>   66.9547    0.0000 </r>
       <r>   68.1373    0.0000 </r>
       <r>   68.1373    0.0000 </r>
       <r>   68.4311    0.0000 </r>
       <r>   68.4311    0.0000 </r>
       <r>   68.4522    0.0000 </r>
       <r>   68.4522    0.0000 </r>
       <r>   68.6289    0.0000 </r>
       <r>   68.6289    0.0000 </r>
       <r>   69.1234    0.0000 </r>
       <r>   69.1234    0.0000 </r>
       <r>   69.3774    0.0000 </r>
       <r>   69.3774    0.0000 </r>
       <r>   69.9312    0.0000 </r>
       <r>   69.9312    0.0000 </r>
       <r>   69.9771    0.0000 </r>
       <r>   69.9771    0.0000 </r>
       <r>   71.0413    0.0000 </r>
       <r>   71.0413    0.0000 </r>
       <r>   71.1396    0.0000 </r>
       <r>   71.1396    0.0000 </r>
      </set>
      <set comment="kpoint 3">
       <r>  -43.7665    1.0000 </r>
       <r>  -43.7665    1.0000 </r>
       <r>  -43.7663    1.0000 </r>
       <r>  -43.7663    1.0000 </r>
       <r>  -39.3629    1.0000 </r>
       <r>  -39.3629    1.0000 </r>
       <r>  -39.3624    1.0000 </r>
       <r>  -39.3624    1.0000 </r>
       <r>  -39.3619    1.0000 </r>
       <r>  -39.3619    1.0000 </r>
       <r>  -16.9584    1.0000 </r>
       <r>  -16.9584    1.0000 </r>
       <r>   -5.0726    1.0000 </r>
       <r>   -5.0726    1.0000 </r>
       <r>   -2.0426    1.0000 </r>
       <r>   -2.0426    1.0000 </r>
       <r>   -1.0789    1.0000 </r>
       <r>   -1.0789    1.0000 </r>
       <r>    4.4506    0.0000 </r>
       <r>    4.4506    0.0000 </r>
       <r>    7.4730    0.0000 </r>
       <r>    7.4730    0.0000 </r>
       <r>    8.0886    0.0000 </r>
       <r>    8.0886    0.0000 </r>
       <r>    8.2682    0.0000 </r>
       <r>    8.2682    0.0000 </r>
       <r>   10.0428    0.0000 </r>
       <r>   10.0428    0.0000 </r>
       <r>   10.2400    0.0000 </r>
       <r>   10.2400    0.0000 </r>
       <r>   10.3721    0.0000 </r>
       <r>   10.3721    0.0000 </r>
       <r>   13.9133    0.0000 </r>
       <r>   13.9133    0.0000 </r>
       <r>   15.3339    0.0000 </r>
       <r>   15.3339    0.0000 </r>
       <r>   15.3763    0.0000 </r>
       <r>   15.3763    0.0000 </r>
       <r>   16.2163    0.0000 </r>
       <r>   16.2163    0.0000 </r>
       <r>   16.4538    0.0000 </r>
       <r>   16.4538    0.0000 </r>
       <r>   17.2676    0.0000 </r>
       <r>   17.2676    0.0000 </r>
       <r>   18.5644    0.0000 </r>
       <r>   18.5644    0.0000 </r>
       <r>   19.0991    0.0000 </r>
       <r>   19.0991    0.0000 </r>
       <r>   21.6562    0.0000 </r>
       <r>   21.6562    0.0000 </r>
       <r>   22.2671    0.0000 </r>
       <r>   22.2671    0.0000 </r>
       <r>   22.8853    0.0000 </r>
       <r>   22.8853    0.0000 </r>
       <r>   23.9082    0.0000 </r>
       <r>   23.9082    0.0000 </r>
       <r>   24.1889    0.0000 </r>
       <r>   24.1889    0.0000 </r>
       <r>   24.5050    0.0000 </r>
       <r>   24.5050    0.0000 </r>
       <r>   26.5414    0.0000 </r>
       <r>   26.5414    0.0000 </r>
       <r>   26.7540    0.0000 </r>
       <r>   26.7540    0.0000 </r>
       <r>   27.4543    0.0000 </r>
       <r>   27.4543    0.0000 </r>
       <r>   28.1318    0.0000 </r>
       <r>   28.1318    0.0000 </r>
       <r>   28.6640    0.0000 </r>
       <r>   28.6640    0.0000 </r>
       <r>   29.6476    0.0000 </r>
       <r>   29.6476    0.0000 </r>
       <r>   31.9586    0.0000 </r>
       <r>   31.9586    0.0000 </r>
       <r>   31.9954    0.0000 </r>
       <r>   31.9954    0.0000 </r>
       <r>   32.0852    0.0000 </r>
       <r>   32.0852    0.0000 </r>
       <r>   32.8858    0.0000 </r>
       <r>   32.8858    0.0000 </r>
       <r>   33.0298    0.0000 </r>
       <r>   33.0298    0.0000 </r>
       <r>   33.2691    0.0000 </r>
       <r>   33.2691    0.0000 </r>
       <r>   35.4917    0.0000 </r>
       <r>   35.4917    0.0000 </r>
       <r>   36.1353    0.0000 </r>
       <r>   36.1353    0.0000 </r>
       <r>   36.2864    0.0000 </r>
       <r>   36.2864    0.0000 </r>
       <r>   36.8173    0.0000 </r>
       <r>   36.8173    0.0000 </r>
       <r>   36.9207    0.0000 </r>
       <r>   36.9207    0.0000 </r>
       <r>   38.3107    0.0000 </r>
       <r>   38.3107    0.0000 </r>
       <r>   38.6376    0.0000 </r>
       <r>   38.6376    0.0000 </r>
       <r>   38.6428    0.0000 </r>
       <r>   38.6428    0.0000 </r>
       <r>   39.1222    0.0000 </r>
       <r>   39.1222    0.0000 </r>
       <r>   40.2390    0.0000 </r>
       <r>   40.2390    0.0000 </r>
       <r>   41.1992    0.0000 </r>
       <r>   41.1992    0.0000 </r>
       <r>   41.4759    0.0000 </r>
       <r>   41.4759    0.0000 </r>
       <r>   42.0414    0.0000 </r>
       <r>   42.0414    0.0000 </r>
       <r>   42.8290    0.0000 </r>
       <r>   42.8290    0.0000 </r>
       <r>   42.9708    0.0000 </r>
       <r>   42.9708    0.0000 </r>
       <r>   45.9375    0.0000 </r>
       <r>   45.9375    0.0000 </r>
       <r>   46.6229    0.0000 </r>
       <r>   46.6229    0.0000 </r>
       <r>   46.8474    0.0000 </r>
       <r>   46.8474    0.0000 </r>
       <r>   47.0397    0.0000 </r>
       <r>   47.0397    0.0000 </r>
       <r>   47.5062    0.0000 </r>
       <r>   47.5062    0.0000 </r>
       <r>   47.5918    0.0000 </r>
       <r>   47.5918    0.0000 </r>
       <r>   48.0914    0.0000 </r>
       <r>   48.0914    0.0000 </r>
       <r>   49.5480    0.0000 </r>
       <r>   49.5480    0.0000 </r>
       <r>   49.8169    0.0000 </r>
       <r>   49.8169    0.0000 </r>
       <r>   49.8170    0.0000 </r>
       <r>   49.8170    0.0000 </r>
       <r>   51.0238    0.0000 </r>
       <r>   51.0238    0.0000 </r>
       <r>   51.0945    0.0000 </r>
       <r>   51.0945    0.0000 </r>
       <r>   51.6575    0.0000 </r>
       <r>   51.6575    0.0000 </r>
       <r>   52.3627    0.0000 </r>
       <r>   52.3627    0.0000 </r>
       <r>   52.4133    0.0000 </r>
       <r>   52.4133    0.0000 </r>
       <r>   54.1950    0.0000 </r>
       <r>   54.1950    0.0000 </r>
       <r>   56.0528    0.0000 </r>
       <r>   56.0528    0.0000 </r>
       <r>   56.2156    0.0000 </r>
       <r>   56.2156    0.0000 </r>
       <r>   56.8841    0.0000 </r>
       <r>   56.8841    0.0000 </r>
       <r>   57.3046    0.0000 </r>
       <r>   57.3046    0.0000 </r>
       <r>   59.7143    0.0000 </r>
       <r>   59.7143    0.0000 </r>
       <r>   60.1458    0.0000 </r>
       <r>   60.1458    0.0000 </r>
       <r>   60.2975    0.0000 </r>
       <r>   60.2975    0.0000 </r>
       <r>   61.2448    0.0000 </r>
       <r>   61.2448    0.0000 </r>
       <r>   61.5720    0.0000 </r>
       <r>   61.5720    0.0000 </r>
       <r>   61.6768    0.0000 </r>
       <r>   61.6768    0.0000 </r>
       <r>   62.6579    0.0000 </r>
       <r>   62.6579    0.0000 </r>
       <r>   63.3725    0.0000 </r>
       <r>   63.3725    0.0000 </r>
       <r>   63.6054    0.0000 </r>
       <r>   63.6054    0.0000 </r>
       <r>   64.5508    0.0000 </r>
       <r>   64.5508    0.0000 </r>
       <r>   64.7484    0.0000 </r>
       <r>   64.7484    0.0000 </r>
       <r>   66.6704    0.0000 </r>
       <r>   66.6704    0.0000 </r>
       <r>   68.6457    0.0000 </r>
       <r>   68.6457    0.0000 </r>
       <r>   68.6494    0.0000 </r>
       <r>   68.6494    0.0000 </r>
       <r>   68.8342    0.0000 </r>
       <r>   68.8342    0.0000 </r>
       <r>   69.0885    0.0000 </r>
       <r>   69.0885    0.0000 </r>
       <r>   69.3624    0.0000 </r>
       <r>   69.3624    0.0000 </r>
       <r>   69.3651    0.0000 </r>
       <r>   69.3651    0.0000 </r>
       <r>   70.0308    0.0000 </r>
       <r>   70.0308    0.0000 </r>
       <r>   70.2221    0.0000 </r>
       <r>   70.2221    0.0000 </r>
       <r>   70.2304    0.0000 </r>
       <r>   70.2304    0.0000 </r>
      </set>
      <set comment="kpoint 4">
       <r>  -43.7665    1.0000 </r>
       <r>  -43.7665    1.0000 </r>
       <r>  -43.7661    1.0000 </r>
       <r>  -43.7661    1.0000 </r>
       <r>  -39.3631    1.0000 </r>
       <r>  -39.3631    1.0000 </r>
       <r>  -39.3619    1.0000 </r>
       <r>  -39.3619    1.0000 </r>
       <r>  -39.3619    1.0000 </r>
       <r>  -39.3619    1.0000 </r>
       <r>  -16.8993    1.0000 </r>
       <r>  -16.8993    1.0000 </r>
       <r>   -5.3196    1.0000 </r>
       <r>   -5.3196    1.0000 </r>
       <r>   -2.4153    1.0000 </r>
       <r>   -2.4153    1.0000 </r>
       <r>   -1.1747    1.0000 </r>
       <r>   -1.1747    1.0000 </r>
       <r>    4.6133    0.0000 </r>
       <r>    4.6133    0.0000 </r>
       <r>    7.7364    0.0000 </r>
       <r>    7.7364    0.0000 </r>
       <r>    7.9014    0.0000 </r>
       <r>    7.9014    0.0000 </r>
       <r>    8.3368    0.0000 </r>
       <r>    8.3368    0.0000 </r>
       <r>   10.0240    0.0000 </r>
       <r>   10.0240    0.0000 </r>
       <r>   11.8226    0.0000 </r>
       <r>   11.8226    0.0000 </r>
       <r>   11.9702    0.0000 </r>
       <r>   11.9702    0.0000 </r>
       <r>   13.8547    0.0000 </r>
       <r>   13.8547    0.0000 </r>
       <r>   14.1116    0.0000 </r>
       <r>   14.1116    0.0000 </r>
       <r>   14.4587    0.0000 </r>
       <r>   14.4587    0.0000 </r>
       <r>   16.5291    0.0000 </r>
       <r>   16.5291    0.0000 </r>
       <r>   17.2114    0.0000 </r>
       <r>   17.2114    0.0000 </r>
       <r>   17.2321    0.0000 </r>
       <r>   17.2321    0.0000 </r>
       <r>   19.1900    0.0000 </r>
       <r>   19.1900    0.0000 </r>
       <r>   20.7203    0.0000 </r>
       <r>   20.7203    0.0000 </r>
       <r>   21.5616    0.0000 </r>
       <r>   21.5616    0.0000 </r>
       <r>   21.9138    0.0000 </r>
       <r>   21.9138    0.0000 </r>
       <r>   22.0675    0.0000 </r>
       <r>   22.0675    0.0000 </r>
       <r>   22.7117    0.0000 </r>
       <r>   22.7117    0.0000 </r>
       <r>   23.4403    0.0000 </r>
       <r>   23.4403    0.0000 </r>
       <r>   24.7539    0.0000 </r>
       <r>   24.7539    0.0000 </r>
       <r>   26.0149    0.0000 </r>
       <r>   26.0149    0.0000 </r>
       <r>   26.7515    0.0000 </r>
       <r>   26.7515    0.0000 </r>
       <r>   26.8691    0.0000 </r>
       <r>   26.8691    0.0000 </r>
       <r>   27.6525    0.0000 </r>
       <r>   27.6525    0.0000 </r>
       <r>   27.8302    0.0000 </r>
       <r>   27.8302    0.0000 </r>
       <r>   28.5802    0.0000 </r>
       <r>   28.5802    0.0000 </r>
       <r>   29.5265    0.0000 </r>
       <r>   29.5265    0.0000 </r>
       <r>   31.2101    0.0000 </r>
       <r>   31.2101    0.0000 </r>
       <r>   31.2204    0.0000 </r>
       <r>   31.2204    0.0000 </r>
       <r>   31.2737    0.0000 </r>
       <r>   31.2737    0.0000 </r>
       <r>   32.3453    0.0000 </r>
       <r>   32.3453    0.0000 </r>
       <r>   32.6885    0.0000 </r>
       <r>   32.6885    0.0000 </r>
       <r>   35.7363    0.0000 </r>
       <r>   35.7363    0.0000 </r>
       <r>   35.8203    0.0000 </r>
       <r>   35.8203    0.0000 </r>
       <r>   36.2700    0.0000 </r>
       <r>   36.2700    0.0000 </r>
       <r>   36.6056    0.0000 </r>
       <r>   36.6056    0.0000 </r>
       <r>   36.7679    0.0000 </r>
       <r>   36.7679    0.0000 </r>
       <r>   39.0380    0.0000 </r>
       <r>   39.0380    0.0000 </r>
       <r>   39.2580    0.0000 </r>
       <r>   39.2580    0.0000 </r>
       <r>   39.6458    0.0000 </r>
       <r>   39.6458    0.0000 </r>
       <r>   39.6621    0.0000 </r>
       <r>   39.6621    0.0000 </r>
       <r>   42.7370    0.0000 </r>
       <r>   42.7370    0.0000 </r>
       <r>   42.8058    0.0000 </r>
       <r>   42.8058    0.0000 </r>
       <r>   42.8380    0.0000 </r>
       <r>   42.8380    0.0000 </r>
       <r>   43.4508    0.0000 </r>
       <r>   43.4508    0.0000 </r>
       <r>   44.8707    0.0000 </r>
       <r>   44.8707    0.0000 </r>
       <r>   44.9767    0.0000 </r>
       <r>   44.9767    0.0000 </r>
       <r>   45.0878    0.0000 </r>
       <r>   45.0878    0.0000 </r>
       <r>   47.6174    0.0000 </r>
       <r>   47.6174    0.0000 </r>
       <r>   47.8492    0.0000 </r>
       <r>   47.8492    0.0000 </r>
       <r>   48.7964    0.0000 </r>
       <r>   48.7964    0.0000 </r>
       <r>   48.9797    0.0000 </r>
       <r>   48.9797    0.0000 </r>
       <r>   49.0624    0.0000 </r>
       <r>   49.0624    0.0000 </r>
       <r>   50.1272    0.0000 </r>
       <r>   50.1272    0.0000 </r>
       <r>   50.9277    0.0000 </r>
       <r>   50.9277    0.0000 </r>
       <r>   50.9449    0.0000 </r>
       <r>   50.9449    0.0000 </r>
       <r>   51.1221    0.0000 </r>
       <r>   51.1221    0.0000 </r>
       <r>   51.6227    0.0000 </r>
       <r>   51.6227    0.0000 </r>
       <r>   51.7814    0.0000 </r>
       <r>   51.7814    0.0000 </r>
       <r>   51.8751    0.0000 </r>
       <r>   51.8751    0.0000 </r>
       <r>   53.5328    0.0000 </r>
       <r>   53.5328    0.0000 </r>
       <r>   53.5696    0.0000 </r>
       <r>   53.5696    0.0000 </r>
       <r>   53.8631    0.0000 </r>
       <r>   53.8631    0.0000 </r>
       <r>   55.0480    0.0000 </r>
       <r>   55.0480    0.0000 </r>
       <r>   55.6270    0.0000 </r>
       <r>   55.6270    0.0000 </r>
       <r>   55.9951    0.0000 </r>
       <r>   55.9951    0.0000 </r>
       <r>   56.0837    0.0000 </r>
       <r>   56.0837    0.0000 </r>
       <r>   57.3015    0.0000 </r>
       <r>   57.3015    0.0000 </r>
       <r>   57.3390    0.0000 </r>
       <r>   57.3390    0.0000 </r>
       <r>   58.0170    0.0000 </r>
       <r>   58.0170    0.0000 </r>
       <r>   58.7716    0.0000 </r>
       <r>   58.7716    0.0000 </r>
       <r>   58.9821    0.0000 </r>
       <r>   58.9821    0.0000 </r>
       <r>   59.9152    0.0000 </r>
[...]
       <r>    40.5178     0.0000     0.0000 </r>
       <r>    40.9406     0.0000     0.0000 </r>
       <r>    41.3634     0.0000     0.0000 </r>
       <r>    41.7861     0.0000     0.0000 </r>
       <r>    42.2089     0.0000     0.0000 </r>
       <r>    42.6317     0.0000     0.0000 </r>
       <r>    43.0544     0.0000     0.0000 </r>
       <r>    43.4772     0.0000     0.0000 </r>
       <r>    43.9000     0.0000     0.0000 </r>
       <r>    44.3227     0.0000     0.0000 </r>
       <r>    44.7455     0.0000     0.0000 </r>
       <r>    45.1683     0.0000     0.0000 </r>
       <r>    45.5910     0.0000     0.0000 </r>
       <r>    46.0138     0.0000     0.0000 </r>
       <r>    46.4366     0.0000     0.0000 </r>
       <r>    46.8593     0.0000     0.0000 </r>
       <r>    47.2821     0.0000     0.0000 </r>
       <r>    47.7049     0.0000     0.0000 </r>
       <r>    48.1276     0.0000     0.0000 </r>
       <r>    48.5504     0.0000     0.0000 </r>
       <r>    48.9732     0.0000     0.0000 </r>
       <r>    49.3959     0.0000     0.0000 </r>
       <r>    49.8187     0.0000     0.0000 </r>
       <r>    50.2415     0.0000     0.0000 </r>
       <r>    50.6642     0.0000     0.0000 </r>
       <r>    51.0870     0.0000     0.0000 </r>
       <r>    51.5098     0.0000     0.0000 </r>
       <r>    51.9325     0.0000     0.0000 </r>
       <r>    52.3553     0.0000     0.0000 </r>
       <r>    52.7781     0.0000     0.0000 </r>
       <r>    53.2008     0.0000     0.0000 </r>
       <r>    53.6236     0.0000     0.0000 </r>
       <r>    54.0464     0.0000     0.0000 </r>
       <r>    54.4691     0.0000     0.0000 </r>
       <r>    54.8919     0.0000     0.0000 </r>
       <r>    55.3147     0.0000     0.0000 </r>
       <r>    55.7374     0.0000     0.0000 </r>
       <r>    56.1602     0.0000     0.0000 </r>
       <r>    56.5830     0.0000     0.0000 </r>
       <r>    57.0058     0.0000     0.0000 </r>
       <r>    57.4285     0.0000     0.0000 </r>
       <r>    57.8513     0.0000     0.0000 </r>
       <r>    58.2741     0.0000     0.0000 </r>
       <r>    58.6968     0.0000     0.0000 </r>
       <r>    59.1196     0.0000     0.0000 </r>
       <r>    59.5424     0.0000     0.0000 </r>
       <r>    59.9651     0.0000     0.0000 </r>
       <r>    60.3879     0.0000     0.0000 </r>
       <r>    60.8107     0.0000     0.0000 </r>
       <r>    61.2334     0.0000     0.0000 </r>
       <r>    61.6562     0.0000     0.0000 </r>
       <r>    62.0790     0.0000     0.0000 </r>
       <r>    62.5017     0.0000     0.0000 </r>
       <r>    62.9245     0.0000     0.0000 </r>
       <r>    63.3473     0.0000     0.0000 </r>
       <r>    63.7700     0.0000     0.0000 </r>
       <r>    64.1928     0.0000     0.0000 </r>
       <r>    64.6156     0.0000     0.0000 </r>
       <r>    65.0383     0.0000     0.0000 </r>
       <r>    65.4611     0.0000     0.0000 </r>
       <r>    65.8839     0.0000     0.0000 </r>
       <r>    66.3066     0.0000     0.0000 </r>
       <r>    66.7294     0.0000     0.0000 </r>
       <r>    67.1522     0.0000     0.0000 </r>
       <r>    67.5749     0.0000     0.0000 </r>
       <r>    67.9977     0.0000     0.0000 </r>
       <r>    68.4205     0.0000     0.0000 </r>
       <r>    68.8432     0.0000     0.0000 </r>
       <r>    69.2660     0.0000     0.0000 </r>
       <r>    69.6888     0.0000     0.0000 </r>
       <r>    70.1115     0.0000     0.0000 </r>
       <r>    70.5343     0.0000     0.0000 </r>
       <r>    70.9571     0.0000     0.0000 </r>
       <r>    71.3798     0.0000     0.0000 </r>
       <r>    71.8026     0.0000     0.0000 </r>
       <r>    72.2254     0.0000     0.0000 </r>
       <r>    72.6481     0.0000     0.0000 </r>
       <r>    73.0709     0.0000     0.0000 </r>
       <r>    73.4937     0.0000     0.0000 </r>
       <r>    73.9164     0.0000     0.0000 </r>
       <r>    74.3392     0.0000     0.0000 </r>
       <r>    74.7620     0.0000     0.0000 </r>
       <r>    75.1847     0.0000     0.0000 </r>
       <r>    75.6075     0.0000     0.0000 </r>
       <r>    76.0303     0.0000     0.0000 </r>
       <r>    76.4530     0.0000     0.0000 </r>
       <r>    76.8758     0.0000     0.0000 </r>
       <r>    77.2986     0.0000     0.0000 </r>
      </set>
      <set comment="spin 4">
       <r>   -49.5316     0.0000     0.0000 </r>
       <r>   -49.1088     0.0000     0.0000 </r>
       <r>   -48.6860     0.0000     0.0000 </r>
       <r>   -48.2633     0.0000     0.0000 </r>
       <r>   -47.8405     0.0000     0.0000 </r>
       <r>   -47.4177     0.0000     0.0000 </r>
       <r>   -46.9950     0.0000     0.0000 </r>
       <r>   -46.5722     0.0000     0.0000 </r>
       <r>   -46.1494     0.0000     0.0000 </r>
       <r>   -45.7267     0.0000     0.0000 </r>
       <r>   -45.3039     0.0000     0.0000 </r>
       <r>   -44.8811     0.0000     0.0000 </r>
       <r>   -44.4584     0.0000     0.0000 </r>
       <r>   -44.0356     0.0000     0.0000 </r>
       <r>   -43.6128     0.0000     0.0000 </r>
       <r>   -43.1901     0.0000     0.0000 </r>
       <r>   -42.7673     0.0000     0.0000 </r>
       <r>   -42.3445     0.0000     0.0000 </r>
       <r>   -41.9218     0.0000     0.0000 </r>
       <r>   -41.4990     0.0000     0.0000 </r>
       <r>   -41.0762     0.0000     0.0000 </r>
       <r>   -40.6535     0.0000     0.0000 </r>
       <r>   -40.2307     0.0000     0.0000 </r>
       <r>   -39.8079     0.0000     0.0000 </r>
       <r>   -39.3852     0.0000     0.0000 </r>
       <r>   -38.9624     0.0000     0.0000 </r>
       <r>   -38.5396     0.0000     0.0000 </r>
       <r>   -38.1169     0.0000     0.0000 </r>
       <r>   -37.6941     0.0000     0.0000 </r>
       <r>   -37.2713     0.0000     0.0000 </r>
       <r>   -36.8486     0.0000     0.0000 </r>
       <r>   -36.4258     0.0000     0.0000 </r>
       <r>   -36.0030     0.0000     0.0000 </r>
       <r>   -35.5803     0.0000     0.0000 </r>
       <r>   -35.1575     0.0000     0.0000 </r>
       <r>   -34.7347     0.0000     0.0000 </r>
       <r>   -34.3120     0.0000     0.0000 </r>
       <r>   -33.8892     0.0000     0.0000 </r>
       <r>   -33.4664     0.0000     0.0000 </r>
       <r>   -33.0437     0.0000     0.0000 </r>
       <r>   -32.6209     0.0000     0.0000 </r>
       <r>   -32.1981     0.0000     0.0000 </r>
       <r>   -31.7754     0.0000     0.0000 </r>
       <r>   -31.3526     0.0000     0.0000 </r>
       <r>   -30.9298     0.0000     0.0000 </r>
       <r>   -30.5071     0.0000     0.0000 </r>
       <r>   -30.0843     0.0000     0.0000 </r>
       <r>   -29.6615     0.0000     0.0000 </r>
       <r>   -29.2388     0.0000     0.0000 </r>
       <r>   -28.8160     0.0000     0.0000 </r>
       <r>   -28.3932     0.0000     0.0000 </r>
       <r>   -27.9705     0.0000     0.0000 </r>
       <r>   -27.5477     0.0000     0.0000 </r>
       <r>   -27.1249     0.0000     0.0000 </r>
       <r>   -26.7022     0.0000     0.0000 </r>
       <r>   -26.2794     0.0000     0.0000 </r>
       <r>   -25.8566     0.0000     0.0000 </r>
       <r>   -25.4338     0.0000     0.0000 </r>
       <r>   -25.0111     0.0000     0.0000 </r>
       <r>   -24.5883     0.0000     0.0000 </r>
       <r>   -24.1655     0.0000     0.0000 </r>
       <r>   -23.7428     0.0000     0.0000 </r>
       <r>   -23.3200     0.0000     0.0000 </r>
       <r>   -22.8972     0.0000     0.0000 </r>
       <r>   -22.4745     0.0000     0.0000 </r>
       <r>   -22.0517     0.0000     0.0000 </r>
       <r>   -21.6289     0.0000     0.0000 </r>
       <r>   -21.2062     0.0000     0.0000 </r>
       <r>   -20.7834     0.0000     0.0000 </r>
       <r>   -20.3606     0.0000     0.0000 </r>
       <r>   -19.9379     0.0000     0.0000 </r>
       <r>   -19.5151     0.0000     0.0000 </r>
       <r>   -19.0923     0.0000     0.0000 </r>
       <r>   -18.6696     0.0000     0.0000 </r>
       <r>   -18.2468     0.0000     0.0000 </r>
       <r>   -17.8240     0.0000     0.0000 </r>
       <r>   -17.4013     0.0000     0.0000 </r>
       <r>   -16.9785     0.0000     0.0000 </r>
       <r>   -16.5557     0.0000     0.0000 </r>
       <r>   -16.1330     0.0000     0.0000 </r>
       <r>   -15.7102     0.0000     0.0000 </r>
       <r>   -15.2874     0.0000     0.0000 </r>
       <r>   -14.8647     0.0000     0.0000 </r>
       <r>   -14.4419     0.0000     0.0000 </r>
       <r>   -14.0191     0.0000     0.0000 </r>
       <r>   -13.5964     0.0000     0.0000 </r>
       <r>   -13.1736     0.0000     0.0000 </r>
       <r>   -12.7508     0.0000     0.0000 </r>
       <r>   -12.3281     0.0000     0.0000 </r>
       <r>   -11.9053     0.0000     0.0000 </r>
       <r>   -11.4825     0.0000     0.0000 </r>
       <r>   -11.0598     0.0000     0.0000 </r>
       <r>   -10.6370     0.0000     0.0000 </r>
       <r>   -10.2142     0.0000     0.0000 </r>
       <r>    -9.7915     0.0000     0.0000 </r>
       <r>    -9.3687     0.0000     0.0000 </r>
       <r>    -8.9459     0.0000     0.0000 </r>
       <r>    -8.5232     0.0000     0.0000 </r>
       <r>    -8.1004     0.0000     0.0000 </r>
       <r>    -7.6776     0.0000     0.0000 </r>
       <r>    -7.2549     0.0000     0.0000 </r>
       <r>    -6.8321     0.0000     0.0000 </r>
       <r>    -6.4093     0.0000     0.0000 </r>
       <r>    -5.9866     0.0000     0.0000 </r>
       <r>    -5.5638     0.0000     0.0000 </r>
       <r>    -5.1410     0.0000     0.0000 </r>
       <r>    -4.7183     0.0000     0.0000 </r>
       <r>    -4.2955     0.0000     0.0000 </r>
       <r>    -3.8727     0.0000     0.0000 </r>
       <r>    -3.4500     0.0000     0.0000 </r>
       <r>    -3.0272     0.0000     0.0000 </r>
       <r>    -2.6044     0.0000     0.0000 </r>
       <r>    -2.1817     0.0000     0.0000 </r>
       <r>    -1.7589     0.0000     0.0000 </r>
       <r>    -1.3361     0.0000     0.0000 </r>
       <r>    -0.9134     0.0000     0.0000 </r>
       <r>    -0.4906     0.0000     0.0000 </r>
       <r>    -0.0678     0.0000     0.0000 </r>
       <r>     0.3549     0.0000     0.0000 </r>
       <r>     0.7777     0.0000     0.0000 </r>
       <r>     1.2005     0.0000     0.0000 </r>
       <r>     1.6232     0.0000     0.0000 </r>
       <r>     2.0460     0.0000     0.0000 </r>
       <r>     2.4688     0.0000     0.0000 </r>
       <r>     2.8916     0.0000     0.0000 </r>
       <r>     3.3143     0.0000     0.0000 </r>
       <r>     3.7371     0.0000     0.0000 </r>
       <r>     4.1599     0.0000     0.0000 </r>
       <r>     4.5826     0.0000     0.0000 </r>
       <r>     5.0054     0.0000     0.0000 </r>
       <r>     5.4282     0.0000     0.0000 </r>
       <r>     5.8509     0.0000     0.0000 </r>
       <r>     6.2737     0.0000     0.0000 </r>
       <r>     6.6965     0.0000     0.0000 </r>
       <r>     7.1192     0.0000     0.0000 </r>
       <r>     7.5420     0.0000     0.0000 </r>
       <r>     7.9648     0.0000     0.0000 </r>
       <r>     8.3875     0.0000     0.0000 </r>
       <r>     8.8103     0.0000     0.0000 </r>
       <r>     9.2331     0.0000     0.0000 </r>
       <r>     9.6558     0.0000     0.0000 </r>
       <r>    10.0786     0.0000     0.0000 </r>
       <r>    10.5014     0.0000     0.0000 </r>
       <r>    10.9241     0.0000     0.0000 </r>
       <r>    11.3469     0.0000     0.0000 </r>
       <r>    11.7697     0.0000     0.0000 </r>
       <r>    12.1924     0.0000     0.0000 </r>
       <r>    12.6152     0.0000     0.0000 </r>
       <r>    13.0380     0.0000     0.0000 </r>
       <r>    13.4607     0.0000     0.0000 </r>
       <r>    13.8835     0.0000     0.0000 </r>
       <r>    14.3063     0.0000     0.0000 </r>
       <r>    14.7290     0.0000     0.0000 </r>
       <r>    15.1518     0.0000     0.0000 </r>
       <r>    15.5746     0.0000     0.0000 </r>
       <r>    15.9973     0.0000     0.0000 </r>
       <r>    16.4201     0.0000     0.0000 </r>
       <r>    16.8429     0.0000     0.0000 </r>
       <r>    17.2656     0.0000     0.0000 </r>
       <r>    17.6884     0.0000     0.0000 </r>
       <r>    18.1112     0.0000     0.0000 </r>
       <r>    18.5339     0.0000     0.0000 </r>
       <r>    18.9567     0.0000     0.0000 </r>
       <r>    19.3795     0.0000     0.0000 </r>
       <r>    19.8022     0.0000     0.0000 </r>
       <r>    20.2250     0.0000     0.0000 </r>
       <r>    20.6478     0.0000     0.0000 </r>
       <r>    21.0705     0.0000     0.0000 </r>
       <r>    21.4933     0.0000     0.0000 </r>
       <r>    21.9161     0.0000     0.0000 </r>
       <r>    22.3388     0.0000     0.0000 </r>
       <r>    22.7616     0.0000     0.0000 </r>
       <r>    23.1844     0.0000     0.0000 </r>
       <r>    23.6071     0.0000     0.0000 </r>
       <r>    24.0299     0.0000     0.0000 </r>
       <r>    24.4527     0.0000     0.0000 </r>
       <r>    24.8754     0.0000     0.0000 </r>
       <r>    25.2982     0.0000     0.0000 </r>
       <r>    25.7210     0.0000     0.0000 </r>
       <r>    26.1437     0.0000     0.0000 </r>
       <r>    26.5665     0.0000     0.0000 </r>
       <r>    26.9893     0.0000     0.0000 </r>
       <r>    27.4120     0.0000     0.0000 </r>
       <r>    27.8348     0.0000     0.0000 </r>
       <r>    28.2576     0.0000     0.0000 </r>
       <r>    28.6803     0.0000     0.0000 </r>
       <r>    29.1031     0.0000     0.0000 </r>
       <r>    29.5259     0.0000     0.0000 </r>
       <r>    29.9487     0.0000     0.0000 </r>
       <r>    30.3714     0.0000     0.0000 </r>
       <r>    30.7942     0.0000     0.0000 </r>
       <r>    31.2170     0.0000     0.0000 </r>
       <r>    31.6397     0.0000     0.0000 </r>
       <r>    32.0625     0.0000     0.0000 </r>
       <r>    32.4853     0.0000     0.0000 </r>
       <r>    32.9080     0.0000     0.0000 </r>
       <r>    33.3308     0.0000     0.0000 </r>
       <r>    33.7536     0.0000     0.0000 </r>
       <r>    34.1763     0.0000     0.0000 </r>
       <r>    34.5991     0.0000     0.0000 </r>
       <r>    35.0219     0.0000     0.0000 </r>
       <r>    35.4446     0.0000     0.0000 </r>
       <r>    35.8674     0.0000     0.0000 </r>
       <r>    36.2902     0.0000     0.0000 </r>
       <r>    36.7129     0.0000     0.0000 </r>
       <r>    37.1357     0.0000     0.0000 </r>
       <r>    37.5585     0.0000     0.0000 </r>
       <r>    37.9812     0.0000     0.0000 </r>
       <r>    38.4040     0.0000     0.0000 </r>
       <r>    38.8268     0.0000     0.0000 </r>
       <r>    39.2495     0.0000     0.0000 </r>
       <r>    39.6723     0.0000     0.0000 </r>
       <r>    40.0951     0.0000     0.0000 </r>
       <r>    40.5178     0.0000     0.0000 </r>
       <r>    40.9406     0.0000     0.0000 </r>
       <r>    41.3634     0.0000     0.0000 </r>
       <r>    41.7861     0.0000     0.0000 </r>
       <r>    42.2089     0.0000     0.0000 </r>
       <r>    42.6317     0.0000     0.0000 </r>
       <r>    43.0544     0.0000     0.0000 </r>
       <r>    43.4772     0.0000     0.0000 </r>
       <r>    43.9000     0.0000     0.0000 </r>
       <r>    44.3227     0.0000     0.0000 </r>
       <r>    44.7455     0.0000     0.0000 </r>
       <r>    45.1683     0.0000     0.0000 </r>
       <r>    45.5910     0.0000     0.0000 </r>
       <r>    46.0138     0.0000     0.0000 </r>
       <r>    46.4366     0.0000     0.0000 </r>
       <r>    46.8593     0.0000     0.0000 </r>
       <r>    47.2821     0.0000     0.0000 </r>
       <r>    47.7049     0.0000     0.0000 </r>
       <r>    48.1276     0.0000     0.0000 </r>
       <r>    48.5504     0.0000     0.0000 </r>
       <r>    48.9732     0.0000     0.0000 </r>
       <r>    49.3959     0.0000     0.0000 </r>
       <r>    49.8187     0.0000     0.0000 </r>
       <r>    50.2415     0.0000     0.0000 </r>
       <r>    50.6642     0.0000     0.0000 </r>
       <r>    51.0870     0.0000     0.0000 </r>
       <r>    51.5098     0.0000     0.0000 </r>
       <r>    51.9325     0.0000     0.0000 </r>
       <r>    52.3553     0.0000     0.0000 </r>
       <r>    52.7781     0.0000     0.0000 </r>
       <r>    53.2008     0.0000     0.0000 </r>
       <r>    53.6236     0.0000     0.0000 </r>
       <r>    54.0464     0.0000     0.0000 </r>
       <r>    54.4691     0.0000     0.0000 </r>
       <r>    54.8919     0.0000     0.0000 </r>
       <r>    55.3147     0.0000     0.0000 </r>
       <r>    55.7374     0.0000     0.0000 </r>
       <r>    56.1602     0.0000     0.0000 </r>
       <r>    56.5830     0.0000     0.0000 </r>
       <r>    57.0058     0.0000     0.0000 </r>
       <r>    57.4285     0.0000     0.0000 </r>
       <r>    57.8513     0.0000     0.0000 </r>
       <r>    58.2741     0.0000     0.0000 </r>
       <r>    58.6968     0.0000     0.0000 </r>
       <r>    59.1196     0.0000     0.0000 </r>
       <r>    59.5424     0.0000     0.0000 </r>
       <r>    59.9651     0.0000     0.0000 </r>
       <r>    60.3879     0.0000     0.0000 </r>
       <r>    60.8107     0.0000     0.0000 </r>
       <r>    61.2334     0.0000     0.0000 </r>
       <r>    61.6562     0.0000     0.0000 </r>
       <r>    62.0790     0.0000     0.0000 </r>
       <r>    62.5017     0.0000     0.0000 </r>
       <r>    62.9245     0.0000     0.0000 </r>
       <r>    63.3473     0.0000     0.0000 </r>
       <r>    63.7700     0.0000     0.0000 </r>
       <r>    64.1928     0.0000     0.0000 </r>
       <r>    64.6156     0.0000     0.0000 </r>
       <r>    65.0383     0.0000     0.0000 </r>
       <r>    65.4611     0.0000     0.0000 </r>
       <r>    65.8839     0.0000     0.0000 </r>
       <r>    66.3066     0.0000     0.0000 </r>
       <r>    66.7294     0.0000     0.0000 </r>
       <r>    67.1522     0.0000     0.0000 </r>
       <r>    67.5749     0.0000     0.0000 </r>
       <r>    67.9977     0.0000     0.0000 </r>
       <r>    68.4205     0.0000     0.0000 </r>
       <r>    68.8432     0.0000     0.0000 </r>
       <r>    69.2660     0.0000     0.0000 </r>
       <r>    69.6888     0.0000     0.0000 </r>
       <r>    70.1115     0.0000     0.0000 </r>
       <r>    70.5343     0.0000     0.0000 </r>
       <r>    70.9571     0.0000     0.0000 </r>
       <r>    71.3798     0.0000     0.0000 </r>
       <r>    71.8026     0.0000     0.0000 </r>
       <r>    72.2254     0.0000     0.0000 </r>
       <r>    72.6481     0.0000     0.0000 </r>
       <r>    73.0709     0.0000     0.0000 </r>
       <r>    73.4937     0.0000     0.0000 </r>
       <r>    73.9164     0.0000     0.0000 </r>
       <r>    74.3392     0.0000     0.0000 </r>
       <r>    74.7620     0.0000     0.0000 </r>
       <r>    75.1847     0.0000     0.0000 </r>
       <r>    75.6075     0.0000     0.0000 </r>
       <r>    76.0303     0.0000     0.0000 </r>
       <r>    76.4530     0.0000     0.0000 </r>
       <r>    76.8758     0.0000     0.0000 </r>
       <r>    77.2986     0.0000     0.0000 </r>
      </set>
     </set>
    </array>
   </total>
  </dos>
 </calculation>
 <structure name="finalpos" >
  <crystal>
   <varray name="basis" >
    <v>       4.41457561       0.00000000       0.00000000 </v>
    <v>       2.20728780       3.82313462      -0.00000000 </v>
    <v>       2.20728780       1.27437821       3.60448589 </v>
   </varray>
   <i name="volume">     60.83477135 </i>
   <varray name="rec_basis" >
    <v>       0.22652234      -0.13078273      -0.09247736 </v>
    <v>       0.00000000       0.26156547      -0.09247736 </v>
    <v>      -0.00000000       0.00000000       0.27743208 </v>
   </varray>
  </crystal>
  <varray name="positions" >
   <v>       0.00000000       0.00000000       0.00000000 </v>
  </varray>
  <varray name="velocities" >
   <v>       0.00000000       0.00000000       0.00000000 </v>
  </varray>
 </structure>
</modeling>
