   1   1   0   0
  0.7147437E+02  0.4658239E-09  0.4658239E-09  0.4658239E-09  0.1000000E-15
  1.000000000000000E-004
  CAR 
 Og_FCC                                  
     15.13685620    -34.18356321  301      1.93279415      1.00000000
    -34.184  0.0000E+00  0.0000E+00
    -34.019  0.0000E+00  0.0000E+00
    -33.855  0.0000E+00  0.0000E+00
    -33.690  0.0000E+00  0.0000E+00
    -33.526  0.0000E+00  0.0000E+00
    -33.362  0.0000E+00  0.0000E+00
    -33.197  0.0000E+00  0.0000E+00
    -33.033  0.0000E+00  0.0000E+00
    -32.868 -0.2880E-35 -0.4735E-36
    -32.704 -0.2769E-23 -0.4553E-24
    -32.540 -0.1140E-13 -0.1875E-14
    -32.375 -0.1850E-06 -0.3041E-07
    -32.211 -0.1117E-01 -0.1837E-02
    -32.046 -0.7136E+00 -0.1192E+00
    -31.882  0.2301E+02  0.3664E+01
    -31.718  0.2130E+01  0.4014E+01
    -31.553 -0.8470E-01  0.4000E+01
    -31.389 -0.7272E-05  0.4000E+01
    -31.224 -0.2075E-11  0.4000E+01
    -31.060  0.0000E+00  0.4000E+01
    -30.896  0.0000E+00  0.4000E+01
    -30.731  0.0000E+00  0.4000E+01
    -30.567  0.0000E+00  0.4000E+01
    -30.402  0.0000E+00  0.4000E+01
    -30.238  0.0000E+00  0.4000E+01
    -30.074  0.0000E+00  0.4000E+01
    -29.909  0.0000E+00  0.4000E+01
    -29.745  0.0000E+00  0.4000E+01
    -29.580  0.0000E+00  0.4000E+01
    -29.416  0.0000E+00  0.4000E+01
    -29.252  0.0000E+00  0.4000E+01
    -29.087  0.0000E+00  0.4000E+01
    -28.923  0.0000E+00  0.4000E+01
    -28.758  0.0000E+00  0.4000E+01
    -28.594  0.0000E+00  0.4000E+01
    -28.430  0.0000E+00  0.4000E+01
    -28.265  0.0000E+00  0.4000E+01
    -28.101  0.0000E+00  0.4000E+01
    -27.936  0.0000E+00  0.4000E+01
    -27.772  0.0000E+00  0.4000E+01
    -27.608  0.0000E+00  0.4000E+01
    -27.443  0.0000E+00  0.4000E+01
    -27.279  0.0000E+00  0.4000E+01
    -27.114  0.0000E+00  0.4000E+01
    -26.950  0.0000E+00  0.4000E+01
    -26.786  0.0000E+00  0.4000E+01
    -26.621  0.0000E+00  0.4000E+01
    -26.457  0.0000E+00  0.4000E+01
    -26.292  0.0000E+00  0.4000E+01
    -26.128 -0.1500E-31  0.4000E+01
    -25.963 -0.3199E-20  0.4000E+01
    -25.799 -0.2816E-11  0.4000E+01
    -25.635 -0.1016E-04  0.4000E+01
    -25.470 -0.1223E+00  0.3980E+01
    -25.306  0.3026E+01  0.4477E+01
    -25.141  0.3465E+02  0.1017E+02
    -24.977 -0.1040E+01  0.1000E+02
    -24.813 -0.1765E-01  0.1000E+02
    -24.648 -0.3040E-06  0.1000E+02
    -24.484 -0.1945E-13  0.1000E+02
    -24.319  0.0000E+00  0.1000E+02
    -24.155  0.0000E+00  0.1000E+02
    -23.991  0.0000E+00  0.1000E+02
    -23.826  0.0000E+00  0.1000E+02
    -23.662  0.0000E+00  0.1000E+02
    -23.497  0.0000E+00  0.1000E+02
    -23.333  0.0000E+00  0.1000E+02
    -23.169  0.0000E+00  0.1000E+02
    -23.004  0.0000E+00  0.1000E+02
    -22.840  0.0000E+00  0.1000E+02
    -22.675  0.0000E+00  0.1000E+02
    -22.511 -0.2515E-36  0.1000E+02
    -22.347 -0.2087E-24  0.1000E+02
    -22.182 -0.8134E-15  0.1000E+02
    -22.018 -0.1557E-07  0.1000E+02
    -21.853 -0.1477E-02  0.1000E+02
    -21.689 -0.3770E+00  0.9938E+01
    -21.525  0.9140E+01  0.1144E+02
    -21.360  0.3534E+01  0.1202E+02
    -21.196 -0.1299E+00  0.1200E+02
    -21.031 -0.4438E-04  0.1200E+02
    -20.867 -0.4817E-10  0.1200E+02
    -20.703  0.0000E+00  0.1200E+02
    -20.538  0.0000E+00  0.1200E+02
    -20.374  0.0000E+00  0.1200E+02
    -20.209  0.0000E+00  0.1200E+02
    -20.045  0.0000E+00  0.1200E+02
    -19.881  0.0000E+00  0.1200E+02
    -19.716  0.0000E+00  0.1200E+02
    -19.552  0.0000E+00  0.1200E+02
    -19.387  0.0000E+00  0.1200E+02
    -19.223  0.0000E+00  0.1200E+02
    -19.059  0.0000E+00  0.1200E+02
    -18.894  0.0000E+00  0.1200E+02
    -18.730  0.0000E+00  0.1200E+02
    -18.565  0.0000E+00  0.1200E+02
    -18.401  0.0000E+00  0.1200E+02
    -18.237  0.0000E+00  0.1200E+02
    -18.072  0.0000E+00  0.1200E+02
    -17.908  0.0000E+00  0.1200E+02
    -17.743  0.0000E+00  0.1200E+02
    -17.579  0.0000E+00  0.1200E+02
    -17.415  0.0000E+00  0.1200E+02
    -17.250  0.0000E+00  0.1200E+02
    -17.086  0.0000E+00  0.1200E+02
    -16.921  0.0000E+00  0.1200E+02
    -16.757  0.0000E+00  0.1200E+02
    -16.593  0.0000E+00  0.1200E+02
    -16.428  0.0000E+00  0.1200E+02
    -16.264  0.0000E+00  0.1200E+02
    -16.099  0.0000E+00  0.1200E+02
    -15.935  0.0000E+00  0.1200E+02
    -15.771  0.0000E+00  0.1200E+02
    -15.606  0.0000E+00  0.1200E+02
    -15.442  0.0000E+00  0.1200E+02
    -15.277  0.0000E+00  0.1200E+02
    -15.113  0.0000E+00  0.1200E+02
    -14.949  0.0000E+00  0.1200E+02
    -14.784  0.0000E+00  0.1200E+02
    -14.620  0.0000E+00  0.1200E+02
    -14.455  0.0000E+00  0.1200E+02
    -14.291  0.0000E+00  0.1200E+02
    -14.127  0.0000E+00  0.1200E+02
    -13.962  0.0000E+00  0.1200E+02
    -13.798  0.0000E+00  0.1200E+02
    -13.633  0.0000E+00  0.1200E+02
    -13.469  0.0000E+00  0.1200E+02
    -13.305  0.0000E+00  0.1200E+02
    -13.140  0.0000E+00  0.1200E+02
    -12.976  0.0000E+00  0.1200E+02
    -12.811  0.0000E+00  0.1200E+02
    -12.647  0.0000E+00  0.1200E+02
    -12.483  0.0000E+00  0.1200E+02
    -12.318  0.0000E+00  0.1200E+02
    -12.154  0.0000E+00  0.1200E+02
    -11.989  0.0000E+00  0.1200E+02
    -11.825  0.0000E+00  0.1200E+02
    -11.661  0.0000E+00  0.1200E+02
    -11.496  0.0000E+00  0.1200E+02
    -11.332  0.0000E+00  0.1200E+02
    -11.167  0.0000E+00  0.1200E+02
    -11.003  0.0000E+00  0.1200E+02
    -10.839  0.0000E+00  0.1200E+02
    -10.674  0.0000E+00  0.1200E+02
    -10.510  0.0000E+00  0.1200E+02
    -10.345  0.0000E+00  0.1200E+02
    -10.181  0.0000E+00  0.1200E+02
    -10.017  0.0000E+00  0.1200E+02
     -9.852  0.0000E+00  0.1200E+02
     -9.688 -0.1695E-39  0.1200E+02
     -9.523 -0.8592E-27  0.1200E+02
     -9.359 -0.1279E-16  0.1200E+02
     -9.195 -0.8072E-09  0.1200E+02
     -9.030 -0.2190E-03  0.1200E+02
     -8.866 -0.1824E+00  0.1197E+02
     -8.701  0.4415E+01  0.1270E+02
     -8.537  0.7698E+01  0.1396E+02
     -8.373  0.2551E+00  0.1400E+02
     -8.208 -0.2081E-01  0.1400E+02
     -8.044 -0.2424E-04  0.1400E+02
     -7.879 -0.1304E-09  0.1400E+02
     -7.715 -0.3705E-17  0.1400E+02
     -7.551  0.0000E+00  0.1400E+02
     -7.386  0.0000E+00  0.1400E+02
     -7.222  0.0000E+00  0.1400E+02
     -7.057  0.0000E+00  0.1400E+02
     -6.893  0.0000E+00  0.1400E+02
     -6.729  0.0000E+00  0.1400E+02
     -6.564  0.0000E+00  0.1400E+02
     -6.400  0.0000E+00  0.1400E+02
     -6.235  0.0000E+00  0.1400E+02
     -6.071  0.0000E+00  0.1400E+02
     -5.907  0.0000E+00  0.1400E+02
     -5.742  0.0000E+00  0.1400E+02
     -5.578  0.0000E+00  0.1400E+02
     -5.413  0.0000E+00  0.1400E+02
     -5.249  0.0000E+00  0.1400E+02
     -5.085  0.0000E+00  0.1400E+02
     -4.920  0.0000E+00  0.1400E+02
     -4.756  0.0000E+00  0.1400E+02
     -4.591  0.0000E+00  0.1400E+02
     -4.427  0.0000E+00  0.1400E+02
     -4.263  0.0000E+00  0.1400E+02
     -4.098  0.0000E+00  0.1400E+02
     -3.934  0.0000E+00  0.1400E+02
     -3.769  0.0000E+00  0.1400E+02
     -3.605  0.0000E+00  0.1400E+02
     -3.441  0.0000E+00  0.1400E+02
     -3.276  0.0000E+00  0.1400E+02
     -3.112  0.0000E+00  0.1400E+02
     -2.947  0.0000E+00  0.1400E+02
     -2.783  0.0000E+00  0.1400E+02
     -2.618  0.0000E+00  0.1400E+02
     -2.454  0.0000E+00  0.1400E+02
     -2.290  0.0000E+00  0.1400E+02
     -2.125  0.0000E+00  0.1400E+02
     -1.961  0.0000E+00  0.1400E+02
     -1.796  0.0000E+00  0.1400E+02
     -1.632  0.0000E+00  0.1400E+02
     -1.468  0.0000E+00  0.1400E+02
     -1.303  0.0000E+00  0.1400E+02
     -1.139 -0.1399E-27  0.1400E+02
     -0.974 -0.2086E-17  0.1400E+02
     -0.810 -0.1277E-09  0.1400E+02
     -0.646 -0.3334E-04  0.1400E+02
     -0.481 -0.3613E-01  0.1399E+02
     -0.317  0.7425E+00  0.1412E+02
     -0.152  0.6883E+01  0.1525E+02
      0.012  0.2064E+01  0.1559E+02
      0.176  0.8729E+00  0.1573E+02
      0.341  0.5960E+00  0.1583E+02
      0.505  0.8397E+00  0.1597E+02
      0.670  0.2427E+01  0.1637E+02
      0.834  0.1923E+01  0.1668E+02
      0.998  0.2186E+01  0.1704E+02
      1.163  0.1517E+01  0.1729E+02
      1.327  0.1418E+01  0.1752E+02
      1.492  0.1426E+01  0.1776E+02
      1.656  0.9079E+00  0.1791E+02
      1.820  0.4625E+00  0.1798E+02
      1.985  0.1069E+00  0.1800E+02
      2.149 -0.4814E-02  0.1800E+02
      2.314 -0.1884E-03  0.1800E+02
      2.478  0.1646E-01  0.1800E+02
      2.642  0.4407E-03  0.1800E+02
      2.807 -0.3097E-04  0.1800E+02
      2.971 -0.5340E-03  0.1800E+02
      3.136  0.1403E-01  0.1800E+02
      3.300  0.1217E+00  0.1802E+02
      3.464  0.9213E-01  0.1804E+02
      3.629  0.5821E-02  0.1804E+02
      3.793  0.1886E-01  0.1804E+02
      3.958  0.1803E+00  0.1807E+02
      4.122  0.1996E+00  0.1811E+02
      4.286  0.3508E+00  0.1816E+02
      4.451 -0.2811E-01  0.1816E+02
      4.615  0.3201E+00  0.1821E+02
      4.780  0.6468E+00  0.1832E+02
      4.944  0.6144E+00  0.1842E+02
      5.108  0.1021E+01  0.1859E+02
      5.273  0.8677E+00  0.1873E+02
      5.437  0.1222E+01  0.1893E+02
      5.602  0.1608E+01  0.1920E+02
      5.766  0.1377E+01  0.1942E+02
      5.930  0.1665E+01  0.1970E+02
      6.095  0.9857E+00  0.1986E+02
      6.259  0.9011E+00  0.2001E+02
      6.424  0.2998E-01  0.2001E+02
      6.588  0.2142E+00  0.2005E+02
      6.752  0.7804E+00  0.2017E+02
      6.917  0.9025E+00  0.2032E+02
      7.081  0.3317E+01  0.2087E+02
      7.246  0.1740E+01  0.2115E+02
      7.410  0.7301E+00  0.2127E+02
      7.574  0.1149E+01  0.2146E+02
      7.739  0.1048E+01  0.2163E+02
      7.903  0.2705E+01  0.2208E+02
      8.068  0.2855E+01  0.2255E+02
      8.232  0.1239E+01  0.2275E+02
      8.396  0.8414E+00  0.2289E+02
      8.561  0.3798E+01  0.2352E+02
      8.725  0.1235E+01  0.2372E+02
      8.890  0.9692E+00  0.2388E+02
      9.054  0.9248E+00  0.2403E+02
      9.218  0.1505E+01  0.2428E+02
      9.383  0.1107E+01  0.2446E+02
      9.547  0.3473E+01  0.2503E+02
      9.712  0.2183E+01  0.2539E+02
      9.876  0.1707E+01  0.2567E+02
     10.040  0.1277E+01  0.2588E+02
     10.205  0.1408E+01  0.2611E+02
     10.369  0.7760E+00  0.2624E+02
     10.534  0.9776E+00  0.2640E+02
     10.698  0.2628E+01  0.2683E+02
     10.862  0.1552E+01  0.2709E+02
     11.027  0.1267E+01  0.2729E+02
     11.191  0.1557E+01  0.2755E+02
     11.356  0.8901E+00  0.2770E+02
     11.520  0.7553E+00  0.2782E+02
     11.684  0.1336E+00  0.2784E+02
     11.849  0.2931E+00  0.2789E+02
     12.013  0.1956E+00  0.2792E+02
     12.178  0.2506E+00  0.2796E+02
     12.342  0.1012E+00  0.2798E+02
     12.506  0.7262E-01  0.2799E+02
     12.671  0.2546E-01  0.2800E+02
     12.835  0.2713E-03  0.2800E+02
     13.000  0.1582E-01  0.2800E+02
     13.164 -0.4807E-03  0.2800E+02
     13.328 -0.7924E-05  0.2800E+02
     13.493 -0.1343E-09  0.2800E+02
     13.657 -0.7411E-17  0.2800E+02
     13.822  0.0000E+00  0.2800E+02
     13.986  0.0000E+00  0.2800E+02
     14.150  0.0000E+00  0.2800E+02
     14.315  0.0000E+00  0.2800E+02
     14.479  0.0000E+00  0.2800E+02
     14.644  0.0000E+00  0.2800E+02
     14.808  0.0000E+00  0.2800E+02
     14.972  0.0000E+00  0.2800E+02
     15.137  0.0000E+00  0.2800E+02
