    1    1    1    1
  0.7147437E+02  0.4658239E-09  0.4658239E-09  0.4658239E-09  0.1000000E-15
  1.000000000000000E-004
  CAR 
 Og_FCC                                  
     18    365     28
 
  0.0000000E+00  0.0000000E+00  0.0000000E+00  0.1371742E-02
    1      -31.941726   1.000000
    2      -31.941726   1.000000
    3      -31.941725   1.000000
    4      -31.941725   1.000000
    5      -25.248511   1.000000
    6      -25.248511   1.000000
    7      -25.247117   1.000000
    8      -25.247117   1.000000
    9      -25.247117   1.000000
   10      -25.247117   1.000000
   11      -21.598790   1.000000
   12      -21.598789   1.000000
   13       -8.489082   1.000000
   14       -8.489082   1.000000
   15        1.884135   0.862643
   16        1.884136   0.862642
   17        1.884136   0.862640
   18        1.884136   0.862639
   19        2.403174  -0.000000
   20        2.403176  -0.000000
   21        8.982474   0.000000
   22        8.982474   0.000000
   23        8.982475   0.000000
   24        8.982475   0.000000
   25        9.327414   0.000000
   26        9.327414   0.000000
   27        9.671146   0.000000
   28        9.671148   0.000000
 
  0.1111111E+00 -0.5945640E-17  0.6938894E-17  0.2743484E-02
    1      -31.941661   1.000000
    2      -31.941661   1.000000
    3      -31.941549   1.000000
    4      -31.941549   1.000000
    5      -25.248197   1.000000
    6      -25.248197   1.000000
    7      -25.247138   1.000000
    8      -25.247138   1.000000
    9      -25.246753   1.000000
   10      -25.246753   1.000000
   11      -21.593337   1.000000
   12      -21.593336   1.000000
   13       -8.511018   1.000000
   14       -8.511017   1.000000
   15        1.181748   1.000000
   16        1.181749   1.000000
   17        1.836104   1.021343
   18        1.836104   1.021342
   19        3.190987  -0.000000
   20        3.190988  -0.000000
   21        8.374887   0.000000
   22        8.374887   0.000000
   23        9.079682   0.000000
   24        9.079683   0.000000
   25        9.339363   0.000000
   26        9.339364   0.000000
   27       10.609833   0.000000
   28       10.712079   0.000000
 
  0.2222222E+00 -0.1189128E-16 -0.1387779E-16  0.2743484E-02
    1      -31.941594   1.000000
    2      -31.941594   1.000000
    3      -31.941266   1.000000
    4      -31.941265   1.000000
    5      -25.247786   1.000000
    6      -25.247786   1.000000
    7      -25.246848   1.000000
    8      -25.246847   1.000000
    9      -25.245854   1.000000
   10      -25.245854   1.000000
   11      -21.579767   1.000000
   12      -21.579767   1.000000
   13       -8.566846   1.000000
   14       -8.566845   1.000000
   15        0.449521   1.000000
   16        0.449521   1.000000
   17        1.720262   1.005223
   18        1.720262   1.005223
   19        4.075657  -0.000000
   20        4.075658  -0.000000
   21        7.975761   0.000000
   22        7.975761   0.000000
   23        9.073106   0.000000
   24        9.073106   0.000000
   25        9.395476   0.000000
   26        9.395488   0.000000
   27       10.170457   0.000000
   28       10.465130   0.000000
 
  0.3333333E+00  0.2979762E-17  0.2775558E-16  0.2743484E-02
    1      -31.941495   1.000000
    2      -31.941495   1.000000
    3      -31.940908   1.000000
    4      -31.940908   1.000000
    5      -25.247892   1.000000
    6      -25.247891   1.000000
    7      -25.245945   1.000000
    8      -25.245944   1.000000
    9      -25.244829   1.000000
   10      -25.244829   1.000000
   11      -21.564138   1.000000
   12      -21.564137   1.000000
   13       -8.630173   1.000000
   14       -8.630173   1.000000
   15       -0.065317   1.000000
   16       -0.065316   1.000000
   17        1.597329   1.000011
   18        1.597329   1.000011
   19        4.581648  -0.000000
   20        4.581650  -0.000000
   21        8.204350   0.000000
   22        8.204352   0.000000
   23        8.778986   0.000000
   24        8.778986   0.000000
   25        9.122237   0.000000
   26        9.122237   0.000000
   27        9.724676   0.000000
   28        9.724677   0.000000
 
  0.4444444E+00 -0.2378256E-16 -0.2775558E-16  0.2743484E-02
    1      -31.941456   1.000000
    2      -31.941456   1.000000
    3      -31.940678   1.000000
    4      -31.940677   1.000000
    5      -25.248032   1.000000
    6      -25.248032   1.000000
    7      -25.245289   1.000000
    8      -25.245288   1.000000
    9      -25.244163   1.000000
   10      -25.244163   1.000000
   11      -21.553909   1.000000
   12      -21.553909   1.000000
   13       -8.671493   1.000000
   14       -8.671492   1.000000
   15       -0.329068   1.000000
   16       -0.329067   1.000000
   17        1.521468   1.000000
   18        1.521468   1.000000
   19        4.720991   0.000000
   20        4.720992   0.000000
   21        8.556029   0.000000
   22        8.556033   0.000000
   23        8.563871   0.000000
   24        8.563871   0.000000
   25        8.898708   0.000000
   26        8.898708   0.000000
   27        9.853515   0.000000
   28        9.853515   0.000000
 
  0.0000000E+00  0.1111111E+00  0.6938894E-17  0.2743484E-02
    1      -31.941661   1.000000
    2      -31.941661   1.000000
    3      -31.941549   1.000000
    4      -31.941549   1.000000
    5      -25.248197   1.000000
    6      -25.248197   1.000000
    7      -25.247138   1.000000
    8      -25.247138   1.000000
    9      -25.246753   1.000000
   10      -25.246752   1.000000
   11      -21.593337   1.000000
   12      -21.593336   1.000000
   13       -8.511018   1.000000
   14       -8.511017   1.000000
   15        1.181748   1.000000
   16        1.181749   1.000000
   17        1.836104   1.021343
   18        1.836104   1.021342
   19        3.190987  -0.000000
   20        3.190988  -0.000000
   21        8.374887   0.000000
   22        8.374887   0.000000
   23        9.079682   0.000000
   24        9.079683   0.000000
   25        9.339362   0.000000
   26        9.339363   0.000000
   27       10.549072   0.000000
   28       10.685175   0.000000
 
  0.1111111E+00  0.1111111E+00  0.1387779E-16  0.2743484E-02
    1      -31.941617   1.000000
    2      -31.941616   1.000000
    3      -31.941539   1.000000
    4      -31.941538   1.000000
    5      -25.248142   1.000000
    6      -25.248141   1.000000
    7      -25.246934   1.000000
    8      -25.246934   1.000000
    9      -25.246802   1.000000
   10      -25.246802   1.000000
   11      -21.591551   1.000000
   12      -21.591550   1.000000
   13       -8.518193   1.000000
   14       -8.518192   1.000000
   15        1.104010   1.000000
   16        1.104010   1.000000
   17        1.727246   1.006655
   18        1.727246   1.006655
   19        3.400443  -0.000000
   20        3.400444  -0.000000
   21        8.158852   0.000000
   22        8.158852   0.000000
   23        9.082035   0.000000
   24        9.082035   0.000000
   25        9.539961   0.000000
   26        9.539962   0.000000
   27        9.864391   0.000000
   28        9.864397   0.000000
 
  0.2222222E+00  0.1111111E+00  0.1387779E-16  0.2743484E-02
    1      -31.941537   1.000000
    2      -31.941536   1.000000
    3      -31.941316   1.000000
    4      -31.941315   1.000000
    5      -25.247741   1.000000
    6      -25.247740   1.000000
    7      -25.246875   1.000000
    8      -25.246875   1.000000
    9      -25.245980   1.000000
   10      -25.245980   1.000000
   11      -21.580708   1.000000
   12      -21.580708   1.000000
   13       -8.562254   1.000000
   14       -8.562253   1.000000
   15        0.558011   1.000000
   16        0.558011   1.000000
   17        1.588038   1.000006
   18        1.588038   1.000006
   19        4.158706  -0.000000
   20        4.158707  -0.000000
   21        7.748180   0.000000
   22        7.748180   0.000000
   23        8.777723   0.000000
   24        8.777726   0.000000
   25        9.457069   0.000000
   26        9.457070   0.000000
   27       10.003244   0.000000
   28       10.003246   0.000000
 
  0.3333333E+00  0.1111111E+00  0.2775558E-16  0.2743484E-02
    1      -31.941465   1.000000
    2      -31.941465   1.000000
    3      -31.941001   1.000000
    4      -31.941001   1.000000
    5      -25.247614   1.000000
    6      -25.247614   1.000000
    7      -25.246270   1.000000
    8      -25.246269   1.000000
    9      -25.244970   1.000000
   10      -25.244970   1.000000
   11      -21.565803   1.000000
   12      -21.565802   1.000000
   13       -8.622429   1.000000
   14       -8.622428   1.000000
   15        0.053555   1.000000
   16        0.053556   1.000000
   17        1.433591   1.000000
   18        1.433591   1.000000
   19        4.796748   0.000000
   20        4.796750   0.000000
   21        7.787587   0.000000
   22        7.787588   0.000000
   23        8.250040   0.000000
   24        8.250042   0.000000
   25        9.345072   0.000000
   26        9.345075   0.000000
   27       10.611284   0.000000
   28       10.742211   0.000000
 
  0.4444444E+00  0.1111111E+00  0.0000000E+00  0.2743484E-02
    1      -31.941403   1.000000
    2      -31.941403   1.000000
    3      -31.940742   1.000000
    4      -31.940742   1.000000
    5      -25.247715   1.000000
    6      -25.247715   1.000000
    7      -25.245441   1.000000
    8      -25.245440   1.000000
    9      -25.244303   1.000000
   10      -25.244303   1.000000
   11      -21.553783   1.000000
   12      -21.553782   1.000000
   13       -8.670468   1.000000
   14       -8.670467   1.000000
   15       -0.258202   1.000000
   16       -0.258202   1.000000
   17        1.312285   1.000000
   18        1.312285   1.000000
   19        5.059728   0.000000
   20        5.059730   0.000000
   21        7.741687   0.000000
   22        7.741691   0.000000
   23        8.572034   0.000000
   24        8.572034   0.000000
   25        9.157116   0.000000
   26        9.157118   0.000000
   27       10.526220   0.000000
   28       10.528135   0.000000
 
 -0.4444444E+00  0.1111111E+00  0.1387779E-16  0.2743484E-02
    1      -31.941373   1.000000
    2      -31.941373   1.000000
    3      -31.940651   1.000000
    4      -31.940650   1.000000
    5      -25.247741   1.000000
    6      -25.247741   1.000000
    7      -25.245130   1.000000
    8      -25.245129   1.000000
    9      -25.244187   1.000000
   10      -25.244187   1.000000
   11      -21.550332   1.000000
   12      -21.550331   1.000000
   13       -8.684049   1.000000
   14       -8.684049   1.000000
   15       -0.338175   1.000000
   16       -0.338174   1.000000
   17        1.276452   1.000000
   18        1.276452   1.000000
   19        5.111120   0.000000
   20        5.111122   0.000000
   21        7.685928   0.000000
   22        7.685932   0.000000
   23        8.768375   0.000000
   24        8.768377   0.000000
   25        9.207438   0.000000
   26        9.207439   0.000000
   27       10.640810   0.000000
   28       10.641588   0.000000
 
 -0.3333333E+00  0.1111111E+00 -0.2775558E-16  0.2743484E-02
    1      -31.941423   1.000000
    2      -31.941423   1.000000
    3      -31.940818   1.000000
    4      -31.940817   1.000000
    5      -25.247643   1.000000
    6      -25.247643   1.000000
    7      -25.245674   1.000000
    8      -25.245673   1.000000
    9      -25.244539   1.000000
   10      -25.244539   1.000000
   11      -21.557186   1.000000
   12      -21.557185   1.000000
   13       -8.657012   1.000000
   14       -8.657011   1.000000
   15       -0.179879   1.000000
   16       -0.179879   1.000000
   17        1.344318   1.000000
   18        1.344319   1.000000
   19        5.028119   0.000000
   20        5.028121   0.000000
   21        7.835945   0.000000
   22        7.835949   0.000000
   23        8.512452   0.000000
   24        8.512453   0.000000
   25        9.029359   0.000000
   26        9.029362   0.000000
   27       10.726380   0.000000
   28       10.742199   0.000000
 
 -0.2222222E+00  0.1111111E+00  0.0000000E+00  0.2743484E-02
    1      -31.941496   1.000000
    2      -31.941496   1.000000
    3      -31.941101   1.000000
    4      -31.941101   1.000000
    5      -25.247488   1.000000
    6      -25.247487   1.000000
    7      -25.246660   1.000000
    8      -25.246660   1.000000
    9      -25.245310   1.000000
   10      -25.245310   1.000000
   11      -21.570975   1.000000
   12      -21.570974   1.000000
   13       -8.601783   1.000000
   14       -8.601782   1.000000
   15        0.197084   1.000000
   16        0.197084   1.000000
   17        1.498673   1.000000
   18        1.498673   1.000000
   19        4.621837  -0.000000
   20        4.621838  -0.000000
   21        7.807735   0.000000
   22        7.807735   0.000000
   23        8.536661   0.000000
   24        8.536664   0.000000
   25        9.299475   0.000000
   26        9.299477   0.000000
   27       10.123984   0.000000
   28       10.124057   0.000000
 
 -0.1111111E+00  0.1111111E+00  0.8870294E-17  0.2743484E-02
    1      -31.941598   1.000000
    2      -31.941598   1.000000
    3      -31.941405   1.000000
    4      -31.941405   1.000000
    5      -25.247778   1.000000
    6      -25.247778   1.000000
    7      -25.247130   1.000000
    8      -25.247130   1.000000
    9      -25.246228   1.000000
   10      -25.246228   1.000000
   11      -21.585266   1.000000
   12      -21.585265   1.000000
   13       -8.544129   1.000000
   14       -8.544129   1.000000
   15        0.724232   1.000000
   16        0.724233   1.000000
   17        1.693399   1.001835
   18        1.693399   1.001835
   19        3.850541  -0.000000
   20        3.850543  -0.000000
   21        7.979325   0.000000
   22        7.979325   0.000000
   23        9.008481   0.000000
   24        9.008482   0.000000
   25        9.445286   0.000000
   26        9.445295   0.000000
   27       10.027424   0.000000
   28       10.027598   0.000000
 
  0.0000000E+00  0.2222222E+00  0.0000000E+00  0.2743484E-02
    1      -31.941594   1.000000
    2      -31.941594   1.000000
    3      -31.941266   1.000000
    4      -31.941265   1.000000
    5      -25.247787   1.000000
    6      -25.247786   1.000000
    7      -25.246848   1.000000
    8      -25.246847   1.000000
    9      -25.245854   1.000000
   10      -25.245854   1.000000
   11      -21.579767   1.000000
   12      -21.579767   1.000000
   13       -8.566846   1.000000
   14       -8.566845   1.000000
   15        0.449521   1.000000
   16        0.449521   1.000000
   17        1.720262   1.005223
   18        1.720262   1.005223
   19        4.075657  -0.000000
   20        4.075659  -0.000000
   21        7.975761   0.000000
   22        7.975761   0.000000
   23        9.073106   0.000000
   24        9.073106   0.000000
   25        9.395477   0.000000
   26        9.395501   0.000000
   27       10.218790   0.000000
   28       10.570567   0.000000
 
  0.1111111E+00  0.2222222E+00  0.1387779E-16  0.2743484E-02
    1      -31.941537   1.000000
    2      -31.941537   1.000000
    3      -31.941315   1.000000
    4      -31.941315   1.000000
    5      -25.247741   1.000000
    6      -25.247740   1.000000
    7      -25.246875   1.000000
    8      -25.246875   1.000000
    9      -25.245980   1.000000
   10      -25.245980   1.000000
   11      -21.580708   1.000000
   12      -21.580708   1.000000
   13       -8.562254   1.000000
   14       -8.562253   1.000000
   15        0.558011   1.000000
   16        0.558011   1.000000
   17        1.588038   1.000006
   18        1.588038   1.000006
   19        4.158706  -0.000000
   20        4.158707  -0.000000
   21        7.748180   0.000000
   22        7.748180   0.000000
   23        8.777723   0.000000
   24        8.777726   0.000000
   25        9.457069   0.000000
   26        9.457070   0.000000
   27       10.003244   0.000000
   28       10.003246   0.000000
 
  0.2222222E+00  0.2222222E+00 -0.2775558E-16  0.2743484E-02
    1      -31.941466   1.000000
    2      -31.941465   1.000000
    3      -31.941236   1.000000
    4      -31.941236   1.000000
    5      -25.247740   1.000000
    6      -25.247740   1.000000
    7      -25.246498   1.000000
    8      -25.246498   1.000000
    9      -25.245516   1.000000
   10      -25.245516   1.000000
   11      -21.573507   1.000000
   12      -21.573506   1.000000
   13       -8.590651   1.000000
   14       -8.590651   1.000000
   15        0.379342   1.000000
   16        0.379342   1.000000
   17        1.371957   1.000000
   18        1.371957   1.000000
   19        4.629645  -0.000000
   20        4.629647  -0.000000
   21        7.287168   0.000000
   22        7.287168   0.000000
   23        8.289485   0.000000
   24        8.289488   0.000000
   25        9.585932   0.000000
   26        9.585933   0.000000
   27       10.350153   0.000000
   28       10.350153   0.000000
 
  0.3333333E+00  0.2222222E+00  0.2775558E-16  0.2743484E-02
    1      -31.941341   1.000000
    2      -31.941341   1.000000
    3      -31.940993   1.000000
    4      -31.940992   1.000000
    5      -25.247498   1.000000
    6      -25.247497   1.000000
    7      -25.246254   1.000000
    8      -25.246253   1.000000
    9      -25.244573   1.000000
   10      -25.244573   1.000000
   11      -21.561303   1.000000
   12      -21.561302   1.000000
   13       -8.638222   1.000000
   14       -8.638221   1.000000
   15        0.060799   1.000000
   16        0.060799   1.000000
   17        1.172851   1.000000
   18        1.172851   1.000000
   19        5.160871   0.000000
   20        5.160873   0.000000
   21        7.110010   0.000000
   22        7.110010   0.000000
   23        7.854718   0.000000
   24        7.854720   0.000000
   25        9.824907   0.000000
   26        9.824908   0.000000
   27       10.813114   0.000000
   28       10.813114   0.000000
 
  0.4444444E+00  0.2222222E+00  0.0000000E+00  0.2743484E-02
    1      -31.941246   1.000000
    2      -31.941246   1.000000
    3      -31.940768   1.000000
    4      -31.940768   1.000000
    5      -25.247265   1.000000
    6      -25.247264   1.000000
    7      -25.245731   1.000000
    8      -25.245730   1.000000
    9      -25.244002   1.000000
   10      -25.244001   1.000000
   11      -21.549926   1.000000
   12      -21.549925   1.000000
   13       -8.682420   1.000000
   14       -8.682419   1.000000
   15       -0.184419   1.000000
   16       -0.184419   1.000000
   17        0.967743   1.000000
   18        0.967744   1.000000
   19        5.541795   0.000000
   20        5.541797   0.000000
   21        7.124232   0.000000
   22        7.124234   0.000000
   23        7.971608   0.000000
   24        7.971609   0.000000
   25        9.710443   0.000000
   26        9.710444   0.000000
   27       11.086600   0.000000
   28       11.086605   0.000000
 
 -0.4444444E+00  0.2222222E+00  0.0000000E+00  0.2743484E-02
    1      -31.941199   1.000000
    2      -31.941199   1.000000
    3      -31.940668   1.000000
    4      -31.940667   1.000000
    5      -25.247152   1.000000
    6      -25.247152   1.000000
    7      -25.245084   1.000000
    8      -25.245083   1.000000
    9      -25.244155   1.000000
   10      -25.244154   1.000000
   11      -21.544684   1.000000
   12      -21.544683   1.000000
   13       -8.702675   1.000000
   14       -8.702675   1.000000
   15       -0.284913   1.000000
   16       -0.284912   1.000000
   17        0.852223   1.000000
   18        0.852223   1.000000
   19        5.769850   0.000000
   20        5.769852   0.000000
   21        7.007653   0.000000
   22        7.007657   0.000000
   23        8.706173   0.000000
   24        8.706174   0.000000
   25        9.592543   0.000000
   26        9.592544   0.000000
   27       10.532625   0.000000
   28       10.532626   0.000000
 
 -0.3333333E+00  0.2222222E+00 -0.2081668E-16  0.2743484E-02
    1      -31.941234   1.000000
    2      -31.941234   1.000000
    3      -31.940731   1.000000
    4      -31.940731   1.000000
    5      -25.247059   1.000000
    6      -25.247058   1.000000
    7      -25.245194   1.000000
    8      -25.245193   1.000000
    9      -25.244533   1.000000
   10      -25.244532   1.000000
   11      -21.548078   1.000000
   12      -21.548077   1.000000
   13       -8.690007   1.000000
   14       -8.690007   1.000000
   15       -0.235173   1.000000
   16       -0.235172   1.000000
   17        0.908580   1.000000
   18        0.908580   1.000000
   19        5.833041   0.000000
   20        5.833042   0.000000
   21        7.064026   0.000000
   22        7.064030   0.000000
   23        8.509544   0.000000
   24        8.509544   0.000000
   25        9.549587   0.000000
   26        9.549589   0.000000
   27       10.959207   0.000000
   28       11.025408   0.000000
 
 -0.2222222E+00  0.2222222E+00  0.2995247E-16  0.2743484E-02
    1      -31.941348   1.000000
    2      -31.941348   1.000000
    3      -31.940907   1.000000
    4      -31.940907   1.000000
    5      -25.247038   1.000000
    6      -25.247038   1.000000
    7      -25.246219   1.000000
    8      -25.246219   1.000000
    9      -25.244739   1.000000
   10      -25.244738   1.000000
   11      -21.558469   1.000000
   12      -21.558468   1.000000
   13       -8.650352   1.000000
   14       -8.650351   1.000000
   15       -0.058442   1.000000
   16       -0.058442   1.000000
   17        1.150059   1.000000
   18        1.150059   1.000000
   19        5.408842   0.000000
   20        5.408844   0.000000
   21        7.441093   0.000000
   22        7.441095   0.000000
   23        8.117794   0.000000
   24        8.117796   0.000000
   25        9.455261   0.000000
   26        9.455264   0.000000
   27       10.195593   0.000000
   28       10.195596   0.000000
 
 -0.1111111E+00  0.2222222E+00  0.1387779E-16  0.2743484E-02
    1      -31.941496   1.000000
    2      -31.941496   1.000000
    3      -31.941101   1.000000
    4      -31.941101   1.000000
    5      -25.247488   1.000000
    6      -25.247488   1.000000
    7      -25.246660   1.000000
    8      -25.246660   1.000000
    9      -25.245310   1.000000
   10      -25.245310   1.000000
   11      -21.570975   1.000000
   12      -21.570974   1.000000
   13       -8.601783   1.000000
   14       -8.601782   1.000000
   15        0.197084   1.000000
   16        0.197084   1.000000
   17        1.498673   1.000000
   18        1.498673   1.000000
   19        4.621837  -0.000000
   20        4.621838  -0.000000
   21        7.807735   0.000000
   22        7.807735   0.000000
   23        8.536661   0.000000
   24        8.536664   0.000000
   25        9.299475   0.000000
   26        9.299477   0.000000
   27       10.123987   0.000000
   28       10.124096   0.000000
 
 -0.3851860E-33  0.3333333E+00  0.0000000E+00  0.2743484E-02
    1      -31.941495   1.000000
    2      -31.941495   1.000000
    3      -31.940908   1.000000
    4      -31.940907   1.000000
    5      -25.247892   1.000000
    6      -25.247892   1.000000
    7      -25.245945   1.000000
    8      -25.245944   1.000000
    9      -25.244829   1.000000
   10      -25.244829   1.000000
   11      -21.564138   1.000000
   12      -21.564137   1.000000
   13       -8.630173   1.000000
   14       -8.630173   1.000000
   15       -0.065317   1.000000
   16       -0.065316   1.000000
   17        1.597329   1.000011
   18        1.597329   1.000011
   19        4.581648  -0.000000
   20        4.581650  -0.000000
   21        8.204351   0.000000
   22        8.204352   0.000000
   23        8.778986   0.000000
   24        8.778987   0.000000
   25        9.122237   0.000000
   26        9.122238   0.000000
   27        9.724675   0.000000
   28        9.724678   0.000000
 
  0.1111111E+00  0.3333333E+00 -0.2775558E-16  0.2743484E-02
    1      -31.941465   1.000000
    2      -31.941465   1.000000
    3      -31.941001   1.000000
    4      -31.941001   1.000000
    5      -25.247614   1.000000
    6      -25.247614   1.000000
    7      -25.246270   1.000000
    8      -25.246269   1.000000
    9      -25.244970   1.000000
   10      -25.244970   1.000000
   11      -21.565803   1.000000
   12      -21.565802   1.000000
   13       -8.622429   1.000000
   14       -8.622428   1.000000
   15        0.053555   1.000000
   16        0.053556   1.000000
   17        1.433591   1.000000
   18        1.433591   1.000000
   19        4.796748   0.000000
   20        4.796750   0.000000
   21        7.787587   0.000000
   22        7.787588   0.000000
   23        8.250040   0.000000
   24        8.250042   0.000000
   25        9.345072   0.000000
   26        9.345074   0.000000
   27       10.617918   0.000000
   28       10.773255   0.000000
 
  0.2222222E+00  0.3333333E+00  0.0000000E+00  0.2743484E-02
    1      -31.941341   1.000000
    2      -31.941341   1.000000
    3      -31.940992   1.000000
    4      -31.940992   1.000000
    5      -25.247498   1.000000
    6      -25.247497   1.000000
    7      -25.246254   1.000000
    8      -25.246253   1.000000
    9      -25.244573   1.000000
   10      -25.244573   1.000000
   11      -21.561303   1.000000
   12      -21.561302   1.000000
   13       -8.638222   1.000000
   14       -8.638221   1.000000
   15        0.060799   1.000000
   16        0.060799   1.000000
   17        1.172851   1.000000
   18        1.172851   1.000000
   19        5.160871   0.000000
   20        5.160873   0.000000
   21        7.110010   0.000000
   22        7.110010   0.000000
   23        7.854718   0.000000
   24        7.854720   0.000000
   25        9.824907   0.000000
   26        9.824907   0.000000
   27       10.813114   0.000000
   28       10.813116   0.000000
 
  0.3333333E+00  0.3333333E+00  0.0000000E+00  0.2743484E-02
    1      -31.941265   1.000000
    2      -31.941264   1.000000
    3      -31.940861   1.000000
    4      -31.940861   1.000000
    5      -25.247579   1.000000
    6      -25.247578   1.000000
    7      -25.246010   1.000000
    8      -25.246010   1.000000
    9      -25.243748   1.000000
   10      -25.243747   1.000000
   11      -21.552801   1.000000
   12      -21.552800   1.000000
   13       -8.670271   1.000000
   14       -8.670270   1.000000
   15       -0.082814   1.000000
   16       -0.082814   1.000000
   17        1.021895   1.000000
   18        1.021895   1.000000
   19        5.247156   0.000000
   20        5.247159   0.000000
   21        6.695885   0.000000
   22        6.695885   0.000000
   23        7.921970   0.000000
   24        7.921972   0.000000
   25       10.333924   0.000000
   26       10.333925   0.000000
   27       11.386540   0.000000
   28       11.386540   0.000000
 
  0.4444444E+00  0.3333333E+00 -0.5551115E-16  0.2743484E-02
    1      -31.941158   1.000000
    2      -31.941158   1.000000
    3      -31.940700   1.000000
    4      -31.940699   1.000000
    5      -25.247354   1.000000
    6      -25.247353   1.000000
    7      -25.245781   1.000000
    8      -25.245780   1.000000
    9      -25.243187   1.000000
   10      -25.243187   1.000000
   11      -21.544200   1.000000
   12      -21.544199   1.000000
   13       -8.702603   1.000000
   14       -8.702602   1.000000
   15       -0.216974   1.000000
   16       -0.216973   1.000000
   17        0.832563   1.000000
   18        0.832563   1.000000
   19        5.370941   0.000000
   20        5.370945   0.000000
   21        6.665163   0.000000
   22        6.665164   0.000000
   23        8.096938   0.000000
   24        8.096939   0.000000
   25       10.515788   0.000000
   26       10.515789   0.000000
   27       11.700084   0.000000
   28       11.700086   0.000000
 
 -0.4444444E+00  0.3333333E+00  0.1387779E-16  0.2743484E-02
    1      -31.941070   1.000000
    2      -31.941070   1.000000
    3      -31.940643   1.000000
    4      -31.940642   1.000000
    5      -25.246977   1.000000
    6      -25.246976   1.000000
    7      -25.245439   1.000000
    8      -25.245438   1.000000
    9      -25.243373   1.000000
   10      -25.243373   1.000000
   11      -21.539574   1.000000
   12      -21.539573   1.000000
   13       -8.719800   1.000000
   14       -8.719799   1.000000
   15       -0.251338   1.000000
   16       -0.251338   1.000000
   17        0.626093   1.000000
   18        0.626093   1.000000
   19        5.667785   0.000000
   20        5.667789   0.000000
   21        6.875317   0.000000
   22        6.875318   0.000000
   23        8.464067   0.000000
   24        8.464068   0.000000
   25       10.006507   0.000000
   26       10.006508   0.000000
   27       11.014323   0.000000
   28       11.014324   0.000000
 
 -0.3333333E+00  0.3333333E+00 -0.2825322E-16  0.2743484E-02
    1      -31.941085   1.000000
    2      -31.941085   1.000000
    3      -31.940674   1.000000
    4      -31.940674   1.000000
    5      -25.246805   1.000000
    6      -25.246804   1.000000
    7      -25.244948   1.000000
    8      -25.244947   1.000000
    9      -25.244215   1.000000
   10      -25.244215   1.000000
   11      -21.541124   1.000000
   12      -21.541123   1.000000
   13       -8.714598   1.000000
   14       -8.714597   1.000000
   15       -0.240836   1.000000
   16       -0.240836   1.000000
   17        0.616757   1.000000
   18        0.616758   1.000000
   19        6.036748   0.000000
   20        6.036751   0.000000
   21        6.870607   0.000000
   22        6.870609   0.000000
   23        9.004113   0.000000
   24        9.004113   0.000000
   25        9.523413   0.000000
   26        9.523414   0.000000
   27       10.247426   0.000000
   28       10.247429   0.000000
 
 -0.2222222E+00  0.3333333E+00 -0.6938894E-17  0.2743484E-02
    1      -31.941234   1.000000
    2      -31.941234   1.000000
    3      -31.940731   1.000000
    4      -31.940731   1.000000