 vasp.5.4.4.18Apr17-6-g9f103f2a35 (build Nov 03 2018 10:20:46) complex          
  
 executed on             LinuxIFC date 2018.12.03  17:05:50
 running on    8 total cores
 distrk:  each k-point on    2 cores,    4 groups
 distr:  one band on NCORES_PER_BAND=   2 cores,    1 groups


--------------------------------------------------------------------------------------------------------


 INCAR:
 POTCAR:    PAW Og, JanMewes Oct 18               

 ----------------------------------------------------------------------------- 
|                                                                             |
|           W    W    AA    RRRRR   N    N  II  N    N   GGGG   !!!           |
|           W    W   A  A   R    R  NN   N  II  NN   N  G    G  !!!           |
|           W    W  A    A  R    R  N N  N  II  N N  N  G       !!!           |
|           W WW W  AAAAAA  RRRRR   N  N N  II  N  N N  G  GGG   !            |
|           WW  WW  A    A  R   R   N   NN  II  N   NN  G    G                |
|           W    W  A    A  R    R  N    N  II  N    N   GGGG   !!!           |
|                                                                             |
|      You have enabled k-point parallelism (KPAR>1).                         |
|      This developmental code was originally  written by Paul Kent at ORNL,  |
|      and carefully double checked in Vienna.                                |
|      GW as well as linear response parallelism added by Martijn Marsman     |
|      and Georg Kresse.                                                      |
|      Carefully verify results versus KPAR=1.                                |
|      Report problems to Paul Kent and Vienna.                               |
|                                                                             |
 ----------------------------------------------------------------------------- 

 POTCAR:    PAW Og, JanMewes Oct 18               
   VRHFIN =Og : 10d 2s 6p, PE                                                   
   LEXCH  = PE                                                                  
   EATOM  =  2640.5573 eV,  194.0755 Ry                                         
                                                                                
   TITEL  = PAW Og, JanMewes Oct 18                                             
   LULTRA =        F    use ultrasoft PP ?                                      
   IUNSCR =        1    unscreen: 0-lin 1-nonlin 2-no                           
   RPACOR =    1.700    partial core radius                                     
   POMASS =    0.010; ZVAL   =   18.000    mass and valenz                      
   RCORE  =    2.600    outmost cutoff radius                                   
   RWIGS  =    3.500; RWIGS  =    1.852    wigner-seitz radius (au A)           
   ENMAX  =  339.336; ENMIN  =  254.502 eV                                      
   ICORE  =        3    local potential                                         
   LCOR   =        T    correct aug charges                                     
   LPAW   =        T    paw PP                                                  
   EAUG   =  361.025                                                            
   DEXC   =   -0.000                                                            
   RAUG   =    1.300    factor for augmentation sphere                          
   RDEP   =    2.775    radius for radial grids                                 
   RDEPT  =    2.135    core radius for aug-charge                              
   QCUT   =   -4.994; QGAM   =    9.988    optimization parameters              
                                                                                
   Atomic configuration                                                         
   22 entries                                                                   
     n  l   j            E        occ.                                          
     1  0  0.50   -225781.4217   2.0000                                         
     2  0  0.50    -47342.3774   2.0000                                         
     2  1  1.50    -33463.4058   6.0000                                         
     3  0  0.50    -12845.8060   2.0000                                         
     3  1  1.50     -9184.5562   6.0000                                         
     3  2  2.50     -7322.6146  10.0000                                         
     4  0  0.50     -3781.9433   2.0000                                         
     4  1  1.50     -2605.9204   6.0000                                         
     4  2  2.50     -1899.4626  10.0000                                         
     4  3  3.50     -1273.6890  14.0000                                         
     5  0  0.50     -1046.0643   2.0000                                         
     5  1  1.50      -650.9265   6.0000                                         
     5  2  2.50      -388.1490  10.0000                                         
     5  3  3.50      -152.1121  14.0000                                         
     6  0  0.50      -224.6639   2.0000                                         
     6  1  0.50      -184.3267   2.0000                                         
     6  1  1.50       -97.8537   4.0000                                         
     6  2  2.50       -35.6667  10.0000                                         
     7  0  0.50       -28.5889   2.0000                                         
     8  0  0.50        -1.3606   0.0000                                         
     7  1  1.50        -7.0827   6.0000                                         
     6  3  3.50        -0.0136   0.0000                                         
   Description                                                                  
     l       E           TYP  RCUT    TYP  RCUT                                 
     2    -35.6666962     23  2.100                                             
     2     34.0145650     23  2.300                                             
     0    -28.5889381     23  1.600                                             
     0     40.8174780     23  2.200                                             
     1     -7.0826811     23  2.200                                             
     1    148.3035034     23  1.900                                             
     3      6.8029130      7  2.600                                             
  local pseudopotential read in
  partial core-charges read in
  partial kinetic energy density read in
  kinetic energy density of atom read in
  atomic valenz-charges read in
  non local Contribution for L=           2  read in
    real space projection operators read in
  non local Contribution for L=           2  read in
    real space projection operators read in
  non local Contribution for L=           0  read in
    real space projection operators read in
  non local Contribution for L=           0  read in
    real space projection operators read in
  non local Contribution for L=           1  read in
    real space projection operators read in
  non local Contribution for L=           1  read in
    real space projection operators read in
    PAW grid and wavefunctions read in
 
   number of l-projection  operators is LMAX  =           6
   number of lm-projection operators is LMMAX =          18
 
  PAW Og, JanMewes Oct 18               :
 energy of atom  1       EATOM=-2640.5573
 kinetic energy error for atom=    0.0286 (will be added to EATOM!!)
 
 
 POSCAR: Og_FCC                                  
  positions in direct lattice
  velocities in cartesian coordinates
 exchange correlation table for  LEXCH =        8
   RHO(1)=    0.500       N(1)  =     2000
   RHO(2)=  100.500       N(2)  =     4000
 


--------------------------------------------------------------------------------------------------------


 ion  position               nearest neighbor table
   1  0.000  0.000  0.000-
 
  LATTYP: Found a face centered cubic cell.
 ALAT       =     6.5877447887
  
  Lattice vectors:
  
 A1 = (   4.6582390127,   0.0000000000,   0.0000000000)
 A2 = (   2.3291195064,   4.0341533218,  -0.0000000000)
 A3 = (   2.3291195064,   1.3447177739,   3.8034362271)


Analysis of symmetry for initial positions (statically):
=====================================================================
 Subroutine PRICEL returns:
 Original cell was already a primitive cell.
 

 Routine SETGRP: Setting up the symmetry group for a 
 face centered cubic supercell.


 Subroutine GETGRP returns: Found 48 space group operations
 (whereof 48 operations were pure point group operations)
 out of a pool of 48 trial point group operations.


The static configuration has the point symmetry O_h .


Analysis of symmetry for dynamics (positions and initial velocities):
=====================================================================
 Subroutine PRICEL returns:
 Original cell was already a primitive cell.
 

 Routine SETGRP: Setting up the symmetry group for a 
 face centered cubic supercell.


 Subroutine GETGRP returns: Found 48 space group operations
 (whereof 48 operations were pure point group operations)
 out of a pool of 48 trial point group operations.


The dynamic configuration has the point symmetry O_h .


Analysis of structural, dynamic, and magnetic symmetry:
=====================================================================
 Subroutine PRICEL returns:
 Original cell was already a primitive cell.
 

 Routine SETGRP: Setting up the symmetry group for a 
 face centered cubic supercell.


 Subroutine GETGRP returns: Found  2 space group operations
 (whereof  2 operations were pure point group operations)
 out of a pool of 48 trial point group operations.


The (compounded) configuration has the point symmetry S_2 .


 Subroutine INISYM returns: Found  2 space group operations
 (whereof  2 operations are pure point group operations),
 and found     1 'primitive' translations

 
 

Automatic generation of k-mesh.
 generate k-points for:    9    9    9
Space group operators:
 irot       det(A)        alpha          n_x          n_y          n_z        tau_x        tau_y        tau_z
    1     1.000000     0.000001     1.000000     0.000000     0.000000     0.000000     0.000000     0.000000
    2    -1.000000     0.000001     1.000000     0.000000     0.000000     0.000000     0.000000     0.000000
 
 Subroutine IBZKPT returns following result:
 ===========================================
 
 Found    365 irreducible k-points:
 
 Following reciprocal coordinates:
            Coordinates               Weight
  0.000000  0.000000  0.000000      1.000000
  0.111111 -0.000000  0.000000      2.000000
  0.222222 -0.000000 -0.000000      2.000000
  0.333333  0.000000  0.000000      2.000000
  0.444444 -0.000000 -0.000000      2.000000
  0.000000  0.111111  0.000000      2.000000
  0.111111  0.111111  0.000000      2.000000
  0.222222  0.111111  0.000000      2.000000
  0.333333  0.111111  0.000000      2.000000
  0.444444  0.111111  0.000000      2.000000
 -0.444444  0.111111  0.000000      2.000000
 -0.333333  0.111111 -0.000000      2.000000
 -0.222222  0.111111  0.000000      2.000000
 -0.111111  0.111111  0.000000      2.000000
  0.000000  0.222222  0.000000      2.000000
  0.111111  0.222222  0.000000      2.000000
  0.222222  0.222222 -0.000000      2.000000
  0.333333  0.222222  0.000000      2.000000
  0.444444  0.222222  0.000000      2.000000
 -0.444444  0.222222  0.000000      2.000000
 -0.333333  0.222222 -0.000000      2.000000
 -0.222222  0.222222  0.000000      2.000000
 -0.111111  0.222222  0.000000      2.000000
 -0.000000  0.333333  0.000000      2.000000
  0.111111  0.333333 -0.000000      2.000000
  0.222222  0.333333  0.000000      2.000000
  0.333333  0.333333  0.000000      2.000000
  0.444444  0.333333 -0.000000      2.000000
 -0.444444  0.333333  0.000000      2.000000
 -0.333333  0.333333 -0.000000      2.000000
 -0.222222  0.333333 -0.000000      2.000000
 -0.111111  0.333333  0.000000      2.000000
  0.000000  0.444444  0.000000      2.000000
  0.111111  0.444444  0.000000      2.000000
  0.222222  0.444444  0.000000      2.000000
  0.333333  0.444444  0.000000      2.000000
  0.444444  0.444444 -0.000000      2.000000
 -0.444444  0.444444  0.000000      2.000000
 -0.333333  0.444444  0.000000      2.000000
 -0.222222  0.444444  0.000000      2.000000
 -0.111111  0.444444  0.000000      2.000000
  0.000000  0.000000  0.111111      2.000000
  0.111111 -0.000000  0.111111      2.000000
  0.222222 -0.000000  0.111111      2.000000
  0.333333  0.000000  0.111111      2.000000
  0.444444 -0.000000  0.111111      2.000000
 -0.444444  0.000000  0.111111      2.000000
 -0.333333 -0.000000  0.111111      2.000000
 -0.222222  0.000000  0.111111      2.000000
 -0.111111  0.000000  0.111111      2.000000
  0.000000  0.111111  0.111111      2.000000
  0.111111  0.111111  0.111111      2.000000
  0.222222  0.111111  0.111111      2.000000
  0.333333  0.111111  0.111111      2.000000
  0.444444  0.111111  0.111111      2.000000
 -0.444444  0.111111  0.111111      2.000000
 -0.333333  0.111111  0.111111      2.000000
 -0.222222  0.111111  0.111111      2.000000
 -0.111111  0.111111  0.111111      2.000000
  0.000000  0.222222  0.111111      2.000000
  0.111111  0.222222  0.111111      2.000000
  0.222222  0.222222  0.111111      2.000000
  0.333333  0.222222  0.111111      2.000000
  0.444444  0.222222  0.111111      2.000000
 -0.444444  0.222222  0.111111      2.000000
 -0.333333  0.222222  0.111111      2.000000
 -0.222222  0.222222  0.111111      2.000000
 -0.111111  0.222222  0.111111      2.000000
  0.000000  0.333333  0.111111      2.000000
  0.111111  0.333333  0.111111      2.000000
  0.222222  0.333333  0.111111      2.000000
  0.333333  0.333333  0.111111      2.000000
  0.444444  0.333333  0.111111      2.000000
 -0.444444  0.333333  0.111111      2.000000
 -0.333333  0.333333  0.111111      2.000000
 -0.222222  0.333333  0.111111      2.000000
 -0.111111  0.333333  0.111111      2.000000
  0.000000  0.444444  0.111111      2.000000
  0.111111  0.444444  0.111111      2.000000
  0.222222  0.444444  0.111111      2.000000
  0.333333  0.444444  0.111111      2.000000
  0.444444  0.444444  0.111111      2.000000
 -0.444444  0.444444  0.111111      2.000000
 -0.333333  0.444444  0.111111      2.000000
 -0.222222  0.444444  0.111111      2.000000
 -0.111111  0.444444  0.111111      2.000000
  0.000000 -0.444444  0.111111      2.000000
  0.111111 -0.444444  0.111111      2.000000
  0.222222 -0.444444  0.111111      2.000000
  0.333333 -0.444444  0.111111      2.000000
  0.444444 -0.444444  0.111111      2.000000
 -0.444444 -0.444444  0.111111      2.000000
 -0.333333 -0.444444  0.111111      2.000000
 -0.222222 -0.444444  0.111111      2.000000
 -0.111111 -0.444444  0.111111      2.000000
  0.000000 -0.333333  0.111111      2.000000
  0.111111 -0.333333  0.111111      2.000000
  0.222222 -0.333333  0.111111      2.000000
  0.333333 -0.333333  0.111111      2.000000
  0.444444 -0.333333  0.111111      2.000000
 -0.444444 -0.333333  0.111111      2.000000
 -0.333333 -0.333333  0.111111      2.000000
 -0.222222 -0.333333  0.111111      2.000000
 -0.111111 -0.333333  0.111111      2.000000
  0.000000 -0.222222  0.111111      2.000000
  0.111111 -0.222222  0.111111      2.000000
  0.222222 -0.222222  0.111111      2.000000
  0.333333 -0.222222  0.111111      2.000000
  0.444444 -0.222222  0.111111      2.000000
 -0.444444 -0.222222  0.111111      2.000000
 -0.333333 -0.222222  0.111111      2.000000
 -0.222222 -0.222222  0.111111      2.000000
 -0.111111 -0.222222  0.111111      2.000000
  0.000000 -0.111111  0.111111      2.000000
  0.111111 -0.111111  0.111111      2.000000
  0.222222 -0.111111  0.111111      2.000000
  0.333333 -0.111111  0.111111      2.000000
  0.444444 -0.111111  0.111111      2.000000
 -0.444444 -0.111111  0.111111      2.000000
 -0.333333 -0.111111  0.111111      2.000000
 -0.222222 -0.111111  0.111111      2.000000
 -0.111111 -0.111111  0.111111      2.000000
  0.000000  0.000000  0.222222      2.000000
  0.111111 -0.000000  0.222222      2.000000
  0.222222 -0.000000  0.222222      2.000000
  0.333333 -0.000000  0.222222      2.000000
  0.444444 -0.000000  0.222222      2.000000
 -0.444444  0.000000  0.222222      2.000000
 -0.333333 -0.000000  0.222222      2.000000
 -0.222222  0.000000  0.222222      2.000000
 -0.111111 -0.000000  0.222222      2.000000
  0.000000  0.111111  0.222222      2.000000
  0.111111  0.111111  0.222222      2.000000
  0.222222  0.111111  0.222222      2.000000
  0.333333  0.111111  0.222222      2.000000
  0.444444  0.111111  0.222222      2.000000
 -0.444444  0.111111  0.222222      2.000000
 -0.333333  0.111111  0.222222      2.000000
 -0.222222  0.111111  0.222222      2.000000
 -0.111111  0.111111  0.222222      2.000000
  0.000000  0.222222  0.222222      2.000000
  0.111111  0.222222  0.222222      2.000000
  0.222222  0.222222  0.222222      2.000000
  0.333333  0.222222  0.222222      2.000000
  0.444444  0.222222  0.222222      2.000000
 -0.444444  0.222222  0.222222      2.000000
 -0.333333  0.222222  0.222222      2.000000
 -0.222222  0.222222  0.222222      2.000000
 -0.111111  0.222222  0.222222      2.000000
  0.000000  0.333333  0.222222      2.000000
  0.111111  0.333333  0.222222      2.000000
  0.222222  0.333333  0.222222      2.000000
  0.333333  0.333333  0.222222      2.000000
  0.444444  0.333333  0.222222      2.000000
 -0.444444  0.333333  0.222222      2.000000
 -0.333333  0.333333  0.222222      2.000000
 -0.222222  0.333333  0.222222      2.000000
 -0.111111  0.333333  0.222222      2.000000
  0.000000  0.444444  0.222222      2.000000
  0.111111  0.444444  0.222222      2.000000
  0.222222  0.444444  0.222222      2.000000
  0.333333  0.444444  0.222222      2.000000
  0.444444  0.444444  0.222222      2.000000
 -0.444444  0.444444  0.222222      2.000000
 -0.333333  0.444444  0.222222      2.000000
 -0.222222  0.444444  0.222222      2.000000
 -0.111111  0.444444  0.222222      2.000000
  0.000000 -0.444444  0.222222      2.000000
  0.111111 -0.444444  0.222222      2.000000
  0.222222 -0.444444  0.222222      2.000000
  0.333333 -0.444444  0.222222      2.000000
  0.444444 -0.444444  0.222222      2.000000
 -0.444444 -0.444444  0.222222      2.000000
 -0.333333 -0.444444  0.222222      2.000000
 -0.222222 -0.444444  0.222222      2.000000
 -0.111111 -0.444444  0.222222      2.000000
  0.000000 -0.333333  0.222222      2.000000
  0.111111 -0.333333  0.222222      2.000000
  0.222222 -0.333333  0.222222      2.000000
  0.333333 -0.333333  0.222222      2.000000
  0.444444 -0.333333  0.222222      2.000000
 -0.444444 -0.333333  0.222222      2.000000
 -0.333333 -0.333333  0.222222      2.000000
 -0.222222 -0.333333  0.222222      2.000000
 -0.111111 -0.333333  0.222222      2.000000
  0.000000 -0.222222  0.222222      2.000000
  0.111111 -0.222222  0.222222      2.000000
  0.222222 -0.222222  0.222222      2.000000
  0.333333 -0.222222  0.222222      2.000000
  0.444444 -0.222222  0.222222      2.000000
 -0.444444 -0.222222  0.222222      2.000000
 -0.333333 -0.222222  0.222222      2.000000
 -0.222222 -0.222222  0.222222      2.000000
 -0.111111 -0.222222  0.222222      2.000000
  0.000000 -0.111111  0.222222      2.000000
  0.111111 -0.111111  0.222222      2.000000
  0.222222 -0.111111  0.222222      2.000000
  0.333333 -0.111111  0.222222      2.000000
  0.444444 -0.111111  0.222222      2.000000
 -0.444444 -0.111111  0.222222      2.000000
 -0.333333 -0.111111  0.222222      2.000000
 -0.222222 -0.111111  0.222222      2.000000
 -0.111111 -0.111111  0.222222      2.000000
  0.000000  0.000000  0.333333      2.000000
  0.111111 -0.000000  0.333333      2.000000
  0.222222 -0.000000  0.333333      2.000000
  0.333333 -0.000000  0.333333      2.000000
  0.444444 -0.000000  0.333333      2.000000
 -0.444444  0.000000  0.333333      2.000000
 -0.333333 -0.000000  0.333333      2.000000
 -0.222222  0.000000  0.333333      2.000000
 -0.111111 -0.000000  0.333333      2.000000
  0.000000  0.111111  0.333333      2.000000
  0.111111  0.111111  0.333333      2.000000
  0.222222  0.111111  0.333333      2.000000
  0.333333  0.111111  0.333333      2.000000
  0.444444  0.111111  0.333333      2.000000
 -0.444444  0.111111  0.333333      2.000000
 -0.333333  0.111111  0.333333      2.000000
 -0.222222  0.111111  0.333333      2.000000
 -0.111111  0.111111  0.333333      2.000000
  0.000000  0.222222  0.333333      2.000000
  0.111111  0.222222  0.333333      2.000000
  0.222222  0.222222  0.333333      2.000000
  0.333333  0.222222  0.333333      2.000000
  0.444444  0.222222  0.333333      2.000000
 -0.444444  0.222222  0.333333      2.000000
 -0.333333  0.222222  0.333333      2.000000
 -0.222222  0.222222  0.333333      2.000000
 -0.111111  0.222222  0.333333      2.000000
  0.000000  0.333333  0.333333      2.000000
  0.111111  0.333333  0.333333      2.000000
  0.222222  0.333333  0.333333      2.000000
  0.333333  0.333333  0.333333      2.000000
  0.444444  0.333333  0.333333      2.000000
 -0.444444  0.333333  0.333333      2.000000
 -0.333333  0.333333  0.333333      2.000000
 -0.222222  0.333333  0.333333      2.000000
 -0.111111  0.333333  0.333333      2.000000
  0.000000  0.444444  0.333333      2.000000
  0.111111  0.444444  0.333333      2.000000
  0.222222  0.444444  0.333333      2.000000
  0.333333  0.444444  0.333333      2.000000
  0.444444  0.444444  0.333333      2.000000
 -0.444444  0.444444  0.333333      2.000000
 -0.333333  0.444444  0.333333      2.000000
 -0.222222  0.444444  0.333333      2.000000
 -0.111111  0.444444  0.333333      2.000000
  0.000000 -0.444444  0.333333      2.000000
  0.111111 -0.444444  0.333333      2.000000
  0.222222 -0.444444  0.333333      2.000000
  0.333333 -0.444444  0.333333      2.000000
  0.444444 -0.444444  0.333333      2.000000
 -0.444444 -0.444444  0.333333      2.000000
 -0.333333 -0.444444  0.333333      2.000000
 -0.222222 -0.444444  0.333333      2.000000
 -0.111111 -0.444444  0.333333      2.000000
  0.000000 -0.333333  0.333333      2.000000
  0.111111 -0.333333  0.333333      2.000000
  0.222222 -0.333333  0.333333      2.000000
  0.333333 -0.333333  0.333333      2.000000
  0.444444 -0.333333  0.333333      2.000000
 -0.444444 -0.333333  0.333333      2.000000
 -0.333333 -0.333333  0.333333      2.000000
 -0.222222 -0.333333  0.333333      2.000000
 -0.111111 -0.333333  0.333333      2.000000
  0.000000 -0.222222  0.333333      2.000000
  0.111111 -0.222222  0.333333      2.000000
  0.222222 -0.222222  0.333333      2.000000
  0.333333 -0.222222  0.333333      2.000000
  0.444444 -0.222222  0.333333      2.000000
 -0.444444 -0.222222  0.333333      2.000000
 -0.333333 -0.222222  0.333333      2.000000
 -0.222222 -0.222222  0.333333      2.000000
 -0.111111 -0.222222  0.333333      2.000000
  0.000000 -0.111111  0.333333      2.000000
  0.111111 -0.111111  0.333333      2.000000
  0.222222 -0.111111  0.333333      2.000000
  0.333333 -0.111111  0.333333      2.000000
  0.444444 -0.111111  0.333333      2.000000
 -0.444444 -0.111111  0.333333      2.000000
 -0.333333 -0.111111  0.333333      2.000000
 -0.222222 -0.111111  0.333333      2.000000
 -0.111111 -0.111111  0.333333      2.000000
  0.000000  0.000000  0.444444      2.000000
  0.111111 -0.000000  0.444444      2.000000
  0.222222 -0.000000  0.444444      2.000000
  0.333333  0.000000  0.444444      2.000000
  0.444444 -0.000000  0.444444      2.000000
 -0.444444  0.000000  0.444444      2.000000
 -0.333333 -0.000000  0.444444      2.000000
 -0.222222  0.000000  0.444444      2.000000
 -0.111111 -0.000000  0.444444      2.000000
  0.000000  0.111111  0.444444      2.000000
  0.111111  0.111111  0.444444      2.000000
  0.222222  0.111111  0.444444      2.000000
  0.333333  0.111111  0.444444      2.000000
  0.444444  0.111111  0.444444      2.000000
 -0.444444  0.111111  0.444444      2.000000
 -0.333333  0.111111  0.444444      2.000000
 -0.222222  0.111111  0.444444      2.000000
 -0.111111  0.111111  0.444444      2.000000
  0.000000  0.222222  0.444444      2.000000
  0.111111  0.222222  0.444444      2.000000
  0.222222  0.222222  0.444444      2.000000
  0.333333  0.222222  0.444444      2.000000
  0.444444  0.222222  0.444444      2.000000
 -0.444444  0.222222  0.444444      2.000000
 -0.333333  0.222222  0.444444      2.000000
 -0.222222  0.222222  0.444444      2.000000
 -0.111111  0.222222  0.444444      2.000000
  0.000000  0.333333  0.444444      2.000000
  0.111111  0.333333  0.444444      2.000000
  0.222222  0.333333  0.444444      2.000000
  0.333333  0.333333  0.444444      2.000000
  0.444444  0.333333  0.444444      2.000000
 -0.444444  0.333333  0.444444      2.000000
 -0.333333  0.333333  0.444444      2.000000
 -0.222222  0.333333  0.444444      2.000000
 -0.111111  0.333333  0.444444      2.000000
  0.000000  0.444444  0.444444      2.000000
  0.111111  0.444444  0.444444      2.000000
  0.222222  0.444444  0.444444      2.000000
  0.333333  0.444444  0.444444      2.000000
  0.444444  0.444444  0.444444      2.000000
 -0.444444  0.444444  0.444444      2.000000
 -0.333333  0.444444  0.444444      2.000000
 -0.222222  0.444444  0.444444      2.000000
 -0.111111  0.444444  0.444444      2.000000
  0.000000 -0.444444  0.444444      2.000000
  0.111111 -0.444444  0.444444      2.000000
  0.222222 -0.444444  0.444444      2.000000
  0.333333 -0.444444  0.444444      2.000000
  0.444444 -0.444444  0.444444      2.000000
 -0.444444 -0.444444  0.444444      2.000000
 -0.333333 -0.444444  0.444444      2.000000
 -0.222222 -0.444444  0.444444      2.000000
 -0.111111 -0.444444  0.444444      2.000000
  0.000000 -0.333333  0.444444      2.000000
  0.111111 -0.333333  0.444444      2.000000
  0.222222 -0.333333  0.444444      2.000000
  0.333333 -0.333333  0.444444      2.000000
  0.444444 -0.333333  0.444444      2.000000
 -0.444444 -0.333333  0.444444      2.000000
 -0.333333 -0.333333  0.444444      2.000000
 -0.222222 -0.333333  0.444444      2.000000
 -0.111111 -0.333333  0.444444      2.000000
  0.000000 -0.222222  0.444444      2.000000
  0.111111 -0.222222  0.444444      2.000000
  0.222222 -0.222222  0.444444      2.000000
  0.333333 -0.222222  0.444444      2.000000
  0.444444 -0.222222  0.444444      2.000000
 -0.444444 -0.222222  0.444444      2.000000
 -0.333333 -0.222222  0.444444      2.000000
 -0.222222 -0.222222  0.444444      2.000000
 -0.111111 -0.222222  0.444444      2.000000
  0.000000 -0.111111  0.444444      2.000000
  0.111111 -0.111111  0.444444      2.000000
  0.222222 -0.111111  0.444444      2.000000
  0.333333 -0.111111  0.444444      2.000000
  0.444444 -0.111111  0.444444      2.000000
 -0.444444 -0.111111  0.444444      2.000000
 -0.333333 -0.111111  0.444444      2.000000
 -0.222222 -0.111111  0.444444      2.000000
 -0.111111 -0.111111  0.444444      2.000000
 
 Following cartesian coordinates:
            Coordinates               Weight
  0.000000  0.000000  0.000000      1.000000
  0.024330 -0.014047 -0.009933      2.000000
  0.048659 -0.028093 -0.019865      2.000000
  0.072989 -0.042140 -0.029798      2.000000
  0.097319 -0.056187 -0.039730      2.000000
  0.000000  0.028093 -0.009933      2.000000
  0.024330  0.014047 -0.019865      2.000000
  0.048659 -0.000000 -0.029798      2.000000
  0.072989 -0.014047 -0.039730      2.000000
  0.097319 -0.028093 -0.049663      2.000000
 -0.097319  0.084280  0.029798      2.000000
 -0.072989  0.070234  0.019865      2.000000
 -0.048659  0.056187  0.009933      2.000000
 -0.024330  0.042140  0.000000      2.000000
  0.000000  0.056187 -0.019865      2.000000
  0.024330  0.042140 -0.029798      2.000000
  0.048659  0.028093 -0.039730      2.000000
  0.072989  0.014047 -0.049663      2.000000
  0.097319  0.000000 -0.059595      2.000000
 -0.097319  0.112374  0.019865      2.000000
 -0.072989  0.098327  0.009933      2.000000
 -0.048659  0.084280  0.000000      2.000000
 -0.024330  0.070234 -0.009933      2.000000
  0.000000  0.084280 -0.029798      2.000000
  0.024330  0.070234 -0.039730      2.000000
  0.048659  0.056187 -0.049663      2.000000
  0.072989  0.042140 -0.059595      2.000000
  0.097319  0.028093 -0.069528      2.000000
 -0.097319  0.140467  0.009933      2.000000
 -0.072989  0.126421  0.000000      2.000000
 -0.048659  0.112374 -0.009933      2.000000
 -0.024330  0.098327 -0.019865      2.000000
  0.000000  0.112374 -0.039730      2.000000
  0.024330  0.098327 -0.049663      2.000000
  0.048659  0.084280 -0.059595      2.000000
  0.072989  0.070234 -0.069528      2.000000
  0.097319  0.056187 -0.079460      2.000000
 -0.097319  0.168561  0.000000      2.000000
 -0.072989  0.154514 -0.009933      2.000000
 -0.048659  0.140467 -0.019865      2.000000
 -0.024330  0.126421 -0.029798      2.000000
 -0.000000  0.000000  0.029798      2.000000
  0.024330 -0.014047  0.019865      2.000000
  0.048659 -0.028093  0.009933      2.000000
  0.072989 -0.042140 -0.000000      2.000000
  0.097319 -0.056187 -0.009933      2.000000
 -0.097319  0.056187  0.069528      2.000000
 -0.072989  0.042140  0.059595      2.000000
 -0.048659  0.028093  0.049663      2.000000
 -0.024330  0.014047  0.039730      2.000000
 -0.000000  0.028093  0.019865      2.000000
  0.024330  0.014047  0.009933      2.000000
  0.048659 -0.000000 -0.000000      2.000000
  0.072989 -0.014047 -0.009933      2.000000
  0.097319 -0.028093 -0.019865      2.000000
 -0.097319  0.084280  0.059595      2.000000
 -0.072989  0.070234  0.049663      2.000000
 -0.048659  0.056187  0.039730      2.000000
 -0.024330  0.042140  0.029798      2.000000
 -0.000000  0.056187  0.009933      2.000000
  0.024330  0.042140 -0.000000      2.000000
  0.048659  0.028093 -0.009933      2.000000
  0.072989  0.014047 -0.019865      2.000000
  0.097319  0.000000 -0.029798      2.000000
 -0.097319  0.112374  0.049663      2.000000
 -0.072989  0.098327  0.039730      2.000000
 -0.048659  0.084280  0.029798      2.000000
 -0.024330  0.070234  0.019865      2.000000
  0.000000  0.084280 -0.000000      2.000000
  0.024330  0.070234 -0.009933      2.000000
  0.048659  0.056187 -0.019865      2.000000
  0.072989  0.042140 -0.029798      2.000000
  0.097319  0.028093 -0.039730      2.000000
 -0.097319  0.140467  0.039730      2.000000
 -0.072989  0.126421  0.029798      2.000000
 -0.048659  0.112374  0.019865      2.000000
 -0.024330  0.098327  0.009933      2.000000
  0.000000  0.112374 -0.009933      2.000000
  0.024330  0.098327 -0.019865      2.000000
  0.048659  0.084280 -0.029798      2.000000
  0.072989  0.070234 -0.039730      2.000000
  0.097319  0.056187 -0.049663      2.000000
 -0.097319  0.168561  0.029798      2.000000
 -0.072989  0.154514  0.019865      2.000000
 -0.048659  0.140467  0.009933      2.000000
 -0.024330  0.126421  0.000000      2.000000
 -0.000000 -0.112374  0.069528      2.000000
  0.024330 -0.126421  0.059595      2.000000
  0.048659 -0.140467  0.049663      2.000000
  0.072989 -0.154514  0.039730      2.000000
  0.097319 -0.168561  0.029798      2.000000
 -0.097319 -0.056187  0.109258      2.000000
 -0.072989 -0.070234  0.099325      2.000000
 -0.048659 -0.084280  0.089393      2.000000
 -0.024330 -0.098327  0.079460      2.000000
 -0.000000 -0.084280  0.059595      2.000000
  0.024330 -0.098327  0.049663      2.000000
  0.048659 -0.112374  0.039730      2.000000
  0.072989 -0.126421  0.029798      2.000000
  0.097319 -0.140467  0.019865      2.000000
 -0.097319 -0.028093  0.099325      2.000000
 -0.072989 -0.042140  0.089393      2.000000
 -0.048659 -0.056187  0.079460      2.000000
 -0.024330 -0.070234  0.069528      2.000000
 -0.000000 -0.056187  0.049663      2.000000
  0.024330 -0.070234  0.039730      2.000000
  0.048659 -0.084280  0.029798      2.000000
  0.072989 -0.098327  0.019865      2.000000
  0.097319 -0.112374  0.009933      2.000000
 -0.097319  0.000000  0.089393      2.000000
 -0.072989 -0.014047  0.079460      2.000000
 -0.048659 -0.028093  0.069528      2.000000
 -0.024330 -0.042140  0.059595      2.000000
 -0.000000 -0.028093  0.039730      2.000000
  0.024330 -0.042140  0.029798      2.000000
  0.048659 -0.056187  0.019865      2.000000
  0.072989 -0.070234  0.009933      2.000000
  0.097319 -0.084280 -0.000000      2.000000
 -0.097319  0.028093  0.079460      2.000000
 -0.072989  0.014047  0.069528      2.000000
 -0.048659 -0.000000  0.059595      2.000000
 -0.024330 -0.014047  0.049663      2.000000
 -0.000000  0.000000  0.059595      2.000000
  0.024330 -0.014047  0.049663      2.000000
  0.048659 -0.028093  0.039730      2.000000
  0.072989 -0.042140  0.029798      2.000000
  0.097319 -0.056187  0.019865      2.000000
 -0.097319  0.056187  0.099325      2.000000
 -0.072989  0.042140  0.089393      2.000000
 -0.048659  0.028093  0.079460      2.000000
 -0.024330  0.014047  0.069528      2.000000
 -0.000000  0.028093  0.049663      2.000000
  0.024330  0.014047  0.039730      2.000000
  0.048659 -0.000000  0.029798      2.000000
  0.072989 -0.014047  0.019865      2.000000
  0.097319 -0.028093  0.009933      2.000000
 -0.097319  0.084280  0.089393      2.000000
 -0.072989  0.070234  0.079460      2.000000
 -0.048659  0.056187  0.069528      2.000000
 -0.024330  0.042140  0.059595      2.000000
 -0.000000  0.056187  0.039730      2.000000
  0.024330  0.042140  0.029798      2.000000
  0.048659  0.028093  0.019865      2.000000
  0.072989  0.014047  0.009933      2.000000
  0.097319  0.000000  0.000000      2.000000
 -0.097319  0.112374  0.079460      2.000000
 -0.072989  0.098327  0.069528      2.000000
 -0.048659  0.084280  0.059595      2.000000
 -0.024330  0.070234  0.049663      2.000000
 -0.000000  0.084280  0.029798      2.000000
  0.024330  0.070234  0.019865      2.000000
  0.048659  0.056187  0.009933      2.000000
  0.072989  0.042140  0.000000      2.000000
  0.097319  0.028093 -0.009933      2.000000
 -0.097319  0.140467  0.069528      2.000000
 -0.072989  0.126421  0.059595      2.000000
 -0.048659  0.112374  0.049663      2.000000
 -0.024330  0.098327  0.039730      2.000000
 -0.000000  0.112374  0.019865      2.000000
  0.024330  0.098327  0.009933      2.000000
  0.048659  0.084280  0.000000      2.000000
  0.072989  0.070234 -0.009933      2.000000
  0.097319  0.056187 -0.019865      2.000000
 -0.097319  0.168561  0.059595      2.000000
 -0.072989  0.154514  0.049663      2.000000
 -0.048659  0.140467  0.039730      2.000000
 -0.024330  0.126421  0.029798      2.000000
 -0.000000 -0.112374  0.099325      2.000000
  0.024330 -0.126421  0.089393      2.000000
  0.048659 -0.140467  0.079460      2.000000
  0.072989 -0.154514  0.069528      2.000000
  0.097319 -0.168561  0.059595      2.000000
 -0.097319 -0.056187  0.139056      2.000000
 -0.072989 -0.070234  0.129123      2.000000
 -0.048659 -0.084280  0.119190      2.000000
 -0.024330 -0.098327  0.109258      2.000000
 -0.000000 -0.084280  0.089393      2.000000
  0.024330 -0.098327  0.079460      2.000000
  0.048659 -0.112374  0.069528      2.000000
  0.072989 -0.126421  0.059595      2.000000
  0.097319 -0.140467  0.049663      2.000000
 -0.097319 -0.028093  0.129123      2.000000
 -0.072989 -0.042140  0.119190      2.000000
 -0.048659 -0.056187  0.109258      2.000000
 -0.024330 -0.070234  0.099325      2.000000
 -0.000000 -0.056187  0.079460      2.000000
  0.024330 -0.070234  0.069528      2.000000
  0.048659 -0.084280  0.059595      2.000000
  0.072989 -0.098327  0.049663      2.000000
  0.097319 -0.112374  0.039730      2.000000
 -0.097319  0.000000  0.119190      2.000000
 -0.072989 -0.014047  0.109258      2.000000
 -0.048659 -0.028093  0.099325      2.000000
 -0.024330 -0.042140  0.089393      2.000000
 -0.000000 -0.028093  0.069528      2.000000
  0.024330 -0.042140  0.059595      2.000000
  0.048659 -0.056187  0.049663      2.000000
  0.072989 -0.070234  0.039730      2.000000
  0.097319 -0.084280  0.029798      2.000000
 -0.097319  0.028093  0.109258      2.000000
 -0.072989  0.014047  0.099325      2.000000
 -0.048659 -0.000000  0.089393      2.000000
 -0.024330 -0.014047  0.079460      2.000000
 -0.000000  0.000000  0.089393      2.000000
  0.024330 -0.014047  0.079460      2.000000
  0.048659 -0.028093  0.069528      2.000000
  0.072989 -0.042140  0.059595      2.000000
  0.097319 -0.056187  0.049663      2.000000
 -0.097319  0.056187  0.129123      2.000000
 -0.072989  0.042140  0.119190      2.000000
 -0.048659  0.028093  0.109258      2.000000
 -0.024330  0.014047  0.099325      2.000000
 -0.000000  0.028093  0.079460      2.000000
  0.024330  0.014047  0.069528      2.000000
  0.048659 -0.000000  0.059595      2.000000
  0.072989 -0.014047  0.049663      2.000000
  0.097319 -0.028093  0.039730      2.000000
 -0.097319  0.084280  0.119190      2.000000
 -0.072989  0.070234  0.109258      2.000000
 -0.048659  0.056187  0.099325      2.000000
 -0.024330  0.042140  0.089393      2.000000
 -0.000000  0.056187  0.069528      2.000000
  0.024330  0.042140  0.059595      2.000000
  0.048659  0.028093  0.049663      2.000000
  0.072989  0.014047  0.039730      2.000000
  0.097319  0.000000  0.029798      2.000000
 -0.097319  0.112374  0.109258      2.000000
 -0.072989  0.098327  0.099325      2.000000
 -0.048659  0.084280  0.089393      2.000000
 -0.024330  0.070234  0.079460      2.000000
 -0.000000  0.084280  0.059595      2.000000
  0.024330  0.070234  0.049663      2.000000
  0.048659  0.056187  0.039730      2.000000
  0.072989  0.042140  0.029798      2.000000
  0.097319  0.028093  0.019865      2.000000
 -0.097319  0.140467  0.099325      2.000000
 -0.072989  0.126421  0.089393      2.000000
 -0.048659  0.112374  0.079460      2.000000
 -0.024330  0.098327  0.069528      2.000000
 -0.000000  0.112374  0.049663      2.000000
  0.024330  0.098327  0.039730      2.000000
  0.048659  0.084280  0.029798      2.000000
  0.072989  0.070234  0.019865      2.000000
  0.097319  0.056187  0.009933      2.000000
 -0.097319  0.168561  0.089393      2.000000
 -0.072989  0.154514  0.079460      2.000000
 -0.048659  0.140467  0.069528      2.000000
 -0.024330  0.126421  0.059595      2.000000
 -0.000000 -0.112374  0.129123      2.000000
  0.024330 -0.126421  0.119190      2.000000
  0.048659 -0.140467  0.109258      2.000000
  0.072989 -0.154514  0.099325      2.000000
  0.097319 -0.168561  0.089393      2.000000
 -0.097319 -0.056187  0.168853      2.000000
 -0.072989 -0.070234  0.158921      2.000000
 -0.048659 -0.084280  0.148988      2.000000
 -0.024330 -0.098327  0.139056      2.000000
 -0.000000 -0.084280  0.119190      2.000000
  0.024330 -0.098327  0.109258      2.000000
  0.048659 -0.112374  0.099325      2.000000
  0.072989 -0.126421  0.089393      2.000000
  0.097319 -0.140467  0.079460      2.000000
 -0.097319 -0.028093  0.158921      2.000000
 -0.072989 -0.042140  0.148988      2.000000
 -0.048659 -0.056187  0.139056      2.000000
 -0.024330 -0.070234  0.129123      2.000000
 -0.000000 -0.056187  0.109258      2.000000
  0.024330 -0.070234  0.099325      2.000000
  0.048659 -0.084280  0.089393      2.000000
  0.072989 -0.098327  0.079460      2.000000
  0.097319 -0.112374  0.069528      2.000000
 -0.097319 -0.000000  0.148988      2.000000
 -0.072989 -0.014047  0.139056      2.000000
 -0.048659 -0.028093  0.129123      2.000000
 -0.024330 -0.042140  0.119190      2.000000
 -0.000000 -0.028093  0.099325      2.000000
  0.024330 -0.042140  0.089393      2.000000
  0.048659 -0.056187  0.079460      2.000000
  0.072989 -0.070234  0.069528      2.000000
  0.097319 -0.084280  0.059595      2.000000
 -0.097319  0.028093  0.139056      2.000000
 -0.072989  0.014047  0.129123      2.000000
 -0.048659 -0.000000  0.119190      2.000000
 -0.024330 -0.014047  0.109258      2.000000
 -0.000000  0.000000  0.119190      2.000000
  0.024330 -0.014047  0.109258      2.000000
  0.048659 -0.028093  0.099325      2.000000
  0.072989 -0.042140  0.089393      2.000000
  0.097319 -0.056187  0.079460      2.000000
 -0.097319  0.056187  0.158921      2.000000
 -0.072989  0.042140  0.148988      2.000000
 -0.048659  0.028093  0.139056      2.000000
 -0.024330  0.014047  0.129123      2.000000
 -0.000000  0.028093  0.109258      2.000000
  0.024330  0.014047  0.099325      2.000000
  0.048659 -0.000000  0.089393      2.000000
  0.072989 -0.014047  0.079460      2.000000
  0.097319 -0.028093  0.069528      2.000000
 -0.097319  0.084280  0.148988      2.000000
 -0.072989  0.070234  0.139056      2.000000
 -0.048659  0.056187  0.129123      2.000000
 -0.024330  0.042140  0.119190      2.000000
 -0.000000  0.056187  0.099325      2.000000
  0.024330  0.042140  0.089393      2.000000
  0.048659  0.028093  0.079460      2.000000
  0.072989  0.014047  0.069528      2.000000
  0.097319  0.000000  0.059595      2.000000
 -0.097319  0.112374  0.139056      2.000000
 -0.072989  0.098327  0.129123      2.000000
 -0.048659  0.084280  0.119190      2.000000
 -0.024330  0.070234  0.109258      2.000000
 -0.000000  0.084280  0.089393      2.000000
  0.024330  0.070234  0.079460      2.000000
  0.048659  0.056187  0.069528      2.000000
  0.072989  0.042140  0.059595      2.000000
  0.097319  0.028093  0.049663      2.000000
 -0.097319  0.140467  0.129123      2.000000
 -0.072989  0.126421  0.119190      2.000000
 -0.048659  0.112374  0.109258      2.000000
 -0.024330  0.098327  0.099325      2.000000
 -0.000000  0.112374  0.079460      2.000000
  0.024330  0.098327  0.069528      2.000000
  0.048659  0.084280  0.059595      2.000000
  0.072989  0.070234  0.049663      2.000000
  0.097319  0.056187  0.039730      2.000000
 -0.097319  0.168561  0.119190      2.000000
 -0.072989  0.154514  0.109258      2.000000
 -0.048659  0.140467  0.099325      2.000000
 -0.024330  0.126421  0.089393      2.000000
 -0.000000 -0.112374  0.158921      2.000000
  0.024330 -0.126421  0.148988      2.000000
  0.048659 -0.140467  0.139056      2.000000
  0.072989 -0.154514  0.129123      2.000000
  0.097319 -0.168561  0.119190      2.000000
 -0.097319 -0.056187  0.198651      2.000000
 -0.072989 -0.070234  0.188718      2.000000
 -0.048659 -0.084280  0.178786      2.000000
 -0.024330 -0.098327  0.168853      2.000000
 -0.000000 -0.084280  0.148988      2.000000
  0.024330 -0.098327  0.139056      2.000000
  0.048659 -0.112374  0.129123      2.000000
  0.072989 -0.126421  0.119190      2.000000
  0.097319 -0.140467  0.109258      2.000000
 -0.097319 -0.028093  0.188718      2.000000
 -0.072989 -0.042140  0.178786      2.000000
 -0.048659 -0.056187  0.168853      2.000000
 -0.024330 -0.070234  0.158921      2.000000
 -0.000000 -0.056187  0.139056      2.000000
  0.024330 -0.070234  0.129123      2.000000
  0.048659 -0.084280  0.119190      2.000000
  0.072989 -0.098327  0.109258      2.000000
  0.097319 -0.112374  0.099325      2.000000
 -0.097319  0.000000  0.178786      2.000000
 -0.072989 -0.014047  0.168853      2.000000
 -0.048659 -0.028093  0.158921      2.000000
 -0.024330 -0.042140  0.148988      2.000000
 -0.000000 -0.028093  0.129123      2.000000
  0.024330 -0.042140  0.119190      2.000000
  0.048659 -0.056187  0.109258      2.000000
  0.072989 -0.070234  0.099325      2.000000
  0.097319 -0.084280  0.089393      2.000000
 -0.097319  0.028093  0.168853      2.000000
 -0.072989  0.014047  0.158921      2.000000
 -0.048659 -0.000000  0.148988      2.000000
 -0.024330 -0.014047  0.139056      2.000000
 


--------------------------------------------------------------------------------------------------------




 Dimension of arrays:
   k-points           NKPTS =    365   k-points in BZ     NKDIM =    365   number of bands    NBANDS=     28
   number of dos      NEDOS =    301   number of ions     NIONS =      1
   non local maximal  LDIM  =      6   non local SUM 2l+1 LMDIM =     18
   total plane-waves  NPLWV =  64000
   max r-space proj   IRMAX =      1   max aug-charges    IRDMAX= 430312
   dimension x,y,z NGX =    40 NGY =   40 NGZ =   40
   dimension x,y,z NGXF=    80 NGYF=   80 NGZF=   80
   support grid    NGXF=   160 NGYF=  160 NGZF=  160
   ions per type =               1
   NGX,Y,Z   is equivalent  to a cutoff of  14.28, 14.28, 14.28 a.u.
   NGXF,Y,Z  is equivalent  to a cutoff of  28.55, 28.55, 28.55 a.u.

 SYSTEM =  Og_FCC                                  
 POSCAR =  Og_FCC                                  

 Startparameter for this run:
   NWRITE =      2    write-flag & timer
   PREC   = accura    normal or accurate (medium, high low for compatibility)
   ISTART =      0    job   : 0-new  1-cont  2-samecut
   ICHARG =      2    charge: 1-file 2-atom 10-const
   ISPIN  =      1    spin polarized calculation?
   LNONCOLLINEAR =      T non collinear calculations
   LSORBIT =      T    spin-orbit coupling
   INIWAV =      1    electr: 0-lowe 1-rand  2-diag
   LASPH  =      F    aspherical Exc in radial PAW
   METAGGA=      F    non-selfconsistent MetaGGA calc.

 Electronic Relaxation 1
   ENCUT  =  600.0 eV  44.10 Ry    6.64 a.u.   9.30  9.30  9.30*2*pi/ulx,y,z
   ENINI  =  600.0     initial cutoff
   ENAUG  =  361.0 eV  augmentation charge cutoff
   NELM   =    100;   NELMIN=  5; NELMDL= -5     # of ELM steps 
   EDIFF  = 0.1E-06   stopping-criterion for ELM
   LREAL  =      F    real-space projection
   NLSPLINE    = F    spline interpolate recip. space projectors
   LCOMPAT=      F    compatible to vasp.4.4
   GGA_COMPAT  = F    GGA compatible to vasp.4.4-vasp.4.6
   LMAXPAW     = -100 max onsite density
   LMAXMIX     =    2 max onsite mixed and CHGCAR
   VOSKOWN=      0    Vosko Wilk Nusair interpolation
   ROPT   =    0.00000
 Ionic relaxation
   EDIFFG = 0.1E-04   stopping-criterion for IOM
   NSW    =      1    number of steps for IOM
   NBLOCK =      1;   KBLOCK =      1    inner block; outer block 
   IBRION =     -1    ionic relax: 0-MD 1-quasi-New 2-CG
   NFREE  =      5    steps in history (QN), initial steepest desc. (CG)
   ISIF   =      7    stress and relaxation
   IWAVPR =     10    prediction:  0-non 1-charg 2-wave 3-comb
   ISYM   =      2    0-nonsym 1-usesym 2-fastsym
   LCORR  =      T    Harris-Foulkes like correction to forces

   POTIM  = 0.1000    time-step for ionic-motion
   TEIN   =    0.0    initial temperature
   TEBEG  =    0.0;   TEEND  =   0.0 temperature during run
   SMASS  =  -3.00    Nose mass-parameter (am)
   estimated Nose-frequenzy (Omega)   =  0.10E-29 period in steps =****** mass=  -0.496E-27a.u.
   SCALEE = 1.0000    scale energy and forces
   NPACO  =    256;   APACO  = 16.0  distance and # of slots for P.C.
   PSTRESS=    0.0 pullay stress

  Mass of Ions in am
   POMASS =   0.01
  Ionic Valenz
   ZVAL   =  18.00
  Atomic Wigner-Seitz radii
   RWIGS  =  -1.00
  virtual crystal weights 
   VCA    =   1.00
   NELECT =      18.0000    total number of electrons
   NUPDOWN=      -1.0000    fix difference up-down

 DOS related values:
   EMIN   =  10.00;   EMAX   =-10.00  energy-range for DOS
   EFERMI =   0.00
   ISMEAR =     1;   SIGMA  =   0.10  broadening in eV -4-tet -1-fermi 0-gaus

 Electronic relaxation 2 (details)
   IALGO  =     68    algorithm
   LDIAG  =      T    sub-space diagonalisation (order eigenvalues)
   LSUBROT=      F    optimize rotation matrix (better conditioning)
   TURBO    =      0    0=normal 1=particle mesh
   IRESTART =      0    0=no restart 2=restart with 2 vectors
   NREBOOT  =      0    no. of reboots
   NMIN     =      0    reboot dimension
   EREF     =   0.00    reference energy to select bands
   IMIX   =      4    mixing-type and parameters
     AMIX     =   0.40;   BMIX     =  1.00
     AMIX_MAG =   1.60;   BMIX_MAG =  1.00
     AMIN     =   0.10
     WC   =   100.;   INIMIX=   1;  MIXPRE=   1;  MAXMIX=  50

 Intra band minimization:
   WEIMIN = 0.0000     energy-eigenvalue tresh-hold
   EBREAK =  0.89E-09  absolut break condition
   DEPER  =   0.30     relativ break condition  

   TIME   =   0.40     timestep for ELM

  volume/ion in A,a.u.               =      71.47       482.33
  Fermi-wavevector in a.u.,A,eV,Ry     =   1.033829  1.953654 14.541952  1.068803
  Thomas-Fermi vector in A             =   2.168095
 
 Write flags
   LWAVE        =      F    write WAVECAR
   LDOWNSAMPLE  =      F    k-point downsampling of WAVECAR
   LCHARG       =      F    write CHGCAR
   LVTOT        =      F    write LOCPOT, total local potential
   LVHAR        =      F    write LOCPOT, Hartree potential only
   LELF         =      F    write electronic localiz. function (ELF)
   LORBIT       =      0    0 simple, 1 ext, 2 COOP (PROOUT), +10 PAW based schemes


 Dipole corrections
   LMONO  =      F    monopole corrections only (constant potential shift)
   LDIPOL =      F    correct potential (dipole corrections)
   IDIPOL =      0    1-x, 2-y, 3-z, 4-all directions 
   EPSILON=  1.0000000 bulk dielectric constant

 Exchange correlation treatment:
   GGA     =    PE    GGA type
   LEXCH   =     8    internal setting for exchange type
   VOSKOWN=      0    Vosko Wilk Nusair interpolation
   LHFCALC =     F    Hartree Fock is set to
   LHFONE  =     F    Hartree Fock one center treatment
   AEXX    =    0.0000 exact exchange contribution

 Linear response parameters
   LEPSILON=     F    determine dielectric tensor
   LRPA    =     F    only Hartree local field effects (RPA)
   LNABLA  =     F    use nabla operator in PAW spheres
   LVEL    =     F    velocity operator in full k-point grid
   LINTERFAST=   F  fast interpolation
   KINTER  =     0    interpolate to denser k-point grid
   CSHIFT  =0.1000    complex shift for real part using Kramers Kronig
   OMEGAMAX=  -1.0    maximum frequency
   DEG_THRESHOLD= 0.2000000E-02 threshold for treating states as degnerate
   RTIME   =   -0.100 relaxation time in fs
  (WPLASMAI=    0.000 imaginary part of plasma frequency in eV, 0.658/RTIME)
   DFIELD  = 0.0000000 0.0000000 0.0000000 field for delta impulse in time
 
 Orbital magnetization related:
   ORBITALMAG=     F  switch on orbital magnetization
   LCHIMAG   =     F  perturbation theory with respect to B field
   DQ        =  0.001000  dq finite difference perturbation B field
   LLRAUG    =     F  two centre corrections for induced B field



--------------------------------------------------------------------------------------------------------


 Static calculation
 charge density and potential will be updated during run
 non collinear spin polarized calculation
 RMM-DIIS sequential band-by-band and
  variant of blocked Davidson during initial phase
 perform sub-space diagonalisation
    before iterative eigenvector-optimisation
 modified Broyden-mixing scheme, WC =      100.0
 initial mixing is a Kerker type mixing with AMIX =  0.4000 and BMIX =      1.0000
 Hartree-type preconditioning will be used
 using additional bands           19
 reciprocal scheme for non local part
 use partial core corrections
 calculate Harris-corrections to forces 
   (improved forces if not selfconsistent)
 use gradient corrections 
 use of overlap-Matrix (Vanderbilt PP)
 Methfessel and Paxton  Order N= 1 SIGMA  =   0.10


--------------------------------------------------------------------------------------------------------


  energy-cutoff  :      600.00
  volume of cell :       71.47
      direct lattice vectors                 reciprocal lattice vectors
     4.658239013  0.000000000  0.000000000     0.214673399 -0.123941744 -0.087640048
     2.329119506  4.034153322 -0.000000000     0.000000000  0.247883489 -0.087640048
     2.329119506  1.344717774  3.803436227    -0.000000000  0.000000000  0.262920144

  length of vectors
     4.658239013  4.658239013  4.658239013     0.262920144  0.262920144  0.262920144


 
 k-points in units of 2pi/SCALE and weight: read from INCAR                         
   0.00000000  0.00000000  0.00000000       0.001
   0.02432965 -0.01404673 -0.00993254       0.003
   0.04865930 -0.02809346 -0.01986508       0.003
   0.07298896 -0.04214019 -0.02979762       0.003
   0.09731861 -0.05618692 -0.03973016       0.003
   0.00000000  0.02809346 -0.00993254       0.003
   0.02432965  0.01404673 -0.01986508       0.003
   0.04865930 -0.00000000 -0.02979762       0.003
   0.07298896 -0.01404673 -0.03973016       0.003
   0.09731861 -0.02809346 -0.04966269       0.003
  -0.09731861  0.08428039  0.02979762       0.003
  -0.07298896  0.07023366  0.01986508       0.003
  -0.04865930  0.05618692  0.00993254       0.003
  -0.02432965  0.04214019  0.00000000       0.003
   0.00000000  0.05618692 -0.01986508       0.003
   0.02432965  0.04214019 -0.02979762       0.003
   0.04865930  0.02809346 -0.03973016       0.003
   0.07298896  0.01404673 -0.04966269       0.003
   0.09731861  0.00000000 -0.05959523       0.003
  -0.09731861  0.11237385  0.01986508       0.003
  -0.07298896  0.09832712  0.00993254       0.003
  -0.04865930  0.08428039  0.00000000       0.003
  -0.02432965  0.07023366 -0.00993254       0.003
   0.00000000  0.08428039 -0.02979762       0.003
   0.02432965  0.07023366 -0.03973016       0.003
   0.04865930  0.05618692 -0.04966269       0.003
   0.07298896  0.04214019 -0.05959523       0.003
   0.09731861  0.02809346 -0.06952777       0.003
  -0.09731861  0.14046731  0.00993254       0.003
  -0.07298896  0.12642058  0.00000000       0.003
  -0.04865930  0.11237385 -0.00993254       0.003
  -0.02432965  0.09832712 -0.01986508       0.003
   0.00000000  0.11237385 -0.03973016       0.003
   0.02432965  0.09832712 -0.04966269       0.003
   0.04865930  0.08428039 -0.05959523       0.003
   0.07298896  0.07023366 -0.06952777       0.003
   0.09731861  0.05618692 -0.07946031       0.003
  -0.09731861  0.16856077  0.00000000       0.003
  -0.07298896  0.15451404 -0.00993254       0.003
  -0.04865930  0.14046731 -0.01986508       0.003
  -0.02432965  0.12642058 -0.02979762       0.003
  -0.00000000  0.00000000  0.02979762       0.003
   0.02432965 -0.01404673  0.01986508       0.003
   0.04865930 -0.02809346  0.00993254       0.003
   0.07298896 -0.04214019 -0.00000000       0.003
   0.09731861 -0.05618692 -0.00993254       0.003
  -0.09731861  0.05618692  0.06952777       0.003
  -0.07298896  0.04214019  0.05959523       0.003
  -0.04865930  0.02809346  0.04966269       0.003
  -0.02432965  0.01404673  0.03973016       0.003
  -0.00000000  0.02809346  0.01986508       0.003
   0.02432965  0.01404673  0.00993254       0.003
   0.04865930 -0.00000000 -0.00000000       0.003
   0.07298896 -0.01404673 -0.00993254       0.003
   0.09731861 -0.02809346 -0.01986508       0.003
  -0.09731861  0.08428039  0.05959523       0.003
  -0.07298896  0.07023366  0.04966269       0.003
  -0.04865930  0.05618692  0.03973016       0.003
  -0.02432965  0.04214019  0.02979762       0.003
  -0.00000000  0.05618692  0.00993254       0.003
   0.02432965  0.04214019 -0.00000000       0.003
   0.04865930  0.02809346 -0.00993254       0.003
   0.07298896  0.01404673 -0.01986508       0.003
   0.09731861  0.00000000 -0.02979762       0.003
  -0.09731861  0.11237385  0.04966269       0.003
  -0.07298896  0.09832712  0.03973016       0.003
  -0.04865930  0.08428039  0.02979762       0.003
  -0.02432965  0.07023366  0.01986508       0.003
   0.00000000  0.08428039 -0.00000000       0.003
   0.02432965  0.07023366 -0.00993254       0.003
   0.04865930  0.05618692 -0.01986508       0.003
   0.07298896  0.04214019 -0.02979762       0.003
   0.09731861  0.02809346 -0.03973016       0.003
  -0.09731861  0.14046731  0.03973016       0.003
  -0.07298896  0.12642058  0.02979762       0.003
  -0.04865930  0.11237385  0.01986508       0.003
  -0.02432965  0.09832712  0.00993254       0.003
   0.00000000  0.11237385 -0.00993254       0.003
   0.02432965  0.09832712 -0.01986508       0.003
   0.04865930  0.08428039 -0.02979762       0.003
   0.07298896  0.07023366 -0.03973016       0.003
   0.09731861  0.05618692 -0.04966269       0.003
  -0.09731861  0.16856077  0.02979762       0.003
  -0.07298896  0.15451404  0.01986508       0.003
  -0.04865930  0.14046731  0.00993254       0.003
  -0.02432965  0.12642058  0.00000000       0.003
  -0.00000000 -0.11237385  0.06952777       0.003
   0.02432965 -0.12642058  0.05959523       0.003
   0.04865930 -0.14046731  0.04966269       0.003
   0.07298896 -0.15451404  0.03973016       0.003
   0.09731861 -0.16856077  0.02979762       0.003
  -0.09731861 -0.05618692  0.10925793       0.003
  -0.07298896 -0.07023366  0.09932539       0.003
  -0.04865930 -0.08428039  0.08939285       0.003
  -0.02432965 -0.09832712  0.07946031       0.003
  -0.00000000 -0.08428039  0.05959523       0.003
   0.02432965 -0.09832712  0.04966269       0.003
   0.04865930 -0.11237385  0.03973016       0.003
   0.07298896 -0.12642058  0.02979762       0.003
   0.09731861 -0.14046731  0.01986508       0.003
  -0.09731861 -0.02809346  0.09932539       0.003
  -0.07298896 -0.04214019  0.08939285       0.003
  -0.04865930 -0.05618692  0.07946031       0.003
  -0.02432965 -0.07023366  0.06952777       0.003
  -0.00000000 -0.05618692  0.04966269       0.003
   0.02432965 -0.07023366  0.03973016       0.003
   0.04865930 -0.08428039  0.02979762       0.003
   0.07298896 -0.09832712  0.01986508       0.003
   0.09731861 -0.11237385  0.00993254       0.003
  -0.09731861  0.00000000  0.08939285       0.003
  -0.07298896 -0.01404673  0.07946031       0.003
  -0.04865930 -0.02809346  0.06952777       0.003
  -0.02432965 -0.04214019  0.05959523       0.003
  -0.00000000 -0.02809346  0.03973016       0.003
   0.02432965 -0.04214019  0.02979762       0.003
   0.04865930 -0.05618692  0.01986508       0.003
   0.07298896 -0.07023366  0.00993254       0.003
   0.09731861 -0.08428039 -0.00000000       0.003
  -0.09731861  0.02809346  0.07946031       0.003
  -0.07298896  0.01404673  0.06952777       0.003
  -0.04865930 -0.00000000  0.05959523       0.003
  -0.02432965 -0.01404673  0.04966269       0.003
  -0.00000000  0.00000000  0.05959523       0.003
   0.02432965 -0.01404673  0.04966269       0.003
   0.04865930 -0.02809346  0.03973016       0.003
   0.07298896 -0.04214019  0.02979762       0.003
   0.09731861 -0.05618692  0.01986508       0.003
  -0.09731861  0.05618692  0.09932539       0.003
  -0.07298896  0.04214019  0.08939285       0.003
  -0.04865930  0.02809346  0.07946031       0.003
  -0.02432965  0.01404673  0.06952777       0.003
  -0.00000000  0.02809346  0.04966269       0.003
   0.02432965  0.01404673  0.03973016       0.003
   0.04865930 -0.00000000  0.02979762       0.003
   0.07298896 -0.01404673  0.01986508       0.003
   0.09731861 -0.02809346  0.00993254       0.003
  -0.09731861  0.08428039  0.08939285       0.003
  -0.07298896  0.07023366  0.07946031       0.003
  -0.04865930  0.05618692  0.06952777       0.003
  -0.02432965  0.04214019  0.05959523       0.003
  -0.00000000  0.05618692  0.03973016       0.003
   0.02432965  0.04214019  0.02979762       0.003
   0.04865930  0.02809346  0.01986508       0.003
   0.07298896  0.01404673  0.00993254       0.003
   0.09731861  0.00000000  0.00000000       0.003
  -0.09731861  0.11237385  0.07946031       0.003
  -0.07298896  0.09832712  0.06952777       0.003
  -0.04865930  0.08428039  0.05959523       0.003
  -0.02432965  0.07023366  0.04966269       0.003
  -0.00000000  0.08428039  0.02979762       0.003
   0.02432965  0.07023366  0.01986508       0.003
   0.04865930  0.05618692  0.00993254       0.003
   0.07298896  0.04214019  0.00000000       0.003
   0.09731861  0.02809346 -0.00993254       0.003
  -0.09731861  0.14046731  0.06952777       0.003
  -0.07298896  0.12642058  0.05959523       0.003
  -0.04865930  0.11237385  0.04966269       0.003
  -0.02432965  0.09832712  0.03973016       0.003
  -0.00000000  0.11237385  0.01986508       0.003
   0.02432965  0.09832712  0.00993254       0.003
   0.04865930  0.08428039  0.00000000       0.003
   0.07298896  0.07023366 -0.00993254       0.003
   0.09731861  0.05618692 -0.01986508       0.003
  -0.09731861  0.16856077  0.05959523       0.003
  -0.07298896  0.15451404  0.04966269       0.003
  -0.04865930  0.14046731  0.03973016       0.003
  -0.02432965  0.12642058  0.02979762       0.003
  -0.00000000 -0.11237385  0.09932539       0.003
   0.02432965 -0.12642058  0.08939285       0.003
   0.04865930 -0.14046731  0.07946031       0.003
   0.07298896 -0.15451404  0.06952777       0.003
   0.09731861 -0.16856077  0.05959523       0.003
  -0.09731861 -0.05618692  0.13905554       0.003
  -0.07298896 -0.07023366  0.12912300       0.003
  -0.04865930 -0.08428039  0.11919047       0.003
  -0.02432965 -0.09832712  0.10925793       0.003
  -0.00000000 -0.08428039  0.08939285       0.003
   0.02432965 -0.09832712  0.07946031       0.003
   0.04865930 -0.11237385  0.06952777       0.003
   0.07298896 -0.12642058  0.05959523       0.003
   0.09731861 -0.14046731  0.04966269       0.003
  -0.09731861 -0.02809346  0.12912300       0.003
  -0.07298896 -0.04214019  0.11919047       0.003
  -0.04865930 -0.05618692  0.10925793       0.003
  -0.02432965 -0.07023366  0.09932539       0.003
  -0.00000000 -0.05618692  0.07946031       0.003
   0.02432965 -0.07023366  0.06952777       0.003
   0.04865930 -0.08428039  0.05959523       0.003
   0.07298896 -0.09832712  0.04966269       0.003
   0.09731861 -0.11237385  0.03973016       0.003
  -0.09731861  0.00000000  0.11919047       0.003
  -0.07298896 -0.01404673  0.10925793       0.003
  -0.04865930 -0.02809346  0.09932539       0.003
  -0.02432965 -0.04214019  0.08939285       0.003
  -0.00000000 -0.02809346  0.06952777       0.003
   0.02432965 -0.04214019  0.05959523       0.003
   0.04865930 -0.05618692  0.04966269       0.003
   0.07298896 -0.07023366  0.03973016       0.003
   0.09731861 -0.08428039  0.02979762       0.003
  -0.09731861  0.02809346  0.10925793       0.003
  -0.07298896  0.01404673  0.09932539       0.003
  -0.04865930 -0.00000000  0.08939285       0.003
  -0.02432965 -0.01404673  0.07946031       0.003
  -0.00000000  0.00000000  0.08939285       0.003
   0.02432965 -0.01404673  0.07946031       0.003
   0.04865930 -0.02809346  0.06952777       0.003
   0.07298896 -0.04214019  0.05959523       0.003
   0.09731861 -0.05618692  0.04966269       0.003
  -0.09731861  0.05618692  0.12912300       0.003
  -0.07298896  0.04214019  0.11919047       0.003
  -0.04865930  0.02809346  0.10925793       0.003
  -0.02432965  0.01404673  0.09932539       0.003
  -0.00000000  0.02809346  0.07946031       0.003
   0.02432965  0.01404673  0.06952777       0.003
   0.04865930 -0.00000000  0.05959523       0.003
   0.07298896 -0.01404673  0.04966269       0.003
   0.09731861 -0.02809346  0.03973016       0.003
  -0.09731861  0.08428039  0.11919047       0.003
  -0.07298896  0.07023366  0.10925793       0.003
  -0.04865930  0.05618692  0.09932539       0.003
  -0.02432965  0.04214019  0.08939285       0.003
  -0.00000000  0.05618692  0.06952777       0.003
   0.02432965  0.04214019  0.05959523       0.003
   0.04865930  0.02809346  0.04966269       0.003
   0.07298896  0.01404673  0.03973016       0.003
   0.09731861  0.00000000  0.02979762       0.003
  -0.09731861  0.11237385  0.10925793       0.003
  -0.07298896  0.09832712  0.09932539       0.003
  -0.04865930  0.08428039  0.08939285       0.003
  -0.02432965  0.07023366  0.07946031       0.003
  -0.00000000  0.08428039  0.05959523       0.003
   0.02432965  0.07023366  0.04966269       0.003
   0.04865930  0.05618692  0.03973016       0.003
   0.07298896  0.04214019  0.02979762       0.003
   0.09731861  0.02809346  0.01986508       0.003
  -0.09731861  0.14046731  0.09932539       0.003
  -0.07298896  0.12642058  0.08939285       0.003
  -0.04865930  0.11237385  0.07946031       0.003
  -0.02432965  0.09832712  0.06952777       0.003
  -0.00000000  0.11237385  0.04966269       0.003
   0.02432965  0.09832712  0.03973016       0.003
   0.04865930  0.08428039  0.02979762       0.003
   0.07298896  0.07023366  0.01986508       0.003
   0.09731861  0.05618692  0.00993254       0.003
  -0.09731861  0.16856077  0.08939285       0.003
  -0.07298896  0.15451404  0.07946031       0.003
  -0.04865930  0.14046731  0.06952777       0.003
  -0.02432965  0.12642058  0.05959523       0.003
  -0.00000000 -0.11237385  0.12912300       0.003
   0.02432965 -0.12642058  0.11919047       0.003
   0.04865930 -0.14046731  0.10925793       0.003
   0.07298896 -0.15451404  0.09932539       0.003
   0.09731861 -0.16856077  0.08939285       0.003
  -0.09731861 -0.05618692  0.16885316       0.003
  -0.07298896 -0.07023366  0.15892062       0.003
  -0.04865930 -0.08428039  0.14898808       0.003
  -0.02432965 -0.09832712  0.13905554       0.003
  -0.00000000 -0.08428039  0.11919047       0.003
   0.02432965 -0.09832712  0.10925793       0.003
   0.04865930 -0.11237385  0.09932539       0.003
   0.07298896 -0.12642058  0.08939285       0.003
   0.09731861 -0.14046731  0.07946031       0.003
  -0.09731861 -0.02809346  0.15892062       0.003
  -0.07298896 -0.04214019  0.14898808       0.003
  -0.04865930 -0.05618692  0.13905554       0.003
  -0.02432965 -0.07023366  0.12912300       0.003
  -0.00000000 -0.05618692  0.10925793       0.003
   0.02432965 -0.07023366  0.09932539       0.003
   0.04865930 -0.08428039  0.08939285       0.003
   0.07298896 -0.09832712  0.07946031       0.003
   0.09731861 -0.11237385  0.06952777       0.003
  -0.09731861 -0.00000000  0.14898808       0.003
  -0.07298896 -0.01404673  0.13905554       0.003
  -0.04865930 -0.02809346  0.12912300       0.003
  -0.02432965 -0.04214019  0.11919047       0.003
  -0.00000000 -0.02809346  0.09932539       0.003
   0.02432965 -0.04214019  0.08939285       0.003
   0.04865930 -0.05618692  0.07946031       0.003
   0.07298896 -0.07023366  0.06952777       0.003
   0.09731861 -0.08428039  0.05959523       0.003
  -0.09731861  0.02809346  0.13905554       0.003
  -0.07298896  0.01404673  0.12912300       0.003
  -0.04865930 -0.00000000  0.11919047       0.003
  -0.02432965 -0.01404673  0.10925793       0.003
  -0.00000000  0.00000000  0.11919047       0.003
   0.02432965 -0.01404673  0.10925793       0.003
   0.04865930 -0.02809346  0.09932539       0.003
   0.07298896 -0.04214019  0.08939285       0.003
   0.09731861 -0.05618692  0.07946031       0.003
  -0.09731861  0.05618692  0.15892062       0.003
  -0.07298896  0.04214019  0.14898808       0.003
  -0.04865930  0.02809346  0.13905554       0.003
  -0.02432965  0.01404673  0.12912300       0.003
  -0.00000000  0.02809346  0.10925793       0.003
   0.02432965  0.01404673  0.09932539       0.003
   0.04865930 -0.00000000  0.08939285       0.003
   0.07298896 -0.01404673  0.07946031       0.003
   0.09731861 -0.02809346  0.06952777       0.003
  -0.09731861  0.08428039  0.14898808       0.003
  -0.07298896  0.07023366  0.13905554       0.003
  -0.04865930  0.05618692  0.12912300       0.003
  -0.02432965  0.04214019  0.11919047       0.003
  -0.00000000  0.05618692  0.09932539       0.003
   0.02432965  0.04214019  0.08939285       0.003
   0.04865930  0.02809346  0.07946031       0.003
   0.07298896  0.01404673  0.06952777       0.003
   0.09731861  0.00000000  0.05959523       0.003
  -0.09731861  0.11237385  0.13905554       0.003
  -0.07298896  0.09832712  0.12912300       0.003
  -0.04865930  0.08428039  0.11919047       0.003
  -0.02432965  0.07023366  0.10925793       0.003
  -0.00000000  0.08428039  0.08939285       0.003
   0.02432965  0.07023366  0.07946031       0.003
   0.04865930  0.05618692  0.06952777       0.003
   0.07298896  0.04214019  0.05959523       0.003
   0.09731861  0.02809346  0.04966269       0.003
  -0.09731861  0.14046731  0.12912300       0.003
  -0.07298896  0.12642058  0.11919047       0.003
  -0.04865930  0.11237385  0.10925793       0.003
  -0.02432965  0.09832712  0.09932539       0.003
  -0.00000000  0.11237385  0.07946031       0.003
   0.02432965  0.09832712  0.06952777       0.003
   0.04865930  0.08428039  0.05959523       0.003
   0.07298896  0.07023366  0.04966269       0.003
   0.09731861  0.05618692  0.03973016       0.003
  -0.09731861  0.16856077  0.11919047       0.003
  -0.07298896  0.15451404  0.10925793       0.003
  -0.04865930  0.14046731  0.09932539       0.003
  -0.02432965  0.12642058  0.08939285       0.003
  -0.00000000 -0.11237385  0.15892062       0.003
   0.02432965 -0.12642058  0.14898808       0.003
   0.04865930 -0.14046731  0.13905554       0.003
   0.07298896 -0.15451404  0.12912300       0.003
   0.09731861 -0.16856077  0.11919047       0.003
  -0.09731861 -0.05618692  0.19865078       0.003
  -0.07298896 -0.07023366  0.18871824       0.003
  -0.04865930 -0.08428039  0.17878570       0.003
  -0.02432965 -0.09832712  0.16885316       0.003
  -0.00000000 -0.08428039  0.14898808       0.003
   0.02432965 -0.09832712  0.13905554       0.003
   0.04865930 -0.11237385  0.12912300       0.003
   0.07298896 -0.12642058  0.11919047       0.003
   0.09731861 -0.14046731  0.10925793       0.003
  -0.09731861 -0.02809346  0.18871824       0.003
  -0.07298896 -0.04214019  0.17878570       0.003
  -0.04865930 -0.05618692  0.16885316       0.003
  -0.02432965 -0.07023366  0.15892062       0.003
  -0.00000000 -0.05618692  0.13905554       0.003
   0.02432965 -0.07023366  0.12912300       0.003
   0.04865930 -0.08428039  0.11919047       0.003
   0.07298896 -0.09832712  0.10925793       0.003
   0.09731861 -0.11237385  0.09932539       0.003
  -0.09731861  0.00000000  0.17878570       0.003
  -0.07298896 -0.01404673  0.16885316       0.003
  -0.04865930 -0.02809346  0.15892062       0.003
  -0.02432965 -0.04214019  0.14898808       0.003
  -0.00000000 -0.02809346  0.12912300       0.003
   0.02432965 -0.04214019  0.11919047       0.003
   0.04865930 -0.05618692  0.10925793       0.003
   0.07298896 -0.07023366  0.09932539       0.003
   0.09731861 -0.08428039  0.08939285       0.003
  -0.09731861  0.02809346  0.16885316       0.003
  -0.07298896  0.01404673  0.15892062       0.003
  -0.04865930 -0.00000000  0.14898808       0.003
  -0.02432965 -0.01404673  0.13905554       0.003
 
 k-points in reciprocal lattice and weights: read from INCAR                         
   0.00000000  0.00000000  0.00000000       0.001
   0.11111111 -0.00000000  0.00000000       0.003
   0.22222222 -0.00000000 -0.00000000       0.003
   0.33333333  0.00000000  0.00000000       0.003
   0.44444444 -0.00000000 -0.00000000       0.003
   0.00000000  0.11111111  0.00000000       0.003
   0.11111111  0.11111111  0.00000000       0.003
   0.22222222  0.11111111  0.00000000       0.003
   0.33333333  0.11111111  0.00000000       0.003
   0.44444444  0.11111111  0.00000000       0.003
  -0.44444444  0.11111111  0.00000000       0.003
  -0.33333333  0.11111111 -0.00000000       0.003
  -0.22222222  0.11111111  0.00000000       0.003
  -0.11111111  0.11111111  0.00000000       0.003
   0.00000000  0.22222222  0.00000000       0.003
   0.11111111  0.22222222  0.00000000       0.003
   0.22222222  0.22222222 -0.00000000       0.003
   0.33333333  0.22222222  0.00000000       0.003
   0.44444444  0.22222222  0.00000000       0.003
  -0.44444444  0.22222222  0.00000000       0.003
  -0.33333333  0.22222222 -0.00000000       0.003
  -0.22222222  0.22222222  0.00000000       0.003
  -0.11111111  0.22222222  0.00000000       0.003
  -0.00000000  0.33333333  0.00000000       0.003
   0.11111111  0.33333333 -0.00000000       0.003
   0.22222222  0.33333333  0.00000000       0.003
   0.33333333  0.33333333  0.00000000       0.003
   0.44444444  0.33333333 -0.00000000       0.003
  -0.44444444  0.33333333  0.00000000       0.003
  -0.33333333  0.33333333 -0.00000000       0.003
  -0.22222222  0.33333333 -0.00000000       0.003
  -0.11111111  0.33333333  0.00000000       0.003
   0.00000000  0.44444444  0.00000000       0.003
   0.11111111  0.44444444  0.00000000       0.003
   0.22222222  0.44444444  0.00000000       0.003
   0.33333333  0.44444444  0.00000000       0.003
   0.44444444  0.44444444 -0.00000000       0.003
  -0.44444444  0.44444444  0.00000000       0.003
  -0.33333333  0.44444444  0.00000000       0.003
  -0.22222222  0.44444444  0.00000000       0.003
  -0.11111111  0.44444444  0.00000000       0.003
   0.00000000  0.00000000  0.11111111       0.003
   0.11111111 -0.00000000  0.11111111       0.003
   0.22222222 -0.00000000  0.11111111       0.003
   0.33333333  0.00000000  0.11111111       0.003
   0.44444444 -0.00000000  0.11111111       0.003
  -0.44444444  0.00000000  0.11111111       0.003
  -0.33333333 -0.00000000  0.11111111       0.003
  -0.22222222  0.00000000  0.11111111       0.003
  -0.11111111  0.00000000  0.11111111       0.003
   0.00000000  0.11111111  0.11111111       0.003
   0.11111111  0.11111111  0.11111111       0.003
   0.22222222  0.11111111  0.11111111       0.003
   0.33333333  0.11111111  0.11111111       0.003
   0.44444444  0.11111111  0.11111111       0.003
  -0.44444444  0.11111111  0.11111111       0.003
  -0.33333333  0.11111111  0.11111111       0.003
  -0.22222222  0.11111111  0.11111111       0.003
  -0.11111111  0.11111111  0.11111111       0.003
   0.00000000  0.22222222  0.11111111       0.003
   0.11111111  0.22222222  0.11111111       0.003
   0.22222222  0.22222222  0.11111111       0.003
   0.33333333  0.22222222  0.11111111       0.003
   0.44444444  0.22222222  0.11111111       0.003
  -0.44444444  0.22222222  0.11111111       0.003
  -0.33333333  0.22222222  0.11111111       0.003
  -0.22222222  0.22222222  0.11111111       0.003
  -0.11111111  0.22222222  0.11111111       0.003
   0.00000000  0.33333333  0.11111111       0.003
   0.11111111  0.33333333  0.11111111       0.003
   0.22222222  0.33333333  0.11111111       0.003
   0.33333333  0.33333333  0.11111111       0.003
   0.44444444  0.33333333  0.11111111       0.003
  -0.44444444  0.33333333  0.11111111       0.003
  -0.33333333  0.33333333  0.11111111       0.003
  -0.22222222  0.33333333  0.11111111       0.003
  -0.11111111  0.33333333  0.11111111       0.003
   0.00000000  0.44444444  0.11111111       0.003
   0.11111111  0.44444444  0.11111111       0.003
   0.22222222  0.44444444  0.11111111       0.003
   0.33333333  0.44444444  0.11111111       0.003
   0.44444444  0.44444444  0.11111111       0.003
  -0.44444444  0.44444444  0.11111111       0.003
  -0.33333333  0.44444444  0.11111111       0.003
  -0.22222222  0.44444444  0.11111111       0.003
  -0.11111111  0.44444444  0.11111111       0.003
   0.00000000 -0.44444444  0.11111111       0.003
   0.11111111 -0.44444444  0.11111111       0.003
   0.22222222 -0.44444444  0.11111111       0.003
   0.33333333 -0.44444444  0.11111111       0.003
   0.44444444 -0.44444444  0.11111111       0.003
  -0.44444444 -0.44444444  0.11111111       0.003
  -0.33333333 -0.44444444  0.11111111       0.003
  -0.22222222 -0.44444444  0.11111111       0.003
  -0.11111111 -0.44444444  0.11111111       0.003
   0.00000000 -0.33333333  0.11111111       0.003
   0.11111111 -0.33333333  0.11111111       0.003
   0.22222222 -0.33333333  0.11111111       0.003
   0.33333333 -0.33333333  0.11111111       0.003
   0.44444444 -0.33333333  0.11111111       0.003
  -0.44444444 -0.33333333  0.11111111       0.003
  -0.33333333 -0.33333333  0.11111111       0.003
  -0.22222222 -0.33333333  0.11111111       0.003
  -0.11111111 -0.33333333  0.11111111       0.003
   0.00000000 -0.22222222  0.11111111       0.003
   0.11111111 -0.22222222  0.11111111       0.003
   0.22222222 -0.22222222  0.11111111       0.003
   0.33333333 -0.22222222  0.11111111       0.003
   0.44444444 -0.22222222  0.11111111       0.003
  -0.44444444 -0.22222222  0.11111111       0.003
  -0.33333333 -0.22222222  0.11111111       0.003
  -0.22222222 -0.22222222  0.11111111       0.003
  -0.11111111 -0.22222222  0.11111111       0.003
   0.00000000 -0.11111111  0.11111111       0.003
   0.11111111 -0.11111111  0.11111111       0.003
   0.22222222 -0.11111111  0.11111111       0.003
   0.33333333 -0.11111111  0.11111111       0.003
   0.44444444 -0.11111111  0.11111111       0.003
  -0.44444444 -0.11111111  0.11111111       0.003
  -0.33333333 -0.11111111  0.11111111       0.003
  -0.22222222 -0.11111111  0.11111111       0.003
  -0.11111111 -0.11111111  0.11111111       0.003
   0.00000000  0.00000000  0.22222222       0.003
   0.11111111 -0.00000000  0.22222222       0.003
   0.22222222 -0.00000000  0.22222222       0.003
   0.33333333 -0.00000000  0.22222222       0.003
   0.44444444 -0.00000000  0.22222222       0.003
  -0.44444444  0.00000000  0.22222222       0.003
  -0.33333333 -0.00000000  0.22222222       0.003
  -0.22222222  0.00000000  0.22222222       0.003
  -0.11111111 -0.00000000  0.22222222       0.003
   0.00000000  0.11111111  0.22222222       0.003
   0.11111111  0.11111111  0.22222222       0.003
   0.22222222  0.11111111  0.22222222       0.003
   0.33333333  0.11111111  0.22222222       0.003
   0.44444444  0.11111111  0.22222222       0.003
  -0.44444444  0.11111111  0.22222222       0.003
  -0.33333333  0.11111111  0.22222222       0.003
  -0.22222222  0.11111111  0.22222222       0.003
  -0.11111111  0.11111111  0.22222222       0.003
   0.00000000  0.22222222  0.22222222       0.003
   0.11111111  0.22222222  0.22222222       0.003
   0.22222222  0.22222222  0.22222222       0.003
   0.33333333  0.22222222  0.22222222       0.003
   0.44444444  0.22222222  0.22222222       0.003
  -0.44444444  0.22222222  0.22222222       0.003
  -0.33333333  0.22222222  0.22222222       0.003
  -0.22222222  0.22222222  0.22222222       0.003
  -0.11111111  0.22222222  0.22222222       0.003
   0.00000000  0.33333333  0.22222222       0.003
   0.11111111  0.33333333  0.22222222       0.003
   0.22222222  0.33333333  0.22222222       0.003
   0.33333333  0.33333333  0.22222222       0.003
   0.44444444  0.33333333  0.22222222       0.003
  -0.44444444  0.33333333  0.22222222       0.003
  -0.33333333  0.33333333  0.22222222       0.003
  -0.22222222  0.33333333  0.22222222       0.003
  -0.11111111  0.33333333  0.22222222       0.003
   0.00000000  0.44444444  0.22222222       0.003
   0.11111111  0.44444444  0.22222222       0.003
   0.22222222  0.44444444  0.22222222       0.003
   0.33333333  0.44444444  0.22222222       0.003
   0.44444444  0.44444444  0.22222222       0.003
  -0.44444444  0.44444444  0.22222222       0.003
  -0.33333333  0.44444444  0.22222222       0.003
  -0.22222222  0.44444444  0.22222222       0.003
  -0.11111111  0.44444444  0.22222222       0.003
   0.00000000 -0.44444444  0.22222222       0.003
   0.11111111 -0.44444444  0.22222222       0.003
   0.22222222 -0.44444444  0.22222222       0.003
   0.33333333 -0.44444444  0.22222222       0.003
   0.44444444 -0.44444444  0.22222222       0.003
  -0.44444444 -0.44444444  0.22222222       0.003
  -0.33333333 -0.44444444  0.22222222       0.003
  -0.22222222 -0.44444444  0.22222222       0.003
  -0.11111111 -0.44444444  0.22222222       0.003
   0.00000000 -0.33333333  0.22222222       0.003
   0.11111111 -0.33333333  0.22222222       0.003
   0.22222222 -0.33333333  0.22222222       0.003
   0.33333333 -0.33333333  0.22222222       0.003
   0.44444444 -0.33333333  0.22222222       0.003
  -0.44444444 -0.33333333  0.22222222       0.003
  -0.33333333 -0.33333333  0.22222222       0.003
  -0.22222222 -0.33333333  0.22222222       0.003
  -0.11111111 -0.33333333  0.22222222       0.003
   0.00000000 -0.22222222  0.22222222       0.003
   0.11111111 -0.22222222  0.22222222       0.003
   0.22222222 -0.22222222  0.22222222       0.003
   0.33333333 -0.22222222  0.22222222       0.003
   0.44444444 -0.22222222  0.22222222       0.003
  -0.44444444 -0.22222222  0.22222222       0.003
  -0.33333333 -0.22222222  0.22222222       0.003
  -0.22222222 -0.22222222  0.22222222       0.003
  -0.11111111 -0.22222222  0.22222222       0.003
   0.00000000 -0.11111111  0.22222222       0.003
[...]
  0.000   0.000   1.018  -0.000   0.000   0.000   0.000   1.018  -0.000   0.000  -0.000  -0.000  -0.767  -0.000   0.000   0.000
 -1.018  -0.000   0.000   0.000   0.000   1.763  -0.000  -0.000   0.000   1.018   0.767  -0.000  -0.000  -0.000   0.000  -1.329
  0.000   0.000   0.000  -1.763   0.000   0.000  -1.763  -0.000   0.000  -0.000   0.000   0.000   0.000   1.329  -0.000  -0.000
  0.000  -1.018  -0.000  -0.000   1.763  -0.000   0.000   0.000  -1.018  -0.000   0.000   0.767   0.000   0.000  -1.329   0.000
 -0.000   0.000   0.000  -1.018   0.000  -0.000   1.018  -0.000   0.000   0.000  -0.000   0.000   0.000   0.767  -0.000   0.000
 -0.000  -0.000   0.000  -0.000   0.000   0.000  -0.000  -0.000  -0.000   0.000  -0.000  -0.000   0.000  -0.000   0.000   0.000
 -0.000  -0.000   0.000  -0.000   0.000   0.000  -0.000  -0.000  -0.000   0.000   0.000   0.000  -0.000   0.000  -0.000  -0.000
 -0.000  -0.000   0.000   0.000  -0.000  -0.000  -0.000   0.000  -0.000  -0.000  -0.000  -0.000  -0.000  -0.000   0.000  -0.000
 -0.000   0.000   0.000   0.000   0.000  -0.000  -0.000  -0.000   0.000   0.000  -0.000   0.000   0.000   0.000   0.000  -0.000
  0.000   0.000  -0.000   0.000   0.000   0.000   0.000   0.000  -0.000  -0.000   0.000   0.000  -0.000   0.000   0.000   0.000
 -0.000  -0.000   0.000   0.000  -0.000  -0.000  -0.000   0.000  -0.000  -0.000  -0.000  -0.000  -0.000  -0.000  -0.000  -0.000
 -0.000   0.000   0.000   0.000   0.000   0.000  -0.000  -0.000   0.000   0.000  -0.000   0.000   0.000   0.000   0.000  -0.000
  0.000   0.000  -0.000   0.000   0.000   0.000   0.000   0.000  -0.000  -0.000   0.000   0.000  -0.000   0.000   0.000   0.000
 pseudopotential strength for first ion, spin component:           4
-21.716   0.000  -0.000   0.000  -0.000   0.000   0.000   0.000   0.000  -2.703   8.017   0.000  -0.000   0.000   0.000   0.000
 -0.000   0.000 -21.716   0.000  -0.000   0.000   0.000  -1.352   0.000   0.000  -0.000   0.000   8.017   0.000   0.000   0.000
 -0.000   0.000  -0.000   0.000 -21.716   0.000  -0.000   0.000   0.000   0.000   0.000   0.000   0.000   0.000   8.017   0.000
  0.000   0.000   0.000   1.352  -0.000   0.000 -21.716   0.000  -0.000   0.000  -0.000   0.000  -0.000  -1.018  -0.000   0.000
  0.000   2.703   0.000   0.000   0.000   0.000  -0.000   0.000 -21.716   0.000  -0.000  -2.036  -0.000   0.000  -0.000   0.000
  8.017   0.000  -0.000   0.000   0.000   0.000  -0.000   0.000  -0.000   2.036  20.333   0.000   0.000   0.000  -0.000   0.000
 -0.000   0.000   8.017   0.000   0.000   0.000  -0.000   1.018  -0.000   0.000   0.000   0.000  20.333   0.000   0.000   0.000
  0.000   0.000   0.000   0.000   8.017   0.000  -0.000   0.000  -0.000   0.000  -0.000   0.000   0.000   0.000  20.333   0.000
 -0.000   0.000  -0.000  -1.018  -0.000   0.000   8.017   0.000  -0.000   0.000   0.000   0.000   0.000   0.767   0.000   0.000
 -0.000  -2.036  -0.000   0.000  -0.000   0.000  -0.000   0.000   8.017   0.000  -0.000   1.535   0.000   0.000   0.000   0.000
  0.000   0.000  -0.000   0.000   0.000   0.000  -0.000   0.000  -0.000   0.000  -0.000   0.000   0.000   0.000  -0.000   0.000
 -0.000   0.000   0.000   0.000  -0.000   0.000   0.000   0.000   0.000   0.000   0.000   0.000  -0.000   0.000   0.000   0.000
  0.000   0.000   0.000   0.000   0.000   0.000  -0.000   0.000   0.000   0.000   0.000   0.000   0.000   0.000   0.000   0.000
 -0.000   0.000  -0.000   0.000   0.000   0.000   0.000   0.000  -0.000   0.000  -0.000   0.000  -0.000   0.000   0.000   0.000
 -0.000   0.000  -0.000   0.000  -0.000   0.000   0.000   0.000   0.000   0.000  -0.000   0.000  -0.000   0.000  -0.000   0.000
  0.000   0.000   0.000   0.000   0.000   0.000  -0.000   0.000   0.000   0.000   0.000   0.000   0.000   0.000   0.000   0.000
 -0.000   0.000  -0.000   0.000   0.000   0.000   0.000   0.000  -0.000   0.000  -0.000   0.000  -0.000   0.000   0.000   0.000
 -0.000   0.000  -0.000   0.000  -0.000   0.000   0.000   0.000   0.000   0.000  -0.000   0.000  -0.000   0.000  -0.000   0.000
 total augmentation occupancy for first ion, spin component:           1
  1.996  -0.000   0.000   0.000   0.000   0.034   0.000  -0.000  -0.000   0.000   0.000   0.000   0.000   0.000   0.000   0.000
 -0.000   1.996  -0.000  -0.000   0.000   0.000   0.034   0.000   0.000  -0.000   0.000   0.000   0.000   0.000   0.000   0.000
  0.000  -0.000   1.996  -0.000  -0.000  -0.000  -0.000   0.034  -0.000   0.000   0.000   0.000   0.000   0.000   0.000   0.000
  0.000  -0.000  -0.000   1.996  -0.000  -0.000   0.000   0.000   0.034   0.000  -0.000  -0.000   0.000   0.000   0.000   0.000
  0.000   0.000  -0.000  -0.000   1.996   0.000  -0.000  -0.000  -0.000   0.034  -0.000  -0.000   0.000   0.000   0.000   0.000
  0.034   0.000  -0.000  -0.000   0.000   0.007   0.000  -0.000   0.000   0.000   0.000   0.000   0.000   0.000   0.000   0.000
  0.000   0.034  -0.000   0.000  -0.000   0.000   0.007  -0.000   0.000   0.000   0.000  -0.000   0.000   0.000   0.000   0.000
 -0.000   0.000   0.034   0.000  -0.000  -0.000  -0.000   0.007   0.000  -0.000  -0.000  -0.000   0.000   0.000   0.000   0.000
 -0.000   0.000  -0.000   0.034  -0.000   0.000   0.000   0.000   0.007   0.000  -0.000  -0.000   0.000   0.000   0.000   0.000
  0.000  -0.000   0.000   0.000   0.034   0.000   0.000  -0.000   0.000   0.007  -0.000  -0.000   0.000   0.000   0.000   0.000
  0.000   0.000   0.000  -0.000  -0.000   0.000   0.000  -0.000  -0.000  -0.000   2.028   0.037   0.000   0.000   0.000   0.000
  0.000   0.000   0.000  -0.000  -0.000   0.000  -0.000  -0.000  -0.000  -0.000   0.037   0.002   0.000   0.000   0.000   0.000
  0.000   0.000   0.000   0.000   0.000   0.000   0.000   0.000   0.000   0.000   0.000   0.000   1.899   0.000  -0.000   0.279
  0.000   0.000   0.000   0.000   0.000   0.000   0.000   0.000   0.000   0.000   0.000   0.000   0.000   1.899  -0.000  -0.000
  0.000   0.000   0.000   0.000   0.000   0.000   0.000   0.000   0.000   0.000   0.000   0.000  -0.000  -0.000   1.899   0.000
  0.000   0.000   0.000   0.000   0.000   0.000   0.000   0.000   0.000   0.000   0.000   0.000   0.279  -0.000   0.000   0.172
  0.000   0.000   0.000   0.000   0.000   0.000   0.000   0.000   0.000   0.000   0.000   0.000  -0.000   0.279  -0.000  -0.000
  0.000   0.000   0.000   0.000   0.000   0.000   0.000   0.000   0.000   0.000   0.000   0.000   0.000   0.000   0.279  -0.000
 total augmentation occupancy for first ion, spin component:           2
  0.000  -0.000   0.000   0.000   0.000  -0.000   0.000  -0.000   0.000  -0.000  -0.000  -0.000   0.000   0.000   0.000   0.000
 -0.000   0.000   0.000  -0.000   0.000  -0.000  -0.000   0.000   0.000   0.000  -0.000  -0.000   0.000   0.000   0.000   0.000
  0.000   0.000   0.000  -0.000   0.000  -0.000   0.000  -0.000   0.000  -0.000   0.000   0.000   0.000   0.000   0.000   0.000
  0.000  -0.000  -0.000   0.000  -0.000   0.000   0.000   0.000  -0.000   0.000  -0.000  -0.000   0.000   0.000   0.000   0.000
  0.000   0.000   0.000  -0.000   0.000   0.000   0.000  -0.000   0.000   0.000   0.000   0.000   0.000   0.000   0.000   0.000
 -0.000  -0.000  -0.000   0.000   0.000  -0.000   0.000   0.000  -0.000  -0.000   0.000   0.000   0.000   0.000   0.000   0.000
  0.000  -0.000   0.000   0.000   0.000   0.000  -0.000   0.000  -0.000   0.000  -0.000  -0.000   0.000   0.000   0.000   0.000
 -0.000   0.000  -0.000   0.000  -0.000   0.000   0.000  -0.000  -0.000  -0.000   0.000   0.000   0.000   0.000   0.000   0.000
  0.000   0.000   0.000  -0.000   0.000  -0.000  -0.000  -0.000  -0.000   0.000   0.000   0.000   0.000   0.000   0.000   0.000
 -0.000   0.000  -0.000   0.000   0.000  -0.000   0.000  -0.000   0.000  -0.000   0.000   0.000   0.000   0.000   0.000   0.000
 -0.000  -0.000   0.000  -0.000   0.000   0.000  -0.000   0.000   0.000   0.000  -0.000  -0.000   0.000   0.000   0.000   0.000
 -0.000  -0.000   0.000  -0.000   0.000   0.000  -0.000   0.000   0.000   0.000  -0.000  -0.000   0.000   0.000   0.000   0.000
  0.000   0.000   0.000   0.000   0.000   0.000   0.000   0.000   0.000   0.000   0.000   0.000   0.000   0.000   0.000  -0.000
  0.000   0.000   0.000   0.000   0.000   0.000   0.000   0.000   0.000   0.000   0.000   0.000   0.000   0.000   0.000   0.000
  0.000   0.000   0.000   0.000   0.000   0.000   0.000   0.000   0.000   0.000   0.000   0.000   0.000   0.000   0.000   0.000
  0.000   0.000   0.000   0.000   0.000   0.000   0.000   0.000   0.000   0.000   0.000   0.000  -0.000   0.000   0.000   0.000
  0.000   0.000   0.000   0.000   0.000   0.000   0.000   0.000   0.000   0.000   0.000   0.000  -0.000  -0.000   0.000  -0.000
  0.000   0.000   0.000   0.000   0.000   0.000   0.000   0.000   0.000   0.000   0.000   0.000  -0.000  -0.000   0.000   0.000
 total augmentation occupancy for first ion, spin component:           3
  0.000  -0.000  -0.000   0.000   0.000   0.000  -0.000   0.000   0.000   0.000  -0.000  -0.000   0.000   0.000   0.000   0.000
 -0.000   0.000   0.000   0.000   0.000   0.000   0.000   0.000   0.000   0.000  -0.000  -0.000   0.000   0.000   0.000   0.000
 -0.000   0.000   0.000  -0.000  -0.000   0.000  -0.000  -0.000   0.000   0.000  -0.000  -0.000   0.000   0.000   0.000   0.000
  0.000   0.000  -0.000   0.000  -0.000  -0.000  -0.000   0.000  -0.000  -0.000   0.000   0.000   0.000   0.000   0.000   0.000
  0.000   0.000  -0.000  -0.000   0.000  -0.000  -0.000   0.000  -0.000   0.000   0.000   0.000   0.000   0.000   0.000   0.000
  0.000   0.000   0.000  -0.000  -0.000  -0.000  -0.000  -0.000  -0.000  -0.000  -0.000  -0.000   0.000   0.000   0.000   0.000
 -0.000   0.000  -0.000  -0.000  -0.000  -0.000  -0.000  -0.000  -0.000   0.000   0.000   0.000   0.000   0.000   0.000   0.000
  0.000   0.000  -0.000   0.000   0.000  -0.000  -0.000  -0.000   0.000   0.000  -0.000  -0.000   0.000   0.000   0.000   0.000
  0.000   0.000   0.000  -0.000  -0.000  -0.000  -0.000   0.000  -0.000  -0.000  -0.000  -0.000   0.000   0.000   0.000   0.000
  0.000   0.000   0.000  -0.000   0.000  -0.000   0.000   0.000  -0.000  -0.000  -0.000  -0.000   0.000   0.000   0.000   0.000
 -0.000  -0.000  -0.000   0.000   0.000  -0.000   0.000  -0.000  -0.000  -0.000  -0.000  -0.000   0.000   0.000   0.000   0.000
 -0.000  -0.000  -0.000   0.000   0.000  -0.000   0.000  -0.000  -0.000  -0.000  -0.000  -0.000   0.000   0.000   0.000   0.000
  0.000   0.000   0.000   0.000   0.000   0.000   0.000   0.000   0.000   0.000   0.000   0.000   0.000  -0.000   0.000   0.000
  0.000   0.000   0.000   0.000   0.000   0.000   0.000   0.000   0.000   0.000   0.000   0.000  -0.000   0.000  -0.000   0.000
  0.000   0.000   0.000   0.000   0.000   0.000   0.000   0.000   0.000   0.000   0.000   0.000   0.000  -0.000   0.000  -0.000
  0.000   0.000   0.000   0.000   0.000   0.000   0.000   0.000   0.000   0.000   0.000   0.000   0.000   0.000  -0.000   0.000
  0.000   0.000   0.000   0.000   0.000   0.000   0.000   0.000   0.000   0.000   0.000   0.000   0.000  -0.000   0.000   0.000
  0.000   0.000   0.000   0.000   0.000   0.000   0.000   0.000   0.000   0.000   0.000   0.000   0.000   0.000  -0.000   0.000
 total augmentation occupancy for first ion, spin component:           4
  0.000  -0.000   0.000   0.000   0.000  -0.000  -0.000   0.000  -0.000  -0.000   0.000   0.000   0.000   0.000   0.000   0.000
 -0.000   0.000  -0.000  -0.000  -0.000   0.000  -0.000   0.000   0.000   0.000  -0.000  -0.000   0.000   0.000   0.000   0.000
  0.000  -0.000   0.000  -0.000   0.000   0.000   0.000   0.000   0.000  -0.000  -0.000  -0.000   0.000   0.000   0.000   0.000
  0.000  -0.000  -0.000   0.000   0.000   0.000   0.000   0.000  -0.000  -0.000   0.000   0.000   0.000   0.000   0.000   0.000
  0.000  -0.000   0.000   0.000   0.000  -0.000   0.000  -0.000  -0.000  -0.000  -0.000  -0.000   0.000   0.000   0.000   0.000
 -0.000   0.000   0.000   0.000  -0.000  -0.000  -0.000   0.000  -0.000  -0.000   0.000   0.000   0.000   0.000   0.000   0.000
 -0.000  -0.000   0.000   0.000   0.000  -0.000  -0.000  -0.000  -0.000   0.000  -0.000  -0.000   0.000   0.000   0.000   0.000
  0.000   0.000   0.000   0.000  -0.000   0.000  -0.000  -0.000  -0.000  -0.000   0.000   0.000   0.000   0.000   0.000   0.000
 -0.000   0.000   0.000  -0.000  -0.000  -0.000  -0.000  -0.000  -0.000  -0.000   0.000   0.000   0.000   0.000   0.000   0.000
 -0.000   0.000  -0.000  -0.000  -0.000  -0.000   0.000  -0.000  -0.000  -0.000  -0.000  -0.000   0.000   0.000   0.000   0.000
  0.000  -0.000  -0.000   0.000  -0.000   0.000  -0.000   0.000   0.000  -0.000  -0.000  -0.000   0.000   0.000   0.000   0.000
  0.000  -0.000  -0.000   0.000  -0.000   0.000  -0.000   0.000   0.000  -0.000  -0.000  -0.000   0.000   0.000   0.000   0.000
  0.000   0.000   0.000   0.000   0.000   0.000   0.000   0.000   0.000   0.000   0.000   0.000   0.000  -0.000   0.000  -0.000
  0.000   0.000   0.000   0.000   0.000   0.000   0.000   0.000   0.000   0.000   0.000   0.000  -0.000   0.000   0.000   0.000
  0.000   0.000   0.000   0.000   0.000   0.000   0.000   0.000   0.000   0.000   0.000   0.000   0.000   0.000   0.000   0.000
  0.000   0.000   0.000   0.000   0.000   0.000   0.000   0.000   0.000   0.000   0.000   0.000  -0.000   0.000   0.000  -0.000
  0.000   0.000   0.000   0.000   0.000   0.000   0.000   0.000   0.000   0.000   0.000   0.000  -0.000   0.000  -0.000   0.000
  0.000   0.000   0.000   0.000   0.000   0.000   0.000   0.000   0.000   0.000   0.000   0.000  -0.000   0.000   0.000  -0.000


------------------------ aborting loop because EDIFF is reached ----------------------------------------


    CHARGE:  cpu time    3.3442: real time    3.3459
    FORLOC:  cpu time    0.0100: real time    0.0100
    FORNL :  cpu time    6.3005: real time    6.3040
    STRESS:  cpu time   18.3912: real time   18.4012
    FORCOR:  cpu time    0.6764: real time    0.6768
    FORHAR:  cpu time    0.0541: real time    0.0540
    MIXING:  cpu time    0.0469: real time    0.0469
    OFIELD:  cpu time    0.0000: real time    0.0000

  FORCE on cell =-STRESS in cart. coord.  units (eV):
  Direction    XX          YY          ZZ          XY          YZ          ZX
  --------------------------------------------------------------------------------------
  Alpha Z    53.37937    53.37937    53.37937
  Ewald    -541.17703  -541.17703  -541.17703     0.00000    -0.00000    -0.00000
  Hartree   250.76484   250.76484   250.76484     0.00000     0.00000     0.00000
  E(xc)    -111.65940  -111.65940  -111.65940    -0.00000    -0.00000    -0.00000
  Local    -220.15739  -220.15740  -220.15740     0.00000     0.00000     0.00000
  n-local    97.84649    97.84649    97.84649     0.00000     0.00000     0.00001
  augment    74.04451    74.04451    74.04451    -0.00001    -0.00000    -0.00000
  Kinetic   396.86392   396.86393   396.86393     0.00000     0.00000    -0.00001
  Fock        0.00000     0.00000     0.00000     0.00000     0.00000     0.00000
  -------------------------------------------------------------------------------------
  Total      -0.09469    -0.09469    -0.09469     0.00000     0.00000     0.00000
  in kB      -2.12261    -2.12255    -2.12261     0.00002     0.00007     0.00002
  external pressure =       -2.12 kB  Pullay stress =        0.00 kB


 VOLUME and BASIS-vectors are now :
 -----------------------------------------------------------------------------
  energy-cutoff  :      600.00
  volume of cell :       71.47
      direct lattice vectors                 reciprocal lattice vectors
     4.658239013  0.000000000  0.000000000     0.214673399 -0.123941744 -0.087640048
     2.329119506  4.034153322 -0.000000000     0.000000000  0.247883489 -0.087640048
     2.329119506  1.344717774  3.803436227    -0.000000000  0.000000000  0.262920144

  length of vectors
     4.658239013  4.658239013  4.658239013     0.262920144  0.262920144  0.262920144


 FORCES acting on ions
    electron-ion (+dipol)            ewald-force                    non-local-force                 convergence-correction
 -----------------------------------------------------------------------------------------------
   -.200E-14 0.335E-13 -.103E-13   -.140E-14 -.339E-15 -.317E-15   0.424E-21 0.000E+00 0.000E+00   -.154E-12 0.144E-13 -.851E-13
 -----------------------------------------------------------------------------------------------
   -.200E-14 0.335E-13 -.103E-13   -.140E-14 -.339E-15 -.317E-15   0.424E-21 0.000E+00 0.000E+00   -.154E-12 0.144E-13 -.851E-13
 
 
 POSITION                                       TOTAL-FORCE (eV/Angst)
 -----------------------------------------------------------------------------------
      0.00000      0.00000      0.00000        -0.000000      0.000000      0.000000
 -----------------------------------------------------------------------------------
    total drift:                               -0.000000      0.000000     -0.000000


--------------------------------------------------------------------------------------------------------



  FREE ENERGIE OF THE ION-ELECTRON SYSTEM (eV)
  ---------------------------------------------------
  free  energy   TOTEN  =       -13.31595916 eV

  energy  without entropy=      -13.31610118  energy(sigma->0) =      -13.31600650
 


--------------------------------------------------------------------------------------------------------


    POTLOK:  cpu time    1.6428: real time    1.6437


--------------------------------------------------------------------------------------------------------


     LOOP+:  cpu time  961.1161: real time  962.1718
    4ORBIT:  cpu time    0.0000: real time    0.0000

 Spin-Orbit-Coupling matrix elements

 Ion:    1  E_soc:    -32.9526790
 l=   1
     0.0000000    -5.0676706    -5.0676707
    -5.0676706     0.0000000    -5.0676704
    -5.0676707    -5.0676704     0.0000000
 l=   2
     0.0000000    -0.0848900     0.0000000    -0.0848900    -0.3395501
    -0.0848900     0.0000000    -0.2546626    -0.0848925    -0.0848900
     0.0000000    -0.2546626     0.0000000    -0.2546626     0.0000000
    -0.0848900    -0.0848925    -0.2546626     0.0000000    -0.0848900
    -0.3395501    -0.0848900     0.0000000    -0.0848900     0.0000000
 l=   3
     0.0000000     0.0000000     0.0000000     0.0000000     0.0000000     0.0000000     0.0000000
     0.0000000     0.0000000     0.0000000     0.0000000     0.0000000     0.0000000     0.0000000
     0.0000000     0.0000000     0.0000000     0.0000000     0.0000000     0.0000000     0.0000000
     0.0000000     0.0000000     0.0000000     0.0000000     0.0000000     0.0000000     0.0000000
     0.0000000     0.0000000     0.0000000     0.0000000     0.0000000     0.0000000     0.0000000
     0.0000000     0.0000000     0.0000000     0.0000000     0.0000000     0.0000000     0.0000000
     0.0000000     0.0000000     0.0000000     0.0000000     0.0000000     0.0000000     0.0000000

 total amount of memory used by VASP MPI-rank0   631146. kBytes
=======================================================================

   base      :      30000. kBytes
   nonl-proj :      63459. kBytes
   fftplans  :      75561. kBytes
   grid      :      61440. kBytes
   one-center:         62. kBytes
   wavefun   :     400624. kBytes
 
  
  
 General timing and accounting informations for this job:
 ========================================================
  
                  Total CPU time used (sec):      973.421
                            User time (sec):      967.976
                          System time (sec):        5.445
                         Elapsed time (sec):      974.159
  
                   Maximum memory used (kb):      861992.
                   Average memory used (kb):           0.
  
                          Minor page faults:       222269
                          Major page faults:            0
                 Voluntary context switches:         2877
