Og_FCC                                  
           1
     4.658239    0.000000    0.000000
     2.329120    4.034153   -0.000000
     2.329120    1.344718    3.803436
   Og
   1
Direct configuration=     1
   0.00000000  0.00000000  0.00000000
