   1   1   0   0
  0.6735189E+02  0.4566901E-09  0.4566901E-09  0.4566901E-09  0.1000000E-15
  1.000000000000000E-004
  CAR 
 Og_FCC                                  
     15.85323429    -33.82332974  301      2.46546486      1.00000000
    -33.823  0.0000E+00  0.0000E+00
    -33.658  0.0000E+00  0.0000E+00
    -33.492  0.0000E+00  0.0000E+00
    -33.327  0.0000E+00  0.0000E+00
    -33.161  0.0000E+00  0.0000E+00
    -32.995  0.0000E+00  0.0000E+00
    -32.830  0.0000E+00  0.0000E+00
    -32.664  0.0000E+00  0.0000E+00
    -32.499 -0.7963E-36 -0.1319E-36
    -32.333 -0.1153E-23 -0.1909E-24
    -32.167 -0.6615E-14 -0.1095E-14
    -32.002 -0.1383E-06 -0.2290E-07
    -31.836 -0.9968E-02 -0.1651E-02
    -31.671 -0.7261E+00 -0.1219E+00
    -31.505  0.2288E+02  0.3668E+01
    -31.340  0.2088E+01  0.4013E+01
    -31.174 -0.7970E-01  0.4000E+01
    -31.008 -0.5951E-05  0.4000E+01
    -30.843 -0.1367E-11  0.4000E+01
    -30.677  0.0000E+00  0.4000E+01
    -30.512  0.0000E+00  0.4000E+01
    -30.346  0.0000E+00  0.4000E+01
    -30.180  0.0000E+00  0.4000E+01
    -30.015  0.0000E+00  0.4000E+01
    -29.849  0.0000E+00  0.4000E+01
    -29.684  0.0000E+00  0.4000E+01
    -29.518  0.0000E+00  0.4000E+01
    -29.352  0.0000E+00  0.4000E+01
    -29.187  0.0000E+00  0.4000E+01
    -29.021  0.0000E+00  0.4000E+01
    -28.856  0.0000E+00  0.4000E+01
    -28.690  0.0000E+00  0.4000E+01
    -28.524  0.0000E+00  0.4000E+01
    -28.359  0.0000E+00  0.4000E+01
    -28.193  0.0000E+00  0.4000E+01
    -28.028  0.0000E+00  0.4000E+01
    -27.862  0.0000E+00  0.4000E+01
    -27.697  0.0000E+00  0.4000E+01
    -27.531  0.0000E+00  0.4000E+01
    -27.365  0.0000E+00  0.4000E+01
    -27.200  0.0000E+00  0.4000E+01
    -27.034  0.0000E+00  0.4000E+01
    -26.869  0.0000E+00  0.4000E+01
    -26.703  0.0000E+00  0.4000E+01
    -26.537  0.0000E+00  0.4000E+01
    -26.372  0.0000E+00  0.4000E+01
    -26.206  0.0000E+00  0.4000E+01
    -26.041  0.0000E+00  0.4000E+01
    -25.875  0.0000E+00  0.4000E+01
    -25.709 -0.2060E-28  0.4000E+01
    -25.544 -0.1263E-17  0.4000E+01
    -25.378 -0.2918E-09  0.4000E+01
    -25.213 -0.2492E-03  0.4000E+01
    -25.047 -0.5574E+00  0.3908E+01
    -24.882  0.1503E+02  0.6396E+01
    -24.716  0.2270E+02  0.1016E+02
    -24.550 -0.9416E+00  0.1000E+02
    -24.385 -0.1118E-02  0.1000E+02
    -24.219 -0.2995E-08  0.1000E+02
    -24.054  0.0000E+00  0.1000E+02
    -23.888  0.0000E+00  0.1000E+02
    -23.722  0.0000E+00  0.1000E+02
    -23.557  0.0000E+00  0.1000E+02
    -23.391  0.0000E+00  0.1000E+02
    -23.226  0.0000E+00  0.1000E+02
    -23.060  0.0000E+00  0.1000E+02
    -22.894  0.0000E+00  0.1000E+02
    -22.729  0.0000E+00  0.1000E+02
    -22.563  0.0000E+00  0.1000E+02
    -22.398  0.0000E+00  0.1000E+02
    -22.232  0.0000E+00  0.1000E+02
    -22.067 -0.3699E-30  0.1000E+02
    -21.901 -0.2305E-19  0.1000E+02
    -21.735 -0.6169E-11  0.1000E+02
    -21.570 -0.7921E-05  0.1000E+02
    -21.404 -0.4707E-01  0.9992E+01
    -21.239  0.1187E+01  0.1019E+02
    -21.073  0.1122E+02  0.1205E+02
    -20.907 -0.2760E+00  0.1200E+02
    -20.742 -0.6544E-02  0.1200E+02
    -20.576 -0.1351E-06  0.1200E+02
    -20.411 -0.1025E-13  0.1200E+02
    -20.245  0.0000E+00  0.1200E+02
    -20.079  0.0000E+00  0.1200E+02
    -19.914  0.0000E+00  0.1200E+02
    -19.748  0.0000E+00  0.1200E+02
    -19.583  0.0000E+00  0.1200E+02
    -19.417  0.0000E+00  0.1200E+02
    -19.252  0.0000E+00  0.1200E+02
    -19.086  0.0000E+00  0.1200E+02
    -18.920  0.0000E+00  0.1200E+02
    -18.755  0.0000E+00  0.1200E+02
    -18.589  0.0000E+00  0.1200E+02
    -18.424  0.0000E+00  0.1200E+02
    -18.258  0.0000E+00  0.1200E+02
    -18.092  0.0000E+00  0.1200E+02
    -17.927  0.0000E+00  0.1200E+02
    -17.761  0.0000E+00  0.1200E+02
    -17.596  0.0000E+00  0.1200E+02
    -17.430  0.0000E+00  0.1200E+02
    -17.264  0.0000E+00  0.1200E+02
    -17.099  0.0000E+00  0.1200E+02
    -16.933  0.0000E+00  0.1200E+02
    -16.768  0.0000E+00  0.1200E+02
    -16.602  0.0000E+00  0.1200E+02
    -16.437  0.0000E+00  0.1200E+02
    -16.271  0.0000E+00  0.1200E+02
    -16.105  0.0000E+00  0.1200E+02
    -15.940  0.0000E+00  0.1200E+02
    -15.774  0.0000E+00  0.1200E+02
    -15.609  0.0000E+00  0.1200E+02
    -15.443  0.0000E+00  0.1200E+02
    -15.277  0.0000E+00  0.1200E+02
    -15.112  0.0000E+00  0.1200E+02
    -14.946  0.0000E+00  0.1200E+02
    -14.781  0.0000E+00  0.1200E+02
    -14.615  0.0000E+00  0.1200E+02
    -14.449  0.0000E+00  0.1200E+02
    -14.284  0.0000E+00  0.1200E+02
    -14.118  0.0000E+00  0.1200E+02
    -13.953  0.0000E+00  0.1200E+02
    -13.787  0.0000E+00  0.1200E+02
    -13.622  0.0000E+00  0.1200E+02
    -13.456  0.0000E+00  0.1200E+02
    -13.290  0.0000E+00  0.1200E+02
    -13.125  0.0000E+00  0.1200E+02
    -12.959  0.0000E+00  0.1200E+02
    -12.794  0.0000E+00  0.1200E+02
    -12.628  0.0000E+00  0.1200E+02
    -12.462  0.0000E+00  0.1200E+02
    -12.297  0.0000E+00  0.1200E+02
    -12.131  0.0000E+00  0.1200E+02
    -11.966  0.0000E+00  0.1200E+02
    -11.800  0.0000E+00  0.1200E+02
    -11.634  0.0000E+00  0.1200E+02
    -11.469  0.0000E+00  0.1200E+02
    -11.303  0.0000E+00  0.1200E+02
    -11.138  0.0000E+00  0.1200E+02
    -10.972  0.0000E+00  0.1200E+02
    -10.807  0.0000E+00  0.1200E+02
    -10.641  0.0000E+00  0.1200E+02
    -10.475  0.0000E+00  0.1200E+02
    -10.310  0.0000E+00  0.1200E+02
    -10.144  0.0000E+00  0.1200E+02
     -9.979  0.0000E+00  0.1200E+02
     -9.813  0.0000E+00  0.1200E+02
     -9.647  0.0000E+00  0.1200E+02
     -9.482  0.0000E+00  0.1200E+02
     -9.316 -0.2137E-38  0.1200E+02
     -9.151 -0.5884E-26  0.1200E+02
     -8.985 -0.6584E-16  0.1200E+02
     -8.819 -0.2877E-08  0.1200E+02
     -8.654 -0.4972E-03  0.1200E+02
     -8.488 -0.2203E+00  0.1196E+02
     -8.323  0.5363E+01  0.1285E+02
     -8.157  0.6525E+01  0.1393E+02
     -7.992  0.4356E+00  0.1400E+02
     -7.826 -0.2464E-01  0.1400E+02
     -7.660 -0.7211E-04  0.1400E+02
     -7.495 -0.8243E-09  0.1400E+02
     -7.329 -0.3311E-16  0.1400E+02
     -7.164  0.0000E+00  0.1400E+02
     -6.998  0.0000E+00  0.1400E+02
     -6.832  0.0000E+00  0.1400E+02
     -6.667  0.0000E+00  0.1400E+02
     -6.501  0.0000E+00  0.1400E+02
     -6.336  0.0000E+00  0.1400E+02
     -6.170  0.0000E+00  0.1400E+02
     -6.004  0.0000E+00  0.1400E+02
     -5.839  0.0000E+00  0.1400E+02
     -5.673  0.0000E+00  0.1400E+02
     -5.508  0.0000E+00  0.1400E+02
     -5.342  0.0000E+00  0.1400E+02
     -5.177  0.0000E+00  0.1400E+02
     -5.011  0.0000E+00  0.1400E+02
     -4.845  0.0000E+00  0.1400E+02
     -4.680  0.0000E+00  0.1400E+02
     -4.514  0.0000E+00  0.1400E+02
     -4.349  0.0000E+00  0.1400E+02
     -4.183  0.0000E+00  0.1400E+02
     -4.017  0.0000E+00  0.1400E+02
     -3.852  0.0000E+00  0.1400E+02
     -3.686  0.0000E+00  0.1400E+02
     -3.521  0.0000E+00  0.1400E+02
     -3.355  0.0000E+00  0.1400E+02
     -3.189  0.0000E+00  0.1400E+02
     -3.024  0.0000E+00  0.1400E+02
     -2.858  0.0000E+00  0.1400E+02
     -2.693  0.0000E+00  0.1400E+02
     -2.527  0.0000E+00  0.1400E+02
     -2.362  0.0000E+00  0.1400E+02
     -2.196  0.0000E+00  0.1400E+02
     -2.030  0.0000E+00  0.1400E+02
     -1.865  0.0000E+00  0.1400E+02
     -1.699  0.0000E+00  0.1400E+02
     -1.534  0.0000E+00  0.1400E+02
     -1.368  0.0000E+00  0.1400E+02
     -1.202  0.0000E+00  0.1400E+02
     -1.037  0.0000E+00  0.1400E+02
     -0.871 -0.2690E-28  0.1400E+02
     -0.706 -0.6490E-18  0.1400E+02
     -0.540 -0.5954E-10  0.1400E+02
     -0.374 -0.2145E-04  0.1400E+02
     -0.209 -0.2937E-01  0.1400E+02
     -0.043  0.5876E+00  0.1409E+02
      0.122  0.6601E+01  0.1519E+02
      0.288  0.2282E+01  0.1556E+02
      0.453  0.8087E+00  0.1570E+02
      0.619  0.7480E+00  0.1582E+02
      0.785  0.4638E+00  0.1590E+02
      0.950  0.1267E+01  0.1611E+02
      1.116  0.2574E+01  0.1653E+02
      1.281  0.1377E+01  0.1676E+02
      1.447  0.2019E+01  0.1710E+02
      1.613  0.1388E+01  0.1733E+02
      1.778  0.1137E+01  0.1751E+02
      1.944  0.1328E+01  0.1773E+02
      2.109  0.8721E+00  0.1788E+02
      2.275  0.5253E+00  0.1797E+02
      2.441  0.1972E+00  0.1800E+02
      2.606  0.9910E-02  0.1800E+02
      2.772  0.1371E-01  0.1800E+02
      2.937  0.2989E-02  0.1800E+02
      3.103 -0.1013E-03  0.1800E+02
      3.269 -0.1168E-06  0.1800E+02
      3.434 -0.7751E-03  0.1800E+02
      3.600  0.2278E-01  0.1801E+02
      3.765  0.1120E+00  0.1802E+02
      3.931  0.8767E-01  0.1804E+02
      4.096  0.1037E-01  0.1804E+02
      4.262  0.3897E-02  0.1804E+02
      4.428  0.1913E+00  0.1807E+02
      4.593  0.1395E+00  0.1810E+02
      4.759  0.4042E+00  0.1816E+02
      4.924 -0.1514E-01  0.1816E+02
      5.090  0.3119E+00  0.1821E+02
      5.256  0.6079E+00  0.1831E+02
      5.421  0.7120E+00  0.1843E+02
      5.587  0.1303E+01  0.1865E+02
      5.752  0.8054E+00  0.1878E+02
      5.918  0.1141E+01  0.1897E+02
      6.084  0.1857E+01  0.1928E+02
      6.249  0.1543E+01  0.1953E+02
      6.415  0.1139E+01  0.1972E+02
      6.580  0.1477E+01  0.1997E+02
      6.746  0.2515E+00  0.2001E+02
      6.911  0.1457E+00  0.2003E+02
      7.077  0.4997E+00  0.2011E+02
      7.243  0.4763E+00  0.2019E+02
      7.408  0.1267E+01  0.2040E+02
      7.574  0.3813E+01  0.2103E+02
      7.739  0.7985E+00  0.2117E+02
      7.905  0.1160E+01  0.2136E+02
      8.071  0.6767E+00  0.2147E+02
      8.236  0.1540E+01  0.2173E+02
      8.402  0.2350E+01  0.2211E+02
      8.567  0.2668E+01  0.2256E+02
      8.733  0.1323E+01  0.2278E+02
      8.899  0.6157E+00  0.2288E+02
      9.064  0.2525E+01  0.2330E+02
      9.230  0.2499E+01  0.2371E+02
      9.395  0.1050E+01  0.2388E+02
      9.561  0.6971E+00  0.2400E+02
      9.726  0.1402E+01  0.2423E+02
      9.892  0.1292E+01  0.2444E+02
     10.058  0.2355E+01  0.2483E+02
     10.223  0.3336E+01  0.2539E+02
     10.389  0.9677E+00  0.2555E+02
     10.554  0.1458E+01  0.2579E+02
     10.720  0.1744E+01  0.2608E+02
     10.886  0.5651E+00  0.2617E+02
     11.051  0.8865E+00  0.2632E+02
     11.217  0.2556E+01  0.2674E+02
     11.382  0.1425E+01  0.2698E+02
     11.548  0.1401E+01  0.2721E+02
     11.714  0.9291E+00  0.2736E+02
     11.879  0.1638E+01  0.2763E+02
     12.045  0.8650E+00  0.2778E+02
     12.210  0.1739E+00  0.2781E+02
     12.376  0.2812E+00  0.2785E+02
     12.541  0.2049E+00  0.2789E+02
     12.707  0.2419E+00  0.2793E+02
     12.873  0.2526E+00  0.2797E+02
     13.038  0.6622E-01  0.2798E+02
     13.204  0.6267E-01  0.2799E+02
     13.369  0.2095E-01  0.2799E+02
     13.535  0.1735E-01  0.2800E+02
     13.701  0.2412E-01  0.2800E+02
     13.866 -0.8293E-03  0.2800E+02
     14.032 -0.7398E-05  0.2800E+02
     14.197 -0.1028E-09  0.2800E+02
     14.363 -0.3679E-17  0.2800E+02
     14.529  0.0000E+00  0.2800E+02
     14.694  0.0000E+00  0.2800E+02
     14.860  0.0000E+00  0.2800E+02
     15.025  0.0000E+00  0.2800E+02
     15.191  0.0000E+00  0.2800E+02
     15.356  0.0000E+00  0.2800E+02
     15.522  0.0000E+00  0.2800E+02
     15.688  0.0000E+00  0.2800E+02
     15.853  0.0000E+00  0.2800E+02
