    1    1    1    1
  0.6735189E+02  0.4566901E-09  0.4566901E-09  0.4566901E-09  0.1000000E-15
  1.000000000000000E-004
  CAR 
 Og_FCC                                  
     18    365     28
 
  0.0000000E+00  0.0000000E+00  0.0000000E+00  0.1371742E-02
    1      -31.565304   1.000000
    2      -31.565304   1.000000
    3      -31.565304   1.000000
    4      -31.565303   1.000000
    5      -24.873180   1.000000
    6      -24.873179   1.000000
    7      -24.871287   1.000000
    8      -24.871287   1.000000
    9      -24.871287   1.000000
   10      -24.871287   1.000000
   11      -21.237854   1.000000
   12      -21.237853   1.000000
   13       -8.081231   1.000000
   14       -8.081231   1.000000
   15        2.416263   0.865680
   16        2.416264   0.865679
   17        2.416264   0.865678
   18        2.416264   0.865677
   19        2.729311  -0.000610
   20        2.729313  -0.000610
   21        9.478117   0.000000
   22        9.478117   0.000000
   23        9.478117   0.000000
   24        9.478118   0.000000
   25        9.843637   0.000000
   26        9.843637   0.000000
   27       10.055393   0.000000
   28       10.055394   0.000000
 
  0.1111111E+00 -0.5945640E-17 -0.6938894E-17  0.2743484E-02
    1      -31.565252   1.000000
    2      -31.565252   1.000000
    3      -31.565114   1.000000
    4      -31.565114   1.000000
    5      -24.872778   1.000000
    6      -24.872777   1.000000
    7      -24.871328   1.000000
    8      -24.871327   1.000000
    9      -24.870817   1.000000
   10      -24.870817   1.000000
   11      -21.230960   1.000000
   12      -21.230959   1.000000
   13       -8.107843   1.000000
   14       -8.107842   1.000000
   15        1.578734   1.000000
   16        1.578735   1.000000
   17        2.361779   1.028541
   18        2.361779   1.028541
   19        3.643408  -0.000000
   20        3.643409  -0.000000
   21        8.816353   0.000000
   22        8.816353   0.000000
   23        9.581535   0.000000
   24        9.581535   0.000000
   25        9.850897   0.000000
   26        9.850898   0.000000
   27       11.096191   0.000000
   28       11.331443   0.000000
 
  0.2222222E+00 -0.1189128E-16 -0.1387779E-16  0.2743484E-02
    1      -31.565151   1.000000
    2      -31.565151   1.000000
    3      -31.564701   1.000000
    4      -31.564700   1.000000
    5      -24.872215   1.000000
    6      -24.872215   1.000000
    7      -24.870981   1.000000
    8      -24.870980   1.000000
    9      -24.869634   1.000000
   10      -24.869634   1.000000
   11      -21.213481   1.000000
   12      -21.213480   1.000000
   13       -8.175341   1.000000
   14       -8.175341   1.000000
   15        0.787919   1.000000
   16        0.787919   1.000000
   17        2.230987   1.002252
   18        2.230988   1.002252
   19        4.543712  -0.000000
   20        4.543713  -0.000000
   21        8.454022   0.000000
   22        8.454022   0.000000
   23        9.570696   0.000000
   24        9.570698   0.000000
   25        9.907471   0.000000
   26        9.907660   0.000000
   27       10.589876   0.000000
   28       11.032567   0.000000
 
  0.3333333E+00  0.3073534E-16  0.1387779E-16  0.2743484E-02
    1      -31.565035   1.000000
    2      -31.565035   1.000000
    3      -31.564208   1.000000
    4      -31.564207   1.000000
    5      -24.872346   1.000000
    6      -24.872346   1.000000
    7      -24.869815   1.000000
    8      -24.869814   1.000000
    9      -24.868283   1.000000
   10      -24.868283   1.000000
   11      -21.193440   1.000000
   12      -21.193439   1.000000
   13       -8.252077   1.000000
   14       -8.252076   1.000000
   15        0.234766   1.000000
   16        0.234767   1.000000
   17        2.092987   1.000001
   18        2.092987   1.000001
   19        5.004591  -0.000000
   20        5.004591  -0.000000
   21        8.778998   0.000000
   22        8.778999   0.000000
   23        9.257312   0.000000
   24        9.257312   0.000000
   25        9.622831   0.000000
   26        9.622831   0.000000
   27       10.132005   0.000000
   28       10.132006   0.000000
 
  0.4444444E+00 -0.2378256E-16 -0.2775558E-16  0.2743484E-02
    1      -31.564958   1.000000
    2      -31.564958   1.000000
    3      -31.563886   1.000000
    4      -31.563886   1.000000
    5      -24.872532   1.000000
    6      -24.872532   1.000000
    7      -24.868959   1.000000
    8      -24.868958   1.000000
    9      -24.867399   1.000000
   10      -24.867399   1.000000
   11      -21.180271   1.000000
   12      -21.180271   1.000000
   13       -8.302161   1.000000
   14       -8.302160   1.000000
   15       -0.048431   1.000000
   16       -0.048431   1.000000
   17        2.008160   1.000000
   18        2.008160   1.000000
   19        5.106856  -0.000000
   20        5.106857  -0.000000
   21        9.031197   0.000000
   22        9.031198   0.000000
   23        9.124062   0.000000
   24        9.124064   0.000000
   25        9.386632   0.000000
   26        9.386632   0.000000
   27       10.348723   0.000000
   28       10.348724   0.000000
 
 -0.1925930E-33  0.1111111E+00 -0.6938894E-17  0.2743484E-02
    1      -31.565252   1.000000
    2      -31.565252   1.000000
    3      -31.565114   1.000000
    4      -31.565114   1.000000
    5      -24.872778   1.000000
    6      -24.872777   1.000000
    7      -24.871328   1.000000
    8      -24.871327   1.000000
    9      -24.870817   1.000000
   10      -24.870816   1.000000
   11      -21.230960   1.000000
   12      -21.230959   1.000000
   13       -8.107843   1.000000
   14       -8.107842   1.000000
   15        1.578734   1.000000
   16        1.578735   1.000000
   17        2.361779   1.028541
   18        2.361779   1.028541
   19        3.643408  -0.000000
   20        3.643409  -0.000000
   21        8.816353   0.000000
   22        8.816353   0.000000
   23        9.581535   0.000000
   24        9.581535   0.000000
   25        9.850897   0.000000
   26        9.850899   0.000000
   27       11.002357   0.000000
   28       11.302792   0.000000
 
  0.1111111E+00  0.1111111E+00 -0.2775558E-16  0.2743484E-02
    1      -31.565197   1.000000
    2      -31.565196   1.000000
    3      -31.565109   1.000000
    4      -31.565109   1.000000
    5      -24.872704   1.000000
    6      -24.872703   1.000000
    7      -24.871061   1.000000
    8      -24.871060   1.000000
    9      -24.870886   1.000000
   10      -24.870885   1.000000
   11      -21.228683   1.000000
   12      -21.228682   1.000000
   13       -8.116490   1.000000
   14       -8.116489   1.000000
   15        1.491923   1.000000
   16        1.491924   1.000000
   17        2.236472   1.002810
   18        2.236472   1.002810
   19        3.875923  -0.000000
   20        3.875924  -0.000000
   21        8.578583   0.000000
   22        8.578583   0.000000
   23        9.589235   0.000000
   24        9.589235   0.000000
   25       10.078209   0.000000
   26       10.078222   0.000000
   27       10.341918   0.000000
   28       10.341924   0.000000
 
  0.2222222E+00  0.1111111E+00 -0.1387779E-16  0.2743484E-02
    1      -31.565102   1.000000
    2      -31.565102   1.000000
    3      -31.564791   1.000000
    4      -31.564790   1.000000
    5      -24.872171   1.000000
    6      -24.872171   1.000000
    7      -24.870998   1.000000
    8      -24.870998   1.000000
    9      -24.869809   1.000000
   10      -24.869809   1.000000
   11      -21.214748   1.000000
   12      -21.214747   1.000000
   13       -8.169722   1.000000
   14       -8.169721   1.000000
   15        0.903631   1.000000
   16        0.903631   1.000000
   17        2.077528   1.000000
   18        2.077528   1.000000
   19        4.659877  -0.000000
   20        4.659878  -0.000000
   21        8.173390   0.000000
   22        8.173390   0.000000
   23        9.234852   0.000000
   24        9.234853   0.000000
   25        9.977495   0.000000
   26        9.977495   0.000000
   27       10.554547   0.000000
   28       10.554554   0.000000
 
  0.3333333E+00  0.1111111E+00  0.2775558E-16  0.2743484E-02
    1      -31.564982   1.000000
    2      -31.564981   1.000000
    3      -31.564324   1.000000
    4      -31.564324   1.000000
    5      -24.871984   1.000000
    6      -24.871984   1.000000
    7      -24.870227   1.000000
    8      -24.870227   1.000000
    9      -24.868478   1.000000
   10      -24.868478   1.000000
   11      -21.195564   1.000000
   12      -21.195563   1.000000
   13       -8.242417   1.000000
   14       -8.242416   1.000000
   15        0.361373   1.000000
   16        0.361373   1.000000
   17        1.902359   1.000000
   18        1.902359   1.000000
   19        5.271632   0.000000
   20        5.271633   0.000000
   21        8.283851   0.000000
   22        8.283852   0.000000
   23        8.683742   0.000000
   24        8.683743   0.000000
   25        9.864404   0.000000
   26        9.864406   0.000000
   27       11.174062   0.000000
   28       11.309791   0.000000
 
  0.4444444E+00  0.1111111E+00 -0.8326673E-16  0.2743484E-02
    1      -31.564866   1.000000
    2      -31.564866   1.000000
    3      -31.563955   1.000000
    4      -31.563954   1.000000
    5      -24.872115   1.000000
    6      -24.872114   1.000000
    7      -24.869148   1.000000
    8      -24.869147   1.000000
    9      -24.867594   1.000000
   10      -24.867594   1.000000
   11      -21.180051   1.000000
   12      -21.180051   1.000000
   13       -8.300486   1.000000
   14       -8.300485   1.000000
   15        0.025908   1.000000
   16        0.025908   1.000000
   17        1.765506   1.000000
   18        1.765506   1.000000
   19        5.489830   0.000000
   20        5.489831   0.000000
   21        8.183711   0.000000
   22        8.183713   0.000000
   23        9.133834   0.000000
   24        9.133834   0.000000
   25        9.683559   0.000000
   26        9.683560   0.000000
   27       11.003574   0.000000
   28       11.003692   0.000000
 
 -0.4444444E+00  0.1111111E+00  0.2775558E-16  0.2743484E-02
    1      -31.564844   1.000000
    2      -31.564844   1.000000
    3      -31.563867   1.000000
    4      -31.563866   1.000000
    5      -24.872153   1.000000
    6      -24.872152   1.000000
    7      -24.868753   1.000000
    8      -24.868752   1.000000
    9      -24.867440   1.000000
   10      -24.867440   1.000000
   11      -21.175671   1.000000
   12      -21.175671   1.000000
   13       -8.316978   1.000000
   14       -8.316978   1.000000
   15       -0.060417   1.000000
   16       -0.060417   1.000000
   17        1.725274   1.000000
   18        1.725275   1.000000
   19        5.530624   0.000000
   20        5.530625   0.000000
   21        8.121739   0.000000
   22        8.121741   0.000000
   23        9.289474   0.000000
   24        9.289475   0.000000
   25        9.816237   0.000000
   26        9.816237   0.000000
   27       11.119916   0.000000
   28       11.135407   0.000000
 
 -0.3333333E+00  0.1111111E+00 -0.2775558E-16  0.2743484E-02
    1      -31.564903   1.000000
    2      -31.564903   1.000000
    3      -31.564064   1.000000
    4      -31.564063   1.000000
    5      -24.872016   1.000000
    6      -24.872016   1.000000
    7      -24.869455   1.000000
    8      -24.869454   1.000000
    9      -24.867905   1.000000
   10      -24.867905   1.000000
   11      -21.184455   1.000000
   12      -21.184454   1.000000
   13       -8.284237   1.000000
   14       -8.284236   1.000000
   15        0.109701   1.000000
   16        0.109702   1.000000
   17        1.801670   1.000000
   18        1.801670   1.000000
   19        5.474359   0.000000
   20        5.474360   0.000000
   21        8.298850   0.000000
   22        8.298852   0.000000
   23        9.060902   0.000000
   24        9.060902   0.000000
   25        9.523610   0.000000
   26        9.523612   0.000000
   27       11.217598   0.000000
   28       11.271423   0.000000
 
 -0.2222222E+00  0.1111111E+00  0.2081668E-16  0.2743484E-02
    1      -31.565029   1.000000
    2      -31.565029   1.000000
    3      -31.564467   1.000000
    4      -31.564467   1.000000
    5      -24.871816   1.000000
    6      -24.871816   1.000000
    7      -24.870740   1.000000
    8      -24.870739   1.000000
    9      -24.868925   1.000000
   10      -24.868925   1.000000
   11      -21.202208   1.000000
   12      -21.202207   1.000000
   13       -8.217490   1.000000
   14       -8.217490   1.000000
   15        0.515190   1.000000
   16        0.515191   1.000000
   17        1.975970   1.000000
   18        1.975970   1.000000
   19        5.112806  -0.000000
   20        5.112807  -0.000000
   21        8.286570   0.000000
   22        8.286570   0.000000
   23        8.997390   0.000000
   24        8.997392   0.000000
   25        9.790092   0.000000
   26        9.790093   0.000000
   27       10.646773   0.000000
   28       10.648119   0.000000
 
 -0.1111111E+00  0.1111111E+00 -0.1178736E-17  0.2743484E-02
    1      -31.565164   1.000000
    2      -31.565164   1.000000
    3      -31.564899   1.000000
    4      -31.564899   1.000000
    5      -24.872224   1.000000
    6      -24.872224   1.000000
    7      -24.871319   1.000000
    8      -24.871319   1.000000
    9      -24.870128   1.000000
   10      -24.870128   1.000000
   11      -21.220559   1.000000
   12      -21.220558   1.000000
   13       -8.147826   1.000000
   14       -8.147826   1.000000
   15        1.082757   1.000000
   16        1.082757   1.000000
   17        2.197603   1.000503
   18        2.197603   1.000503
   19        4.338325  -0.000000
   20        4.338326  -0.000000
   21        8.415309   0.000000
   22        8.415310   0.000000
   23        9.502488   0.000000
   24        9.502489   0.000000
   25        9.955776   0.000000
   26        9.955778   0.000000
   27       10.530620   0.000000
   28       10.534480   0.000000
 
 -0.3851860E-33  0.2222222E+00 -0.1387779E-16  0.2743484E-02
    1      -31.565151   1.000000
    2      -31.565151   1.000000
    3      -31.564701   1.000000
    4      -31.564700   1.000000
    5      -24.872216   1.000000
    6      -24.872215   1.000000
    7      -24.870981   1.000000
    8      -24.870980   1.000000
    9      -24.869634   1.000000
   10      -24.869634   1.000000
   11      -21.213481   1.000000
   12      -21.213480   1.000000
   13       -8.175341   1.000000
   14       -8.175341   1.000000
   15        0.787919   1.000000
   16        0.787920   1.000000
   17        2.230987   1.002252
   18        2.230988   1.002252
   19        4.543712  -0.000000
   20        4.543713  -0.000000
   21        8.454022   0.000000
   22        8.454022   0.000000
   23        9.570695   0.000000
   24        9.570696   0.000000
   25        9.907471   0.000000
   26        9.907499   0.000000
   27       10.613030   0.000000
   28       10.857361   0.000000
 
  0.1111111E+00  0.2222222E+00 -0.4163336E-16  0.2743484E-02
    1      -31.565103   1.000000
    2      -31.565102   1.000000
    3      -31.564791   1.000000
    4      -31.564790   1.000000
    5      -24.872171   1.000000
    6      -24.872171   1.000000
    7      -24.870998   1.000000
    8      -24.870998   1.000000
    9      -24.869809   1.000000
   10      -24.869809   1.000000
   11      -21.214748   1.000000
   12      -21.214747   1.000000
   13       -8.169722   1.000000
   14       -8.169721   1.000000
   15        0.903630   1.000000
   16        0.903631   1.000000
   17        2.077528   1.000000
   18        2.077528   1.000000
   19        4.659877  -0.000000
   20        4.659878  -0.000000
   21        8.173390   0.000000
   22        8.173390   0.000000
   23        9.234852   0.000000
   24        9.234853   0.000000
   25        9.977495   0.000000
   26        9.977495   0.000000
   27       10.554547   0.000000
   28       10.554558   0.000000
 
  0.2222222E+00  0.2222222E+00  0.0000000E+00  0.2743484E-02
    1      -31.564952   1.000000
    2      -31.564952   1.000000
    3      -31.564648   1.000000
    4      -31.564648   1.000000
    5      -24.872162   1.000000
    6      -24.872161   1.000000
    7      -24.870492   1.000000
    8      -24.870492   1.000000
    9      -24.869197   1.000000
   10      -24.869197   1.000000
   11      -21.205421   1.000000
   12      -21.205421   1.000000
   13       -8.203755   1.000000
   14       -8.203755   1.000000
   15        0.711166   1.000000
   16        0.711167   1.000000
   17        1.834158   1.000000
   18        1.834158   1.000000
   19        5.150332  -0.000000
   20        5.150333  -0.000000
   21        7.674611   0.000000
   22        7.674611   0.000000
   23        8.725127   0.000000
   24        8.725129   0.000000
   25       10.139985   0.000000
   26       10.139986   0.000000
   27       10.950091   0.000000
   28       10.950092   0.000000
 
  0.3333333E+00  0.2222222E+00  0.2775558E-16  0.2743484E-02
    1      -31.564816   1.000000
    2      -31.564816   1.000000
    3      -31.564314   1.000000
    4      -31.564314   1.000000
    5      -24.871846   1.000000
    6      -24.871846   1.000000
    7      -24.870182   1.000000
    8      -24.870182   1.000000
    9      -24.867962   1.000000
   10      -24.867962   1.000000
   11      -21.189819   1.000000
   12      -21.189819   1.000000
   13       -8.261106   1.000000
   14       -8.261106   1.000000
   15        0.368852   1.000000
   16        0.368852   1.000000
   17        1.609226   1.000000
   18        1.609226   1.000000
   19        5.656289   0.000000
   20        5.656291   0.000000
   21        7.511479   0.000000
   22        7.511479   0.000000
   23        8.305622   0.000000
   24        8.305623   0.000000
   25       10.397056   0.000000
   26       10.397056   0.000000
   27       11.435276   0.000000
   28       11.435276   0.000000
 
  0.4444444E+00  0.2222222E+00 -0.2775558E-16  0.2743484E-02
    1      -31.564673   1.000000
    2      -31.564673   1.000000
    3      -31.563997   1.000000
    4      -31.563996   1.000000
    5      -24.871536   1.000000
    6      -24.871536   1.000000
    7      -24.869508   1.000000
    8      -24.869507   1.000000
    9      -24.867214   1.000000
   10      -24.867214   1.000000
   11      -21.175141   1.000000
   12      -21.175140   1.000000
   13       -8.314282   1.000000
   14       -8.314282   1.000000
   15        0.103574   1.000000
   16        0.103574   1.000000
   17        1.377607   1.000000
   18        1.377607   1.000000
   19        5.990008   0.000000
   20        5.990010   0.000000
   21        7.561655   0.000000
   22        7.561656   0.000000
   23        8.470420   0.000000
   24        8.470420   0.000000
   25       10.265047   0.000000
   26       10.265048   0.000000
   27       11.726592   0.000000
   28       11.726610   0.000000
 
 -0.4444444E+00  0.2222222E+00  0.2775558E-16  0.2743484E-02
    1      -31.564615   1.000000
    2      -31.564615   1.000000
    3      -31.563887   1.000000
    4      -31.563887   1.000000
    5      -24.871383   1.000000
    6      -24.871383   1.000000
    7      -24.868673   1.000000
    8      -24.868672   1.000000
    9      -24.867419   1.000000
   10      -24.867418   1.000000
   11      -21.168417   1.000000
   12      -21.168416   1.000000
   13       -8.338696   1.000000
   14       -8.338695   1.000000
   15       -0.007120   1.000000
   16       -0.007120   1.000000
   17        1.248774   1.000000
   18        1.248774   1.000000
   19        6.203694   0.000000
   20        6.203695   0.000000
   21        7.452889   0.000000
   22        7.452891   0.000000
   23        9.285557   0.000000
   24        9.285557   0.000000
   25       10.130908   0.000000
   26       10.130909   0.000000
   27       11.152798   0.000000
   28       11.152798   0.000000
 
 -0.3333333E+00  0.2222222E+00 -0.5551115E-16  0.2743484E-02
    1      -31.564653   1.000000
    2      -31.564653   1.000000
    3      -31.563968   1.000000
    4      -31.563967   1.000000
    5      -24.871254   1.000000
    6      -24.871254   1.000000
    7      -24.868821   1.000000
    8      -24.868821   1.000000
    9      -24.867911   1.000000
   10      -24.867911   1.000000
   11      -21.172766   1.000000
   12      -21.172765   1.000000
   13       -8.323490   1.000000
   14       -8.323490   1.000000
   15        0.045265   1.000000
   16        0.045265   1.000000
   17        1.312525   1.000000
   18        1.312525   1.000000
   19        6.305488   0.000000
   20        6.305489   0.000000
   21        7.498643   0.000000
   22        7.498645   0.000000
   23        9.079985   0.000000
   24        9.079985   0.000000
   25       10.088734   0.000000
   26       10.088737   0.000000
   27       11.526184   0.000000
   28       11.604861   0.000000
 
 -0.2222222E+00  0.2222222E+00 -0.3103618E-17  0.2743484E-02
    1      -31.564828   1.000000
    2      -31.564828   1.000000
    3      -31.564196   1.000000
    4      -31.564196   1.000000
    5      -24.871222   1.000000
    6      -24.871221   1.000000
    7      -24.870167   1.000000
    8      -24.870167   1.000000
    9      -24.868182   1.000000
   10      -24.868181   1.000000
   11      -21.186159   1.000000
   12      -21.186159   1.000000
   13       -8.275892   1.000000
   14       -8.275892   1.000000
   15        0.237303   1.000000
   16        0.237303   1.000000
   17        1.582310   1.000000
   18        1.582310   1.000000
   19        5.923213   0.000000
   20        5.923214   0.000000
   21        7.878067   0.000000
   22        7.878069   0.000000
   23        8.614638   0.000000
   24        8.614639   0.000000
   25        9.963447   0.000000
   26        9.963449   0.000000
   27       10.717759   0.000000
   28       10.717761   0.000000
 
 -0.1111111E+00  0.2222222E+00  0.6938894E-17  0.2743484E-02
    1      -31.565029   1.000000
    2      -31.565029   1.000000
    3      -31.564467   1.000000
    4      -31.564467   1.000000
    5      -24.871816   1.000000
    6      -24.871816   1.000000
    7      -24.870740   1.000000
    8      -24.870739   1.000000
    9      -24.868925   1.000000
   10      -24.868925   1.000000
   11      -21.202208   1.000000
   12      -21.202207   1.000000
   13       -8.217490   1.000000
   14       -8.217490   1.000000
   15        0.515190   1.000000
   16        0.515191   1.000000
   17        1.975970   1.000000
   18        1.975970   1.000000
   19        5.112806  -0.000000
   20        5.112807  -0.000000
   21        8.286570   0.000000
   22        8.286570   0.000000
   23        8.997390   0.000000
   24        8.997392   0.000000
   25        9.790092   0.000000
   26        9.790093   0.000000
   27       10.646824   0.000000
   28       10.647130   0.000000
 
  0.7703720E-33  0.3333333E+00  0.0000000E+00  0.2743484E-02
    1      -31.565035   1.000000
    2      -31.565035   1.000000
    3      -31.564208   1.000000
    4      -31.564207   1.000000
    5      -24.872346   1.000000
    6      -24.872346   1.000000
    7      -24.869815   1.000000
    8      -24.869814   1.000000
    9      -24.868283   1.000000
   10      -24.868282   1.000000
   11      -21.193440   1.000000
   12      -21.193439   1.000000
   13       -8.252077   1.000000
   14       -8.252076   1.000000
   15        0.234766   1.000000
   16        0.234767   1.000000
   17        2.092987   1.000001
   18        2.092987   1.000001
   19        5.004591  -0.000000
   20        5.004591  -0.000000
   21        8.778998   0.000000
   22        8.778999   0.000000
   23        9.257312   0.000000
   24        9.257312   0.000000
   25        9.622831   0.000000
   26        9.622831   0.000000
   27       10.132004   0.000000
   28       10.132006   0.000000
 
  0.1111111E+00  0.3333333E+00 -0.2775558E-16  0.2743484E-02
    1      -31.564982   1.000000
    2      -31.564981   1.000000
    3      -31.564324   1.000000
    4      -31.564324   1.000000
    5      -24.871984   1.000000
    6      -24.871984   1.000000
    7      -24.870227   1.000000
    8      -24.870227   1.000000
    9      -24.868478   1.000000
   10      -24.868478   1.000000
   11      -21.195564   1.000000
   12      -21.195563   1.000000
   13       -8.242417   1.000000
   14       -8.242416   1.000000
   15        0.361372   1.000000
   16        0.361373   1.000000
   17        1.902359   1.000000
   18        1.902359   1.000000
   19        5.271632   0.000000
   20        5.271633   0.000000
   21        8.283852   0.000000
   22        8.283852   0.000000
   23        8.683742   0.000000
   24        8.683743   0.000000
   25        9.864404   0.000000
   26        9.864405   0.000000
   27       11.162385   0.000000
   28       11.305685   0.000000
 
  0.2222222E+00  0.3333333E+00 -0.2775558E-16  0.2743484E-02
    1      -31.564816   1.000000
    2      -31.564816   1.000000
    3      -31.564314   1.000000
    4      -31.564314   1.000000
    5      -24.871846   1.000000
    6      -24.871846   1.000000
    7      -24.870182   1.000000
    8      -24.870182   1.000000
    9      -24.867962   1.000000
   10      -24.867962   1.000000
   11      -21.189819   1.000000
   12      -21.189819   1.000000
   13       -8.261106   1.000000
   14       -8.261106   1.000000
   15        0.368852   1.000000
   16        0.368852   1.000000
   17        1.609226   1.000000
   18        1.609226   1.000000
   19        5.656289   0.000000
   20        5.656291   0.000000
   21        7.511479   0.000000
   22        7.511479   0.000000
   23        8.305622   0.000000
   24        8.305623   0.000000
   25       10.397056   0.000000
   26       10.397056   0.000000
   27       11.435276   0.000000
   28       11.435278   0.000000
 
  0.3333333E+00  0.3333333E+00  0.2775558E-16  0.2743484E-02
    1      -31.564679   1.000000
    2      -31.564679   1.000000
    3      -31.564114   1.000000
    4      -31.564114   1.000000
    5      -24.871951   1.000000
    6      -24.871951   1.000000
    7      -24.869860   1.000000
    8      -24.869860   1.000000
    9      -24.866867   1.000000
   10      -24.866866   1.000000
   11      -21.178855   1.000000
   12      -21.178855   1.000000
   13       -8.299450   1.000000
   14       -8.299450   1.000000
   15        0.215496   1.000000
   16        0.215496   1.000000
   17        1.442742   1.000000
   18        1.442742   1.000000
   19        5.673226   0.000000
   20        5.673228   0.000000
   21        7.064212   0.000000
   22        7.064212   0.000000
   23        8.447875   0.000000
   24        8.447876   0.000000
   25       10.968406   0.000000
   26       10.968406   0.000000
   27       12.034950   0.000000
   28       12.034952   0.000000
 
  0.4444444E+00  0.3333333E+00  0.0000000E+00  0.2743484E-02
    1      -31.564546   1.000000
    2      -31.564546   1.000000
    3      -31.563912   1.000000
    4      -31.563911   1.000000
    5      -24.871665   1.000000
    6      -24.871665   1.000000
    7      -24.869574   1.000000
    8      -24.869574   1.000000
    9      -24.866139   1.000000
   10      -24.866138   1.000000
   11      -21.167787   1.000000
   12      -21.167787   1.000000
   13       -8.338221   1.000000
   14       -8.338221   1.000000
   15        0.070554   1.000000
   16        0.070554   1.000000
   17        1.229519   1.000000
   18        1.229519   1.000000
   19        5.751527   0.000000
   20        5.751530   0.000000
   21        7.053101   0.000000
   22        7.053101   0.000000
   23        8.654431   0.000000
   24        8.654432   0.000000
   25       11.165974   0.000000
   26       11.165974   0.000000
   27       12.369994   0.000000
   28       12.370005   0.000000
 
 -0.4444444E+00  0.3333333E+00  0.6245005E-16  0.2743484E-02
    1      -31.564443   1.000000
    2      -31.564442   1.000000
    3      -31.563857   1.000000
    4      -31.563857   1.000000
    5      -24.871163   1.000000
    6      -24.871163   1.000000
    7      -24.869128   1.000000
    8      -24.869127   1.000000
    9      -24.866390   1.000000
   10      -24.866390   1.000000
   11      -21.161857   1.000000
   12      -21.161856   1.000000
   13       -8.358839   1.000000
   14       -8.358839   1.000000
   15        0.029864   1.000000
   16        0.029864   1.000000
   17        0.998210   1.000000
   18        0.998211   1.000000
   19        6.034412   0.000000
   20        6.034414   0.000000
   21        7.340134   0.000000
   22        7.340135   0.000000
   23        9.007061   0.000000
   24        9.007062   0.000000
   25       10.646051   0.000000
   26       10.646051   0.000000
   27       11.670331   0.000000
   28       11.670337   0.000000
 
 -0.3333333E+00  0.3333333E+00 -0.2389650E-16  0.2743484E-02
    1      -31.564453   1.000000
    2      -31.564453   1.000000
    3      -31.563907   1.000000
    4      -31.563906   1.000000
    5      -24.870931   1.000000
    6      -24.870931   1.000000
    7      -24.868485   1.000000
    8      -24.868484   1.000000
    9      -24.867509   1.000000
   10      -24.867509   1.000000
   11      -21.163835   1.000000
   12      -21.163834   1.000000
   13       -8.352665   1.000000
   14       -8.352664   1.000000
   15        0.036897   1.000000
   16        0.036897   1.000000
   17        0.989630   1.000000
   18        0.989631   1.000000
   19        6.416929   0.000000
   20        6.416931   0.000000
   21        7.386175   0.000000
   22        7.386176   0.000000
   23        9.627101   0.000000
   24        9.627101   0.000000
   25       10.058513   0.000000
   26       10.058514   0.000000
   27       10.843679   0.000000
   28       10.843694   0.000000
 
 -0.2222222E+00  0.3333333E+00  0.1387779E-16  0.2743484E-02
    1      -31.564653   1.000000
    2      -31.564653   1.000000
    3      -31.563968   1.000000
    4      -31.563967   1.000000