   1   1   0   0
  0.1860393E+02  0.2974221E-09  0.2974221E-09  0.2974221E-09  0.1000000E-15
  1.000000000000000E-004
  CAR 
 Og_FCC                                  
    222.34521970    -58.10053758  301    -16.73478838      1.00000000
    -58.101  0.0000E+00  0.0000E+00
    -57.166  0.0000E+00  0.0000E+00
    -56.231  0.0000E+00  0.0000E+00
    -55.296  0.0000E+00  0.0000E+00
    -54.361  0.0000E+00  0.0000E+00
    -53.426  0.0000E+00  0.0000E+00
    -52.492  0.0000E+00  0.0000E+00
    -51.557  0.0000E+00  0.0000E+00
    -50.622  0.0000E+00  0.0000E+00
    -49.687  0.0000E+00  0.0000E+00
    -48.752  0.0000E+00  0.0000E+00
    -47.818  0.0000E+00  0.0000E+00
    -46.883  0.0000E+00  0.0000E+00
    -45.948  0.0000E+00  0.0000E+00
    -45.013  0.0000E+00  0.2000E+01
    -44.078  0.0000E+00  0.2000E+01
    -43.143  0.0000E+00  0.2000E+01
    -42.209  0.0000E+00  0.2000E+01
    -41.274  0.0000E+00  0.2000E+01
    -40.339  0.0000E+00  0.2000E+01
    -39.404  0.0000E+00  0.2000E+01
    -38.469  0.0000E+00  0.2000E+01
    -37.535  0.0000E+00  0.2000E+01
    -36.600  0.0000E+00  0.2000E+01
    -35.665  0.0000E+00  0.2000E+01
    -34.730  0.0000E+00  0.2000E+01
    -33.795  0.0000E+00  0.2000E+01
    -32.860  0.0000E+00  0.2000E+01
    -31.926  0.0000E+00  0.2000E+01
    -30.991  0.0000E+00  0.2000E+01
    -30.056  0.0000E+00  0.2000E+01
    -29.121  0.0000E+00  0.2000E+01
    -28.186  0.0000E+00  0.2000E+01
    -27.252  0.0000E+00  0.2000E+01
    -26.317  0.0000E+00  0.2000E+01
    -25.382  0.0000E+00  0.2000E+01
    -24.447  0.0000E+00  0.2000E+01
    -23.512  0.0000E+00  0.2000E+01
    -22.577  0.0000E+00  0.2000E+01
    -21.643  0.0000E+00  0.2000E+01
    -20.708  0.0000E+00  0.2000E+01
    -19.773  0.0000E+00  0.2000E+01
    -18.838  0.0000E+00  0.2037E+01
    -17.903  0.0000E+00  0.5361E+01
    -16.968  0.0000E+00  0.8000E+01
    -16.034  0.0000E+00  0.8000E+01
    -15.099  0.0000E+00  0.8000E+01
    -14.164  0.0000E+00  0.8000E+01
    -13.229  0.0000E+00  0.8000E+01
    -12.294  0.0000E+00  0.8000E+01
    -11.360  0.0000E+00  0.8000E+01
    -10.425  0.0000E+00  0.8000E+01
     -9.490  0.0000E+00  0.8000E+01
     -8.555  0.0000E+00  0.8000E+01
     -7.620  0.0000E+00  0.8000E+01
     -6.685  0.0000E+00  0.8000E+01
     -5.751  0.0000E+00  0.8000E+01
     -4.816  0.0000E+00  0.8000E+01
     -3.881  0.0000E+00  0.8000E+01
     -2.946  0.0000E+00  0.8000E+01
     -2.011  0.0000E+00  0.8000E+01
     -1.077  0.0000E+00  0.8000E+01
     -0.142  0.0000E+00  0.8000E+01
      0.793  0.0000E+00  0.8000E+01
      1.728  0.0000E+00  0.8000E+01
      2.663  0.0000E+00  0.8000E+01
      3.598  0.0000E+00  0.8000E+01
      4.532  0.0000E+00  0.8009E+01
      5.467  0.0000E+00  0.8139E+01
      6.402  0.0000E+00  0.8139E+01
      7.337  0.0000E+00  0.8472E+01
      8.272  0.0000E+00  0.8546E+01
      9.206  0.0000E+00  0.8824E+01
     10.141  0.0000E+00  0.9046E+01
     11.076  0.0000E+00  0.9565E+01
     12.011  0.0000E+00  0.9926E+01
     12.946  0.0000E+00  0.1026E+02
     13.881  0.0000E+00  0.1062E+02
     14.815  0.0000E+00  0.1129E+02
     15.750  0.0000E+00  0.1169E+02
     16.685  0.0000E+00  0.1261E+02
     17.620  0.0000E+00  0.1272E+02
     18.555  0.5943E-01  0.1314E+02
     19.489  0.0000E+00  0.1369E+02
     20.424  0.0000E+00  0.1455E+02
     21.359  0.0000E+00  0.1499E+02
     22.294  0.0000E+00  0.1630E+02
     23.229  0.0000E+00  0.1742E+02
     24.164  0.0000E+00  0.1789E+02
     25.098  0.0000E+00  0.1871E+02
     26.033  0.0000E+00  0.1901E+02
     26.968  0.3442E-15  0.1981E+02
     27.903  0.1981E-01  0.2067E+02
     28.838  0.2176E-01  0.2158E+02
     29.772  0.0000E+00  0.2208E+02
     30.707  0.0000E+00  0.2290E+02
     31.642  0.0000E+00  0.2395E+02
     32.577  0.0000E+00  0.2527E+02
     33.512  0.0000E+00  0.2619E+02
     34.447  0.0000E+00  0.2722E+02
     35.381  0.0000E+00  0.2756E+02
     36.316  0.0000E+00  0.2862E+02
     37.251  0.0000E+00  0.2912E+02
     38.186  0.0000E+00  0.2971E+02
     39.121  0.0000E+00  0.2985E+02
     40.055  0.0000E+00  0.3019E+02
     40.990  0.0000E+00  0.3120E+02
     41.925  0.0000E+00  0.3267E+02
     42.860  0.0000E+00  0.3344E+02
     43.795  0.0000E+00  0.3441E+02
     44.730  0.0000E+00  0.3463E+02
     45.664  0.0000E+00  0.3563E+02
     46.599  0.0000E+00  0.3654E+02
     47.534  0.0000E+00  0.3734E+02
     48.469  0.0000E+00  0.3843E+02
     49.404  0.0000E+00  0.3920E+02
     50.338  0.0000E+00  0.4004E+02
     51.273  0.1189E+00  0.4108E+02
     52.208  0.0000E+00  0.4158E+02
     53.143  0.0000E+00  0.4325E+02
     54.078  0.0000E+00  0.4406E+02
     55.013  0.0000E+00  0.4440E+02
     55.947  0.0000E+00  0.4573E+02
     56.882  0.0000E+00  0.4592E+02
     57.817  0.4847E-03  0.4692E+02
     58.752  0.0000E+00  0.4802E+02
     59.687  0.0000E+00  0.4908E+02
     60.621  0.0000E+00  0.5008E+02
     61.556  0.0000E+00  0.5151E+02
     62.491  0.0000E+00  0.5284E+02
     63.426  0.0000E+00  0.5355E+02
     64.361  0.0000E+00  0.5476E+02
     65.296  0.2377E+00  0.5572E+02
     66.230  0.0000E+00  0.5707E+02
     67.165  0.0000E+00  0.5761E+02
     68.100  0.0000E+00  0.5891E+02
     69.035  0.0000E+00  0.5994E+02
     69.970  0.0000E+00  0.6068E+02
     70.905  0.0000E+00  0.6204E+02
     71.839  0.0000E+00  0.6286E+02
     72.774  0.0000E+00  0.6378E+02
     73.709  0.0000E+00  0.6489E+02
     74.644  0.0000E+00  0.6631E+02
     75.579  0.3008E-10  0.6725E+02
     76.513  0.0000E+00  0.6834E+02
     77.448  0.0000E+00  0.6875E+02
     78.383  0.1585E+00  0.7059E+02
     79.318  0.0000E+00  0.7124E+02
     80.253  0.0000E+00  0.7193E+02
     81.188  0.0000E+00  0.7263E+02
     82.122  0.0000E+00  0.7380E+02
     83.057  0.2377E+00  0.7556E+02
     83.992  0.0000E+00  0.7690E+02
     84.927  0.0000E+00  0.7832E+02
     85.862  0.0000E+00  0.7968E+02
     86.796  0.7924E-01  0.8100E+02
     87.731  0.0000E+00  0.8189E+02
     88.666  0.0000E+00  0.8295E+02
     89.601  0.0000E+00  0.8347E+02
     90.536  0.0000E+00  0.8417E+02
     91.471  0.0000E+00  0.8581E+02
     92.405  0.0000E+00  0.8709E+02
     93.340  0.0000E+00  0.8824E+02
     94.275  0.0000E+00  0.8972E+02
     95.210  0.0000E+00  0.9050E+02
     96.145  0.0000E+00  0.9181E+02
     97.079  0.0000E+00  0.9342E+02
     98.014  0.0000E+00  0.9481E+02
     98.949  0.0000E+00  0.9603E+02
     99.884  0.0000E+00  0.9769E+02
    100.819  0.0000E+00  0.9864E+02
    101.754  0.0000E+00  0.9986E+02
    102.688  0.0000E+00  0.1011E+03
    103.623  0.0000E+00  0.1025E+03
    104.558  0.0000E+00  0.1036E+03
    105.493  0.0000E+00  0.1043E+03
    106.428  0.2375E-01  0.1050E+03
    107.362  0.0000E+00  0.1063E+03
    108.297  0.0000E+00  0.1076E+03
    109.232  0.0000E+00  0.1091E+03
    110.167  0.2044E-03  0.1104E+03
    111.102  0.0000E+00  0.1125E+03
    112.037  0.0000E+00  0.1139E+03
    112.971  0.0000E+00  0.1154E+03
    113.906  0.0000E+00  0.1167E+03
    114.841  0.0000E+00  0.1181E+03
    115.776  0.0000E+00  0.1192E+03
    116.711  0.0000E+00  0.1201E+03
    117.645  0.0000E+00  0.1209E+03
    118.580  0.0000E+00  0.1218E+03
    119.515  0.0000E+00  0.1233E+03
    120.450  0.0000E+00  0.1249E+03
    121.385  0.3962E-01  0.1262E+03
    122.320  0.0000E+00  0.1279E+03
    123.254  0.0000E+00  0.1292E+03
    124.189  0.0000E+00  0.1304E+03
    125.124  0.2377E+00  0.1320E+03
    126.059  0.0000E+00  0.1333E+03
    126.994  0.0000E+00  0.1343E+03
    127.928  0.0000E+00  0.1364E+03
    128.863  0.0000E+00  0.1380E+03
    129.798  0.0000E+00  0.1392E+03
    130.733  0.0000E+00  0.1407E+03
    131.668  0.0000E+00  0.1417E+03
    132.603  0.0000E+00  0.1427E+03
    133.537  0.0000E+00  0.1446E+03
    134.472  0.0000E+00  0.1450E+03
    135.407  0.0000E+00  0.1470E+03
    136.342  0.0000E+00  0.1481E+03
    137.277  0.0000E+00  0.1493E+03
    138.211  0.0000E+00  0.1508E+03
    139.146  0.0000E+00  0.1524E+03
    140.081  0.0000E+00  0.1542E+03
    141.016  0.0000E+00  0.1558E+03
    141.951  0.0000E+00  0.1574E+03
    142.886  0.1188E+00  0.1586E+03
    143.820  0.0000E+00  0.1604E+03
    144.755  0.0000E+00  0.1614E+03
    145.690  0.0000E+00  0.1639E+03
    146.625  0.0000E+00  0.1655E+03
    147.560  0.0000E+00  0.1664E+03
    148.495  0.0000E+00  0.1679E+03
    149.429  0.0000E+00  0.1694E+03
    150.364  0.0000E+00  0.1708E+03
    151.299  0.0000E+00  0.1714E+03
    152.234  0.0000E+00  0.1728E+03
    153.169  0.0000E+00  0.1738E+03
    154.103  0.0000E+00  0.1754E+03
    155.038  0.0000E+00  0.1769E+03
    155.973  0.2377E+00  0.1796E+03
    156.908  0.0000E+00  0.1813E+03
    157.843  0.0000E+00  0.1823E+03
    158.778  0.1429E-06  0.1837E+03
    159.712  0.2377E+00  0.1862E+03
    160.647  0.0000E+00  0.1872E+03
    161.582  0.0000E+00  0.1887E+03
    162.517  0.0000E+00  0.1901E+03
    163.452  0.0000E+00  0.1913E+03
    164.386  0.0000E+00  0.1929E+03
    165.321  0.0000E+00  0.1943E+03
    166.256  0.0000E+00  0.1967E+03
    167.191  0.2971E-01  0.1983E+03
    168.126  0.0000E+00  0.1993E+03
    169.061  0.0000E+00  0.2012E+03
    169.995  0.0000E+00  0.2025E+03
    170.930  0.0000E+00  0.2043E+03
    171.865  0.0000E+00  0.2062E+03
    172.800  0.0000E+00  0.2069E+03
    173.735  0.0000E+00  0.2079E+03
    174.669  0.2250E+00  0.2097E+03
    175.604  0.0000E+00  0.2112E+03
    176.539  0.0000E+00  0.2131E+03
    177.474  0.1189E+00  0.2146E+03
    178.409  0.0000E+00  0.2174E+03
    179.344  0.0000E+00  0.2188E+03
    180.278  0.0000E+00  0.2201E+03
    181.213  0.0000E+00  0.2227E+03
    182.148  0.0000E+00  0.2236E+03
    183.083  0.0000E+00  0.2254E+03
    184.018  0.0000E+00  0.2264E+03
    184.952  0.0000E+00  0.2277E+03
    185.887  0.3647E-02  0.2293E+03
    186.822  0.0000E+00  0.2313E+03
    187.757  0.0000E+00  0.2330E+03
    188.692  0.0000E+00  0.2347E+03
    189.627  0.0000E+00  0.2358E+03
    190.561  0.0000E+00  0.2371E+03
    191.496  0.0000E+00  0.2383E+03
    192.431  0.0000E+00  0.2406E+03
    193.366  0.0000E+00  0.2427E+03
    194.301  0.0000E+00  0.2443E+03
    195.235  0.0000E+00  0.2457E+03
    196.170  0.0000E+00  0.2472E+03
    197.105  0.1798E+00  0.2500E+03
    198.040  0.0000E+00  0.2506E+03
    198.975  0.0000E+00  0.2516E+03
    199.910  0.0000E+00  0.2530E+03
    200.844  0.0000E+00  0.2545E+03
    201.779  0.0000E+00  0.2550E+03
    202.714  0.0000E+00  0.2550E+03
    203.649  0.0000E+00  0.2556E+03
    204.584  0.0000E+00  0.2559E+03
    205.518  0.0000E+00  0.2559E+03
    206.453  0.0000E+00  0.2559E+03
    207.388  0.0000E+00  0.2559E+03
    208.323  0.0000E+00  0.2559E+03
    209.258  0.0000E+00  0.2559E+03
    210.193  0.0000E+00  0.2560E+03
    211.127  0.0000E+00  0.2560E+03
    212.062  0.0000E+00  0.2560E+03
    212.997  0.0000E+00  0.2560E+03
    213.932  0.0000E+00  0.2560E+03
    214.867  0.0000E+00  0.2560E+03
    215.801  0.0000E+00  0.2560E+03
    216.736  0.0000E+00  0.2560E+03
    217.671  0.0000E+00  0.2560E+03
    218.606  0.0000E+00  0.2560E+03
    219.541  0.0000E+00  0.2560E+03
    220.476  0.0000E+00  0.2560E+03
    221.410  0.0000E+00  0.2560E+03
    222.345  0.0000E+00  0.2560E+03
