    1    1    1    1
  0.1860393E+02  0.2974221E-09  0.2974221E-09  0.2974221E-09  0.1000000E-15
  1.000000000000000E-004
  CAR 
 Og_FCC                                  
      8    112    128
 
  0.0000000E+00  0.0000000E+00  0.0000000E+00  0.4629630E-02
    1      -45.353003   1.000000
    2      -17.668464   1.000000
    3      -17.667705   1.000000
    4      -17.664984   1.000000
    5        3.991671   0.000000
    6       24.186558   0.000000
    7       24.187045   0.000000
    8       24.187337   0.000000
    9       23.107924   0.000000
   10       26.201773   0.000000
   11       26.201775   0.000000
   12       26.201782   0.000000
   13       27.897114   0.000000
   14       27.897116   0.000000
   15       29.120617   0.000000
   16       36.114830   0.000000
   17       36.114836   0.000000
   18       36.114855   0.000000
   19       50.967644   0.000000
   20       58.980887   0.000000
   21       58.980890   0.000000
   22       58.980901   0.000000
   23       61.219777   0.000000
   24       61.219781   0.000000
   25       62.423942   0.000000
   26       62.423954   0.000000
   27       62.423961   0.000000
   28       70.708127   0.000000
   29       70.708135   0.000000
   30       70.708163   0.000000
   31       78.955409   0.000000
   32       79.939708   0.000000
   33       79.939714   0.000000
   34       83.224983   0.000000
   35       83.224987   0.000000
   36       83.225017   0.000000
   37       86.764681   0.000000
   38       86.764685   0.000000
   39       86.764703   0.000000
   40       87.970331   0.000000
   41       88.325160   0.000000
   42       88.325196   0.000000
   43       88.325204   0.000000
   44       88.341410   0.000000
   45       88.341418   0.000000
   46       88.341421   0.000000
   47       90.238087   0.000000
   48       90.238089   0.000000
   49       90.238134   0.000000
   50       90.578527   0.000000
   51       90.578529   0.000000
   52       96.046090   0.000000
   53       96.046104   0.000000
   54       96.046121   0.000000
   55       96.830342   0.000000
   56       96.830346   0.000000
   57       96.830373   0.000000
   58       97.101529   0.000000
   59       97.299312   0.000000
   60      110.091920   0.000000
   61      110.091925   0.000000
   62      110.091943   0.000000
   63      126.260291   0.000000
   64      126.260295   0.000000
   65      129.191942   0.000000
   66      132.984053   0.000000
   67      132.984066   0.000000
   68      132.984084   0.000000
   69      141.353244   0.000000
   70      141.353249   0.000000
   71      141.353260   0.000000
   72      147.449342   0.000000
   73      147.641372   0.000000
   74      147.641374   0.000000
   75      150.644911   0.000000
   76      150.644917   0.000000
   77      150.644925   0.000000
   78      155.018915   0.000000
   79      156.505276   0.000000
   80      156.505284   0.000000
   81      156.505346   0.000000
   82      157.130764   0.000000
   83      157.130785   0.000000
   84      157.130806   0.000000
   85      157.424029   0.000000
   86      157.424033   0.000000
   87      157.424038   0.000000
   88      157.561165   0.000000
   89      157.561169   0.000000
   90      160.699729   0.000000
   91      160.699732   0.000000
   92      161.133476   0.000000
   93      161.133484   0.000000
   94      161.133501   0.000000
   95      164.098478   0.000000
   96      164.098497   0.000000
   97      164.098506   0.000000
   98      164.325036   0.000000
   99      164.469892   0.000000
  100      164.469902   0.000000
  101      164.469950   0.000000
  102      164.497207   0.000000
  103      164.497225   0.000000
  104      164.497227   0.000000
  105      164.506311   0.000000
  106      164.506324   0.000000
  107      164.506359   0.000000
  108      165.297512   0.000000
  109      165.565921   0.000000
  110      165.565985   0.000000
  111      165.566000   0.000000
  112      165.758662   0.000000
  113      165.758666   0.000000
  114      182.020614   0.000000
  115      182.020623   0.000000
  116      182.020740   0.000000
  117      191.484274   0.000000
  118      191.484281   0.000000
  119      191.484299   0.000000
  120      194.789023   0.000000
  121      194.789030   0.000000
  122      195.337777   0.000000
  123      196.660242   0.000000
  124      197.674410   0.000000
  125      197.674421   0.000000
  126      197.674440   0.000000
  127      197.875990   0.000000
  128      197.876011   0.000000
 
  0.1666667E+00  0.0000000E+00  0.6938894E-17  0.9259259E-02
    1      -45.301588   1.000000
    2      -17.894909   1.000000
    3      -17.410854   1.000000
    4      -17.407610   1.000000
    5        4.977655   0.000000
    6       19.624113   0.000000
    7       24.014906   0.000000
    8       24.015500   0.000000
    9       23.332780   0.000000
   10       24.889967   0.000000
   11       24.889983   0.000000
   12       28.045634   0.000000
   13       30.047319   0.000000
   14       30.047323   0.000000
   15       32.724442   0.000000
   16       36.193992   0.000000
   17       37.996936   0.000000
   18       37.996952   0.000000
   19       52.224861   0.000000
   20       52.224870   0.000000
   21       52.281893   0.000000
   22       57.953645   0.000000
   23       60.739869   0.000000
   24       60.739886   0.000000
   25       63.100909   0.000000
   26       68.152968   0.000000
   27       68.496684   0.000000
   28       68.496700   0.000000
   29       71.634494   0.000000
   30       71.634500   0.000000
   31       75.793804   0.000000
   32       75.793825   0.000000
   33       76.558287   0.000000
   34       78.989295   0.000000
   35       78.989302   0.000000
   36       80.616810   0.000000
   37       80.992065   0.000000
   38       82.459027   0.000000
   39       82.459046   0.000000
   40       83.737146   0.000000
   41       85.313257   0.000000
   42       85.313279   0.000000
   43       85.897341   0.000000
   44       89.304533   0.000000
   45       91.517477   0.000000
   46       91.517489   0.000000
   47       93.637389   0.000000
   48       93.637409   0.000000
   49       94.111567   0.000000
   50       96.516341   0.000000
   51       96.516349   0.000000
   52       97.512899   0.000000
   53       98.730738   0.000000
   54      102.770343   0.000000
   55      102.770357   0.000000
   56      103.271622   0.000000
   57      103.271635   0.000000
   58      103.408459   0.000000
   59      107.550126   0.000000
   60      108.439211   0.000000
   61      108.439229   0.000000
   62      114.416924   0.000000
   63      121.168690   0.000000
   64      121.700138   0.000000
   65      121.700143   0.000000
   66      132.834168   0.000000
   67      132.834180   0.000000
   68      136.903161   0.000000
   69      139.955595   0.000000
   70      139.955613   0.000000
   71      140.369333   0.000000
   72      140.458007   0.000000
   73      140.458021   0.000000
   74      145.307588   0.000000
   75      145.700221   0.000000
   76      145.700226   0.000000
   77      146.715711   0.000000
   78      147.544548   0.000000
   79      147.544566   0.000000
   80      148.127167   0.000000
   81      149.238827   0.000000
   82      149.238839   0.000000
   83      150.602858   0.000000
   84      152.157977   0.000000
   85      155.532895   0.000000
   86      155.532930   0.000000
   87      156.492322   0.000000
   88      158.418948   0.000000
   89      158.418964   0.000000
   90      158.437399   0.000000
   91      159.202011   0.000000
   92      159.202031   0.000000
   93      161.098633   0.000000
   94      161.220518   0.000000
   95      161.220535   0.000000
   96      161.272157   0.000000
   97      163.525363   0.000000
   98      163.525386   0.000000
   99      168.216282   0.000000
  100      168.216290   0.000000
  101      168.471487   0.000000
  102      170.862412   0.000000
  103      171.052839   0.000000
  104      171.279113   0.000000
  105      171.279130   0.000000
  106      172.790488   0.000000
  107      174.718695   0.000000
  108      174.718735   0.000000
  109      175.727101   0.000000
  110      175.727113   0.000000
  111      179.041221   0.000000
  112      179.041248   0.000000
  113      180.802233   0.000000
  114      180.802255   0.000000
  115      181.311957   0.000000
  116      182.563697   0.000000
  117      182.855300   0.000000
  118      182.855309   0.000000
  119      184.750517   0.000000
  120      186.190763   0.000000
  121      186.190779   0.000000
  122      187.407246   0.000000
  123      191.926293   0.000000
  124      191.926333   0.000000
  125      194.265244   0.000000
  126      196.497599   0.000000
  127      196.497606   0.000000
  128      197.380930   0.000000
 
  0.3333333E+00 -0.2775558E-16  0.0000000E+00  0.9259259E-02
    1      -45.246232   1.000000
    2      -18.565168   1.000000
    3      -17.761318   1.000000
    4      -17.757876   1.000000
    5        7.466205   0.000000
    6       14.859312   0.000000
    7       23.024335   0.000000
    8       23.024933   0.000000
    9       21.937804   0.000000
   10       24.971613   0.000000
   11       24.971640   0.000000
   12       29.105428   0.000000
   13       31.962247   0.000000
   14       31.962254   0.000000
   15       36.123327   0.000000
   16       41.674921   0.000000
   17       41.674929   0.000000
   18       43.592248   0.000000
   19       46.582996   0.000000
   20       46.583006   0.000000
   21       50.945424   0.000000
   22       56.472397   0.000000
   23       61.181345   0.000000
   24       61.181350   0.000000
   25       62.846119   0.000000
   26       62.846146   0.000000
   27       65.030675   0.000000
   28       65.432662   0.000000
   29       67.192710   0.000000
   30       70.181177   0.000000
   31       70.181208   0.000000
   32       73.382726   0.000000
   33       73.382739   0.000000
   34       73.653277   0.000000
   35       74.449016   0.000000
   36       78.378452   0.000000
   37       78.378474   0.000000
   38       84.418419   0.000000
   39       84.457816   0.000000
   40       84.457836   0.000000
   41       86.263193   0.000000
   42       86.263203   0.000000
   43       86.792383   0.000000
   44       91.125205   0.000000
   45       92.791224   0.000000
   46       92.791227   0.000000
   47       97.217940   0.000000
   48       98.821015   0.000000
   49       98.821028   0.000000
   50      104.407369   0.000000
   51      104.407389   0.000000
   52      104.991836   0.000000
   53      106.569812   0.000000
   54      106.569818   0.000000
   55      108.108754   0.000000
   56      110.780287   0.000000
   57      111.457041   0.000000
   58      111.917030   0.000000
   59      111.917051   0.000000
   60      113.362541   0.000000
   61      113.362547   0.000000
   62      114.360955   0.000000
   63      118.749776   0.000000
   64      118.749788   0.000000
   65      121.593930   0.000000
   66      121.593942   0.000000
   67      125.501416   0.000000
   68      130.017206   0.000000
   69      130.017213   0.000000
   70      132.234772   0.000000
   71      132.660986   0.000000
   72      132.660998   0.000000
   73      133.311758   0.000000
   74      133.545532   0.000000
   75      134.771558   0.000000
   76      134.771574   0.000000
   77      142.226809   0.000000
   78      144.097042   0.000000
   79      144.097066   0.000000
   80      145.085511   0.000000
   81      149.494836   0.000000
   82      152.853680   0.000000
   83      152.853693   0.000000
   84      153.018008   0.000000
   85      154.906789   0.000000
   86      154.906811   0.000000
   87      155.430951   0.000000
   88      155.670450   0.000000
   89      155.670485   0.000000
   90      156.802763   0.000000
   91      156.850843   0.000000
   92      156.850860   0.000000
   93      160.841854   0.000000
   94      160.841867   0.000000
   95      161.134759   0.000000
   96      164.188068   0.000000
   97      164.188085   0.000000
   98      164.435212   0.000000
   99      165.990353   0.000000
  100      168.909468   0.000000
  101      168.909490   0.000000
  102      174.811894   0.000000
  103      174.970992   0.000000
  104      174.971047   0.000000
  105      176.502554   0.000000
  106      176.502577   0.000000
  107      177.044036   0.000000
  108      178.198233   0.000000
  109      178.399206   0.000000
  110      178.399217   0.000000
  111      178.703436   0.000000
  112      178.762122   0.000000
  113      181.523767   0.000000
  114      181.523783   0.000000
  115      183.073311   0.000000
  116      183.073314   0.000000
  117      184.832075   0.000000
  118      190.582926   0.000000
  119      191.811665   0.000000
  120      191.811702   0.000000
  121      195.291827   0.000000
  122      195.291841   0.000000
  123      196.736175   0.000000
  124      196.736190   0.000000
  125      196.749284   0.000000
  126      198.375008   0.000000
  127      198.656142   0.000000
  128      198.680962   0.000000
 
  0.5000000E+00  0.0000000E+00 -0.2775558E-16  0.4629630E-02
    1      -45.218261   1.000000
    2      -19.023842   1.000000
    3      -17.842032   1.000000
    4      -17.838465   1.000000
    5       10.764244   0.000000
    6       10.839044   0.000000
    7       22.483471   0.000000
    8       22.483921   0.000000
    9       21.646008   0.000000
   10       25.311441   0.000000
   11       25.311469   0.000000
   12       28.009140   0.000000
   13       33.469789   0.000000
   14       33.469797   0.000000
   15       40.236724   0.000000
   16       40.236727   0.000000
   17       41.022784   0.000000
   18       45.720191   0.000000
   19       50.421819   0.000000
   20       50.421836   0.000000
   21       53.497126   0.000000
   22       54.343509   0.000000
   23       54.343510   0.000000
   24       54.601396   0.000000
   25       58.892090   0.000000
   26       63.085388   0.000000
   27       63.639898   0.000000
   28       63.639934   0.000000
   29       67.030003   0.000000
   30       69.411436   0.000000
   31       69.411470   0.000000
   32       70.784005   0.000000
   33       70.784027   0.000000
   34       71.038092   0.000000
   35       74.199208   0.000000
   36       78.550031   0.000000
   37       78.550058   0.000000
   38       83.977913   0.000000
   39       83.977934   0.000000
   40       84.719041   0.000000
   41       85.224113   0.000000
   42       91.700007   0.000000
   43       91.700016   0.000000
   44       93.750114   0.000000
   45       96.811428   0.000000
   46       96.811439   0.000000
   47      101.477987   0.000000
   48      101.477988   0.000000
   49      101.638737   0.000000
   50      102.147194   0.000000
   51      102.147203   0.000000
   52      102.419521   0.000000
   53      108.805727   0.000000
   54      108.805757   0.000000
   55      110.588331   0.000000
   56      112.957293   0.000000
   57      112.957310   0.000000
   58      115.220492   0.000000
   59      117.837902   0.000000
   60      117.837926   0.000000
   61      118.665251   0.000000
   62      118.665265   0.000000
   63      119.922214   0.000000
   64      120.328790   0.000000
   65      121.378819   0.000000
   66      121.631662   0.000000
   67      122.380689   0.000000
   68      122.380712   0.000000
   69      122.402963   0.000000
   70      122.402973   0.000000
   71      127.751559   0.000000
   72      128.515328   0.000000
   73      128.515337   0.000000
   74      131.338714   0.000000
   75      136.193044   0.000000
   76      136.193056   0.000000
   77      137.054031   0.000000
   78      137.054052   0.000000
   79      143.936043   0.000000
   80      143.936061   0.000000
   81      144.436153   0.000000
   82      149.005073   0.000000
   83      149.221947   0.000000
   84      153.335619   0.000000
   85      154.247274   0.000000
   86      154.913904   0.000000
   87      154.913944   0.000000
   88      155.730563   0.000000
   89      155.730577   0.000000
   90      155.863594   0.000000
   91      157.332683   0.000000
   92      160.918079   0.000000
   93      160.918105   0.000000
   94      163.994067   0.000000
   95      163.994089   0.000000
   96      167.146176   0.000000
   97      167.146187   0.000000
   98      168.801182   0.000000
   99      169.013867   0.000000
  100      169.013869   0.000000
  101      169.633825   0.000000
  102      169.892283   0.000000
  103      170.409550   0.000000
  104      170.628547   0.000000
  105      171.015580   0.000000
  106      171.015600   0.000000
  107      171.175637   0.000000
  108      171.175657   0.000000
  109      179.525046   0.000000
  110      181.003821   0.000000
  111      181.003877   0.000000
  112      184.153261   0.000000
  113      184.153289   0.000000
  114      186.396337   0.000000
  115      187.088578   0.000000
  116      187.088591   0.000000
  117      187.558799   0.000000
  118      187.859150   0.000000
  119      187.859175   0.000000
  120      188.070192   0.000000
  121      188.930556   0.000000
  122      194.501691   0.000000
  123      194.501741   0.000000
  124      196.912496   0.000000
  125      196.912505   0.000000
  126      197.481805   0.000000
  127      200.723922   0.000000
  128      200.723930   0.000000
 
  0.0000000E+00  0.1666667E+00  0.6938894E-17  0.9259259E-02
    1      -45.301593   1.000000
    2      -17.894957   1.000000
    3      -17.410692   1.000000
    4      -17.407813   1.000000
    5        4.977725   0.000000
    6       19.624118   0.000000
    7       24.014816   0.000000
    8       24.015589   0.000000
    9       23.332780   0.000000
   10       24.889967   0.000000
   11       24.889984   0.000000
   12       28.045636   0.000000
   13       30.047318   0.000000
   14       30.047322   0.000000
   15       32.724441   0.000000
   16       36.193991   0.000000
   17       37.996935   0.000000
   18       37.996952   0.000000
   19       52.224861   0.000000
   20       52.224871   0.000000
   21       52.281892   0.000000
   22       57.953646   0.000000
   23       60.739870   0.000000
   24       60.739882   0.000000
   25       63.100911   0.000000
   26       68.152971   0.000000
   27       68.496679   0.000000
   28       68.496700   0.000000
   29       71.634495   0.000000
   30       71.634501   0.000000
   31       75.793804   0.000000
   32       75.793827   0.000000
   33       76.558291   0.000000
   34       78.989291   0.000000
   35       78.989303   0.000000
   36       80.616812   0.000000
   37       80.992063   0.000000
   38       82.459027   0.000000
   39       82.459043   0.000000
   40       83.737147   0.000000
   41       85.313258   0.000000
   42       85.313279   0.000000
   43       85.897342   0.000000
   44       89.304532   0.000000
   45       91.517476   0.000000
   46       91.517488   0.000000
   47       93.637384   0.000000
   48       93.637409   0.000000
   49       94.111574   0.000000
   50       96.516342   0.000000
   51       96.516350   0.000000
   52       97.512901   0.000000
   53       98.730738   0.000000
   54      102.770336   0.000000
   55      102.770357   0.000000
   56      103.271623   0.000000
   57      103.271635   0.000000
   58      103.408464   0.000000
   59      107.550125   0.000000
   60      108.439209   0.000000
   61      108.439230   0.000000
   62      114.416924   0.000000
   63      121.168691   0.000000
   64      121.700138   0.000000
   65      121.700143   0.000000
   66      132.834169   0.000000
   67      132.834181   0.000000
   68      136.903164   0.000000
   69      139.955592   0.000000
   70      139.955613   0.000000
   71      140.369333   0.000000
   72      140.458008   0.000000
   73      140.458020   0.000000
   74      145.307586   0.000000
   75      145.700218   0.000000
   76      145.700225   0.000000
   77      146.715713   0.000000
   78      147.544548   0.000000
   79      147.544563   0.000000
   80      148.127169   0.000000
   81      149.238822   0.000000
   82      149.238838   0.000000
   83      150.602859   0.000000
   84      152.157982   0.000000
   85      155.532895   0.000000
   86      155.532931   0.000000
   87      156.492321   0.000000
   88      158.418949   0.000000
   89      158.418962   0.000000
   90      158.437400   0.000000
   91      159.202008   0.000000
   92      159.202030   0.000000
   93      161.098638   0.000000
   94      161.220516   0.000000
   95      161.220536   0.000000
   96      161.272159   0.000000
   97      163.525362   0.000000
   98      163.525387   0.000000
   99      168.216278   0.000000
  100      168.216292   0.000000
  101      168.471488   0.000000
  102      170.862414   0.000000
  103      171.052840   0.000000
  104      171.279108   0.000000
  105      171.279131   0.000000
  106      172.790487   0.000000
  107      174.718693   0.000000
  108      174.718737   0.000000
  109      175.727102   0.000000
  110      175.727113   0.000000
  111      179.041220   0.000000
  112      179.041250   0.000000
  113      180.802232   0.000000
  114      180.802252   0.000000
  115      181.311965   0.000000
  116      182.563698   0.000000
  117      182.855295   0.000000
  118      182.855309   0.000000
  119      184.750514   0.000000
  120      186.190765   0.000000
  121      186.190777   0.000000
  122      187.407247   0.000000
  123      191.926293   0.000000
  124      191.926334   0.000000
  125      194.265244   0.000000
  126      196.497595   0.000000
  127      196.497609   0.000000
  128      197.380929   0.000000
 
  0.1666667E+00  0.1666667E+00  0.0000000E+00  0.9259259E-02
    1      -45.297720   1.000000
    2      -17.875955   1.000000
    3      -17.627402   1.000000
    4      -17.625598   1.000000
    5        5.283552   0.000000
    6       20.159898   0.000000
    7       23.078506   0.000000
    8       23.080095   0.000000
    9       19.877126   0.000000
   10       27.707625   0.000000
   11       28.694394   0.000000
   12       28.816880   0.000000
   13       29.452588   0.000000
   14       29.452596   0.000000
   15       32.306644   0.000000
   16       36.139800   0.000000
   17       36.139820   0.000000
   18       40.520596   0.000000
   19       51.678019   0.000000
   20       52.607330   0.000000
   21       53.356874   0.000000
   22       53.356886   0.000000
   23       59.734661   0.000000
   24       60.361999   0.000000
   25       66.417921   0.000000
   26       67.337868   0.000000
   27       67.337876   0.000000
   28       70.389277   0.000000
   29       70.389300   0.000000
   30       73.300604   0.000000
   31       73.513122   0.000000
   32       75.043174   0.000000
   33       75.043184   0.000000
   34       76.062822   0.000000
   35       78.558156   0.000000
   36       80.455749   0.000000
   37       83.519964   0.000000
   38       83.519987   0.000000
   39       83.950503   0.000000
   40       84.626107   0.000000
   41       86.897507   0.000000
   42       86.897522   0.000000
   43       87.857777   0.000000
   44       87.871956   0.000000
   45       87.871993   0.000000
   46       88.232748   0.000000
   47       92.189430   0.000000
   48       93.646434   0.000000
   49       94.031981   0.000000
   50       95.546948   0.000000
   51       95.546981   0.000000
   52       96.184859   0.000000
   53      102.677853   0.000000
   54      102.677868   0.000000
   55      103.117842   0.000000
   56      106.280865   0.000000
   57      107.835558   0.000000
   58      107.835566   0.000000
   59      109.186746   0.000000
   60      110.200096   0.000000
   61      110.916004   0.000000
   62      110.916018   0.000000
   63      116.129868   0.000000
   64      126.429398   0.000000
   65      128.974277   0.000000
   66      130.310286   0.000000
   67      130.310314   0.000000
   68      134.629156   0.000000
   69      137.006580   0.000000
   70      138.254594   0.000000
   71      138.254605   0.000000
   72      141.093463   0.000000
   73      141.158300   0.000000
   74      141.158333   0.000000
   75      141.427228   0.000000
   76      143.395630   0.000000
   77      143.793613   0.000000
   78      143.793635   0.000000
   79      144.110848   0.000000
   80      144.360693   0.000000
   81      147.664881   0.000000
   82      152.184797   0.000000
   83      152.498194   0.000000
   84      152.498217   0.000000
   85      153.763890   0.000000
   86      153.833374   0.000000
   87      153.833412   0.000000
   88      155.390045   0.000000
   89      158.090026   0.000000
   90      161.142603   0.000000
   91      161.922782   0.000000
   92      163.084020   0.000000
   93      163.084043   0.000000
   94      165.051567   0.000000
   95      165.386832   0.000000
   96      165.386849   0.000000
   97      166.108337   0.000000
   98      166.108368   0.000000
   99      166.393134   0.000000
  100      166.420356   0.000000
  101      168.173586   0.000000
  102      171.679204   0.000000
  103      171.831001   0.000000
  104      171.831046   0.000000
  105      173.805545   0.000000
  106      174.928744   0.000000
  107      174.928778   0.000000
  108      175.230712   0.000000
  109      175.453482   0.000000
  110      177.175118   0.000000
  111      177.320331   0.000000
  112      177.320356   0.000000
  113      177.536747   0.000000
  114      181.271018   0.000000
  115      181.271074   0.000000
  116      182.297083   0.000000
  117      184.516559   0.000000
  118      186.145843   0.000000
  119      186.361455   0.000000
  120      187.275294   0.000000
  121      187.444448   0.000000
  122      187.444467   0.000000
  123      187.722837   0.000000
  124      187.722869   0.000000
  125      188.012050   0.000000
  126      188.988206   0.000000
  127      196.215297   0.000000
  128      196.215311   0.000000
 
  0.3333333E+00  0.1666667E+00  0.2775558E-16  0.9259259E-02
    1      -45.245017   1.000000
    2      -18.395846   1.000000
    3      -17.810920   1.000000
    4      -17.791560   1.000000
    5        7.202438   0.000000
    6       16.644297   0.000000
    7       19.731901   0.000000
    8       22.483031   0.000000
    9       20.938913   0.000000
   10       27.070483   0.000000
   11       28.046769   0.000000
   12       28.989673   0.000000
   13       31.825588   0.000000
   14       33.279345   0.000000
   15       36.150827   0.000000
   16       37.982154   0.000000
   17       39.474718   0.000000
   18       45.417606   0.000000
   19       45.709263   0.000000
   20       48.202076   0.000000
   21       52.644085   0.000000
   22       54.044883   0.000000
   23       58.351535   0.000000
   24       60.207258   0.000000
   25       61.688432   0.000000
   26       64.492130   0.000000
   27       65.291951   0.000000
   28       67.477897   0.000000
   29       67.571738   0.000000
   30       70.481421   0.000000
   31       72.080633   0.000000
   32       72.639913   0.000000
   33       74.541638   0.000000
   34       74.971223   0.000000
   35       78.034371   0.000000
   36       78.236655   0.000000
   37       79.543955   0.000000
   38       82.826616   0.000000
   39       83.099295   0.000000
   40       85.102750   0.000000
   41       86.253054   0.000000
   42       87.305865   0.000000
   43       88.753394   0.000000
   44       90.601207   0.000000
   45       91.342670   0.000000
   46       92.981452   0.000000
   47       93.109020   0.000000
   48       95.811124   0.000000
   49       98.279208   0.000000
   50       99.057444   0.000000
   51       99.102438   0.000000
   52      104.364646   0.000000
   53      105.565557   0.000000
   54      106.566931   0.000000
   55      108.487565   0.000000
   56      110.494009   0.000000
   57      111.007764   0.000000
   58      112.425868   0.000000
   59      113.474045   0.000000
   60      116.919207   0.000000
   61      118.050874   0.000000
   62      119.851865   0.000000
   63      120.206421   0.000000
   64      121.496016   0.000000
   65      122.176300   0.000000
   66      125.285145   0.000000
   67      126.941427   0.000000
   68      127.419060   0.000000
   69      127.768521   0.000000
   70      128.320339   0.000000
   71      129.166691   0.000000
   72      134.925405   0.000000
   73      135.970452   0.000000
   74      137.716207   0.000000
   75      138.251526   0.000000
   76      139.439782   0.000000
   77      140.761217   0.000000
   78      141.988661   0.000000
   79      142.711322   0.000000
   80      143.344457   0.000000
   81      144.988792   0.000000
   82      145.013215   0.000000
   83      145.817017   0.000000
   84      148.740310   0.000000
   85      152.200329   0.000000
   86      152.576567   0.000000
   87      154.053713   0.000000
   88      156.268465   0.000000
   89      158.947099   0.000000
   90      159.045591   0.000000
   91      161.387923   0.000000
   92      162.297360   0.000000
   93      163.090548   0.000000
   94      163.542973   0.000000
   95      164.175082   0.000000
   96      165.027984   0.000000
   97      165.647693   0.000000
   98      166.183170   0.000000
   99      166.905916   0.000000
  100      170.221799   0.000000
  101      171.258729   0.000000
  102      172.531425   0.000000
  103      172.929832   0.000000
  104      174.010238   0.000000
  105      174.270140   0.000000
  106      175.016414   0.000000
  107      175.858146   0.000000
  108      176.802941   0.000000
  109      177.202291   0.000000
  110      177.506812   0.000000
  111      180.573389   0.000000
  112      181.170798   0.000000
  113      182.315713   0.000000
  114      183.163797   0.000000
  115      183.639710   0.000000
  116      184.283288   0.000000
  117      186.012348   0.000000
  118      186.401122   0.000000
  119      186.994066   0.000000
  120      189.715283   0.000000
  121      190.970301   0.000000