   1   1   0   0
  0.5764366E+02  0.4335996E-09  0.4335996E-09  0.4335996E-09  0.1000000E-15
  1.000000000000000E-004
  CAR 
 Og_FCC                                  
     98.19676848    -24.51539521  301     -6.31309093      1.00000000
    -24.515  0.0000E+00  0.0000E+00
    -24.106  0.0000E+00  0.0000E+00
    -23.697  0.0000E+00  0.0000E+00
    -23.288  0.0000E+00  0.0000E+00
    -22.879  0.0000E+00  0.0000E+00
    -22.470  0.0000E+00  0.0000E+00
    -22.061  0.0000E+00  0.0000E+00
    -21.652  0.0000E+00  0.0000E+00
    -21.243  0.0000E+00  0.0000E+00
    -20.834  0.0000E+00  0.0000E+00
    -20.425  0.0000E+00  0.0000E+00
    -20.016  0.0000E+00  0.0000E+00
    -19.607  0.0000E+00  0.0000E+00
    -19.198  0.0000E+00  0.0000E+00
    -18.789  0.0000E+00  0.1574E+00
    -18.380  0.0000E+00  0.2000E+01
    -17.971  0.0000E+00  0.2000E+01
    -17.562  0.0000E+00  0.2000E+01
    -17.153  0.0000E+00  0.2000E+01
    -16.744  0.0000E+00  0.2000E+01
    -16.335  0.0000E+00  0.2000E+01
    -15.926  0.0000E+00  0.2000E+01
    -15.517  0.0000E+00  0.2000E+01
    -15.107  0.0000E+00  0.2000E+01
    -14.698  0.0000E+00  0.2000E+01
    -14.289  0.0000E+00  0.2000E+01
    -13.880  0.0000E+00  0.2000E+01
    -13.471  0.0000E+00  0.2000E+01
    -13.062  0.0000E+00  0.2000E+01
    -12.653  0.0000E+00  0.2000E+01
    -12.244  0.0000E+00  0.2000E+01
    -11.835  0.0000E+00  0.2000E+01
    -11.426  0.0000E+00  0.2000E+01
    -11.017  0.0000E+00  0.2000E+01
    -10.608  0.0000E+00  0.2000E+01
    -10.199  0.0000E+00  0.2000E+01
     -9.790  0.0000E+00  0.2000E+01
     -9.381  0.0000E+00  0.2000E+01
     -8.972  0.0000E+00  0.2000E+01
     -8.563  0.0000E+00  0.2000E+01
     -8.154  0.0000E+00  0.2431E+01
     -7.745  0.0000E+00  0.3808E+01
     -7.336  0.8553E+00  0.4682E+01
     -6.927  0.0000E+00  0.5872E+01
     -6.518  0.1711E+00  0.7819E+01
     -6.109  0.0000E+00  0.8000E+01
     -5.700  0.0000E+00  0.8000E+01
     -5.290  0.0000E+00  0.8000E+01
     -4.881  0.0000E+00  0.8000E+01
     -4.472  0.0000E+00  0.8000E+01
     -4.063  0.0000E+00  0.8000E+01
     -3.654  0.0000E+00  0.8000E+01
     -3.245  0.0000E+00  0.8000E+01
     -2.836  0.0000E+00  0.8000E+01
     -2.427  0.0000E+00  0.8000E+01
     -2.018  0.0000E+00  0.8000E+01
     -1.609  0.0000E+00  0.8000E+01
     -1.200  0.0000E+00  0.8000E+01
     -0.791  0.0000E+00  0.8000E+01
     -0.382  0.0000E+00  0.8000E+01
      0.027  0.0000E+00  0.8000E+01
      0.436  0.0000E+00  0.8000E+01
      0.845  0.0000E+00  0.8000E+01
      1.254  0.0000E+00  0.8000E+01
      1.663  0.0000E+00  0.8000E+01
      2.072  0.0000E+00  0.8000E+01
      2.481  0.0000E+00  0.8000E+01
      2.890  0.0000E+00  0.8000E+01
      3.299  0.0000E+00  0.8000E+01
      3.708  0.0000E+00  0.8006E+01
      4.117  0.0000E+00  0.8006E+01
      4.526  0.0000E+00  0.8087E+01
      4.936  0.0000E+00  0.8122E+01
      5.345  0.8553E-01  0.8531E+01
      5.754  0.3454E-03  0.9230E+01
      6.163  0.0000E+00  0.9755E+01
      6.572  0.0000E+00  0.1042E+02
      6.981  0.0000E+00  0.1098E+02
      7.390  0.0000E+00  0.1161E+02
      7.799  0.0000E+00  0.1204E+02
      8.208  0.0000E+00  0.1310E+02
      8.617  0.6596E-09  0.1378E+02
      9.026  0.0000E+00  0.1508E+02
      9.435  0.0000E+00  0.1574E+02
      9.844  0.2566E+00  0.1709E+02
     10.253  0.0000E+00  0.1749E+02
     10.662  0.0000E+00  0.1858E+02
     11.071  0.0000E+00  0.1941E+02
     11.480  0.0000E+00  0.2061E+02
     11.889  0.0000E+00  0.2089E+02
     12.298  0.0000E+00  0.2122E+02
     12.707  0.0000E+00  0.2182E+02
     13.116  0.3420E+00  0.2324E+02
     13.525  0.0000E+00  0.2424E+02
     13.934  0.0000E+00  0.2518E+02
     14.343  0.0000E+00  0.2574E+02
     14.752  0.0000E+00  0.2641E+02
     15.162  0.0000E+00  0.2696E+02
     15.571  0.0000E+00  0.2794E+02
     15.980  0.2281E+00  0.2867E+02
     16.389  0.1139E+00  0.3033E+02
     16.798  0.0000E+00  0.3153E+02
     17.207  0.1553E-01  0.3234E+02
     17.616  0.0000E+00  0.3410E+02
     18.025  0.0000E+00  0.3501E+02
     18.434  0.0000E+00  0.3539E+02
     18.843  0.0000E+00  0.3634E+02
     19.252  0.3048E+00  0.3695E+02
     19.661  0.0000E+00  0.3846E+02
     20.070  0.0000E+00  0.3931E+02
     20.479  0.0000E+00  0.4037E+02
     20.888  0.7255E-02  0.4153E+02
     21.297  0.0000E+00  0.4288E+02
     21.706  0.1447E-09  0.4346E+02
     22.115  0.0000E+00  0.4489E+02
     22.524  0.0000E+00  0.4659E+02
     22.933  0.0000E+00  0.4726E+02
     23.342  0.0000E+00  0.4786E+02
     23.751  0.1756E-01  0.4874E+02
     24.160  0.0000E+00  0.4957E+02
     24.569  0.6842E+00  0.5101E+02
     24.979  0.0000E+00  0.5177E+02
     25.388  0.0000E+00  0.5230E+02
     25.797  0.2565E-01  0.5333E+02
     26.206  0.0000E+00  0.5448E+02
     26.615  0.0000E+00  0.5584E+02
     27.024  0.0000E+00  0.5803E+02
     27.433  0.0000E+00  0.5889E+02
     27.842  0.0000E+00  0.5937E+02
     28.251  0.0000E+00  0.5965E+02
     28.660  0.0000E+00  0.6127E+02
     29.069  0.0000E+00  0.6156E+02
     29.478  0.0000E+00  0.6273E+02
     29.887  0.0000E+00  0.6357E+02
     30.296  0.0000E+00  0.6448E+02
     30.705  0.0000E+00  0.6597E+02
     31.114  0.0000E+00  0.6678E+02
     31.523  0.0000E+00  0.6755E+02
     31.932  0.0000E+00  0.6944E+02
     32.341  0.4189E-10  0.7042E+02
     32.750  0.0000E+00  0.7136E+02
     33.159  0.0000E+00  0.7239E+02
     33.568  0.0000E+00  0.7326E+02
     33.977  0.0000E+00  0.7487E+02
     34.386  0.0000E+00  0.7543E+02
     34.795  0.0000E+00  0.7679E+02
     35.205  0.0000E+00  0.7785E+02
     35.614  0.0000E+00  0.7830E+02
     36.023  0.0000E+00  0.7913E+02
     36.432  0.3249E+00  0.7982E+02
     36.841  0.4099E-03  0.8068E+02
     37.250  0.0000E+00  0.8236E+02
     37.659  0.3421E+00  0.8387E+02
     38.068  0.0000E+00  0.8506E+02
     38.477  0.0000E+00  0.8621E+02
     38.886  0.0000E+00  0.8776E+02
     39.295  0.0000E+00  0.8878E+02
     39.704  0.2049E-04  0.9023E+02
     40.113  0.0000E+00  0.9086E+02
     40.522  0.0000E+00  0.9160E+02
     40.931  0.0000E+00  0.9257E+02
     41.340  0.3421E+00  0.9355E+02
     41.749  0.0000E+00  0.9486E+02
     42.158  0.0000E+00  0.9647E+02
     42.567  0.0000E+00  0.9779E+02
     42.976  0.0000E+00  0.9882E+02
     43.385  0.0000E+00  0.9995E+02
     43.794  0.0000E+00  0.1009E+03
     44.203  0.3421E+00  0.1024E+03
     44.612  0.0000E+00  0.1033E+03
     45.021  0.0000E+00  0.1044E+03
     45.431  0.1140E+00  0.1053E+03
     45.840  0.0000E+00  0.1067E+03
     46.249  0.0000E+00  0.1075E+03
     46.658  0.0000E+00  0.1084E+03
     47.067  0.0000E+00  0.1092E+03
     47.476  0.1214E-09  0.1098E+03
     47.885  0.9544E-10  0.1113E+03
     48.294  0.0000E+00  0.1131E+03
     48.703  0.0000E+00  0.1140E+03
     49.112  0.0000E+00  0.1164E+03
     49.521  0.0000E+00  0.1167E+03
     49.930  0.3421E+00  0.1182E+03
     50.339  0.0000E+00  0.1195E+03
     50.748  0.0000E+00  0.1208E+03
     51.157  0.0000E+00  0.1221E+03
     51.566  0.0000E+00  0.1231E+03
     51.975  0.0000E+00  0.1241E+03
     52.384  0.8838E-02  0.1260E+03
     52.793  0.0000E+00  0.1271E+03
     53.202  0.7586E-01  0.1278E+03
     53.611  0.0000E+00  0.1288E+03
     54.020  0.0000E+00  0.1301E+03
     54.429  0.8575E-11  0.1313E+03
     54.838  0.0000E+00  0.1326E+03
     55.248  0.0000E+00  0.1337E+03
     55.657  0.3421E+00  0.1354E+03
     56.066  0.1711E+00  0.1369E+03
     56.475  0.0000E+00  0.1381E+03
     56.884  0.0000E+00  0.1392E+03
     57.293  0.0000E+00  0.1413E+03
     57.702  0.0000E+00  0.1421E+03
     58.111  0.0000E+00  0.1429E+03
     58.520  0.0000E+00  0.1438E+03
     58.929  0.0000E+00  0.1447E+03
     59.338  0.1711E+00  0.1462E+03
     59.747  0.0000E+00  0.1481E+03
     60.156  0.0000E+00  0.1498E+03
     60.565  0.0000E+00  0.1513E+03
     60.974  0.0000E+00  0.1528E+03
     61.383  0.0000E+00  0.1537E+03
     61.792  0.0000E+00  0.1559E+03
     62.201  0.0000E+00  0.1576E+03
     62.610  0.0000E+00  0.1584E+03
     63.019  0.0000E+00  0.1602E+03
     63.428  0.0000E+00  0.1610E+03
     63.837  0.0000E+00  0.1619E+03
     64.246  0.3420E+00  0.1632E+03
     64.655  0.0000E+00  0.1640E+03
     65.064  0.0000E+00  0.1650E+03
     65.474  0.0000E+00  0.1666E+03
     65.883  0.0000E+00  0.1681E+03
     66.292  0.3421E+00  0.1704E+03
     66.701  0.0000E+00  0.1714E+03
     67.110  0.1711E+00  0.1726E+03
     67.519  0.1446E+00  0.1730E+03
     67.928  0.3418E+00  0.1750E+03
     68.337  0.3421E+00  0.1760E+03
     68.746  0.0000E+00  0.1782E+03
     69.155  0.0000E+00  0.1794E+03
     69.564  0.0000E+00  0.1811E+03
     69.973  0.0000E+00  0.1823E+03
     70.382  0.0000E+00  0.1832E+03
     70.791  0.0000E+00  0.1845E+03
     71.200  0.3914E-03  0.1854E+03
     71.609  0.0000E+00  0.1870E+03
     72.018  0.3422E+00  0.1888E+03
     72.427  0.0000E+00  0.1899E+03
     72.836  0.0000E+00  0.1912E+03
     73.245  0.1118E-01  0.1930E+03
     73.654  0.8553E-01  0.1947E+03
     74.063  0.1078E+00  0.1961E+03
     74.472  0.3421E+00  0.1979E+03
     74.881  0.4579E-03  0.1993E+03
     75.290  0.3421E+00  0.2006E+03
     75.700  0.9118E-06  0.2031E+03
     76.109  0.0000E+00  0.2042E+03
     76.518  0.1519E-15  0.2052E+03
     76.927  0.0000E+00  0.2070E+03
     77.336  0.0000E+00  0.2079E+03
     77.745  0.0000E+00  0.2095E+03
     78.154  0.3421E+00  0.2105E+03
     78.563  0.0000E+00  0.2117E+03
     78.972  0.6766E-05  0.2132E+03
     79.381  0.0000E+00  0.2149E+03
     79.790  0.0000E+00  0.2162E+03
     80.199  0.3421E+00  0.2174E+03
     80.608  0.0000E+00  0.2191E+03
     81.017  0.1707E+00  0.2214E+03
     81.426  0.0000E+00  0.2225E+03
     81.835  0.0000E+00  0.2239E+03
     82.244  0.0000E+00  0.2256E+03
     82.653  0.0000E+00  0.2264E+03
     83.062  0.0000E+00  0.2285E+03
     83.471  0.5132E+00  0.2304E+03
     83.880  0.4219E-09  0.2322E+03
     84.289  0.0000E+00  0.2336E+03
     84.698  0.0000E+00  0.2350E+03
     85.107  0.1140E+00  0.2369E+03
     85.517  0.0000E+00  0.2376E+03
     85.926  0.0000E+00  0.2387E+03
     86.335  0.4699E+00  0.2403E+03
     86.744  0.0000E+00  0.2416E+03
     87.153  0.0000E+00  0.2442E+03
     87.562  0.3421E+00  0.2456E+03
     87.971  0.6834E+00  0.2480E+03
     88.380  0.0000E+00  0.2497E+03
     88.789  0.0000E+00  0.2507E+03
     89.198  0.0000E+00  0.2515E+03
     89.607  0.4336E-05  0.2529E+03
     90.016  0.0000E+00  0.2541E+03
     90.425  0.0000E+00  0.2548E+03
     90.834  0.0000E+00  0.2550E+03
     91.243  0.0000E+00  0.2554E+03
     91.652  0.0000E+00  0.2559E+03
     92.061  0.0000E+00  0.2559E+03
     92.470  0.0000E+00  0.2559E+03
     92.879  0.0000E+00  0.2560E+03
     93.288  0.0000E+00  0.2560E+03
     93.697  0.0000E+00  0.2560E+03
     94.106  0.0000E+00  0.2560E+03
     94.515  0.0000E+00  0.2560E+03
     94.924  0.0000E+00  0.2560E+03
     95.333  0.0000E+00  0.2560E+03
     95.743  0.0000E+00  0.2560E+03
     96.152  0.0000E+00  0.2560E+03
     96.561  0.0000E+00  0.2560E+03
     96.970  0.0000E+00  0.2560E+03
     97.379  0.0000E+00  0.2560E+03
     97.788  0.0000E+00  0.2560E+03
     98.197  0.0000E+00  0.2560E+03
