    1    1    1    1
  0.5764366E+02  0.4335996E-09  0.4335996E-09  0.4335996E-09  0.1000000E-15
  1.000000000000000E-004
  CAR 
 Og_FCC                                  
      8    172    128
 
  0.0000000E+00  0.0000000E+00  0.0000000E+00  0.2915452E-02
    1      -18.937570   1.000000
    2       -6.378213   1.000000
    3       -6.370419   1.000000
    4       -6.368005   1.000000
    5        3.620133   0.000000
    6        8.599449   0.000000
    7        8.602167   0.000000
    8        8.605713   0.000000
    9        9.274776   0.000000
   10        9.274776   0.000000
   11        9.739636   0.000000
   12       11.904882   0.000000
   13       11.904882   0.000000
   14       11.904883   0.000000
   15       14.523243   0.000000
   16       19.208829   0.000000
   17       19.208829   0.000000
   18       19.208830   0.000000
   19       22.165688   0.000000
   20       22.165688   0.000000
   21       22.165688   0.000000
   22       23.267109   0.000000
   23       23.948573   0.000000
   24       23.948574   0.000000
   25       23.948574   0.000000
   26       25.228678   0.000000
   27       25.228678   0.000000
   28       25.228679   0.000000
   29       25.795687   0.000000
   30       25.795688   0.000000
   31       29.048017   0.000000
   32       33.435914   0.000000
   33       33.435915   0.000000
   34       33.435917   0.000000
   35       34.946808   0.000000
   36       34.946809   0.000000
   37       37.062178   0.000000
   38       37.062178   0.000000
   39       37.062179   0.000000
   40       37.463878   0.000000
   41       37.463878   0.000000
   42       37.463879   0.000000
   43       38.225624   0.000000
   44       38.225624   0.000000
   45       38.225625   0.000000
   46       40.862427   0.000000
   47       40.862427   0.000000
   48       40.862428   0.000000
   49       41.619415   0.000000
   50       41.619416   0.000000
   51       41.816777   0.000000
   52       42.899470   0.000000
   53       42.899471   0.000000
   54       42.899472   0.000000
   55       43.016619   0.000000
   56       43.016620   0.000000
   57       43.016624   0.000000
   58       44.038219   0.000000
   59       44.519928   0.000000
   60       45.062906   0.000000
   61       45.062907   0.000000
   62       45.062907   0.000000
   63       46.075377   0.000000
   64       46.075378   0.000000
   65       46.075378   0.000000
   66       47.888798   0.000000
   67       58.374493   0.000000
   68       58.374494   0.000000
   69       59.099210   0.000000
   70       60.859914   0.000000
   71       60.859915   0.000000
   72       60.859915   0.000000
   73       64.786649   0.000000
   74       64.786651   0.000000
   75       65.834754   0.000000
   76       65.834757   0.000000
   77       65.834757   0.000000
   78       69.076676   0.000000
   79       69.076676   0.000000
   80       69.076678   0.000000
   81       70.329992   0.000000
   82       70.329992   0.000000
   83       70.329993   0.000000
   84       71.204334   0.000000
   85       71.204336   0.000000
   86       71.204336   0.000000
   87       71.921567   0.000000
   88       71.921569   0.000000
   89       72.481498   0.000000
   90       72.481498   0.000000
   91       72.481500   0.000000
   92       72.507731   0.000000
   93       72.507733   0.000000
   94       72.507736   0.000000
   95       73.182001   0.000000
   96       73.182002   0.000000
   97       73.182003   0.000000
   98       74.152501   0.000000
   99       74.152502   0.000000
  100       74.445275   0.000000
  101       75.246044   0.000000
  102       75.725912   0.000000
  103       76.127221   0.000000
  104       76.127223   0.000000
  105       76.127226   0.000000
  106       76.403389   0.000000
  107       76.403390   0.000000
  108       76.403391   0.000000
  109       76.711703   0.000000
  110       76.711703   0.000000
  111       76.711704   0.000000
  112       77.249190   0.000000
  113       77.249192   0.000000
  114       78.484237   0.000000
  115       78.484238   0.000000
  116       78.484239   0.000000
  117       79.203532   0.000000
  118       79.203533   0.000000
  119       79.203542   0.000000
  120       80.789443   0.000000
  121       88.637079   0.000000
  122       88.637080   0.000000
  123       88.637081   0.000000
  124       89.609542   0.000000
  125       89.609545   0.000000
  126       89.609545   0.000000
  127       89.621492   0.000000
  128       89.621494   0.000000
 
  0.1428571E+00 -0.1256194E-16 -0.1387779E-16  0.5830904E-02
    1      -18.889575   1.000000
    2       -6.847630   1.000000
    3       -6.419223   1.000000
    4       -6.419017   1.000000
    5        4.216797   0.000000
    6        7.943099   0.000000
    7        8.800484   0.000000
    8        8.800703   0.000000
    9        8.824001   0.000000
   10        8.824001   0.000000
   11       10.555724   0.000000
   12       11.454206   0.000000
   13       13.004422   0.000000
   14       13.004422   0.000000
   15       15.959511   0.000000
   16       18.272599   0.000000
   17       18.272600   0.000000
   18       19.231835   0.000000
   19       19.827056   0.000000
   20       21.588563   0.000000
   21       21.588563   0.000000
   22       23.037861   0.000000
   23       23.752110   0.000000
   24       23.797141   0.000000
   25       23.797141   0.000000
   26       24.918268   0.000000
   27       24.918268   0.000000
   28       26.330319   0.000000
   29       27.164424   0.000000
   30       27.164424   0.000000
   31       30.564804   0.000000
   32       32.618939   0.000000
   33       32.618939   0.000000
   34       33.047307   0.000000
   35       33.473963   0.000000
   36       34.453359   0.000000
   37       34.453360   0.000000
   38       35.925029   0.000000
   39       35.925029   0.000000
   40       37.209880   0.000000
   41       37.209881   0.000000
   42       37.698934   0.000000
   43       38.314502   0.000000
   44       38.368440   0.000000
   45       38.368440   0.000000
   46       38.706121   0.000000
   47       39.674164   0.000000
   48       39.674164   0.000000
   49       40.830099   0.000000
   50       42.396947   0.000000
   51       42.396948   0.000000
   52       42.780848   0.000000
   53       43.900183   0.000000
   54       43.900184   0.000000
   55       44.096739   0.000000
   56       44.330485   0.000000
   57       44.973715   0.000000
   58       45.100127   0.000000
   59       45.100127   0.000000
   60       46.632685   0.000000
   61       46.632686   0.000000
   62       46.914970   0.000000
   63       47.799062   0.000000
   64       47.799062   0.000000
   65       48.270484   0.000000
   66       51.877536   0.000000
   67       55.369266   0.000000
   68       55.369266   0.000000
   69       56.346137   0.000000
   70       61.536616   0.000000
   71       61.536618   0.000000
   72       61.889864   0.000000
   73       63.950802   0.000000
   74       63.950802   0.000000
   75       64.183186   0.000000
   76       65.259681   0.000000
   77       65.259681   0.000000
   78       65.756487   0.000000
   79       65.756488   0.000000
   80       65.805967   0.000000
   81       67.455330   0.000000
   82       68.289871   0.000000
   83       68.289872   0.000000
   84       69.603244   0.000000
   85       69.866003   0.000000
   86       69.866004   0.000000
   87       70.329992   0.000000
   88       70.329993   0.000000
   89       71.287389   0.000000
   90       71.287389   0.000000
   91       71.589918   0.000000
   92       71.843718   0.000000
   93       72.556603   0.000000
   94       72.556604   0.000000
   95       73.218069   0.000000
   96       73.218070   0.000000
   97       73.423997   0.000000
   98       74.033194   0.000000
   99       74.351025   0.000000
  100       74.351026   0.000000
  101       74.551156   0.000000
  102       75.113723   0.000000
  103       77.043457   0.000000
  104       77.043460   0.000000
  105       77.950544   0.000000
  106       78.111804   0.000000
  107       78.111804   0.000000
  108       79.021731   0.000000
  109       79.021732   0.000000
  110       79.275508   0.000000
  111       79.336185   0.000000
  112       79.336187   0.000000
  113       79.391286   0.000000
  114       80.976007   0.000000
  115       81.283771   0.000000
  116       81.283772   0.000000
  117       81.561730   0.000000
  118       83.186732   0.000000
  119       83.186735   0.000000
  120       83.475673   0.000000
  121       84.755328   0.000000
  122       84.755331   0.000000
  123       85.101876   0.000000
  124       86.007104   0.000000
  125       86.007105   0.000000
  126       87.353486   0.000000
  127       87.353486   0.000000
  128       87.619543   0.000000
 
  0.2857143E+00 -0.2512387E-16 -0.4163336E-16  0.5830904E-02
    1      -18.774890   1.000000
    2       -7.774866   1.000000
    3       -6.531002   1.000000
    4       -6.530741   1.000000
    5        5.094866   0.000000
    6        7.774303   0.000000
    7        8.649239   0.000000
    8        8.649256   0.000000
    9        9.187009   0.000000
   10        9.187009   0.000000
   11        9.898123   0.000000
   12       13.636065   0.000000
   13       15.097548   0.000000
   14       15.097548   0.000000
   15       15.972360   0.000000
   16       15.972361   0.000000
   17       16.386528   0.000000
   18       18.644511   0.000000
   19       19.331122   0.000000
   20       21.339147   0.000000
   21       21.339148   0.000000
   22       22.340745   0.000000
   23       23.120243   0.000000
   24       23.120243   0.000000
   25       23.855146   0.000000
   26       25.161467   0.000000
   27       25.161467   0.000000
   28       26.502189   0.000000
   29       27.762649   0.000000
   30       27.762650   0.000000
   31       29.397833   0.000000
   32       30.778945   0.000000
   33       30.778945   0.000000
   34       32.407568   0.000000
   35       33.375329   0.000000
   36       33.413340   0.000000
   37       33.413341   0.000000
   38       34.426395   0.000000
   39       35.290193   0.000000
   40       35.290194   0.000000
   41       37.111095   0.000000
   42       37.320354   0.000000
   43       37.320354   0.000000
   44       37.986167   0.000000
   45       37.986169   0.000000
   46       38.353312   0.000000
   47       40.657799   0.000000
   48       40.657801   0.000000
   49       40.708904   0.000000
   50       42.596159   0.000000
   51       43.197069   0.000000
   52       43.197070   0.000000
   53       44.845559   0.000000
   54       46.447221   0.000000
   55       46.447221   0.000000
   56       47.541832   0.000000
   57       47.607972   0.000000
   58       47.607972   0.000000
   59       48.063158   0.000000
   60       50.518119   0.000000
   61       50.639767   0.000000
   62       50.639768   0.000000
   63       51.179119   0.000000
   64       51.675698   0.000000
   65       51.675698   0.000000
   66       52.525444   0.000000
   67       52.525445   0.000000
   68       53.984330   0.000000
   69       56.146155   0.000000
   70       56.146158   0.000000
   71       56.297856   0.000000
   72       58.836087   0.000000
   73       60.380035   0.000000
   74       60.380036   0.000000
   75       61.406432   0.000000
   76       61.800218   0.000000
   77       62.572192   0.000000
   78       62.572193   0.000000
   79       64.180820   0.000000
   80       64.539965   0.000000
   81       64.539965   0.000000
   82       65.084103   0.000000
   83       65.084103   0.000000
   84       68.467346   0.000000
   85       69.346987   0.000000
   86       69.346987   0.000000
   87       69.950128   0.000000
   88       69.950130   0.000000
   89       70.933118   0.000000
   90       70.933118   0.000000
   91       71.744477   0.000000
   92       71.786640   0.000000
   93       72.260676   0.000000
   94       72.260677   0.000000
   95       72.646802   0.000000
   96       73.055434   0.000000
   97       73.055435   0.000000
   98       73.982496   0.000000
   99       74.480148   0.000000
  100       74.480150   0.000000
  101       74.505314   0.000000
  102       75.221718   0.000000
  103       75.825626   0.000000
  104       75.825627   0.000000
  105       77.249780   0.000000
  106       80.507591   0.000000
  107       80.507591   0.000000
  108       80.789373   0.000000
  109       80.823961   0.000000
  110       81.143131   0.000000
  111       81.143131   0.000000
  112       82.118058   0.000000
  113       82.118060   0.000000
  114       82.659691   0.000000
  115       82.659691   0.000000
  116       83.406287   0.000000
  117       83.967621   0.000000
  118       84.112867   0.000000
  119       84.112870   0.000000
  120       85.095084   0.000000
  121       85.972869   0.000000
  122       86.565565   0.000000
  123       86.565565   0.000000
  124       87.359816   0.000000
  125       87.359817   0.000000
  126       87.788181   0.000000
  127       89.049992   0.000000
  128       89.823670   0.000000
 
  0.4285714E+00  0.3947555E-17 -0.5551115E-16  0.5830904E-02
    1      -18.674949   1.000000
    2       -8.420890   1.000000
    3       -6.616788   1.000000
    4       -6.616488   1.000000
    5        5.204707   0.000000
    6        8.259979   0.000000
    7        8.260006   0.000000
    8        8.493982   0.000000
    9        9.762839   0.000000
   10       10.671772   0.000000
   11       10.671772   0.000000
   12       13.467236   0.000000
   13       13.467237   0.000000
   14       13.658581   0.000000
   15       16.545095   0.000000
   16       17.334111   0.000000
   17       17.334111   0.000000
   18       19.404508   0.000000
   19       20.256506   0.000000
   20       21.111564   0.000000
   21       21.111565   0.000000
   22       21.312636   0.000000
   23       22.067495   0.000000
   24       22.067496   0.000000
   25       24.479465   0.000000
   26       25.542840   0.000000
   27       25.716909   0.000000
   28       25.716909   0.000000
   29       26.720807   0.000000
   30       26.720807   0.000000
   31       28.384180   0.000000
   32       29.408428   0.000000
   33       30.752060   0.000000
   34       30.752062   0.000000
   35       31.728156   0.000000
   36       31.728157   0.000000
   37       31.909382   0.000000
   38       34.899440   0.000000
   39       34.899441   0.000000
   40       34.958308   0.000000
   41       36.777670   0.000000
   42       36.958212   0.000000
   43       36.958212   0.000000
   44       39.445482   0.000000
   45       39.445482   0.000000
   46       39.514388   0.000000
   47       42.238544   0.000000
   48       42.238547   0.000000
   49       42.484881   0.000000
   50       42.795371   0.000000
   51       45.075044   0.000000
   52       45.075044   0.000000
   53       45.422706   0.000000
   54       47.923111   0.000000
   55       47.923112   0.000000
   56       48.819119   0.000000
   57       49.010716   0.000000
   58       49.010717   0.000000
   59       50.395201   0.000000
   60       51.552130   0.000000
   61       51.623881   0.000000
   62       51.623883   0.000000
   63       51.747184   0.000000
   64       51.747185   0.000000
   65       53.043291   0.000000
   66       54.306924   0.000000
   67       54.631055   0.000000
   68       54.631055   0.000000
   69       55.780242   0.000000
   70       55.780244   0.000000
   71       56.126006   0.000000
   72       56.588330   0.000000
   73       58.026029   0.000000
   74       58.026029   0.000000
   75       58.908664   0.000000
   76       58.908664   0.000000
   77       59.157245   0.000000
   78       59.821661   0.000000
   79       59.939374   0.000000
   80       59.939377   0.000000
   81       64.795907   0.000000
   82       64.795908   0.000000
   83       65.869810   0.000000
   84       66.106468   0.000000
   85       66.106469   0.000000
   86       67.481091   0.000000
   87       69.792793   0.000000
   88       69.792798   0.000000
   89       70.404409   0.000000
   90       70.404409   0.000000
   91       70.662355   0.000000
   92       71.716223   0.000000
   93       71.930787   0.000000
   94       71.930788   0.000000
   95       72.358986   0.000000
   96       73.335818   0.000000
   97       74.750950   0.000000
   98       74.750951   0.000000
   99       74.948732   0.000000
  100       75.526124   0.000000
  101       75.526125   0.000000
  102       75.589869   0.000000
  103       75.937883   0.000000
  104       77.348832   0.000000
  105       77.348833   0.000000
  106       79.190804   0.000000
  107       79.462350   0.000000
  108       79.462350   0.000000
  109       79.834169   0.000000
  110       79.834169   0.000000
  111       80.792091   0.000000
  112       81.318691   0.000000
  113       82.554207   0.000000
  114       82.554209   0.000000
  115       83.076192   0.000000
  116       83.920716   0.000000
  117       83.920716   0.000000
  118       85.015065   0.000000
  119       85.015066   0.000000
  120       85.431291   0.000000
  121       85.431964   0.000000
  122       87.584631   0.000000
  123       87.584633   0.000000
  124       87.691213   0.000000
  125       87.691213   0.000000
  126       89.388902   0.000000
  127       89.422012   0.000000
  128       89.671451   0.000000
 
  0.0000000E+00  0.1428571E+00  0.0000000E+00  0.5830904E-02
    1      -18.889567   1.000000
    2       -6.847773   1.000000
    3       -6.419441   1.000000
    4       -6.418902   1.000000
    5        4.216943   0.000000
    6        7.943446   0.000000
    7        8.799823   0.000000
    8        8.800979   0.000000
    9        8.824001   0.000000
   10        8.824001   0.000000
   11       10.555723   0.000000
   12       11.454206   0.000000
   13       13.004422   0.000000
   14       13.004422   0.000000
   15       15.959511   0.000000
   16       18.272599   0.000000
   17       18.272600   0.000000
   18       19.231835   0.000000
   19       19.827056   0.000000
   20       21.588563   0.000000
   21       21.588563   0.000000
   22       23.037861   0.000000
   23       23.752110   0.000000
   24       23.797141   0.000000
   25       23.797141   0.000000
   26       24.918267   0.000000
   27       24.918269   0.000000
   28       26.330318   0.000000
   29       27.164424   0.000000
   30       27.164425   0.000000
   31       30.564804   0.000000
   32       32.618938   0.000000
   33       32.618939   0.000000
   34       33.047308   0.000000
   35       33.473963   0.000000
   36       34.453358   0.000000
   37       34.453360   0.000000
   38       35.925029   0.000000
   39       35.925030   0.000000
   40       37.209880   0.000000
   41       37.209882   0.000000
   42       37.698934   0.000000
   43       38.314502   0.000000
   44       38.368439   0.000000
   45       38.368440   0.000000
   46       38.706121   0.000000
   47       39.674163   0.000000
   48       39.674165   0.000000
   49       40.830099   0.000000
   50       42.396946   0.000000
   51       42.396948   0.000000
   52       42.780848   0.000000
   53       43.900183   0.000000
   54       43.900185   0.000000
   55       44.096738   0.000000
   56       44.330487   0.000000
   57       44.973715   0.000000
   58       45.100126   0.000000
   59       45.100128   0.000000
   60       46.632685   0.000000
   61       46.632687   0.000000
   62       46.914970   0.000000
   63       47.799061   0.000000
   64       47.799062   0.000000
   65       48.270483   0.000000
   66       51.877536   0.000000
   67       55.369265   0.000000
   68       55.369267   0.000000
   69       56.346137   0.000000
   70       61.536617   0.000000
   71       61.536620   0.000000
   72       61.889864   0.000000
   73       63.950802   0.000000
   74       63.950803   0.000000
   75       64.183185   0.000000
   76       65.259678   0.000000
   77       65.259681   0.000000
   78       65.756487   0.000000
   79       65.756488   0.000000
   80       65.805966   0.000000
   81       67.455331   0.000000
   82       68.289870   0.000000
   83       68.289872   0.000000
   84       69.603243   0.000000
   85       69.866003   0.000000
   86       69.866006   0.000000
   87       70.329992   0.000000
   88       70.329993   0.000000
   89       71.287388   0.000000
   90       71.287391   0.000000
   91       71.589919   0.000000
   92       71.843717   0.000000
   93       72.556602   0.000000
   94       72.556605   0.000000
   95       73.218069   0.000000
   96       73.218071   0.000000
   97       73.423998   0.000000
   98       74.033193   0.000000
   99       74.351024   0.000000
  100       74.351026   0.000000
  101       74.551157   0.000000
  102       75.113723   0.000000
  103       77.043457   0.000000
  104       77.043460   0.000000
  105       77.950543   0.000000
  106       78.111803   0.000000
  107       78.111805   0.000000
  108       79.021730   0.000000
  109       79.021733   0.000000
  110       79.275508   0.000000
  111       79.336184   0.000000
  112       79.336187   0.000000
  113       79.391287   0.000000
  114       80.976007   0.000000
  115       81.283771   0.000000
  116       81.283772   0.000000
  117       81.561730   0.000000
  118       83.186732   0.000000
  119       83.186736   0.000000
  120       83.475672   0.000000
  121       84.755327   0.000000
  122       84.755331   0.000000
  123       85.101875   0.000000
  124       86.007104   0.000000
  125       86.007106   0.000000
  126       87.353484   0.000000
  127       87.353486   0.000000
  128       87.619545   0.000000
 
  0.1428571E+00  0.1428571E+00 -0.2775558E-16  0.5830904E-02
    1      -18.873701   1.000000
    2       -6.830753   1.000000
    3       -6.523476   1.000000
    4       -6.523007   1.000000
    5        4.422001   0.000000
    6        7.560129   0.000000
    7        9.064291   0.000000
    8        9.066375   0.000000
    9        7.819912   0.000000
   10        9.518294   0.000000
   11       11.161447   0.000000
   12       12.428450   0.000000
   13       12.428451   0.000000
   14       12.476171   0.000000
   15       16.603699   0.000000
   16       18.273947   0.000000
   17       18.351913   0.000000
   18       18.351914   0.000000
   19       20.442163   0.000000
   20       20.889323   0.000000
   21       20.889325   0.000000
   22       22.985675   0.000000
   23       23.593398   0.000000
   24       23.593398   0.000000
   25       23.681965   0.000000
   26       24.143770   0.000000
   27       26.002869   0.000000
   28       27.067730   0.000000
   29       27.396059   0.000000
   30       27.396061   0.000000
   31       30.439940   0.000000
   32       32.233529   0.000000
   33       32.233532   0.000000
   34       32.829230   0.000000
   35       33.366707   0.000000
   36       34.519205   0.000000
   37       34.519209   0.000000
   38       35.051883   0.000000
   39       35.866019   0.000000
   40       37.169623   0.000000
   41       37.169629   0.000000
   42       37.395824   0.000000
   43       37.571239   0.000000
   44       37.889792   0.000000
   45       39.834254   0.000000
   46       39.834257   0.000000
   47       40.505967   0.000000
   48       40.625166   0.000000
   49       40.625170   0.000000
   50       41.353976   0.000000
   51       41.353978   0.000000
   52       41.638416   0.000000
   53       43.095431   0.000000
   54       43.627024   0.000000
   55       43.905332   0.000000
   56       44.698886   0.000000
   57       44.698894   0.000000
   58       44.960941   0.000000
   59       46.195628   0.000000
   60       47.107657   0.000000
   61       47.107658   0.000000
   62       48.189611   0.000000
   63       49.017400   0.000000
   64       49.869085   0.000000
   65       49.869085   0.000000
   66       51.027438   0.000000
   67       52.203076   0.000000
   68       58.711968   0.000000
   69       59.081429   0.000000
   70       60.897903   0.000000
   71       60.897905   0.000000
   72       61.579509   0.000000
   73       61.579514   0.000000
   74       61.953326   0.000000
   75       62.225993   0.000000
   76       65.340510   0.000000
   77       65.366203   0.000000
   78       65.381193   0.000000
   79       65.381194   0.000000
   80       66.124122   0.000000
   81       66.844107   0.000000
   82       66.844108   0.000000
   83       67.065170   0.000000
   84       67.595270   0.000000
   85       68.617694   0.000000
   86       69.576900   0.000000
   87       69.576907   0.000000
   88       69.876109   0.000000
   89       71.568758   0.000000
   90       71.568758   0.000000
   91       71.735683   0.000000
   92       71.950893   0.000000
   93       72.750453   0.000000
   94       73.013365   0.000000
   95       73.013368   0.000000
   96       73.551149   0.000000
   97       73.648960   0.000000
   98       74.646867   0.000000
   99       75.196088   0.000000
  100       75.196090   0.000000
  101       77.141007   0.000000
  102       77.252012   0.000000
  103       77.512017   0.000000
  104       77.512031   0.000000
  105       77.695866   0.000000
  106       78.270350   0.000000
  107       78.270372   0.000000
  108       78.707947   0.000000
  109       78.994180   0.000000
  110       78.994182   0.000000
  111       79.080168   0.000000
  112       80.248331   0.000000
  113       80.248332   0.000000
  114       80.388643   0.000000
  115       81.088240   0.000000
  116       81.403727   0.000000
  117       82.185417   0.000000
  118       83.466128   0.000000
  119       83.466130   0.000000
  120       84.078427   0.000000
  121       85.254753   0.000000
  122       85.254755   0.000000
  123       85.351170   0.000000
  124       85.590847   0.000000
  125       85.684779   0.000000
  126       86.859654   0.000000
  127       86.859658   0.000000
  128       87.282540   0.000000
 
  0.2857143E+00  0.1428571E+00 -0.5551115E-16  0.5830904E-02
    1      -18.780724   1.000000
    2       -7.519654   1.000000
    3       -6.664394   1.000000
    4       -6.644780   1.000000
    5        5.283473   0.000000
    6        7.129025   0.000000
    7        8.174527   0.000000
    8        9.290093   0.000000
    9        8.460897   0.000000
   10        9.833864   0.000000
   11       11.303800   0.000000
   12       13.113968   0.000000
   13       13.813609   0.000000
   14       14.672483   0.000000
   15       15.893139   0.000000
   16       16.190592   0.000000
   17       18.481957   0.000000
   18       18.596504   0.000000
   19       19.128614   0.000000
   20       20.082664   0.000000
   21       20.742618   0.000000
   22       22.472014   0.000000
   23       22.759967   0.000000
   24       23.242877   0.000000
   25       23.605401   0.000000
   26       24.471500   0.000000
   27       26.116892   0.000000
   28       26.871337   0.000000
   29       28.222027   0.000000
   30       28.534221   0.000000
   31       29.831067   0.000000
   32       30.324911   0.000000
   33       31.263348   0.000000
   34       32.054822   0.000000
   35       32.328817   0.000000
   36       33.595134   0.000000
   37       34.294415   0.000000
   38       34.453055   0.000000
   39       35.432953   0.000000
   40       36.034867   0.000000
   41       36.678554   0.000000
   42       37.090521   0.000000
   43       37.781507   0.000000
   44       37.997699   0.000000
   45       39.043744   0.000000
   46       39.490981   0.000000
   47       39.773556   0.000000
   48       40.703059   0.000000
   49       41.240601   0.000000
   50       41.451478   0.000000
   51       41.623522   0.000000
   52       43.512183   0.000000
   53       43.899606   0.000000
   54       44.589789   0.000000
   55       45.538595   0.000000
   56       45.919312   0.000000
   57       47.275141   0.000000
   58       48.033477   0.000000
   59       48.832387   0.000000
   60       48.909055   0.000000
   61       50.014478   0.000000
   62       50.058271   0.000000
   63       50.560805   0.000000
   64       52.294563   0.000000
   65       52.868600   0.000000
   66       53.535974   0.000000
   67       55.787303   0.000000
   68       56.115382   0.000000
   69       56.654568   0.000000
   70       57.011998   0.000000
   71       57.168442   0.000000
   72       59.619639   0.000000
   73       59.658951   0.000000
   74       60.460404   0.000000
   75       60.717710   0.000000
   76       61.463457   0.000000
   77       61.864437   0.000000
   78       63.188870   0.000000
   79       64.400471   0.000000
   80       64.613794   0.000000
   81       65.401348   0.000000
   82       65.840368   0.000000
   83       66.017838   0.000000
   84       66.097132   0.000000
   85       66.215079   0.000000
   86       66.812293   0.000000
   87       67.889456   0.000000
   88       68.669084   0.000000
   89       69.063564   0.000000
   90       70.165309   0.000000
   91       71.593948   0.000000
   92       73.114116   0.000000
   93       73.289584   0.000000
   94       73.367017   0.000000
   95       73.468972   0.000000
   96       74.151634   0.000000
   97       74.288514   0.000000
   98       74.502457   0.000000
   99       74.680988   0.000000
  100       76.435584   0.000000
  101       76.813434   0.000000
  102       77.527457   0.000000
  103       77.937070   0.000000
  104       78.037122   0.000000
  105       78.329064   0.000000
  106       78.698719   0.000000
  107       78.974769   0.000000
  108       79.307516   0.000000
  109       79.496156   0.000000
  110       80.237689   0.000000
  111       80.372889   0.000000
  112       80.760239   0.000000
  113       81.701199   0.000000
  114       82.700909   0.000000
  115       82.937604   0.000000
  116       83.328128   0.000000
  117       83.604386   0.000000
  118       83.771266   0.000000
  119       84.275468   0.000000
  120       85.191552   0.000000
  121       86.034195   0.000000