   1   1   0   0
  0.4557239E+02  0.4009334E-09  0.4009334E-09  0.4009334E-09  0.1000000E-15
  1.000000000000000E-004
  CAR 
 Og_FCC                                  
    117.96451150    -28.89052707  301     -7.22940888      1.00000000
    -28.891  0.0000E+00  0.0000E+00
    -28.401  0.0000E+00  0.0000E+00
    -27.911  0.0000E+00  0.0000E+00
    -27.422  0.0000E+00  0.0000E+00
    -26.932  0.0000E+00  0.0000E+00
    -26.443  0.0000E+00  0.0000E+00
    -25.953  0.0000E+00  0.0000E+00
    -25.464  0.0000E+00  0.0000E+00
    -24.974  0.0000E+00  0.0000E+00
    -24.485  0.0000E+00  0.0000E+00
    -23.995  0.0000E+00  0.0000E+00
    -23.506  0.0000E+00  0.0000E+00
    -23.016  0.0000E+00  0.0000E+00
    -22.527  0.0000E+00  0.0000E+00
    -22.037  0.6143E-06  0.5190E+00
    -21.548  0.0000E+00  0.2000E+01
    -21.058  0.0000E+00  0.2000E+01
    -20.569  0.0000E+00  0.2000E+01
    -20.079  0.0000E+00  0.2000E+01
    -19.590  0.0000E+00  0.2000E+01
    -19.100  0.0000E+00  0.2000E+01
    -18.611  0.0000E+00  0.2000E+01
    -18.121  0.0000E+00  0.2000E+01
    -17.632  0.0000E+00  0.2000E+01
    -17.142  0.0000E+00  0.2000E+01
    -16.653  0.0000E+00  0.2000E+01
    -16.163  0.0000E+00  0.2000E+01
    -15.674  0.0000E+00  0.2000E+01
    -15.184  0.0000E+00  0.2000E+01
    -14.695  0.0000E+00  0.2000E+01
    -14.205  0.0000E+00  0.2000E+01
    -13.716  0.0000E+00  0.2000E+01
    -13.226  0.0000E+00  0.2000E+01
    -12.736  0.0000E+00  0.2000E+01
    -12.247  0.0000E+00  0.2000E+01
    -11.757  0.0000E+00  0.2000E+01
    -11.268  0.0000E+00  0.2000E+01
    -10.778  0.0000E+00  0.2000E+01
    -10.289  0.0000E+00  0.2000E+01
     -9.799  0.0000E+00  0.2000E+01
     -9.310  0.0000E+00  0.2000E+01
     -8.820  0.0000E+00  0.2431E+01
     -8.331  0.0000E+00  0.3843E+01
     -7.841  0.0000E+00  0.5452E+01
     -7.352  0.2382E-01  0.8000E+01
     -6.862  0.0000E+00  0.8000E+01
     -6.373  0.0000E+00  0.8000E+01
     -5.883  0.0000E+00  0.8000E+01
     -5.394  0.0000E+00  0.8000E+01
     -4.904  0.0000E+00  0.8000E+01
     -4.415  0.0000E+00  0.8000E+01
     -3.925  0.0000E+00  0.8000E+01
     -3.436  0.0000E+00  0.8000E+01
     -2.946  0.0000E+00  0.8000E+01
     -2.457  0.0000E+00  0.8000E+01
     -1.967  0.0000E+00  0.8000E+01
     -1.478  0.0000E+00  0.8000E+01
     -0.988  0.0000E+00  0.8000E+01
     -0.499  0.0000E+00  0.8000E+01
     -0.009  0.0000E+00  0.8000E+01
      0.480  0.0000E+00  0.8000E+01
      0.970  0.0000E+00  0.8000E+01
      1.460  0.0000E+00  0.8000E+01
      1.949  0.0000E+00  0.8000E+01
      2.439  0.0000E+00  0.8000E+01
      2.928  0.0000E+00  0.8000E+01
      3.418  0.0000E+00  0.8000E+01
      3.907  0.0000E+00  0.8000E+01
      4.397  0.0000E+00  0.8000E+01
      4.886  0.0000E+00  0.8006E+01
      5.376  0.3096E-11  0.8006E+01
      5.865  0.0000E+00  0.8087E+01
      6.355  0.0000E+00  0.8157E+01
      6.844  0.0000E+00  0.8344E+01
      7.334  0.1429E+00  0.8531E+01
      7.823  0.0000E+00  0.9230E+01
      8.313  0.0000E+00  0.9650E+01
      8.802  0.0000E+00  0.1003E+02
      9.292  0.0000E+00  0.1087E+02
      9.781  0.0000E+00  0.1147E+02
     10.271  0.0000E+00  0.1205E+02
     10.760  0.0000E+00  0.1286E+02
     11.250  0.0000E+00  0.1360E+02
     11.739  0.0000E+00  0.1433E+02
     12.229  0.0000E+00  0.1518E+02
     12.718  0.0000E+00  0.1651E+02
     13.208  0.0000E+00  0.1746E+02
     13.697  0.0000E+00  0.1826E+02
     14.187  0.0000E+00  0.1891E+02
     14.676  0.0000E+00  0.2011E+02
     15.166  0.4101E-08  0.2067E+02
     15.656  0.0000E+00  0.2149E+02
     16.145  0.2859E+00  0.2226E+02
     16.635  0.0000E+00  0.2299E+02
     17.124  0.0000E+00  0.2365E+02
     17.614  0.0000E+00  0.2434E+02
     18.103  0.0000E+00  0.2553E+02
     18.593  0.0000E+00  0.2623E+02
     19.082  0.0000E+00  0.2662E+02
     19.572  0.2745E+00  0.2722E+02
     20.061  0.0000E+00  0.2785E+02
     20.551  0.0000E+00  0.2883E+02
     21.040  0.0000E+00  0.2956E+02
     21.530  0.0000E+00  0.3026E+02
     22.019  0.2859E+00  0.3110E+02
     22.509  0.0000E+00  0.3135E+02
     22.998  0.0000E+00  0.3237E+02
     23.488  0.0000E+00  0.3324E+02
     23.977  0.0000E+00  0.3377E+02
     24.467  0.6427E-01  0.3485E+02
     24.956  0.0000E+00  0.3562E+02
     25.446  0.0000E+00  0.3646E+02
     25.935  0.0000E+00  0.3765E+02
     26.425  0.0000E+00  0.3861E+02
     26.914  0.0000E+00  0.3945E+02
     27.404  0.0000E+00  0.4001E+02
     27.893  0.2092E-13  0.4069E+02
     28.383  0.0000E+00  0.4176E+02
     28.872  0.0000E+00  0.4226E+02
     29.362  0.0000E+00  0.4303E+02
     29.851  0.3174E-16  0.4445E+02
     30.341  0.0000E+00  0.4571E+02
     30.831  0.2222E-15  0.4649E+02
     31.320  0.0000E+00  0.4770E+02
     31.810  0.2859E+00  0.4868E+02
     32.299  0.0000E+00  0.4911E+02
     32.789  0.0000E+00  0.4962E+02
     33.278  0.0000E+00  0.5020E+02
     33.768  0.1332E-12  0.5138E+02
     34.257  0.0000E+00  0.5282E+02
     34.747  0.8115E-06  0.5359E+02
     35.236  0.2859E+00  0.5492E+02
     35.726  0.0000E+00  0.5604E+02
     36.215  0.0000E+00  0.5727E+02
     36.705  0.0000E+00  0.5765E+02
     37.194  0.1587E-16  0.5826E+02
     37.684  0.0000E+00  0.5882E+02
     38.173  0.0000E+00  0.6024E+02
     38.663  0.1531E-02  0.6176E+02
     39.152  0.0000E+00  0.6320E+02
     39.642  0.0000E+00  0.6402E+02
     40.131  0.0000E+00  0.6502E+02
     40.621  0.0000E+00  0.6538E+02
     41.110  0.0000E+00  0.6659E+02
     41.600  0.0000E+00  0.6778E+02
     42.089  0.0000E+00  0.6863E+02
     42.579  0.2848E+00  0.6984E+02
     43.068  0.6186E-02  0.7099E+02
     43.558  0.0000E+00  0.7210E+02
     44.047  0.0000E+00  0.7349E+02
     44.537  0.0000E+00  0.7460E+02
     45.027  0.0000E+00  0.7554E+02
     45.516  0.0000E+00  0.7599E+02
     46.006  0.0000E+00  0.7659E+02
     46.495  0.1589E-01  0.7821E+02
     46.985  0.0000E+00  0.7920E+02
     47.474  0.0000E+00  0.8080E+02
     47.964  0.0000E+00  0.8178E+02
     48.453  0.0000E+00  0.8277E+02
     48.943  0.0000E+00  0.8430E+02
     49.432  0.0000E+00  0.8552E+02
     49.922  0.0000E+00  0.8670E+02
     50.411  0.0000E+00  0.8801E+02
     50.901  0.0000E+00  0.8872E+02
     51.390  0.0000E+00  0.8967E+02
     51.880  0.0000E+00  0.9084E+02
     52.369  0.0000E+00  0.9185E+02
     52.859  0.0000E+00  0.9283E+02
     53.348  0.0000E+00  0.9414E+02
     53.838  0.0000E+00  0.9561E+02
     54.327  0.0000E+00  0.9647E+02
     54.817  0.0000E+00  0.9830E+02
     55.306  0.0000E+00  0.9943E+02
     55.796  0.0000E+00  0.1007E+03
     56.285  0.0000E+00  0.1017E+03
     56.775  0.0000E+00  0.1028E+03
     57.264  0.2859E+00  0.1042E+03
     57.754  0.0000E+00  0.1048E+03
     58.243  0.0000E+00  0.1062E+03
     58.733  0.0000E+00  0.1069E+03
     59.222  0.8331E-16  0.1082E+03
     59.712  0.0000E+00  0.1098E+03
     60.202  0.2859E+00  0.1117E+03
     60.691  0.4426E-03  0.1126E+03
     61.181  0.0000E+00  0.1138E+03
     61.670  0.0000E+00  0.1153E+03
     62.160  0.0000E+00  0.1166E+03
     62.649  0.0000E+00  0.1176E+03
     63.139  0.2859E+00  0.1185E+03
     63.628  0.0000E+00  0.1194E+03
     64.118  0.1906E+00  0.1203E+03
     64.607  0.0000E+00  0.1222E+03
     65.097  0.6348E-16  0.1240E+03
     65.586  0.0000E+00  0.1252E+03
     66.076  0.0000E+00  0.1263E+03
     66.565  0.0000E+00  0.1274E+03
     67.055  0.2859E+00  0.1287E+03
     67.544  0.0000E+00  0.1305E+03
     68.034  0.0000E+00  0.1318E+03
     68.523  0.0000E+00  0.1330E+03
     69.013  0.0000E+00  0.1343E+03
     69.502  0.2859E+00  0.1352E+03
     69.992  0.0000E+00  0.1361E+03
     70.481  0.0000E+00  0.1379E+03
     70.971  0.0000E+00  0.1398E+03
     71.460  0.9534E-11  0.1413E+03
     71.950  0.0000E+00  0.1420E+03
     72.439  0.0000E+00  0.1435E+03
     72.929  0.0000E+00  0.1449E+03
     73.418  0.0000E+00  0.1460E+03
     73.908  0.2229E-01  0.1477E+03
     74.398  0.1429E+00  0.1488E+03
     74.887  0.3390E-03  0.1500E+03
     75.377  0.0000E+00  0.1519E+03
     75.866  0.0000E+00  0.1532E+03
     76.356  0.0000E+00  0.1545E+03
     76.845  0.0000E+00  0.1555E+03
     77.335  0.0000E+00  0.1566E+03
     77.824  0.0000E+00  0.1587E+03
     78.314  0.0000E+00  0.1603E+03
     78.803  0.6032E-04  0.1616E+03
     79.293  0.0000E+00  0.1629E+03
     79.782  0.1116E-05  0.1639E+03
     80.272  0.0000E+00  0.1653E+03
     80.761  0.5394E-01  0.1667E+03
     81.251  0.1429E+00  0.1682E+03
     81.740  0.0000E+00  0.1695E+03
     82.230  0.0000E+00  0.1709E+03
     82.719  0.0000E+00  0.1721E+03
     83.209  0.0000E+00  0.1743E+03
     83.698  0.0000E+00  0.1753E+03
     84.188  0.0000E+00  0.1766E+03
     84.677  0.0000E+00  0.1779E+03
     85.167  0.0000E+00  0.1794E+03
     85.656  0.0000E+00  0.1811E+03
     86.146  0.0000E+00  0.1823E+03
     86.635  0.2859E+00  0.1837E+03
     87.125  0.0000E+00  0.1854E+03
     87.614  0.0000E+00  0.1874E+03
     88.104  0.0000E+00  0.1886E+03
     88.594  0.3803E-01  0.1903E+03
     89.083  0.3879E+00  0.1918E+03
     89.573  0.0000E+00  0.1931E+03
     90.062  0.0000E+00  0.1944E+03
     90.552  0.0000E+00  0.1955E+03
     91.041  0.0000E+00  0.1972E+03
     91.531  0.0000E+00  0.1984E+03
     92.020  0.8289E+00  0.2001E+03
     92.510  0.0000E+00  0.2012E+03
     92.999  0.0000E+00  0.2029E+03
     93.489  0.0000E+00  0.2042E+03
     93.978  0.0000E+00  0.2064E+03
     94.468  0.0000E+00  0.2076E+03
     94.957  0.0000E+00  0.2090E+03
     95.447  0.0000E+00  0.2113E+03
     95.936  0.0000E+00  0.2132E+03
     96.426  0.0000E+00  0.2147E+03
     96.915  0.0000E+00  0.2160E+03
     97.405  0.0000E+00  0.2173E+03
     97.894  0.2388E+00  0.2189E+03
     98.384  0.0000E+00  0.2203E+03
     98.873  0.2859E+00  0.2218E+03
     99.363  0.0000E+00  0.2232E+03
     99.852  0.0000E+00  0.2241E+03
    100.342  0.0000E+00  0.2251E+03
    100.831  0.1429E+00  0.2269E+03
    101.321  0.0000E+00  0.2294E+03
    101.810  0.0000E+00  0.2306E+03
    102.300  0.0000E+00  0.2322E+03
    102.789  0.0000E+00  0.2341E+03
    103.279  0.0000E+00  0.2357E+03
    103.769  0.3452E-01  0.2378E+03
    104.258  0.1076E-02  0.2396E+03
    104.748  0.5718E+00  0.2416E+03
    105.237  0.0000E+00  0.2427E+03
    105.727  0.0000E+00  0.2440E+03
    106.216  0.0000E+00  0.2449E+03
    106.706  0.0000E+00  0.2471E+03
    107.195  0.1906E+00  0.2485E+03
    107.685  0.1056E-13  0.2492E+03
    108.174  0.2666E+00  0.2510E+03
    108.664  0.0000E+00  0.2518E+03
    109.153  0.0000E+00  0.2536E+03
    109.643  0.0000E+00  0.2537E+03
    110.132  0.0000E+00  0.2545E+03
    110.622  0.0000E+00  0.2553E+03
    111.111  0.0000E+00  0.2559E+03
    111.601  0.0000E+00  0.2560E+03
    112.090  0.0000E+00  0.2560E+03
    112.580  0.0000E+00  0.2560E+03
    113.069  0.0000E+00  0.2560E+03
    113.559  0.0000E+00  0.2560E+03
    114.048  0.0000E+00  0.2560E+03
    114.538  0.0000E+00  0.2560E+03
    115.027  0.0000E+00  0.2560E+03
    115.517  0.0000E+00  0.2560E+03
    116.006  0.0000E+00  0.2560E+03
    116.496  0.0000E+00  0.2560E+03
    116.985  0.0000E+00  0.2560E+03
    117.475  0.0000E+00  0.2560E+03
    117.965  0.0000E+00  0.2560E+03
