    1    1    1    1
  0.4557239E+02  0.4009334E-09  0.4009334E-09  0.4009334E-09  0.1000000E-15
  1.000000000000000E-004
  CAR 
 Og_FCC                                  
      8    172    128
 
  0.0000000E+00  0.0000000E+00  0.0000000E+00  0.2915452E-02
    1      -22.215298   1.000000
    2       -7.361045   1.000000
    3       -7.357090   1.000000
    4       -7.355297   1.000000
    5        4.777850   0.000000
    6       11.917793   0.000000
    7       11.919889   0.000000
    8       11.922348   0.000000
    9       12.382280   0.000000
   10       12.382280   0.000000
   11       13.617551   0.000000
   12       16.169710   0.000000
   13       16.169710   0.000000
   14       16.169710   0.000000
   15       18.223114   0.000000
   16       26.706114   0.000000
   17       26.706114   0.000000
   18       26.706114   0.000000
   19       27.684563   0.000000
   20       27.684563   0.000000
   21       27.684563   0.000000
   22       30.646586   0.000000
   23       30.646586   0.000000
   24       31.521972   0.000000
   25       31.521972   0.000000
   26       31.521972   0.000000
   27       33.752653   0.000000
   28       40.729325   0.000000
   29       40.729325   0.000000
   30       41.713447   0.000000
   31       41.713447   0.000000
   32       41.713447   0.000000
   33       42.708547   0.000000
   34       43.698332   0.000000
   35       43.698332   0.000000
   36       43.698332   0.000000
   37       44.615818   0.000000
   38       44.615818   0.000000
   39       44.615818   0.000000
   40       47.217849   0.000000
   41       47.217849   0.000000
   42       47.217849   0.000000
   43       47.462172   0.000000
   44       47.462172   0.000000
   45       47.462172   0.000000
   46       48.658684   0.000000
   47       49.841876   0.000000
   48       49.841876   0.000000
   49       49.841876   0.000000
   50       50.581982   0.000000
   51       50.581982   0.000000
   52       53.704393   0.000000
   53       53.704393   0.000000
   54       53.704393   0.000000
   55       53.766954   0.000000
   56       54.192774   0.000000
   57       54.192774   0.000000
   58       54.192774   0.000000
   59       54.469146   0.000000
   60       67.898330   0.000000
   61       67.898330   0.000000
   62       68.584518   0.000000
   63       68.584518   0.000000
   64       68.584518   0.000000
   65       71.301447   0.000000
   66       72.141473   0.000000
   67       72.141473   0.000000
   68       72.141473   0.000000
   69       73.705477   0.000000
   70       73.705477   0.000000
   71       73.705477   0.000000
   72       76.583294   0.000000
   73       76.583294   0.000000
   74       77.645845   0.000000
   75       77.645845   0.000000
   76       77.645845   0.000000
   77       79.129788   0.000000
   78       83.785827   0.000000
   79       83.785827   0.000000
   80       83.785827   0.000000
   81       83.915915   0.000000
   82       83.915915   0.000000
   83       83.915915   0.000000
   84       85.726126   0.000000
   85       85.726126   0.000000
   86       85.726126   0.000000
   87       86.507496   0.000000
   88       86.507496   0.000000
   89       86.861609   0.000000
   90       86.861609   0.000000
   91       87.338815   0.000000
   92       87.338815   0.000000
   93       87.338815   0.000000
   94       87.787763   0.000000
   95       88.048003   0.000000
   96       88.048003   0.000000
   97       88.048003   0.000000
   98       89.226697   0.000000
   99       89.226697   0.000000
  100       89.226697   0.000000
  101       90.498283   0.000000
  102       91.335774   0.000000
  103       91.335775   0.000000
  104       91.335776   0.000000
  105       91.352488   0.000000
  106       91.352488   0.000000
  107       91.352488   0.000000
  108       91.703983   0.000000
  109       91.703983   0.000000
  110       91.703983   0.000000
  111       91.889819   0.000000
  112       91.889819   0.000000
  113       94.101102   0.000000
  114      101.455628   0.000000
  115      103.767234   0.000000
  116      103.767234   0.000000
  117      103.767234   0.000000
  118      104.473537   0.000000
  119      104.473538   0.000000
  120      104.473538   0.000000
  121      106.470958   0.000000
  122      106.470958   0.000000
  123      106.470958   0.000000
  124      106.805195   0.000000
  125      106.805195   0.000000
  126      106.805195   0.000000
  127      106.940380   0.000000
  128      106.940380   0.000000
 
  0.1428571E+00 -0.1246062E-16  0.0000000E+00  0.5830904E-02
    1      -22.178581   1.000000
    2       -7.742167   1.000000
    3       -7.396509   1.000000
    4       -7.396264   1.000000
    5        5.380173   0.000000
    6       11.037230   0.000000
    7       12.122097   0.000000
    8       12.122414   0.000000
    9       11.932871   0.000000
   10       11.932872   0.000000
   11       14.443808   0.000000
   12       15.465590   0.000000
   13       17.434013   0.000000
   14       17.434013   0.000000
   15       20.178404   0.000000
   16       23.362652   0.000000
   17       24.308292   0.000000
   18       24.308292   0.000000
   19       28.045490   0.000000
   20       28.045490   0.000000
   21       29.772266   0.000000
   22       29.772267   0.000000
   23       29.882063   0.000000
   24       31.708489   0.000000
   25       34.749804   0.000000
   26       34.749804   0.000000
   27       35.164296   0.000000
   28       37.776669   0.000000
   29       37.776669   0.000000
   30       38.298318   0.000000
   31       41.007326   0.000000
   32       41.484882   0.000000
   33       41.484882   0.000000
   34       42.946152   0.000000
   35       43.319308   0.000000
   36       43.319308   0.000000
   37       43.882888   0.000000
   38       44.506721   0.000000
   39       44.506721   0.000000
   40       46.344333   0.000000
   41       46.344333   0.000000
   42       46.880239   0.000000
   43       47.985071   0.000000
   44       49.251415   0.000000
   45       49.251415   0.000000
   46       49.646478   0.000000
   47       49.646478   0.000000
   48       50.300437   0.000000
   49       51.442219   0.000000
   50       51.504610   0.000000
   51       52.551911   0.000000
   52       52.551911   0.000000
   53       52.933536   0.000000
   54       55.367387   0.000000
   55       55.367387   0.000000
   56       57.122897   0.000000
   57       57.142333   0.000000
   58       57.142333   0.000000
   59       61.771734   0.000000
   60       63.376510   0.000000
   61       63.376510   0.000000
   62       65.032031   0.000000
   63       66.825113   0.000000
   64       66.825113   0.000000
   65       69.028210   0.000000
   66       71.988654   0.000000
   67       73.323913   0.000000
   68       73.323913   0.000000
   69       74.343912   0.000000
   70       74.343912   0.000000
   71       74.824550   0.000000
   72       75.875690   0.000000
   73       76.605345   0.000000
   74       76.605345   0.000000
   75       78.122154   0.000000
   76       78.122154   0.000000
   77       79.214465   0.000000
   78       79.214465   0.000000
   79       79.431504   0.000000
   80       81.614589   0.000000
   81       82.318681   0.000000
   82       82.318682   0.000000
   83       82.766570   0.000000
   84       83.793909   0.000000
   85       83.793909   0.000000
   86       83.944779   0.000000
   87       84.762814   0.000000
   88       84.762814   0.000000
   89       85.526302   0.000000
   90       86.278110   0.000000
   91       86.278110   0.000000
   92       86.546118   0.000000
   93       87.042136   0.000000
   94       87.042136   0.000000
   95       87.977774   0.000000
   96       87.977774   0.000000
   97       88.196350   0.000000
   98       90.111308   0.000000
   99       91.658395   0.000000
  100       92.245424   0.000000
  101       92.245425   0.000000
  102       92.970995   0.000000
  103       93.118814   0.000000
  104       93.118814   0.000000
  105       93.881752   0.000000
  106       93.881752   0.000000
  107       93.928378   0.000000
  108       95.136537   0.000000
  109       95.895317   0.000000
  110       95.895317   0.000000
  111       96.778818   0.000000
  112       96.778818   0.000000
  113       97.677116   0.000000
  114       99.548054   0.000000
  115       99.903997   0.000000
  116       99.903997   0.000000
  117      100.391875   0.000000
  118      100.391875   0.000000
  119      101.654098   0.000000
  120      101.801017   0.000000
  121      102.063761   0.000000
  122      102.063761   0.000000
  123      105.651165   0.000000
  124      106.043331   0.000000
  125      106.043331   0.000000
  126      107.188438   0.000000
  127      107.188439   0.000000
  128      107.989728   0.000000
 
  0.2857143E+00  0.2834329E-17  0.0000000E+00  0.5830904E-02
    1      -22.094510   1.000000
    2       -8.514816   1.000000
    3       -7.487081   1.000000
    4       -7.486787   1.000000
    5        6.606031   0.000000
    6       10.175829   0.000000
    7       11.931870   0.000000
    8       11.932092   0.000000
    9       12.334786   0.000000
   10       12.334786   0.000000
   11       13.501338   0.000000
   12       18.082510   0.000000
   13       19.359036   0.000000
   14       20.083708   0.000000
   15       20.083708   0.000000
   16       20.795250   0.000000
   17       20.795250   0.000000
   18       24.113533   0.000000
   19       28.169931   0.000000
   20       28.169931   0.000000
   21       29.857273   0.000000
   22       29.857273   0.000000
   23       30.022724   0.000000
   24       32.194987   0.000000
   25       33.227703   0.000000
   26       33.227703   0.000000
   27       33.516401   0.000000
   28       37.027039   0.000000
   29       38.758773   0.000000
   30       38.758773   0.000000
   31       40.083452   0.000000
   32       40.083452   0.000000
   33       40.220781   0.000000
   34       41.195973   0.000000
   35       41.696211   0.000000
   36       41.696211   0.000000
   37       42.397018   0.000000
   38       42.800105   0.000000
   39       44.927669   0.000000
   40       44.927669   0.000000
   41       47.017329   0.000000
   42       47.017329   0.000000
   43       48.654519   0.000000
   44       49.757416   0.000000
   45       49.757416   0.000000
   46       51.028423   0.000000
   47       53.410343   0.000000
   48       53.410343   0.000000
   49       54.675428   0.000000
   50       55.372118   0.000000
   51       55.372118   0.000000
   52       56.124924   0.000000
   53       58.125344   0.000000
   54       58.625010   0.000000
   55       58.625011   0.000000
   56       60.473680   0.000000
   57       60.473680   0.000000
   58       60.567475   0.000000
   59       60.752817   0.000000
   60       60.752817   0.000000
   61       61.227487   0.000000
   62       62.577549   0.000000
   63       62.577549   0.000000
   64       63.076187   0.000000
   65       69.846923   0.000000
   66       70.038501   0.000000
   67       70.038501   0.000000
   68       70.362976   0.000000
   69       71.038330   0.000000
   70       72.237307   0.000000
   71       72.237307   0.000000
   72       75.060976   0.000000
   73       75.060976   0.000000
   74       75.622654   0.000000
   75       75.998390   0.000000
   76       76.087841   0.000000
   77       76.087841   0.000000
   78       77.306313   0.000000
   79       77.306313   0.000000
   80       79.247239   0.000000
   81       80.046376   0.000000
   82       80.046377   0.000000
   83       80.728549   0.000000
   84       83.844096   0.000000
   85       84.464948   0.000000
   86       84.464948   0.000000
   87       85.805450   0.000000
   88       85.805450   0.000000
   89       85.855220   0.000000
   90       86.350216   0.000000
   91       86.350216   0.000000
   92       86.638768   0.000000
   93       87.370380   0.000000
   94       87.381052   0.000000
   95       87.381052   0.000000
   96       88.198483   0.000000
   97       88.232989   0.000000
   98       88.232989   0.000000
   99       91.130373   0.000000
  100       91.130373   0.000000
  101       93.794238   0.000000
  102       94.872861   0.000000
  103       94.872861   0.000000
  104       95.991511   0.000000
  105       96.198024   0.000000
  106       96.250582   0.000000
  107       96.250584   0.000000
  108       96.751439   0.000000
  109       96.751439   0.000000
  110       97.276652   0.000000
  111       97.805066   0.000000
  112       97.805066   0.000000
  113       99.122163   0.000000
  114       99.548779   0.000000
  115      100.550724   0.000000
  116      101.472298   0.000000
  117      101.472298   0.000000
  118      102.284904   0.000000
  119      102.284904   0.000000
  120      104.541472   0.000000
  121      104.730645   0.000000
  122      104.730645   0.000000
  123      105.792106   0.000000
  124      106.242423   0.000000
  125      106.437695   0.000000
  126      106.437695   0.000000
  127      107.718222   0.000000
  128      107.718222   0.000000
 
  0.4285714E+00  0.4251494E-17  0.0000000E+00  0.5830904E-02
    1      -22.023194   1.000000
    2       -9.066464   1.000000
    3       -7.557473   1.000000
    4       -7.557160   1.000000
    5        7.296527   0.000000
    6       10.151606   0.000000
    7       11.488056   0.000000
    8       11.488224   0.000000
    9       13.285244   0.000000
   10       13.907025   0.000000
   11       13.907025   0.000000
   12       16.387656   0.000000
   13       17.779869   0.000000
   14       17.779869   0.000000
   15       22.067841   0.000000
   16       23.412134   0.000000
   17       23.412134   0.000000
   18       26.324041   0.000000
   19       26.751066   0.000000
   20       26.751066   0.000000
   21       28.409826   0.000000
   22       29.938534   0.000000
   23       29.938534   0.000000
   24       31.248856   0.000000
   25       31.248856   0.000000
   26       32.521874   0.000000
   27       32.692215   0.000000
   28       33.876995   0.000000
   29       37.718225   0.000000
   30       37.719285   0.000000
   31       37.719285   0.000000
   32       38.703138   0.000000
   33       38.703138   0.000000
   34       39.593280   0.000000
   35       42.395218   0.000000
   36       44.694813   0.000000
   37       44.694813   0.000000
   38       46.404097   0.000000
   39       46.768203   0.000000
   40       46.768203   0.000000
   41       46.862874   0.000000
   42       46.862874   0.000000
   43       48.739462   0.000000
   44       51.573332   0.000000
   45       51.573332   0.000000
   46       52.636102   0.000000
   47       53.392533   0.000000
   48       53.392533   0.000000
   49       55.136376   0.000000
   50       55.743752   0.000000
   51       55.743752   0.000000
   52       57.172947   0.000000
   53       58.655415   0.000000
   54       58.655415   0.000000
   55       59.879879   0.000000
   56       60.115067   0.000000
   57       60.115067   0.000000
   58       61.275747   0.000000
   59       64.111717   0.000000
   60       64.111717   0.000000
   61       64.315620   0.000000
   62       65.196307   0.000000
   63       65.298311   0.000000
   64       65.298311   0.000000
   65       65.953133   0.000000
   66       65.953134   0.000000
   67       66.972778   0.000000
   68       67.615166   0.000000
   69       69.916267   0.000000
   70       69.916267   0.000000
   71       70.060732   0.000000
   72       70.797925   0.000000
   73       70.797926   0.000000
   74       73.337256   0.000000
   75       74.964522   0.000000
   76       74.968591   0.000000
   77       74.968591   0.000000
   78       76.041287   0.000000
   79       76.041287   0.000000
   80       78.805584   0.000000
   81       78.805584   0.000000
   82       79.114018   0.000000
   83       80.788777   0.000000
   84       82.587574   0.000000
   85       83.757632   0.000000
   86       83.757632   0.000000
   87       85.312214   0.000000
   88       85.312214   0.000000
   89       86.064911   0.000000
   90       86.194180   0.000000
   91       86.194180   0.000000
   92       87.487087   0.000000
   93       87.878440   0.000000
   94       87.878440   0.000000
   95       89.170344   0.000000
   96       89.512380   0.000000
   97       90.270452   0.000000
   98       90.465203   0.000000
   99       90.465204   0.000000
  100       92.769491   0.000000
  101       92.769491   0.000000
  102       93.657574   0.000000
  103       93.933143   0.000000
  104       93.933143   0.000000
  105       94.006759   0.000000
  106       95.268784   0.000000
  107       95.268784   0.000000
  108       96.863502   0.000000
  109       97.798678   0.000000
  110       97.798678   0.000000
  111       98.441914   0.000000
  112       99.500083   0.000000
  113       99.500084   0.000000
  114      100.056738   0.000000
  115      100.925171   0.000000
  116      100.925171   0.000000
  117      102.580408   0.000000
  118      103.456580   0.000000
  119      103.456580   0.000000
  120      104.564065   0.000000
  121      104.655019   0.000000
  122      104.655019   0.000000
  123      105.907699   0.000000
  124      107.093773   0.000000
  125      107.395922   0.000000
  126      107.395922   0.000000
  127      107.853788   0.000000
  128      107.853788   0.000000
 
 -0.1925930E-33  0.1428571E+00  0.0000000E+00  0.5830904E-02
    1      -22.178577   1.000000
    2       -7.742363   1.000000
    3       -7.396547   1.000000
    4       -7.396169   1.000000
    5        5.380229   0.000000
    6       11.036876   0.000000
    7       12.122120   0.000000
    8       12.122963   0.000000
    9       11.932871   0.000000
   10       11.932872   0.000000
   11       14.443808   0.000000
   12       15.465590   0.000000
   13       17.434013   0.000000
   14       17.434013   0.000000
   15       20.178404   0.000000
   16       23.362652   0.000000
   17       24.308292   0.000000
   18       24.308292   0.000000
   19       28.045490   0.000000
   20       28.045490   0.000000
   21       29.772266   0.000000
   22       29.772267   0.000000
   23       29.882063   0.000000
   24       31.708489   0.000000
   25       34.749804   0.000000
   26       34.749804   0.000000
   27       35.164296   0.000000
   28       37.776669   0.000000
   29       37.776669   0.000000
   30       38.298318   0.000000
   31       41.007326   0.000000
   32       41.484882   0.000000
   33       41.484882   0.000000
   34       42.946152   0.000000
   35       43.319308   0.000000
   36       43.319308   0.000000
   37       43.882888   0.000000
   38       44.506721   0.000000
   39       44.506721   0.000000
   40       46.344333   0.000000
   41       46.344333   0.000000
   42       46.880239   0.000000
   43       47.985071   0.000000
   44       49.251415   0.000000
   45       49.251415   0.000000
   46       49.646478   0.000000
   47       49.646478   0.000000
   48       50.300437   0.000000
   49       51.442219   0.000000
   50       51.504610   0.000000
   51       52.551911   0.000000
   52       52.551911   0.000000
   53       52.933536   0.000000
   54       55.367387   0.000000
   55       55.367387   0.000000
   56       57.122897   0.000000
   57       57.142333   0.000000
   58       57.142333   0.000000
   59       61.771734   0.000000
   60       63.376510   0.000000
   61       63.376510   0.000000
   62       65.032031   0.000000
   63       66.825113   0.000000
   64       66.825113   0.000000
   65       69.028210   0.000000
   66       71.988654   0.000000
   67       73.323913   0.000000
   68       73.323913   0.000000
   69       74.343912   0.000000
   70       74.343912   0.000000
   71       74.824550   0.000000
   72       75.875690   0.000000
   73       76.605345   0.000000
   74       76.605345   0.000000
   75       78.122154   0.000000
   76       78.122154   0.000000
   77       79.214465   0.000000
   78       79.214465   0.000000
   79       79.431504   0.000000
   80       81.614589   0.000000
   81       82.318681   0.000000
   82       82.318682   0.000000
   83       82.766570   0.000000
   84       83.793909   0.000000
   85       83.793909   0.000000
   86       83.944779   0.000000
   87       84.762814   0.000000
   88       84.762814   0.000000
   89       85.526302   0.000000
   90       86.278110   0.000000
   91       86.278110   0.000000
   92       86.546118   0.000000
   93       87.042136   0.000000
   94       87.042136   0.000000
   95       87.977774   0.000000
   96       87.977774   0.000000
   97       88.196350   0.000000
   98       90.111309   0.000000
   99       91.658395   0.000000
  100       92.245424   0.000000
  101       92.245424   0.000000
  102       92.970995   0.000000
  103       93.118814   0.000000
  104       93.118814   0.000000
  105       93.881752   0.000000
  106       93.881752   0.000000
  107       93.928378   0.000000
  108       95.136537   0.000000
  109       95.895317   0.000000
  110       95.895317   0.000000
  111       96.778818   0.000000
  112       96.778818   0.000000
  113       97.677116   0.000000
  114       99.548054   0.000000
  115       99.903997   0.000000
  116       99.903997   0.000000
  117      100.391875   0.000000
  118      100.391875   0.000000
  119      101.654098   0.000000
  120      101.801017   0.000000
  121      102.063761   0.000000
  122      102.063761   0.000000
  123      105.651165   0.000000
  124      106.043331   0.000000
  125      106.043331   0.000000
  126      107.188438   0.000000
  127      107.188438   0.000000
  128      107.989728   0.000000
 
  0.1428571E+00  0.1428571E+00  0.1387779E-16  0.5830904E-02
    1      -22.166650   1.000000
    2       -7.732696   1.000000
    3       -7.477622   1.000000
    4       -7.477270   1.000000
    5        5.576490   0.000000
    6       10.734366   0.000000
    7       12.324928   0.000000
    8       12.326854   0.000000
    9       10.792423   0.000000
   10       12.661397   0.000000
   11       15.293597   0.000000
   12       16.306061   0.000000
   13       16.802641   0.000000
   14       16.802641   0.000000
   15       21.189527   0.000000
   16       23.421109   0.000000
   17       23.421109   0.000000
   18       23.950418   0.000000
   19       26.882424   0.000000
   20       27.838589   0.000000
   21       29.213677   0.000000
   22       29.213677   0.000000
   23       31.310368   0.000000
   24       34.074676   0.000000
   25       34.074676   0.000000
   26       35.363487   0.000000
   27       35.401538   0.000000
   28       36.420920   0.000000
   29       38.590473   0.000000
   30       38.590473   0.000000
   31       39.114108   0.000000
   32       40.630681   0.000000
   33       40.842680   0.000000
   34       40.842680   0.000000
   35       43.647314   0.000000
   36       44.200167   0.000000
   37       44.200167   0.000000
   38       44.444931   0.000000
   39       45.895270   0.000000
   40       46.304501   0.000000
   41       46.995761   0.000000
   42       47.660400   0.000000
   43       47.660400   0.000000
   44       48.716805   0.000000
   45       49.539265   0.000000
   46       49.899529   0.000000
   47       49.899529   0.000000
   48       50.297543   0.000000
   49       50.706287   0.000000
   50       50.706287   0.000000
   51       52.337843   0.000000
   52       52.498267   0.000000
   53       54.223925   0.000000
   54       54.223925   0.000000
   55       56.475753   0.000000
   56       58.942170   0.000000
   57       59.126963   0.000000
   58       59.703872   0.000000
   59       59.703873   0.000000
   60       60.639595   0.000000
   61       66.258385   0.000000
   62       66.523609   0.000000
   63       66.523609   0.000000
   64       68.869300   0.000000
   65       68.869300   0.000000
   66       69.297726   0.000000
   67       69.515447   0.000000
   68       72.351760   0.000000
   69       73.192823   0.000000
   70       73.984499   0.000000
   71       73.984499   0.000000
   72       76.057720   0.000000
   73       76.222401   0.000000
   74       77.581242   0.000000
   75       77.581242   0.000000
   76       78.717349   0.000000
   77       78.777971   0.000000
   78       79.439899   0.000000
   79       79.439899   0.000000
   80       80.694944   0.000000
   81       81.173663   0.000000
   82       81.717722   0.000000
   83       82.734532   0.000000
   84       82.734532   0.000000
   85       84.104909   0.000000
   86       84.465591   0.000000
   87       84.742991   0.000000
   88       84.893431   0.000000
   89       84.893432   0.000000
   90       85.697967   0.000000
   91       85.697967   0.000000
   92       86.525109   0.000000
   93       87.706163   0.000000
   94       87.842897   0.000000
   95       87.842897   0.000000
   96       89.004145   0.000000
   97       91.083280   0.000000
   98       91.134115   0.000000
   99       91.810964   0.000000
  100       91.810964   0.000000
  101       92.552839   0.000000
  102       93.055800   0.000000
  103       93.432262   0.000000
  104       93.432262   0.000000
  105       94.731043   0.000000
  106       94.819799   0.000000
  107       94.852199   0.000000
  108       95.282282   0.000000
  109       95.282282   0.000000
  110       95.924157   0.000000
  111       95.924158   0.000000
  112       96.234493   0.000000
  113       98.100081   0.000000
  114      100.202288   0.000000
  115      100.572802   0.000000
  116      100.687084   0.000000
  117      100.687084   0.000000
  118      100.825495   0.000000
  119      100.825495   0.000000
  120      101.291618   0.000000
  121      102.033203   0.000000
  122      102.227800   0.000000
  123      102.508254   0.000000
  124      102.508451   0.000000
  125      102.508451   0.000000
  126      106.371389   0.000000
  127      109.079144   0.000000
  128      109.079144   0.000000
 
  0.2857143E+00  0.1428571E+00  0.0000000E+00  0.5830904E-02
    1      -22.098635   1.000000
    2       -8.302532   1.000000
    3       -7.591127   1.000000
    4       -7.575692   1.000000
    5        6.613831   0.000000
    6       10.007109   0.000000
    7       11.289797   0.000000
    8       12.519612   0.000000
    9       11.325529   0.000000
   10       13.025275   0.000000
   11       15.144692   0.000000
   12       17.522595   0.000000
   13       18.319683   0.000000
   14       18.982428   0.000000
   15       20.220349   0.000000
   16       20.770440   0.000000
   17       23.207314   0.000000
   18       24.240893   0.000000
   19       25.843179   0.000000
   20       26.250752   0.000000
   21       29.563672   0.000000
   22       29.583029   0.000000
   23       31.672906   0.000000
   24       33.380822   0.000000
   25       34.354325   0.000000
   26       35.318492   0.000000
   27       35.739452   0.000000
   28       35.969087   0.000000
   29       36.481230   0.000000
   30       37.732530   0.000000
   31       38.424159   0.000000
   32       39.988737   0.000000
   33       40.322808   0.000000
   34       41.100166   0.000000
   35       41.724373   0.000000
   36       42.698614   0.000000
   37       43.176743   0.000000
   38       44.010748   0.000000
   39       45.747447   0.000000
   40       46.067295   0.000000
   41       46.904247   0.000000
   42       47.118900   0.000000
   43       47.747069   0.000000
   44       48.771934   0.000000
   45       49.546716   0.000000
   46       50.331028   0.000000
   47       52.089322   0.000000
   48       53.439622   0.000000
   49       53.604285   0.000000
   50       53.959255   0.000000
   51       54.640399   0.000000
   52       55.388866   0.000000
   53       56.842857   0.000000
   54       56.997089   0.000000
   55       58.988706   0.000000
   56       59.939691   0.000000
   57       60.038064   0.000000
   58       61.232556   0.000000
   59       61.554852   0.000000
   60       63.427178   0.000000
   61       64.033175   0.000000
   62       64.182384   0.000000
   63       65.300841   0.000000
   64       66.374859   0.000000
   65       66.800806   0.000000
   66       67.901457   0.000000
   67       70.058268   0.000000
   68       70.330686   0.000000
   69       70.511824   0.000000
   70       70.957963   0.000000
   71       72.757318   0.000000
   72       74.473859   0.000000
   73       74.655582   0.000000
   74       74.856592   0.000000
   75       75.802339   0.000000
   76       77.282302   0.000000
   77       77.401666   0.000000
   78       77.689857   0.000000
   79       78.040266   0.000000
   80       78.747394   0.000000
   81       79.231223   0.000000
   82       79.651895   0.000000
   83       80.693241   0.000000
   84       82.793150   0.000000
   85       83.160976   0.000000
   86       84.127079   0.000000
   87       84.341273   0.000000
   88       85.645684   0.000000
   89       85.824533   0.000000
   90       86.163022   0.000000
   91       87.212838   0.000000
   92       87.379326   0.000000
   93       87.512846   0.000000
   94       88.021815   0.000000
   95       88.659945   0.000000
   96       90.598402   0.000000
   97       90.652148   0.000000
   98       91.079315   0.000000
   99       91.960373   0.000000
  100       92.682450   0.000000
  101       92.771824   0.000000
  102       93.738565   0.000000
  103       93.862824   0.000000
  104       93.937652   0.000000
  105       94.563632   0.000000
  106       94.824477   0.000000
  107       95.076124   0.000000
  108       95.333597   0.000000
  109       96.153273   0.000000
  110       96.539244   0.000000
  111       97.344845   0.000000
  112       97.758169   0.000000
  113       99.746472   0.000000
  114      100.531258   0.000000
  115      101.834424   0.000000
  116      102.081999   0.000000
  117      102.535543   0.000000
  118      102.608260   0.000000
  119      102.742757   0.000000
  120      103.161045   0.000000
  121      103.339052   0.000000