   1   1   0   0
  0.1628488E+02  0.2845115E-09  0.2845115E-09  0.2845115E-09  0.1000000E-15
  1.000000000000000E-004
  CAR 
 Og_FCC                                  
    159.36350135    -32.57776527  301    -22.18094666      1.00000000
    -32.578  0.0000E+00  0.0000E+00
    -31.938  0.0000E+00  0.0000E+00
    -31.298  0.0000E+00  0.0000E+00
    -30.658  0.0000E+00  0.0000E+00
    -30.019  0.0000E+00  0.0000E+00
    -29.379  0.0000E+00  0.0000E+00
    -28.739  0.0000E+00  0.0000E+00
    -28.099  0.0000E+00  0.0000E+00
    -27.459  0.0000E+00  0.0000E+00
    -26.820  0.0000E+00  0.0000E+00
    -26.180  0.0000E+00  0.0000E+00
    -25.540  0.0000E+00  0.0000E+00
    -24.900  0.0000E+00  0.0000E+00
    -24.260  0.0000E+00  0.0000E+00
    -23.621  0.0000E+00  0.9259E-02
    -22.981  0.0000E+00  0.5463E+00
    -22.341  0.0000E+00  0.2000E+01
    -21.701  0.0000E+00  0.2000E+01
    -21.061  0.0000E+00  0.2000E+01
    -20.421  0.0000E+00  0.2000E+01
    -19.782  0.0000E+00  0.2000E+01
    -19.142  0.0000E+00  0.2000E+01
    -18.502  0.0000E+00  0.2000E+01
    -17.862  0.0000E+00  0.2000E+01
    -17.222  0.0000E+00  0.2000E+01
    -16.583  0.0000E+00  0.2000E+01
    -15.943  0.0000E+00  0.2000E+01
    -15.303  0.0000E+00  0.2000E+01
    -14.663  0.0000E+00  0.2000E+01
    -14.023  0.0000E+00  0.2000E+01
    -13.384  0.0000E+00  0.2000E+01
    -12.744  0.0000E+00  0.2000E+01
    -12.104  0.0000E+00  0.2000E+01
    -11.464  0.0000E+00  0.2000E+01
    -10.824  0.0000E+00  0.2000E+01
    -10.185  0.0000E+00  0.2000E+01
     -9.545  0.0000E+00  0.2000E+01
     -8.905  0.0000E+00  0.2000E+01
     -8.265  0.0000E+00  0.2000E+01
     -7.625  0.0000E+00  0.2000E+01
     -6.986  0.0000E+00  0.2000E+01
     -6.346  0.0000E+00  0.2000E+01
     -5.706  0.0000E+00  0.2000E+01
     -5.066  0.0000E+00  0.2000E+01
     -4.426  0.0000E+00  0.2000E+01
     -3.787  0.0000E+00  0.2000E+01
     -3.147  0.0000E+00  0.2000E+01
     -2.507  0.0000E+00  0.2000E+01
     -1.867  0.0000E+00  0.2000E+01
     -1.227  0.0000E+00  0.2000E+01
     -0.588  0.0000E+00  0.2000E+01
      0.052  0.0000E+00  0.2000E+01
      0.692  0.0000E+00  0.2000E+01
      1.332  0.0000E+00  0.2000E+01
      1.972  0.0000E+00  0.2000E+01
      2.611  0.0000E+00  0.2000E+01
      3.251  0.0000E+00  0.2000E+01
      3.891  0.0000E+00  0.2000E+01
      4.531  0.0000E+00  0.2000E+01
      5.171  0.0000E+00  0.2000E+01
      5.810  0.0000E+00  0.2000E+01
      6.450  0.0000E+00  0.2222E+01
      7.090  0.0000E+00  0.3417E+01
      7.730  0.0000E+00  0.3417E+01
      8.370  0.0000E+00  0.4222E+01
      9.010  0.0000E+00  0.4333E+01
      9.649  0.0000E+00  0.5000E+01
     10.289  0.0000E+00  0.5509E+01
     10.929  0.0000E+00  0.5509E+01
     11.569  0.0000E+00  0.5731E+01
     12.209  0.0000E+00  0.5806E+01
     12.848  0.0000E+00  0.6250E+01
     13.488  0.0000E+00  0.6750E+01
     14.128  0.0000E+00  0.7028E+01
     14.768  0.0000E+00  0.7139E+01
     15.408  0.0000E+00  0.7278E+01
     16.047  0.0000E+00  0.7944E+01
     16.687  0.0000E+00  0.8296E+01
     17.327  0.0000E+00  0.8630E+01
     17.967  0.0000E+00  0.9519E+01
     18.607  0.0000E+00  0.9593E+01
     19.246  0.0000E+00  0.9741E+01
     19.886  0.0000E+00  0.1017E+02
     20.526  0.0000E+00  0.1028E+02
     21.166  0.0000E+00  0.1031E+02
     21.806  0.0000E+00  0.1092E+02
     22.445  0.0000E+00  0.1144E+02
     23.085  0.0000E+00  0.1197E+02
     23.725  0.0000E+00  0.1256E+02
     24.365  0.0000E+00  0.1274E+02
     25.005  0.0000E+00  0.1307E+02
     25.644  0.8683E-01  0.1336E+02
     26.284  0.0000E+00  0.1406E+02
     26.924  0.0000E+00  0.1429E+02
     27.564  0.0000E+00  0.1436E+02
     28.204  0.8965E-06  0.1472E+02
     28.843  0.0000E+00  0.1561E+02
     29.483  0.0000E+00  0.1572E+02
     30.123  0.0000E+00  0.1628E+02
     30.763  0.0000E+00  0.1661E+02
     31.403  0.0000E+00  0.1739E+02
     32.042  0.0000E+00  0.1756E+02
     32.682  0.0000E+00  0.1843E+02
     33.322  0.0000E+00  0.1843E+02
     33.962  0.0000E+00  0.1865E+02
     34.602  0.0000E+00  0.1898E+02
     35.241  0.0000E+00  0.1965E+02
     35.881  0.0000E+00  0.2009E+02
     36.521  0.0000E+00  0.2065E+02
     37.161  0.0000E+00  0.2070E+02
     37.801  0.0000E+00  0.2119E+02
     38.441  0.0000E+00  0.2141E+02
     39.080  0.0000E+00  0.2267E+02
     39.720  0.0000E+00  0.2322E+02
     40.360  0.0000E+00  0.2369E+02
     41.000  0.0000E+00  0.2435E+02
     41.640  0.0000E+00  0.2496E+02
     42.279  0.0000E+00  0.2502E+02
     42.919  0.1170E-06  0.2527E+02
     43.559  0.0000E+00  0.2582E+02
     44.199  0.0000E+00  0.2651E+02
     44.839  0.0000E+00  0.2651E+02
     45.478  0.0000E+00  0.2701E+02
     46.118  0.0000E+00  0.2712E+02
     46.758  0.0000E+00  0.2779E+02
     47.398  0.0000E+00  0.2890E+02
     48.038  0.0000E+00  0.2967E+02
     48.677  0.0000E+00  0.3010E+02
     49.317  0.5636E-10  0.3060E+02
     49.957  0.0000E+00  0.3105E+02
     50.597  0.0000E+00  0.3160E+02
     51.237  0.0000E+00  0.3203E+02
     51.876  0.0000E+00  0.3299E+02
     52.516  0.0000E+00  0.3346E+02
     53.156  0.0000E+00  0.3416E+02
     53.796  0.0000E+00  0.3416E+02
     54.436  0.0000E+00  0.3442E+02
     55.075  0.0000E+00  0.3486E+02
     55.715  0.0000E+00  0.3542E+02
     56.355  0.0000E+00  0.3597E+02
     56.995  0.0000E+00  0.3609E+02
     57.635  0.0000E+00  0.3731E+02
     58.274  0.0000E+00  0.3817E+02
     58.914  0.0000E+00  0.3856E+02
     59.554  0.0000E+00  0.3917E+02
     60.194  0.0000E+00  0.3991E+02
     60.834  0.8677E-01  0.4019E+02
     61.473  0.0000E+00  0.4119E+02
     62.113  0.1427E+00  0.4202E+02
     62.753  0.3443E-04  0.4259E+02
     63.393  0.0000E+00  0.4304E+02
     64.033  0.3387E+00  0.4355E+02
     64.672  0.0000E+00  0.4400E+02
     65.312  0.0000E+00  0.4433E+02
     65.952  0.0000E+00  0.4456E+02
     66.592  0.0000E+00  0.4500E+02
     67.232  0.0000E+00  0.4547E+02
     67.871  0.0000E+00  0.4625E+02
     68.511  0.0000E+00  0.4688E+02
     69.151  0.3559E-07  0.4769E+02
     69.791  0.2866E-01  0.4845E+02
     70.431  0.0000E+00  0.4913E+02
     71.071  0.0000E+00  0.4957E+02
     71.710  0.0000E+00  0.4980E+02
     72.350  0.0000E+00  0.5131E+02
     72.990  0.3472E+00  0.5265E+02
     73.630  0.0000E+00  0.5315E+02
     74.270  0.0000E+00  0.5367E+02
     74.909  0.1239E-11  0.5433E+02
     75.549  0.0000E+00  0.5496E+02
     76.189  0.0000E+00  0.5511E+02
     76.829  0.0000E+00  0.5556E+02
     77.469  0.9707E-02  0.5560E+02
     78.108  0.0000E+00  0.5591E+02
     78.748  0.0000E+00  0.5677E+02
     79.388  0.0000E+00  0.5744E+02
     80.028  0.0000E+00  0.5825E+02
     80.668  0.0000E+00  0.5903E+02
     81.307  0.0000E+00  0.5973E+02
     81.947  0.0000E+00  0.6062E+02
     82.587  0.0000E+00  0.6132E+02
     83.227  0.3471E+00  0.6186E+02
     83.867  0.0000E+00  0.6275E+02
     84.506  0.1589E+00  0.6374E+02
     85.146  0.0000E+00  0.6453E+02
     85.786  0.0000E+00  0.6492E+02
     86.426  0.0000E+00  0.6573E+02
     87.066  0.0000E+00  0.6642E+02
     87.705  0.0000E+00  0.6731E+02
     88.345  0.8683E-01  0.6804E+02
     88.985  0.0000E+00  0.6843E+02
     89.625  0.0000E+00  0.6906E+02
     90.265  0.0000E+00  0.6956E+02
     90.904  0.0000E+00  0.7017E+02
     91.544  0.0000E+00  0.7052E+02
     92.184  0.0000E+00  0.7119E+02
     92.824  0.0000E+00  0.7171E+02
     93.464  0.0000E+00  0.7258E+02
     94.103  0.0000E+00  0.7318E+02
     94.743  0.0000E+00  0.7371E+02
     95.383  0.0000E+00  0.7449E+02
     96.023  0.0000E+00  0.7534E+02
     96.663  0.0000E+00  0.7618E+02
     97.302  0.6405E-09  0.7709E+02
     97.942  0.0000E+00  0.7860E+02
     98.582  0.0000E+00  0.7891E+02
     99.222  0.0000E+00  0.7982E+02
     99.862  0.1093E-01  0.8061E+02
    100.502  0.0000E+00  0.8127E+02
    101.141  0.0000E+00  0.8177E+02
    101.781  0.0000E+00  0.8277E+02
    102.421  0.0000E+00  0.8306E+02
    103.061  0.3473E+00  0.8410E+02
    103.701  0.0000E+00  0.8510E+02
    104.340  0.0000E+00  0.8516E+02
    104.980  0.0000E+00  0.8590E+02
    105.620  0.5140E-01  0.8643E+02
    106.260  0.0000E+00  0.8697E+02
    106.900  0.0000E+00  0.8797E+02
    107.539  0.0000E+00  0.8849E+02
    108.179  0.0000E+00  0.8927E+02
    108.819  0.0000E+00  0.9052E+02
    109.459  0.0000E+00  0.9074E+02
    110.099  0.0000E+00  0.9122E+02
    110.738  0.0000E+00  0.9172E+02
    111.378  0.0000E+00  0.9294E+02
    112.018  0.0000E+00  0.9397E+02
    112.658  0.0000E+00  0.9444E+02
    113.298  0.0000E+00  0.9540E+02
    113.937  0.0000E+00  0.9675E+02
    114.577  0.3473E+00  0.9784E+02
    115.217  0.1521E+00  0.9924E+02
    115.857  0.0000E+00  0.9969E+02
    116.497  0.0000E+00  0.1007E+03
    117.136  0.0000E+00  0.1016E+03
    117.776  0.0000E+00  0.1017E+03
    118.416  0.0000E+00  0.1025E+03
    119.056  0.0000E+00  0.1025E+03
    119.696  0.0000E+00  0.1027E+03
    120.335  0.0000E+00  0.1031E+03
    120.975  0.2217E-15  0.1045E+03
    121.615  0.0000E+00  0.1054E+03
    122.255  0.1228E+00  0.1067E+03
    122.895  0.0000E+00  0.1073E+03
    123.534  0.0000E+00  0.1080E+03
    124.174  0.0000E+00  0.1084E+03
    124.814  0.3473E+00  0.1101E+03
    125.454  0.3473E+00  0.1108E+03
    126.094  0.0000E+00  0.1113E+03
    126.733  0.0000E+00  0.1118E+03
    127.373  0.0000E+00  0.1127E+03
    128.013  0.0000E+00  0.1138E+03
    128.653  0.0000E+00  0.1142E+03
    129.293  0.0000E+00  0.1153E+03
    129.933  0.0000E+00  0.1162E+03
    130.572  0.0000E+00  0.1174E+03
    131.212  0.0000E+00  0.1178E+03
    131.852  0.0000E+00  0.1190E+03
    132.492  0.0000E+00  0.1204E+03
    133.132  0.0000E+00  0.1211E+03
    133.771  0.3368E+00  0.1218E+03
    134.411  0.0000E+00  0.1226E+03
    135.051  0.0000E+00  0.1235E+03
    135.691  0.0000E+00  0.1238E+03
    136.331  0.0000E+00  0.1241E+03
    136.970  0.0000E+00  0.1250E+03
    137.610  0.0000E+00  0.1258E+03
    138.250  0.0000E+00  0.1263E+03
    138.890  0.0000E+00  0.1268E+03
    139.530  0.0000E+00  0.1270E+03
    140.169  0.0000E+00  0.1274E+03
    140.809  0.0000E+00  0.1274E+03
    141.449  0.0000E+00  0.1275E+03
    142.089  0.0000E+00  0.1275E+03
    142.729  0.0000E+00  0.1275E+03
    143.368  0.0000E+00  0.1276E+03
    144.008  0.0000E+00  0.1278E+03
    144.648  0.0000E+00  0.1278E+03
    145.288  0.0000E+00  0.1278E+03
    145.928  0.0000E+00  0.1279E+03
    146.567  0.0000E+00  0.1279E+03
    147.207  0.0000E+00  0.1279E+03
    147.847  0.0000E+00  0.1279E+03
    148.487  0.0000E+00  0.1279E+03
    149.127  0.0000E+00  0.1279E+03
    149.766  0.0000E+00  0.1279E+03
    150.406  0.0000E+00  0.1279E+03
    151.046  0.0000E+00  0.1280E+03
    151.686  0.0000E+00  0.1280E+03
    152.326  0.0000E+00  0.1280E+03
    152.965  0.0000E+00  0.1280E+03
    153.605  0.0000E+00  0.1280E+03
    154.245  0.0000E+00  0.1280E+03
    154.885  0.0000E+00  0.1280E+03
    155.525  0.0000E+00  0.1280E+03
    156.164  0.0000E+00  0.1280E+03
    156.804  0.0000E+00  0.1280E+03
    157.444  0.0000E+00  0.1280E+03
    158.084  0.0000E+00  0.1280E+03
    158.724  0.0000E+00  0.1280E+03
    159.364  0.0000E+00  0.1280E+03
