    1    1  999    1
  0.6470000E+02  0.4506158E-09  0.4506158E-09  0.4506158E-09  0.1000000E-15
  1.000000000000000E-004
  CAR 
 Og_FCC                                  
     18     35     14
 
  0.0000000E+00  0.0000000E+00  0.0000000E+00  0.1371742E-02
    1      -29.243728   1.000000
    2      -29.243727   1.000000
    3      -29.243727   1.000000
    4      -29.242562   1.000000
    5      -29.242562   1.000000
    6      -22.115877   1.000000
    7        0.486518   0.700272
    8        0.486518   0.700272
    9        0.486521   0.700224
   10        3.060753   0.000000
   11       10.086134   0.000000
   12       10.086136   0.000000
   13       10.086136   0.000000
   14       10.701407   0.000000
 
  0.1111111E+00 -0.5932251E-17  0.1387779E-16  0.1097394E-01
    1      -29.243628   1.000000
    2      -29.243500   1.000000
    3      -29.243499   1.000000
    4      -29.242521   1.000000
    5      -29.242520   1.000000
    6      -22.107622   1.000000
    7       -0.066574   1.000000
    8        0.445640   1.030432
    9        0.445643   1.030428
   10        3.716388   0.000000
   11        9.377645   0.000000
   12       10.211702   0.000000
   13       10.211703   0.000000
   14       11.661981   0.000000
 
  0.2222222E+00 -0.2574229E-16  0.0000000E+00  0.1097394E-01
    1      -29.243522   1.000000
    2      -29.243520   1.000000
    3      -29.243130   1.000000
    4      -29.241470   1.000000
    5      -29.241469   1.000000
    6      -22.086586   1.000000
    7       -0.956796   1.000000
    8        0.345450   1.000064
    9        0.345453   1.000064
   10        4.763951   0.000000
   11        9.115049   0.000000
   12       10.234161   0.000000
   13       10.234161   0.000000
   14       11.224011   0.000000
 
  0.3333333E+00 -0.2473565E-16  0.1387779E-16  0.1097394E-01
    1      -29.243813   1.000000
    2      -29.243812   1.000000
    3      -29.242603   1.000000
    4      -29.239914   1.000000
    5      -29.239913   1.000000
    6      -22.062453   1.000000
    7       -1.658058   1.000000
    8        0.236701   1.000000
    9        0.236703   1.000000
   10        5.355992   0.000000
   11        9.754115   0.000000
   12        9.893983   0.000000
   13        9.893984   0.000000
   14       10.744073   0.000000
 
  0.4444444E+00 -0.5148458E-16  0.0000000E+00  0.1097394E-01
    1      -29.244041   1.000000
    2      -29.244040   1.000000
    3      -29.242330   1.000000
    4      -29.238840   1.000000
    5      -29.238838   1.000000
    6      -22.046592   1.000000
    7       -2.031824   1.000000
    8        0.168379   1.000000
    9        0.168382   1.000000
   10        5.495799   0.000000
   11        9.653780   0.000000
   12        9.653781   0.000000
   13       10.022506   0.000000
   14       11.630345   0.000000
 
  0.1111111E+00  0.1111111E+00  0.0000000E+00  0.8230453E-02
    1      -29.244008   1.000000
    2      -29.243117   1.000000
    3      -29.243117   1.000000
    4      -29.242827   1.000000
    5      -29.242273   1.000000
    6      -22.104870   1.000000
    7       -0.093251   1.000000
    8        0.357375   1.000237
    9        0.357377   1.000237
   10        3.941727   0.000000
   11        9.079676   0.000000
   12       10.386841   0.000000
   13       10.386841   0.000000
   14       10.832409   0.000000
 
  0.2222222E+00  0.1111111E+00  0.0000000E+00  0.3292181E-01
    1      -29.243939   1.000000
    2      -29.243121   1.000000
    3      -29.242832   1.000000
    4      -29.241981   1.000000
    5      -29.241353   1.000000
    6      -22.088106   1.000000
    7       -0.761434   1.000000
    8        0.224952   1.000000
    9        0.263123   1.000000
   10        4.870312   0.000000
   11        8.692778   0.000000
   12        9.810672   0.000000
   13       10.613746   0.000000
   14       11.003823   0.000000
 
  0.3333333E+00  0.1111111E+00  0.5551115E-16  0.3292181E-01
    1      -29.243866   1.000000
    2      -29.243077   1.000000
    3      -29.242853   1.000000
    4      -29.240715   1.000000
    5      -29.239776   1.000000
    6      -22.065004   1.000000
    7       -1.445641   1.000000
    8        0.112346   1.000000
    9        0.117726   1.000000
   10        5.656100   0.000000
   11        9.003624   0.000000
   12        9.159130   0.000000
   13       10.405265   0.000000
   14       11.853035   0.000000
 
  0.4444444E+00  0.1111111E+00  0.0000000E+00  0.3292181E-01
    1      -29.243990   1.000000
    2      -29.243389   1.000000
    3      -29.242242   1.000000
    4      -29.239594   1.000000
    5      -29.238734   1.000000
    6      -22.046360   1.000000
    7       -1.882671   1.000000
    8       -0.042806   1.000000
    9        0.067358   1.000000
   10        5.934372   0.000000
   11        8.756806   0.000000
   12       10.055374   0.000000
   13       10.217962   0.000000
   14       11.601979   0.000000
 
 -0.4444444E+00  0.1111111E+00  0.0000000E+00  0.3292181E-01
    1      -29.244022   1.000000
    2      -29.243553   1.000000
    3      -29.242017   1.000000
    4      -29.239037   1.000000
    5      -29.238808   1.000000
    6      -22.041054   1.000000
    7       -1.992767   1.000000
    8       -0.143564   1.000000
    9        0.107436   1.000000
   10        5.980049   0.000000
   11        8.697954   0.000000
   12        9.871088   0.000000
   13       10.952800   0.000000
   14       11.918026   0.000000
 
 -0.3333333E+00  0.1111111E+00 -0.2775558E-16  0.3292181E-01
    1      -29.243799   1.000000
    2      -29.243479   1.000000
    3      -29.242242   1.000000
    4      -29.239942   1.000000
    5      -29.239174   1.000000
    6      -22.051638   1.000000
    7       -1.763241   1.000000
    8       -0.137840   1.000000
    9        0.216805   1.000000
   10        5.902421   0.000000
   11        8.953456   0.000000
   12        9.934062   0.000000
   13        9.945150   0.000000
   14       11.835890   0.000000
 
 -0.2222222E+00  0.1111111E+00 -0.2775558E-16  0.3292181E-01
    1      -29.243484   1.000000
    2      -29.243163   1.000000
    3      -29.242886   1.000000
    4      -29.241586   1.000000
    5      -29.240186   1.000000
    6      -22.073029   1.000000
    7       -1.239646   1.000000
    8       -0.013665   1.000000
    9        0.349466   1.000101
   10        5.439990   0.000000
   11        8.995778   0.000000
   12        9.495527   0.000000
   13       10.252861   0.000000
   14       11.161396   0.000000
 
 -0.1111111E+00  0.1111111E+00 -0.2513991E-16  0.1646091E-01
    1      -29.243515   1.000000
    2      -29.243272   1.000000
    3      -29.243038   1.000000
    4      -29.242732   1.000000
    5      -29.241538   1.000000
    6      -22.095101   1.000000
    7       -0.565387   1.000000
    8        0.213969   1.000000
    9        0.442321   1.033837
   10        4.483718   0.000000
   11        8.975878   0.000000
   12       10.141548   0.000000
   13       10.374380   0.000000
   14       11.028685   0.000000
 
  0.2222222E+00  0.2222222E+00 -0.2775558E-16  0.8230453E-02
    1      -29.244572   1.000000
    2      -29.243354   1.000000
    3      -29.241509   1.000000
    4      -29.241244   1.000000
    5      -29.241243   1.000000
    6      -22.076890   1.000000
    7       -0.934001   1.000000
    8        0.054705   1.000000
    9        0.054707   1.000000
   10        5.469332   0.000000
   11        8.127473   0.000000
   12        9.327881   0.000000
   13       11.176344   0.000000
   14       11.176344   0.000000
 
  0.3333333E+00  0.2222222E+00  0.0000000E+00  0.3292181E-01
    1      -29.244501   1.000000
    2      -29.243496   1.000000
    3      -29.241574   1.000000
    4      -29.240138   1.000000
    5      -29.239621   1.000000
    6      -22.058081   1.000000
    7       -1.356725   1.000000
    8       -0.141790   1.000000
    9       -0.083914   1.000000
   10        6.109149   0.000000
   11        8.005566   0.000000
   12        8.956946   0.000000
   13       11.330359   0.000000
   14       11.964960   0.000000
 
  0.4444444E+00  0.2222222E+00  0.0000000E+00  0.3292181E-01
    1      -29.244298   1.000000
    2      -29.242877   1.000000
    3      -29.241918   1.000000
    4      -29.239597   1.000000
    5      -29.238552   1.000000
    6      -22.040442   1.000000
    7       -1.678174   1.000000
    8       -0.431626   1.000000
    9       -0.134376   1.000000
   10        6.495636   0.000000
   11        8.424906   0.000000
   12        8.922329   0.000000
   13       10.990202   0.000000
   14       12.803489   0.000000
 
 -0.4444444E+00  0.2222222E+00 -0.4163336E-16  0.3292181E-01
    1      -29.244231   1.000000
    2      -29.242182   1.000000
    3      -29.241646   1.000000
    4      -29.239746   1.000000
    5      -29.238625   1.000000
    6      -22.032311   1.000000
    7       -1.776123   1.000000
    8       -0.696085   1.000000
    9       -0.077937   1.000000
   10        6.710466   0.000000
   11        8.335231   0.000000
   12       10.154149   0.000000
   13       10.650229   0.000000
   14       11.961361   0.000000
 
 -0.3333333E+00  0.2222222E+00 -0.3469447E-16  0.3292181E-01
    1      -29.243977   1.000000
    2      -29.242301   1.000000
    3      -29.241290   1.000000
    4      -29.239733   1.000000
    5      -29.239701   1.000000
    6      -22.037563   1.000000
    7       -1.671439   1.000000
    8       -0.765754   1.000000
    9        0.064590   1.000000
   10        6.850402   0.000000
   11        8.332146   0.000000
   12        9.930046   0.000000
   13       10.475225   0.000000
   14       12.167155   0.000000
 
 -0.2222222E+00  0.2222222E+00 -0.2578440E-16  0.1646091E-01
    1      -29.243650   1.000000
    2      -29.242487   1.000000
    3      -29.242186   1.000000
    4      -29.241113   1.000000
    5      -29.239465   1.000000
    6      -22.053682   1.000000
    7       -1.477483   1.000000
    8       -0.507647   1.000000
    9        0.234467   1.000000
   10        6.436754   0.000000
   11        8.689622   0.000000
   12        9.040054   0.000000
   13       10.436049   0.000000
   14       11.234247   0.000000
 
  0.3333333E+00  0.3333333E+00  0.2775558E-16  0.8230453E-02
    1      -29.245160   1.000000
    2      -29.243866   1.000000
    3      -29.240564   1.000000
    4      -29.238986   1.000000
    5      -29.238986   1.000000
    6      -22.044879   1.000000
    7       -1.535389   1.000000
    8       -0.255283   1.000000
    9       -0.255282   1.000000
   10        6.066100   0.000000
   11        7.485214   0.000000
   12        9.678412   0.000000
   13       12.229570   0.000000
   14       12.229609   0.000000
 
  0.4444444E+00  0.3333333E+00  0.0000000E+00  0.3292181E-01
    1      -29.245028   1.000000
    2      -29.244028   1.000000
    3      -29.240506   1.000000
    4      -29.238447   1.000000
    5      -29.238171   1.000000
    6      -22.031564   1.000000
    7       -1.700102   1.000000
    8       -0.501388   1.000000
    9       -0.331949   1.000000
   10        6.138570   0.000000
   11        7.557417   0.000000
   12       10.093889   0.000000
   13       12.245762   0.000000
   14       13.032028   0.000000
 
 -0.4444444E+00  0.3333333E+00 -0.7632783E-16  0.3292181E-01
    1      -29.244640   1.000000
    2      -29.243006   1.000000
    3      -29.240738   1.000000
    4      -29.238776   1.000000
    5      -29.238211   1.000000
    6      -22.024404   1.000000
    7       -1.644741   1.000000
    8       -0.935204   1.000000
    9       -0.286344   1.000000
   10        6.424086   0.000000
   11        8.298951   0.000000
   12       10.089979   0.000000
   13       11.795928   0.000000
   14       11.979587   0.000000
 
 -0.3333333E+00  0.3333333E+00 -0.6519221E-16  0.1646091E-01
    1      -29.244307   1.000000
    2      -29.241297   1.000000
    3      -29.241248   1.000000
    4      -29.239872   1.000000
    5      -29.239001   1.000000
    6      -22.026791   1.000000
    7       -1.383655   1.000000
    8       -1.310195   1.000000
    9       -0.134358   1.000000
   10        6.808527   0.000000
   11        8.861461   0.000000
   12       10.329764   0.000000
   13       10.639707   0.000000
   14       11.216520   0.000000
 
  0.4444444E+00  0.4444444E+00 -0.5551115E-16  0.8230453E-02
    1      -29.245559   1.000000
    2      -29.244457   1.000000
    3      -29.239981   1.000000
    4      -29.237619   1.000000
    5      -29.237619   1.000000
    6      -22.023888   1.000000
    7       -1.834382   1.000000
    8       -0.441937   1.000000
    9       -0.441936   1.000000
   10        5.774835   0.000000
   11        7.163061   0.000000
   12       11.717656   0.000000
   13       13.208459   0.000000
   14       13.210045   0.000000
 
 -0.4444444E+00  0.4444444E+00 -0.5156881E-16  0.1646091E-01
    1      -29.245237   1.000000
    2      -29.244256   1.000000
    3      -29.240066   1.000000
    4      -29.237784   1.000000
    5      -29.237667   1.000000
    6      -22.021060   1.000000
    7       -1.805443   1.000000
    8       -0.643734   1.000000
    9       -0.424816   1.000000
   10        5.944407   0.000000
   11        7.405352   0.000000
   12       12.030500   0.000000
   13       12.124239   0.000000
   14       12.885566   0.000000
 
  0.3333333E+00  0.2222222E+00  0.1111111E+00  0.3292181E-01
    1      -29.243786   1.000000
    2      -29.243335   1.000000
    3      -29.242409   1.000000
    4      -29.241302   1.000000
    5      -29.240141   1.000000
    6      -22.070311   1.000000
    7       -1.172399   1.000000
    8       -0.117965   1.000000
    9        0.207830   1.000000
   10        5.736439   0.000000
   11        8.460699   0.000000
   12        9.092173   0.000000
   13       11.004845   0.000000
   14       11.094115   0.000000
 
  0.4444444E+00  0.2222222E+00  0.1111111E+00  0.6584362E-01
    1      -29.243731   1.000000
    2      -29.242981   1.000000
    3      -29.242372   1.000000
    4      -29.240194   1.000000
    5      -29.239217   1.000000
    6      -22.049937   1.000000
    7       -1.573070   1.000000
    8       -0.393688   1.000000
    9        0.081387   1.000000
   10        6.463877   0.000000
   11        8.490124   0.000000
   12        8.903587   0.000000
   13       10.705531   0.000000
   14       11.971842   0.000000
 
 -0.4444444E+00  0.2222222E+00  0.1111111E+00  0.6584362E-01
    1      -29.243888   1.000000
    2      -29.242925   1.000000
    3      -29.241612   1.000000
    4      -29.239733   1.000000
    5      -29.238731   1.000000
    6      -22.036561   1.000000
    7       -1.811352   1.000000
    8       -0.524341   1.000000
    9       -0.029698   1.000000
   10        6.704085   0.000000
   11        8.154516   0.000000
   12       10.144451   0.000000
   13       10.518417   0.000000
   14       12.274439   0.000000
 
  0.4444444E+00  0.3333333E+00  0.1111111E+00  0.3292181E-01
    1      -29.244365   1.000000
    2      -29.243707   1.000000
    3      -29.241359   1.000000
    4      -29.239079   1.000000
    5      -29.238997   1.000000
    6      -22.042016   1.000000
    7       -1.564744   1.000000
    8       -0.452985   1.000000
    9       -0.189985   1.000000
   10        6.505213   0.000000
   11        7.953480   0.000000
   12        8.930970   0.000000
   13       11.885547   0.000000
   14       12.253157   0.000000
 
 -0.4444444E+00  0.3333333E+00  0.1111111E+00  0.6584362E-01
    1      -29.244084   1.000000
    2      -29.242970   1.000000
    3      -29.241435   1.000000
    4      -29.239343   1.000000
    5      -29.238284   1.000000
    6      -22.029631   1.000000
    7       -1.633094   1.000000
    8       -0.786428   1.000000
    9       -0.291318   1.000000
   10        6.890015   0.000000
   11        8.407814   0.000000
   12        8.926911   0.000000
   13       11.618096   0.000000
   14       12.444330   0.000000
 
 -0.3333333E+00  0.3333333E+00  0.1111111E+00  0.6584362E-01
    1      -29.243925   1.000000
    2      -29.241971   1.000000
    3      -29.240992   1.000000
    4      -29.240554   1.000000
    5      -29.238342   1.000000
    6      -22.026789   1.000000
    7       -1.554125   1.000000
    8       -1.047439   1.000000
    9       -0.246196   1.000000
   10        7.234173   0.000000
   11        8.243986   0.000000
   12        9.982012   0.000000
   13       10.547865   0.000000
   14       11.789933   0.000000
 
 -0.2222222E+00  0.3333333E+00  0.1111111E+00  0.3292181E-01
    1      -29.243700   1.000000
    2      -29.242123   1.000000
    3      -29.242022   1.000000
    4      -29.239710   1.000000
    5      -29.239161   1.000000
    6      -22.034832   1.000000
    7       -1.559284   1.000000
    8       -0.890139   1.000000
    9       -0.083479   1.000000
   10        7.389542   0.000000
   11        7.979413   0.000000
   12        9.126128   0.000000
   13       11.171959   0.000000
   14       12.283396   0.000000
 
 -0.4444444E+00  0.4444444E+00  0.1111111E+00  0.3292181E-01
    1      -29.244728   1.000000
    2      -29.244086   1.000000
    3      -29.240379   1.000000
    4      -29.238489   1.000000
    5      -29.237684   1.000000
    6      -22.023497   1.000000
    7       -1.724388   1.000000
    8       -0.652737   1.000000
    9       -0.482039   1.000000
   10        6.272820   0.000000
   11        7.676500   0.000000
   12       10.420897   0.000000
   13       12.195317   0.000000
   14       13.330155   0.000000
 
 -0.3333333E+00  0.4444444E+00  0.1111111E+00  0.3292181E-01
    1      -29.244188   1.000000
    2      -29.243026   1.000000
    3      -29.240749   1.000000
    4      -29.239572   1.000000
    5      -29.237721   1.000000
    6      -22.021615   1.000000
    7       -1.553115   1.000000
    8       -1.026435   1.000000
    9       -0.444515   1.000000
   10        6.742615   0.000000
   11        8.410971   0.000000
   12        9.974121   0.000000
   13       10.755724   0.000000
   14       12.906384   0.000000
 
 -0.3333333E+00  0.4444444E+00  0.2222222E+00  0.3292181E-01
    1      -29.243456   1.000000
    2      -29.242352   1.000000
    3      -29.241371   1.000000
    4      -29.240481   1.000000
    5      -29.237695   1.000000
    6      -22.022560   1.000000
    7       -1.425989   1.000000
    8       -1.114175   1.000000
    9       -0.510365   1.000000
   10        7.500914   0.000000
   11        8.560687   0.000000
   12        9.015052   0.000000
   13       10.339470   0.000000
   14       13.341427   0.000000
