Og_FCC                                  
           1
     4.472379    0.000000    0.000000
     2.236190    3.873194   -0.000000
     2.236190    1.291065    3.651682
   Og
   1
Direct configuration=     1
   0.00000000  0.00000000  0.00000000
