Og_FCC                                  
           1
     4.502486    0.000000    0.000000
     2.251243    3.899267   -0.000000
     2.251243    1.299756    3.676264
   Og
   1
Direct configuration=     1
   0.00000000  0.00000000  0.00000000
Og_FCC                                  
           1
     4.502791    0.000000    0.000000
     2.251396    3.899532   -0.000000
     2.251396    1.299844    3.676514
   Og
   1
Direct configuration=     2
   0.00000000  0.00000000  0.00000000
Og_FCC                                  
           1
     4.508920    0.000000    0.000000
     2.254460    3.904839   -0.000000
     2.254460    1.301613    3.681517
   Og
   1
Direct configuration=     3
   0.00000000  0.00000000  0.00000000
Og_FCC                                  
           1
     4.506158    0.000000    0.000000
     2.253079    3.902447   -0.000000
     2.253079    1.300816    3.679263
   Og
   1
Direct configuration=     4
   0.00000000  0.00000000  0.00000000
