   1   1   0   0
  0.4557239E+02  0.4009334E-09  0.4009334E-09  0.4009334E-09  0.1000000E-15
  1.000000000000000E-004
  CAR 
 Og_FCC                                  
    117.76929474    -24.79097511  301     -3.64453508      1.00000000
    -24.791  0.0000E+00  0.0000E+00
    -24.316  0.0000E+00  0.0000E+00
    -23.841  0.0000E+00  0.0000E+00
    -23.365  0.0000E+00  0.0000E+00
    -22.890  0.0000E+00  0.0000E+00
    -22.415  0.0000E+00  0.0000E+00
    -21.940  0.0000E+00  0.0000E+00
    -21.465  0.0000E+00  0.0000E+00
    -20.989  0.0000E+00  0.0000E+00
    -20.514  0.0000E+00  0.0000E+00
    -20.039  0.0000E+00  0.0000E+00
    -19.564  0.0000E+00  0.0000E+00
    -19.089  0.0000E+00  0.0000E+00
    -18.613  0.0000E+00  0.0000E+00
    -18.138  0.3924E+00  0.8454E+00
    -17.663  0.0000E+00  0.2000E+01
    -17.188  0.0000E+00  0.2000E+01
    -16.713  0.0000E+00  0.2000E+01
    -16.237  0.0000E+00  0.2000E+01
    -15.762  0.0000E+00  0.2000E+01
    -15.287  0.0000E+00  0.2000E+01
    -14.812  0.0000E+00  0.2000E+01
    -14.337  0.0000E+00  0.2000E+01
    -13.861  0.0000E+00  0.2000E+01
    -13.386  0.0000E+00  0.2000E+01
    -12.911  0.0000E+00  0.2000E+01
    -12.436  0.0000E+00  0.2000E+01
    -11.961  0.0000E+00  0.2000E+01
    -11.485  0.0000E+00  0.2000E+01
    -11.010  0.0000E+00  0.2000E+01
    -10.535  0.0000E+00  0.2000E+01
    -10.060  0.0000E+00  0.2000E+01
     -9.585  0.0000E+00  0.2000E+01
     -9.109  0.0000E+00  0.2000E+01
     -8.634  0.0000E+00  0.2000E+01
     -8.159  0.0000E+00  0.2000E+01
     -7.684  0.0000E+00  0.2000E+01
     -7.209  0.0000E+00  0.2000E+01
     -6.733  0.0000E+00  0.2000E+01
     -6.258  0.0000E+00  0.2000E+01
     -5.783  0.0000E+00  0.2000E+01
     -5.308  0.0000E+00  0.2000E+01
     -4.833  0.8141E-11  0.3271E+01
     -4.357  0.0000E+00  0.4752E+01
     -3.882  0.0000E+00  0.7516E+01
     -3.407  0.0000E+00  0.8000E+01
     -2.932  0.0000E+00  0.8000E+01
     -2.457  0.0000E+00  0.8000E+01
     -1.981  0.0000E+00  0.8000E+01
     -1.506  0.0000E+00  0.8000E+01
     -1.031  0.0000E+00  0.8000E+01
     -0.556  0.0000E+00  0.8000E+01
     -0.081  0.0000E+00  0.8000E+01
      0.395  0.0000E+00  0.8000E+01
      0.870  0.0000E+00  0.8000E+01
      1.345  0.0000E+00  0.8000E+01
      1.820  0.0000E+00  0.8000E+01
      2.295  0.0000E+00  0.8000E+01
      2.771  0.0000E+00  0.8000E+01
      3.246  0.0000E+00  0.8000E+01
      3.721  0.0000E+00  0.8006E+01
      4.196  0.0000E+00  0.8052E+01
      4.671  0.0000E+00  0.8087E+01
      5.147  0.0000E+00  0.8157E+01
      5.622  0.8257E-10  0.8344E+01
      6.097  0.0000E+00  0.8671E+01
      6.572  0.0000E+00  0.9370E+01
      7.047  0.0000E+00  0.9965E+01
      7.523  0.0000E+00  0.1024E+02
      7.998  0.0000E+00  0.1105E+02
      8.473  0.0000E+00  0.1175E+02
      8.948  0.0000E+00  0.1258E+02
      9.423  0.0000E+00  0.1350E+02
      9.899  0.0000E+00  0.1391E+02
     10.374  0.0000E+00  0.1460E+02
     10.849  0.0000E+00  0.1534E+02
     11.324  0.1184E-01  0.1569E+02
     11.799  0.0000E+00  0.1631E+02
     12.275  0.0000E+00  0.1655E+02
     12.750  0.2945E+00  0.1732E+02
     13.225  0.0000E+00  0.1788E+02
     13.700  0.0000E+00  0.1836E+02
     14.175  0.0000E+00  0.1901E+02
     14.651  0.0000E+00  0.2001E+02
     15.126  0.0000E+00  0.2057E+02
     15.601  0.0000E+00  0.2128E+02
     16.076  0.0000E+00  0.2205E+02
     16.552  0.0000E+00  0.2299E+02
     17.027  0.1652E+00  0.2359E+02
     17.502  0.2945E+00  0.2402E+02
     17.977  0.0000E+00  0.2534E+02
     18.452  0.0000E+00  0.2609E+02
     18.928  0.0000E+00  0.2641E+02
     19.403  0.0000E+00  0.2708E+02
     19.878  0.0000E+00  0.2768E+02
     20.353  0.0000E+00  0.2841E+02
     20.828  0.0000E+00  0.2928E+02
     21.304  0.0000E+00  0.3012E+02
     21.779  0.2882E+00  0.3053E+02
     22.254  0.0000E+00  0.3135E+02
     22.729  0.1462E-06  0.3160E+02
     23.204  0.3284E-05  0.3272E+02
     23.680  0.0000E+00  0.3352E+02
     24.155  0.0000E+00  0.3409E+02
     24.630  0.2640E-13  0.3485E+02
     25.105  0.0000E+00  0.3597E+02
     25.580  0.2941E+00  0.3681E+02
     26.056  0.5890E+00  0.3800E+02
     26.531  0.0000E+00  0.3861E+02
     27.006  0.0000E+00  0.3959E+02
     27.481  0.0000E+00  0.4001E+02
     27.956  0.0000E+00  0.4111E+02
     28.432  0.0000E+00  0.4180E+02
     28.907  0.0000E+00  0.4226E+02
     29.382  0.0000E+00  0.4303E+02
     29.857  0.8228E-01  0.4449E+02
     30.332  0.0000E+00  0.4571E+02
     30.808  0.0000E+00  0.4649E+02
     31.283  0.0000E+00  0.4767E+02
     31.758  0.0000E+00  0.4854E+02
     32.233  0.0000E+00  0.4907E+02
     32.708  0.0000E+00  0.4948E+02
     33.184  0.2945E+00  0.5011E+02
     33.659  0.6910E-14  0.5095E+02
     34.134  0.0000E+00  0.5254E+02
     34.609  0.0000E+00  0.5345E+02
     35.084  0.0000E+00  0.5445E+02
     35.560  0.0000E+00  0.5569E+02
     36.035  0.0000E+00  0.5713E+02
     36.510  0.0000E+00  0.5758E+02
     36.985  0.0000E+00  0.5807E+02
     37.460  0.0000E+00  0.5882E+02
     37.936  0.0000E+00  0.5947E+02
     38.411  0.3334E-13  0.6102E+02
     38.886  0.0000E+00  0.6247E+02
     39.361  0.4417E+00  0.6348E+02
     39.836  0.2305E+00  0.6441E+02
     40.312  0.0000E+00  0.6507E+02
     40.787  0.0000E+00  0.6578E+02
     41.262  0.0000E+00  0.6685E+02
     41.737  0.0000E+00  0.6803E+02
     42.212  0.2729E+00  0.6883E+02
     42.688  0.0000E+00  0.6984E+02
     43.163  0.0000E+00  0.7110E+02
     43.638  0.0000E+00  0.7213E+02
     44.113  0.2945E+00  0.7391E+02
     44.588  0.0000E+00  0.7474E+02
     45.064  0.0000E+00  0.7554E+02
     45.539  0.0000E+00  0.7613E+02
     46.014  0.0000E+00  0.7659E+02
     46.489  0.0000E+00  0.7820E+02
     46.964  0.0000E+00  0.7920E+02
     47.440  0.0000E+00  0.8078E+02
     47.915  0.0000E+00  0.8164E+02
     48.390  0.0000E+00  0.8277E+02
     48.865  0.0000E+00  0.8388E+02
     49.340  0.0000E+00  0.8524E+02
     49.816  0.0000E+00  0.8661E+02
     50.291  0.0000E+00  0.8764E+02
     50.766  0.2945E+00  0.8858E+02
     51.241  0.2699E-02  0.8925E+02
     51.716  0.2945E+00  0.9049E+02
     52.192  0.0000E+00  0.9147E+02
     52.667  0.0000E+00  0.9234E+02
     53.142  0.1472E+00  0.9358E+02
     53.617  0.0000E+00  0.9517E+02
     54.092  0.0000E+00  0.9596E+02
     54.568  0.0000E+00  0.9749E+02
     55.043  0.0000E+00  0.9876E+02
     55.518  0.5890E+00  0.1005E+03
     55.993  0.0000E+00  0.1008E+03
     56.468  0.0000E+00  0.1023E+03
     56.944  0.0000E+00  0.1032E+03
     57.419  0.1280E+00  0.1044E+03
     57.894  0.0000E+00  0.1050E+03
     58.369  0.0000E+00  0.1062E+03
     58.844  0.0000E+00  0.1073E+03
     59.320  0.0000E+00  0.1086E+03
     59.795  0.0000E+00  0.1101E+03
     60.270  0.2945E+00  0.1118E+03
     60.745  0.0000E+00  0.1129E+03
     61.220  0.2945E+00  0.1140E+03
     61.696  0.0000E+00  0.1153E+03
     62.171  0.9041E-03  0.1166E+03
     62.646  0.0000E+00  0.1176E+03
     63.121  0.0000E+00  0.1184E+03
     63.596  0.0000E+00  0.1194E+03
     64.072  0.0000E+00  0.1202E+03
     64.547  0.0000E+00  0.1221E+03
     65.022  0.0000E+00  0.1238E+03
     65.497  0.0000E+00  0.1251E+03
     65.972  0.0000E+00  0.1261E+03
     66.448  0.0000E+00  0.1271E+03
     66.923  0.2945E+00  0.1281E+03
     67.398  0.0000E+00  0.1298E+03
     67.873  0.0000E+00  0.1314E+03
     68.348  0.0000E+00  0.1329E+03
     68.824  0.0000E+00  0.1337E+03
     69.299  0.6893E-01  0.1350E+03
     69.774  0.5890E+00  0.1357E+03
     70.249  0.0000E+00  0.1370E+03
     70.724  0.2585E+00  0.1390E+03
     71.200  0.2239E+00  0.1405E+03
     71.675  0.0000E+00  0.1413E+03
     72.150  0.0000E+00  0.1426E+03
     72.625  0.0000E+00  0.1439E+03
     73.100  0.2943E+00  0.1453E+03
     73.576  0.0000E+00  0.1463E+03
     74.051  0.0000E+00  0.1480E+03
     74.526  0.0000E+00  0.1493E+03
     75.001  0.2945E+00  0.1509E+03
     75.476  0.0000E+00  0.1519E+03
     75.952  0.4934E-10  0.1533E+03
     76.427  0.0000E+00  0.1545E+03
     76.902  0.0000E+00  0.1555E+03
     77.377  0.0000E+00  0.1566E+03
     77.852  0.0000E+00  0.1588E+03
     78.328  0.0000E+00  0.1603E+03
     78.803  0.9149E-05  0.1616E+03
     79.278  0.0000E+00  0.1629E+03
     79.753  0.0000E+00  0.1636E+03
     80.228  0.0000E+00  0.1653E+03
     80.704  0.3094E+00  0.1664E+03
     81.179  0.7362E-01  0.1681E+03
     81.654  0.0000E+00  0.1692E+03
     82.129  0.0000E+00  0.1707E+03
     82.604  0.0000E+00  0.1719E+03
     83.080  0.0000E+00  0.1738E+03
     83.555  0.0000E+00  0.1750E+03
     84.030  0.0000E+00  0.1763E+03
     84.505  0.1188E+00  0.1774E+03
     84.980  0.0000E+00  0.1789E+03
     85.456  0.0000E+00  0.1805E+03
     85.931  0.0000E+00  0.1820E+03
     86.406  0.1472E+00  0.1832E+03
     86.881  0.0000E+00  0.1847E+03
     87.356  0.0000E+00  0.1862E+03
     87.832  0.0000E+00  0.1878E+03
     88.307  0.2462E+00  0.1892E+03
     88.782  0.0000E+00  0.1909E+03
     89.257  0.0000E+00  0.1926E+03
     89.732  0.0000E+00  0.1937E+03
     90.208  0.0000E+00  0.1948E+03
     90.683  0.0000E+00  0.1960E+03
     91.158  0.0000E+00  0.1977E+03
     91.633  0.2945E+00  0.1990E+03
     92.108  0.6589E-04  0.2002E+03
     92.584  0.1245E-06  0.2014E+03
     93.059  0.7362E-01  0.2031E+03
     93.534  0.0000E+00  0.2043E+03
     94.009  0.9814E-01  0.2064E+03
     94.484  0.2945E+00  0.2077E+03
     94.960  0.0000E+00  0.2090E+03
     95.435  0.1134E-02  0.2112E+03
     95.910  0.0000E+00  0.2131E+03
     96.385  0.0000E+00  0.2146E+03
     96.860  0.8032E-06  0.2160E+03
     97.336  0.2945E+00  0.2170E+03
     97.811  0.3436E+00  0.2187E+03
     98.286  0.2945E+00  0.2199E+03
     98.761  0.0000E+00  0.2213E+03
     99.236  0.0000E+00  0.2228E+03
     99.712  0.0000E+00  0.2239E+03
    100.187  0.0000E+00  0.2247E+03
    100.662  0.2945E+00  0.2267E+03
    101.137  0.1472E+00  0.2286E+03
    101.612  0.4352E-13  0.2301E+03
    102.088  0.2945E+00  0.2314E+03
    102.563  0.0000E+00  0.2330E+03
    103.038  0.0000E+00  0.2350E+03
    103.513  0.0000E+00  0.2369E+03
    103.988  0.2947E+00  0.2389E+03
    104.464  0.9779E-04  0.2406E+03
    104.939  0.0000E+00  0.2420E+03
    105.414  0.0000E+00  0.2433E+03
    105.889  0.0000E+00  0.2444E+03
    106.364  0.0000E+00  0.2458E+03
    106.840  0.0000E+00  0.2476E+03
    107.315  0.0000E+00  0.2488E+03
    107.790  0.5844E+00  0.2497E+03
    108.265  0.0000E+00  0.2510E+03
    108.740  0.0000E+00  0.2521E+03
    109.216  0.0000E+00  0.2537E+03
    109.691  0.0000E+00  0.2537E+03
    110.166  0.0000E+00  0.2545E+03
    110.641  0.0000E+00  0.2553E+03
    111.116  0.0000E+00  0.2559E+03
    111.592  0.0000E+00  0.2560E+03
    112.067  0.0000E+00  0.2560E+03
    112.542  0.0000E+00  0.2560E+03
    113.017  0.0000E+00  0.2560E+03
    113.492  0.0000E+00  0.2560E+03
    113.968  0.0000E+00  0.2560E+03
    114.443  0.0000E+00  0.2560E+03
    114.918  0.0000E+00  0.2560E+03
    115.393  0.0000E+00  0.2560E+03
    115.868  0.0000E+00  0.2560E+03
    116.344  0.0000E+00  0.2560E+03
    116.819  0.0000E+00  0.2560E+03
    117.294  0.0000E+00  0.2560E+03
    117.769  0.0000E+00  0.2560E+03
