<?xml version="1.0" encoding="ISO-8859-1"?>
<modeling>
 <generator>
  <i name="program" type="string">vasp </i>
  <i name="version" type="string">5.4.4.18Apr17-6-g9f103f2a35  </i>
  <i name="subversion" type="string">(build Nov 03 2018 10:20:46) complex            parallel </i>
  <i name="platform" type="string">LinuxIFC </i>
  <i name="date" type="string">2018 12 14 </i>
  <i name="time" type="string">04:23:31 </i>
 </generator>
 <incar>
  <i type="string" name="SYSTEM">   Og_FCC</i>
  <i type="string" name="PREC">accurate</i>
  <i type="string" name="ALGO">   EXACT</i>
  <i type="logical" name="ADDGRID"> T  </i>
  <i type="logical" name="LSORBIT"> F  </i>
  <i type="int" name="ISPIN">     1</i>
  <i type="int" name="MAXMIX">    50</i>
  <i type="int" name="NELM">    50</i>
  <i type="int" name="NELMDL">    -5</i>
  <i type="int" name="NELMIN">     2</i>
  <i type="int" name="IBRION">    -1</i>
  <i type="int" name="NFREE">     5</i>
  <i name="EDIFF">      0.00000001</i>
  <i name="EDIFFG">      0.00001000</i>
  <i type="int" name="NSW">     1</i>
  <i type="int" name="ISIF">     3</i>
  <i type="int" name="ISYM">     0</i>
  <i name="SYMPREC">      0.00000010</i>
  <i name="ENCUT">    300.00000000</i>
  <i type="int" name="NBANDS">   128</i>
  <i name="POTIM">      0.10000000</i>
  <i type="logical" name="LREAL"> F  </i>
  <i type="int" name="ISMEAR">     0</i>
  <i name="SIGMA">      0.00100000</i>
  <i type="int" name="NWRITE">     2</i>
  <i type="logical" name="LWAVE"> T  </i>
  <i type="logical" name="LCHARG"> F  </i>
  <i type="logical" name="LVTOT"> F  </i>
  <i type="logical" name="LOPTICS"> T  </i>
  <i type="logical" name="GGA_COMPAT"> F  </i>
  <v type="int" name="KPOINT_BSE">    -1     0     0     0</v>
  <i type="int" name="NELM">    50</i>
  <i type="string" name="GGA"> PE</i>
 </incar>
 <structure name="primitive_cell" >
  <crystal>
   <varray name="basis" >
    <v>       4.00933418       0.00000000       0.00000000 </v>
    <v>       2.00466709       3.47218525      -0.00000000 </v>
    <v>       2.00466709       1.15739508       3.27360765 </v>
   </varray>
   <i name="volume">     45.57238633 </i>
   <varray name="rec_basis" >
    <v>       0.24941797      -0.14400153      -0.10182446 </v>
    <v>       0.00000000       0.28800307      -0.10182446 </v>
    <v>      -0.00000000       0.00000000       0.30547338 </v>
   </varray>
  </crystal>
  <varray name="positions" >
   <v>       0.00000000       0.00000000       0.00000000 </v>
  </varray>
 </structure>
 <varray name="primitive_index" >
  <v type="int" >        1 </v>
 </varray>
 <kpoints>
  <generation param="Gamma">
   <v type="int" name="divisions">       7        7        7 </v>
   <v name="usershift">      0.00000000       0.00000000       0.00000000 </v>
   <v name="genvec1">      0.14285714      -0.00000000       0.00000000 </v>
   <v name="genvec2">      0.00000000       0.14285714       0.00000000 </v>
   <v name="genvec3">      0.00000000       0.00000000       0.14285714 </v>
   <v name="shift">      0.00000000       0.00000000       0.00000000 </v>
  </generation>
  <varray name="kpointlist" >
   <v>       0.00000000       0.00000000       0.00000000 </v>
   <v>       0.14285714      -0.00000000       0.00000000 </v>
   <v>       0.28571429       0.00000000       0.00000000 </v>
   <v>       0.42857143       0.00000000       0.00000000 </v>
   <v>      -0.00000000       0.14285714       0.00000000 </v>
   <v>       0.14285714       0.14285714       0.00000000 </v>
   <v>       0.28571429       0.14285714       0.00000000 </v>
   <v>       0.42857143       0.14285714       0.00000000 </v>
   <v>      -0.42857143       0.14285714      -0.00000000 </v>
   <v>      -0.28571429       0.14285714      -0.00000000 </v>
   <v>      -0.14285714       0.14285714      -0.00000000 </v>
   <v>       0.00000000       0.28571429      -0.00000000 </v>
   <v>       0.14285714       0.28571429       0.00000000 </v>
   <v>       0.28571429       0.28571429       0.00000000 </v>
   <v>       0.42857143       0.28571429       0.00000000 </v>
   <v>      -0.42857143       0.28571429      -0.00000000 </v>
   <v>      -0.28571429       0.28571429      -0.00000000 </v>
   <v>      -0.14285714       0.28571429      -0.00000000 </v>
   <v>       0.00000000       0.42857143       0.00000000 </v>
   <v>       0.14285714       0.42857143      -0.00000000 </v>
   <v>       0.28571429       0.42857143       0.00000000 </v>
   <v>       0.42857143       0.42857143       0.00000000 </v>
   <v>      -0.42857143       0.42857143      -0.00000000 </v>
   <v>      -0.28571429       0.42857143       0.00000000 </v>
   <v>      -0.14285714       0.42857143      -0.00000000 </v>
   <v>       0.00000000       0.00000000       0.14285714 </v>
   <v>       0.14285714       0.00000000       0.14285714 </v>
   <v>       0.28571429      -0.00000000       0.14285714 </v>
   <v>       0.42857143      -0.00000000       0.14285714 </v>
   <v>      -0.42857143      -0.00000000       0.14285714 </v>
   <v>      -0.28571429      -0.00000000       0.14285714 </v>
   <v>      -0.14285714       0.00000000       0.14285714 </v>
   <v>      -0.00000000       0.14285714       0.14285714 </v>
   <v>       0.14285714       0.14285714       0.14285714 </v>
   <v>       0.28571429       0.14285714       0.14285714 </v>
   <v>       0.42857143       0.14285714       0.14285714 </v>
   <v>      -0.42857143       0.14285714       0.14285714 </v>
   <v>      -0.28571429       0.14285714       0.14285714 </v>
   <v>      -0.14285714       0.14285714       0.14285714 </v>
   <v>      -0.00000000       0.28571429       0.14285714 </v>
   <v>       0.14285714       0.28571429       0.14285714 </v>
   <v>       0.28571429       0.28571429       0.14285714 </v>
   <v>       0.42857143       0.28571429       0.14285714 </v>
   <v>      -0.42857143       0.28571429       0.14285714 </v>
   <v>      -0.28571429       0.28571429       0.14285714 </v>
   <v>      -0.14285714       0.28571429       0.14285714 </v>
   <v>      -0.00000000       0.42857143       0.14285714 </v>
   <v>       0.14285714       0.42857143       0.14285714 </v>
   <v>       0.28571429       0.42857143       0.14285714 </v>
   <v>       0.42857143       0.42857143       0.14285714 </v>
   <v>      -0.42857143       0.42857143       0.14285714 </v>
   <v>      -0.28571429       0.42857143       0.14285714 </v>
   <v>      -0.14285714       0.42857143       0.14285714 </v>
   <v>      -0.00000000      -0.42857143       0.14285714 </v>
   <v>       0.14285714      -0.42857143       0.14285714 </v>
   <v>       0.28571429      -0.42857143       0.14285714 </v>
   <v>       0.42857143      -0.42857143       0.14285714 </v>
   <v>      -0.42857143      -0.42857143       0.14285714 </v>
   <v>      -0.28571429      -0.42857143       0.14285714 </v>
   <v>      -0.14285714      -0.42857143       0.14285714 </v>
   <v>       0.00000000      -0.28571429       0.14285714 </v>
   <v>       0.14285714      -0.28571429       0.14285714 </v>
   <v>       0.28571429      -0.28571429       0.14285714 </v>
   <v>       0.42857143      -0.28571429       0.14285714 </v>
   <v>      -0.42857143      -0.28571429       0.14285714 </v>
   <v>      -0.28571429      -0.28571429       0.14285714 </v>
   <v>      -0.14285714      -0.28571429       0.14285714 </v>
   <v>      -0.00000000      -0.14285714       0.14285714 </v>
   <v>       0.14285714      -0.14285714       0.14285714 </v>
   <v>       0.28571429      -0.14285714       0.14285714 </v>
   <v>       0.42857143      -0.14285714       0.14285714 </v>
   <v>      -0.42857143      -0.14285714       0.14285714 </v>
   <v>      -0.28571429      -0.14285714       0.14285714 </v>
   <v>      -0.14285714      -0.14285714       0.14285714 </v>
   <v>       0.00000000       0.00000000       0.28571429 </v>
   <v>       0.14285714       0.00000000       0.28571429 </v>
   <v>       0.28571429       0.00000000       0.28571429 </v>
   <v>       0.42857143       0.00000000       0.28571429 </v>
   <v>      -0.42857143       0.00000000       0.28571429 </v>
   <v>      -0.28571429       0.00000000       0.28571429 </v>
   <v>      -0.14285714       0.00000000       0.28571429 </v>
   <v>       0.00000000       0.14285714       0.28571429 </v>
   <v>       0.14285714       0.14285714       0.28571429 </v>
   <v>       0.28571429       0.14285714       0.28571429 </v>
   <v>       0.42857143       0.14285714       0.28571429 </v>
   <v>      -0.42857143       0.14285714       0.28571429 </v>
   <v>      -0.28571429       0.14285714       0.28571429 </v>
   <v>      -0.14285714       0.14285714       0.28571429 </v>
   <v>      -0.00000000       0.28571429       0.28571429 </v>
   <v>       0.14285714       0.28571429       0.28571429 </v>
   <v>       0.28571429       0.28571429       0.28571429 </v>
   <v>       0.42857143       0.28571429       0.28571429 </v>
   <v>      -0.42857143       0.28571429       0.28571429 </v>
   <v>      -0.28571429       0.28571429       0.28571429 </v>
   <v>      -0.14285714       0.28571429       0.28571429 </v>
   <v>       0.00000000       0.42857143       0.28571429 </v>
   <v>       0.14285714       0.42857143       0.28571429 </v>
   <v>       0.28571429       0.42857143       0.28571429 </v>
   <v>       0.42857143       0.42857143       0.28571429 </v>
   <v>      -0.42857143       0.42857143       0.28571429 </v>
   <v>      -0.28571429       0.42857143       0.28571429 </v>
   <v>      -0.14285714       0.42857143       0.28571429 </v>
   <v>      -0.00000000      -0.42857143       0.28571429 </v>
   <v>       0.14285714      -0.42857143       0.28571429 </v>
   <v>       0.28571429      -0.42857143       0.28571429 </v>
   <v>       0.42857143      -0.42857143       0.28571429 </v>
   <v>      -0.42857143      -0.42857143       0.28571429 </v>
   <v>      -0.28571429      -0.42857143       0.28571429 </v>
   <v>      -0.14285714      -0.42857143       0.28571429 </v>
   <v>       0.00000000      -0.28571429       0.28571429 </v>
   <v>       0.14285714      -0.28571429       0.28571429 </v>
   <v>       0.28571429      -0.28571429       0.28571429 </v>
   <v>       0.42857143      -0.28571429       0.28571429 </v>
   <v>      -0.42857143      -0.28571429       0.28571429 </v>
   <v>      -0.28571429      -0.28571429       0.28571429 </v>
   <v>      -0.14285714      -0.28571429       0.28571429 </v>
   <v>      -0.00000000      -0.14285714       0.28571429 </v>
   <v>       0.14285714      -0.14285714       0.28571429 </v>
   <v>       0.28571429      -0.14285714       0.28571429 </v>
   <v>       0.42857143      -0.14285714       0.28571429 </v>
   <v>      -0.42857143      -0.14285714       0.28571429 </v>
   <v>      -0.28571429      -0.14285714       0.28571429 </v>
   <v>      -0.14285714      -0.14285714       0.28571429 </v>
   <v>       0.00000000      -0.00000000       0.42857143 </v>
   <v>       0.14285714       0.00000000       0.42857143 </v>
   <v>       0.28571429       0.00000000       0.42857143 </v>
   <v>       0.42857143       0.00000000       0.42857143 </v>
   <v>      -0.42857143       0.00000000       0.42857143 </v>
   <v>      -0.28571429       0.00000000       0.42857143 </v>
   <v>      -0.14285714       0.00000000       0.42857143 </v>
   <v>       0.00000000       0.14285714       0.42857143 </v>
   <v>       0.14285714       0.14285714       0.42857143 </v>
   <v>       0.28571429       0.14285714       0.42857143 </v>
   <v>       0.42857143       0.14285714       0.42857143 </v>
   <v>      -0.42857143       0.14285714       0.42857143 </v>
   <v>      -0.28571429       0.14285714       0.42857143 </v>
   <v>      -0.14285714       0.14285714       0.42857143 </v>
   <v>       0.00000000       0.28571429       0.42857143 </v>
   <v>       0.14285714       0.28571429       0.42857143 </v>
   <v>       0.28571429       0.28571429       0.42857143 </v>
   <v>       0.42857143       0.28571429       0.42857143 </v>
   <v>      -0.42857143       0.28571429       0.42857143 </v>
   <v>      -0.28571429       0.28571429       0.42857143 </v>
   <v>      -0.14285714       0.28571429       0.42857143 </v>
   <v>       0.00000000       0.42857143       0.42857143 </v>
   <v>       0.14285714       0.42857143       0.42857143 </v>
   <v>       0.28571429       0.42857143       0.42857143 </v>
   <v>       0.42857143       0.42857143       0.42857143 </v>
   <v>      -0.42857143       0.42857143       0.42857143 </v>
   <v>      -0.28571429       0.42857143       0.42857143 </v>
   <v>      -0.14285714       0.42857143       0.42857143 </v>
   <v>       0.00000000      -0.42857143       0.42857143 </v>
   <v>       0.14285714      -0.42857143       0.42857143 </v>
   <v>       0.28571429      -0.42857143       0.42857143 </v>
   <v>       0.42857143      -0.42857143       0.42857143 </v>
   <v>      -0.42857143      -0.42857143       0.42857143 </v>
   <v>      -0.28571429      -0.42857143       0.42857143 </v>
   <v>      -0.14285714      -0.42857143       0.42857143 </v>
   <v>      -0.00000000      -0.28571429       0.42857143 </v>
   <v>       0.14285714      -0.28571429       0.42857143 </v>
   <v>       0.28571429      -0.28571429       0.42857143 </v>
   <v>       0.42857143      -0.28571429       0.42857143 </v>
   <v>      -0.42857143      -0.28571429       0.42857143 </v>
   <v>      -0.28571429      -0.28571429       0.42857143 </v>
   <v>      -0.14285714      -0.28571429       0.42857143 </v>
   <v>       0.00000000      -0.14285714       0.42857143 </v>
   <v>       0.14285714      -0.14285714       0.42857143 </v>
   <v>       0.28571429      -0.14285714       0.42857143 </v>
   <v>       0.42857143      -0.14285714       0.42857143 </v>
   <v>      -0.42857143      -0.14285714       0.42857143 </v>
   <v>      -0.28571429      -0.14285714       0.42857143 </v>
   <v>      -0.14285714      -0.14285714       0.42857143 </v>
  </varray>
  <varray name="weights" >
   <v>       0.00291545 </v>
   <v>       0.00583090 </v>
   <v>       0.00583090 </v>
   <v>       0.00583090 </v>
   <v>       0.00583090 </v>
   <v>       0.00583090 </v>
   <v>       0.00583090 </v>
   <v>       0.00583090 </v>
   <v>       0.00583090 </v>
   <v>       0.00583090 </v>
   <v>       0.00583090 </v>
   <v>       0.00583090 </v>
   <v>       0.00583090 </v>
   <v>       0.00583090 </v>
   <v>       0.00583090 </v>
   <v>       0.00583090 </v>
   <v>       0.00583090 </v>
   <v>       0.00583090 </v>
   <v>       0.00583090 </v>
   <v>       0.00583090 </v>
   <v>       0.00583090 </v>
   <v>       0.00583090 </v>
   <v>       0.00583090 </v>
   <v>       0.00583090 </v>
   <v>       0.00583090 </v>
   <v>       0.00583090 </v>
   <v>       0.00583090 </v>
   <v>       0.00583090 </v>
   <v>       0.00583090 </v>
   <v>       0.00583090 </v>
   <v>       0.00583090 </v>
   <v>       0.00583090 </v>
   <v>       0.00583090 </v>
   <v>       0.00583090 </v>
   <v>       0.00583090 </v>
   <v>       0.00583090 </v>
   <v>       0.00583090 </v>
   <v>       0.00583090 </v>
   <v>       0.00583090 </v>
   <v>       0.00583090 </v>
   <v>       0.00583090 </v>
   <v>       0.00583090 </v>
   <v>       0.00583090 </v>
   <v>       0.00583090 </v>
   <v>       0.00583090 </v>
   <v>       0.00583090 </v>
   <v>       0.00583090 </v>
   <v>       0.00583090 </v>
   <v>       0.00583090 </v>
   <v>       0.00583090 </v>
   <v>       0.00583090 </v>
   <v>       0.00583090 </v>
   <v>       0.00583090 </v>
   <v>       0.00583090 </v>
   <v>       0.00583090 </v>
   <v>       0.00583090 </v>
   <v>       0.00583090 </v>
   <v>       0.00583090 </v>
   <v>       0.00583090 </v>
   <v>       0.00583090 </v>
   <v>       0.00583090 </v>
   <v>       0.00583090 </v>
   <v>       0.00583090 </v>
   <v>       0.00583090 </v>
   <v>       0.00583090 </v>
   <v>       0.00583090 </v>
   <v>       0.00583090 </v>
   <v>       0.00583090 </v>
   <v>       0.00583090 </v>
   <v>       0.00583090 </v>
   <v>       0.00583090 </v>
   <v>       0.00583090 </v>
   <v>       0.00583090 </v>
   <v>       0.00583090 </v>
   <v>       0.00583090 </v>
   <v>       0.00583090 </v>
   <v>       0.00583090 </v>
   <v>       0.00583090 </v>
   <v>       0.00583090 </v>
   <v>       0.00583090 </v>
   <v>       0.00583090 </v>
   <v>       0.00583090 </v>
   <v>       0.00583090 </v>
   <v>       0.00583090 </v>
   <v>       0.00583090 </v>
   <v>       0.00583090 </v>
   <v>       0.00583090 </v>
   <v>       0.00583090 </v>
   <v>       0.00583090 </v>
   <v>       0.00583090 </v>
   <v>       0.00583090 </v>
   <v>       0.00583090 </v>
   <v>       0.00583090 </v>
   <v>       0.00583090 </v>
   <v>       0.00583090 </v>
   <v>       0.00583090 </v>
   <v>       0.00583090 </v>
   <v>       0.00583090 </v>
   <v>       0.00583090 </v>
   <v>       0.00583090 </v>
   <v>       0.00583090 </v>
   <v>       0.00583090 </v>
   <v>       0.00583090 </v>
   <v>       0.00583090 </v>
   <v>       0.00583090 </v>
   <v>       0.00583090 </v>
   <v>       0.00583090 </v>
   <v>       0.00583090 </v>
   <v>       0.00583090 </v>
   <v>       0.00583090 </v>
   <v>       0.00583090 </v>
   <v>       0.00583090 </v>
   <v>       0.00583090 </v>
   <v>       0.00583090 </v>
   <v>       0.00583090 </v>
   <v>       0.00583090 </v>
   <v>       0.00583090 </v>
   <v>       0.00583090 </v>
   <v>       0.00583090 </v>
   <v>       0.00583090 </v>
   <v>       0.00583090 </v>
   <v>       0.00583090 </v>
   <v>       0.00583090 </v>
   <v>       0.00583090 </v>
   <v>       0.00583090 </v>
   <v>       0.00583090 </v>
   <v>       0.00583090 </v>
   <v>       0.00583090 </v>
   <v>       0.00583090 </v>
   <v>       0.00583090 </v>
   <v>       0.00583090 </v>
   <v>       0.00583090 </v>
   <v>       0.00583090 </v>
   <v>       0.00583090 </v>
   <v>       0.00583090 </v>
   <v>       0.00583090 </v>
   <v>       0.00583090 </v>
   <v>       0.00583090 </v>
   <v>       0.00583090 </v>
   <v>       0.00583090 </v>
   <v>       0.00583090 </v>
   <v>       0.00583090 </v>
   <v>       0.00583090 </v>
   <v>       0.00583090 </v>
   <v>       0.00583090 </v>
   <v>       0.00583090 </v>
   <v>       0.00583090 </v>
   <v>       0.00583090 </v>
   <v>       0.00583090 </v>
   <v>       0.00583090 </v>
   <v>       0.00583090 </v>
   <v>       0.00583090 </v>
   <v>       0.00583090 </v>
   <v>       0.00583090 </v>
   <v>       0.00583090 </v>
   <v>       0.00583090 </v>
   <v>       0.00583090 </v>
   <v>       0.00583090 </v>
   <v>       0.00583090 </v>
   <v>       0.00583090 </v>
   <v>       0.00583090 </v>
   <v>       0.00583090 </v>
   <v>       0.00583090 </v>
   <v>       0.00583090 </v>
   <v>       0.00583090 </v>
   <v>       0.00583090 </v>
   <v>       0.00583090 </v>
   <v>       0.00583090 </v>
   <v>       0.00583090 </v>
   <v>       0.00583090 </v>
   <v>       0.00583090 </v>
   <v>       0.00583090 </v>
  </varray>
 </kpoints>
 <parameters>
  <separator name="general" >
   <i type="string" name="SYSTEM">Og_FCC</i>
   <i type="logical" name="LCOMPAT"> F  </i>
  </separator>
  <separator name="electronic" >
   <i type="string" name="PREC">accura</i>
   <i name="ENMAX">    300.00000000</i>
   <i name="ENAUG">    554.76500000</i>
   <i name="EDIFF">      0.00000001</i>
   <i type="int" name="IALGO">    90</i>
   <i type="int" name="IWAVPR">    10</i>
   <i type="int" name="NBANDS">   128</i>
   <i name="NELECT">      8.00000000</i>
   <i type="int" name="TURBO">     0</i>
   <i type="int" name="IRESTART">     0</i>
   <i type="int" name="NREBOOT">     0</i>
   <i type="int" name="NMIN">     0</i>
   <i name="EREF">      0.00000000</i>
   <separator name="electronic smearing" >
    <i type="int" name="ISMEAR">     0</i>
    <i name="SIGMA">      0.00100000</i>
    <i name="KSPACING">      0.50000000</i>
    <i type="logical" name="KGAMMA"> T  </i>
   </separator>
   <separator name="electronic projectors" >
    <i type="logical" name="LREAL"> F  </i>
    <v name="ROPT">      0.00000000</v>
    <i type="int" name="LMAXPAW">  -100</i>
    <i type="int" name="LMAXMIX">     2</i>
    <i type="logical" name="NLSPLINE"> F  </i>
   </separator>
   <separator name="electronic startup" >
    <i type="int" name="ISTART">     1</i>
    <i type="int" name="ICHARG">     0</i>
    <i type="int" name="INIWAV">     1</i>
   </separator>
   <separator name="electronic spin" >
    <i type="int" name="ISPIN">     1</i>
    <i type="logical" name="LNONCOLLINEAR"> F  </i>
    <v name="MAGMOM">      1.00000000</v>
    <i name="NUPDOWN">     -1.00000000</i>
    <i type="logical" name="LSORBIT"> F  </i>
    <v name="SAXIS">      0.00000000      0.00000000      1.00000000</v>
    <i type="logical" name="LSPIRAL"> F  </i>
    <v name="QSPIRAL">      0.00000000      0.00000000      0.00000000</v>
    <i type="logical" name="LZEROZ"> F  </i>
   </separator>
   <separator name="electronic exchange-correlation" >
    <i type="logical" name="LASPH"> F  </i>
    <i type="logical" name="LMETAGGA"> F  </i>
   </separator>
   <separator name="electronic convergence" >
    <i type="int" name="NELM">    50</i>
    <i type="int" name="NELMDL">    -5</i>
    <i type="int" name="NELMIN">     2</i>
    <i name="ENINI">    300.00000000</i>
    <separator name="electronic convergence detail" >
     <i type="logical" name="LDIAG"> T  </i>
     <i type="logical" name="LSUBROT"> F  </i>
     <i name="WEIMIN">      0.00000000</i>
     <i name="EBREAK">      0.00000000</i>
     <i name="DEPER">      0.30000000</i>
     <i type="int" name="NRMM">     4</i>
     <i name="TIME">      0.40000000</i>
    </separator>
   </separator>
   <separator name="electronic mixer" >
    <i name="AMIX">      0.40000000</i>
    <i name="BMIX">      1.00000000</i>
    <i name="AMIN">      0.10000000</i>
    <i name="AMIX_MAG">      1.60000000</i>
    <i name="BMIX_MAG">      1.00000000</i>
    <separator name="electronic mixer details" >
     <i type="int" name="IMIX">     4</i>
     <i type="logical" name="MIXFIRST"> F  </i>
     <i type="int" name="MAXMIX">    50</i>
     <i name="WC">    100.00000000</i>
     <i type="int" name="INIMIX">     1</i>
     <i type="int" name="MIXPRE">     1</i>
     <i type="int" name="MREMOVE">     5</i>
    </separator>
   </separator>
   <separator name="electronic dipolcorrection" >
    <i type="logical" name="LDIPOL"> F  </i>
    <i type="logical" name="LMONO"> F  </i>
    <i type="int" name="IDIPOL">     0</i>
    <i name="EPSILON">      1.00000000</i>
    <v name="DIPOL">   -100.00000000   -100.00000000   -100.00000000</v>
    <i name="EFIELD">      0.00000000</i>
   </separator>
  </separator>
  <separator name="grids" >
   <i type="int" name="NGX">    24</i>
   <i type="int" name="NGY">    24</i>
   <i type="int" name="NGZ">    24</i>
   <i type="int" name="NGXF">    48</i>
   <i type="int" name="NGYF">    48</i>
   <i type="int" name="NGZF">    48</i>
   <i type="logical" name="ADDGRID"> T  </i>
  </separator>
  <separator name="ionic" >
   <i type="int" name="NSW">     1</i>
   <i type="int" name="IBRION">    -1</i>
   <i type="int" name="MDALGO">     0</i>
   <i type="int" name="ISIF">     3</i>
   <i name="PSTRESS">      0.00000000</i>
   <i name="EDIFFG">      0.00001000</i>
   <i type="int" name="NFREE">     5</i>
   <i name="POTIM">      0.10000000</i>
   <i name="SMASS">     -3.00000000</i>
   <i name="SCALEE">      1.00000000</i>
  </separator>
  <separator name="ionic md" >
   <i name="TEBEG">      0.00010000</i>
   <i name="TEEND">      0.00010000</i>
   <i type="int" name="NBLOCK">     1</i>
   <i type="int" name="KBLOCK">     1</i>
   <i type="int" name="NPACO">   256</i>
   <i name="APACO">     16.00000000</i>
  </separator>
  <separator name="symmetry" >
   <i type="int" name="ISYM">     0</i>
   <i name="SYMPREC">      0.00000010</i>
  </separator>
  <separator name="dos" >
   <i type="int" name="LORBIT">     0</i>
   <v name="RWIGS">     -1.00000000</v>
   <i type="int" name="NEDOS">   301</i>
   <i name="EMIN">     10.00000000</i>
   <i name="EMAX">    -10.00000000</i>
   <i name="EFERMI">      0.00000000</i>
  </separator>
  <separator name="writing" >
   <i type="int" name="NWRITE">     2</i>
   <i type="logical" name="LWAVE"> T  </i>
   <i type="logical" name="LDOWNSAMPLE"> F  </i>
   <i type="logical" name="LCHARG"> F  </i>
   <i type="logical" name="LPARD"> F  </i>
   <i type="logical" name="LVTOT"> F  </i>
   <i type="logical" name="LVHAR"> F  </i>
   <i type="logical" name="LELF"> F  </i>
   <i type="logical" name="LOPTICS"> T  </i>
   <v name="STM">      0.00000000      0.00000000      0.00000000      0.00000000      0.00000000      0.00000000      0.00000000</v>
  </separator>
  <separator name="performance" >
   <i type="int" name="NPAR">     4</i>
   <i type="int" name="NSIM">     4</i>
   <i type="int" name="NBLK">    -1</i>
   <i type="logical" name="LPLANE"> T  </i>
   <i type="logical" name="LSCALAPACK"> T  </i>
   <i type="logical" name="LSCAAWARE"> T  </i>
   <i type="logical" name="LSCALU"> F  </i>
   <i type="logical" name="LASYNC"> F  </i>
   <i type="logical" name="LORBITALREAL"> F  </i>
  </separator>
  <separator name="miscellaneous" >
   <i type="int" name="IDIOT">     3</i>
   <i type="int" name="ISPECIAL">     0</i>
   <i type="logical" name="LMUSIC"> F  </i>
   <v name="POMASS">     83.80000000</v>
   <v name="DARWINR">      0.00000000</v>
   <v name="DARWINV">      1.00000000</v>
   <i type="logical" name="LCORR"> T  </i>
  </separator>
  <i type="logical" name="GGA_COMPAT"> F  </i>
  <i type="logical" name="LBERRY"> F  </i>
  <i type="int" name="ICORELEVEL">     0</i>
  <i type="logical" name="LDAU"> F  </i>
  <i type="int" name="I_CONSTRAINED_M">     0</i>
  <separator name="electronic exchange-correlation" >
   <i type="string" name="GGA">PE</i>
   <i type="int" name="VOSKOWN">     0</i>
   <i type="logical" name="LHFCALC"> F  </i>
   <i type="string" name="PRECFOCK"></i>
   <i type="logical" name="LSYMGRAD"> F  </i>
   <i type="logical" name="LHFONE"> F  </i>
   <i type="logical" name="LRHFCALC"> F  </i>
   <i type="logical" name="LTHOMAS"> F  </i>
   <i type="logical" name="LMODELHF"> F  </i>
   <i name="ENCUT4O">     -1.00000000</i>
   <i type="int" name="EXXOEP">     0</i>
   <i type="int" name="FOURORBIT">     0</i>
   <i name="AEXX">      0.00000000</i>
   <i name="HFALPHA">      0.00000000</i>
   <i name="MCALPHA">      0.00000000</i>
   <i name="ALDAX">      1.00000000</i>
   <i name="AGGAX">      1.00000000</i>
   <i name="ALDAC">      1.00000000</i>
   <i name="AGGAC">      1.00000000</i>
   <i type="int" name="NKREDX">     1</i>
   <i type="int" name="NKREDY">     1</i>
   <i type="int" name="NKREDZ">     1</i>
   <i type="logical" name="SHIFTRED"> F  </i>
   <i type="logical" name="ODDONLY"> F  </i>
   <i type="logical" name="EVENONLY"> F  </i>
   <i type="int" name="LMAXFOCK">     0</i>
   <i type="int" name="NMAXFOCKAE">     0</i>
   <i type="logical" name="LFOCKAEDFT"> F  </i>
   <i name="HFSCREEN">      0.00000000</i>
   <i name="HFSCREENC">      0.00000000</i>
   <i type="int" name="NBANDSGWLOW">     0</i>
  </separator>
  <separator name="vdW DFT" >
   <i type="logical" name="LUSE_VDW"> F  </i>
   <i name="Zab_VDW">     -0.84910000</i>
   <i name="PARAM1">      0.12340000</i>
   <i name="PARAM2">      1.00000000</i>
   <i name="PARAM3">      0.00000000</i>
  </separator>
  <separator name="model GW" >
   <i type="int" name="MODEL_GW">     0</i>
   <i name="MODEL_EPS0">     27.34343180</i>
   <i name="MODEL_ALPHA">      1.00000000</i>
  </separator>
  <separator name="linear response parameters" >
   <i type="logical" name="LEPSILON"> F  </i>
   <i type="logical" name="LRPA"> F  </i>
   <i type="logical" name="LNABLA"> F  </i>
   <i type="logical" name="LVEL"> F  </i>
   <i type="int" name="KINTER">     0</i>
   <i name="CSHIFT">      0.10000000</i>
   <i name="OMEGAMAX">     -1.00000000</i>
   <i name="DEG_THRESHOLD">      0.00200000</i>
   <i name="RTIME">     -0.10000000</i>
   <i name="WPLASMAI">      0.00000000</i>
   <v name="DFIELD">      0.00000000      0.00000000      0.00000000</v>
   <v name="WPLASMA">      0.00000000      0.00000000      0.00000000      0.00000000      0.00000000      0.00000000      0.00000000      0.00000000      0.00000000</v>
  </separator>
  <separator name="orbital magnetization" >
   <i type="logical" name="NUCIND"> F  </i>
   <v name="MAGPOS">      0.00000000      0.00000000      0.00000000</v>
   <i type="logical" name="LNICSALL"> T  </i>
   <i type="logical" name="ORBITALMAG"> F  </i>
   <i type="logical" name="LMAGBLOCH"> F  </i>
   <i type="logical" name="LCHIMAG"> F  </i>
   <i type="logical" name="LGAUGE"> T  </i>
   <i type="int" name="MAGATOM">     0</i>
   <v name="MAGDIPOL">      0.00000000      0.00000000      0.00000000</v>
   <v name="AVECCONST">      0.00000000      0.00000000      0.00000000</v>
  </separator>
  <separator name="response functions" >
   <i type="logical" name="LADDER"> F  </i>
   <i type="logical" name="LRPAFORCE"> F  </i>
   <i type="logical" name="LFXC"> F  </i>
   <i type="logical" name="LHARTREE"> T  </i>
   <i type="int" name="IBSE">     0</i>
   <v type="int" name="KPOINT">    -1     0     0     0</v>
   <i type="logical" name="LTCTE"> F  </i>
   <i type="logical" name="LTETE"> F  </i>
   <i type="logical" name="LTRIPLET"> F  </i>
   <i type="logical" name="LFXCEPS"> F  </i>
   <i type="logical" name="LFXHEG"> F  </i>
   <i type="int" name="NATURALO">     2</i>
   <i type="logical" name="L2ORDER"> F  </i>
   <i type="logical" name="LMP2LT"> F  </i>
   <i type="logical" name="LUSEW"> F  </i>
   <i name="ENCUTGW">     -2.00000000</i>
   <i name="ENCUTGWSOFT">     -2.00000000</i>
   <i name="ENCUTLF">     -1.00000000</i>
   <i type="int" name="LMAXMP2">    -1</i>
   <i name="SCISSOR">      0.00000000</i>
   <i type="int" name="NOMEGA">     0</i>
   <i type="int" name="NOMEGAR">     0</i>
   <i type="int" name="NBANDSGW">    -1</i>
   <i type="int" name="NBANDSO">    -1</i>
   <i type="int" name="NBANDSV">    -1</i>
   <i type="int" name="NELM">    50</i>
   <i type="int" name="NELMHF">     1</i>
   <i type="int" name="DIM">     3</i>
   <i type="int" name="ANTIRES">     0</i>
   <i name="OMEGAMAX">    -30.00000000</i>
   <i name="OMEGAMIN">    -30.00000000</i>
   <i name="OMEGATL">   -200.00000000</i>
   <i type="int" name="OMEGAGRID">   140</i>
   <i name="CSHIFT">     -0.10000000</i>
   <i type="logical" name="SELFENERGY"> F  </i>
   <i type="logical" name="LSPECTRAL"> F  </i>
   <i type="logical" name="LSPECTRALGW"> F  </i>
   <i type="logical" name="LSINGLES"> F  </i>
   <i type="logical" name="LFERMIGW"> F  </i>
   <i type="logical" name="ODDONLYGW"> F  </i>
   <i type="logical" name="EVENONLYGW"> F  </i>
   <i type="int" name="NKREDLFX">     1</i>
   <i type="int" name="NKREDLFY">     1</i>
   <i type="int" name="NKREDLFZ">     1</i>
   <i type="int" name="MAXMEM">  2800</i>
   <i type="int" name="TELESCOPE">     0</i>
   <i type="int" name="TAUPAR">     1</i>
   <i type="int" name="OMEGAPAR">    -1</i>
   <i name="LAMBDA">      1.00000000</i>
  </separator>
  <separator name="External order field" >
   <i name="OFIELD_KAPPA">      0.00000000</i>
   <v name="OFIELD_K">      0.00000000      0.00000000      0.00000000</v>
   <i name="OFIELD_Q6_NEAR">      0.00000000</i>
   <i name="OFIELD_Q6_FAR">      0.00000000</i>
   <i name="OFIELD_A">      0.00000000</i>
  </separator>
 </parameters>
 <atominfo>
  <atoms>       1 </atoms>
  <types>       1 </types>
  <array name="atoms" >
   <dimension dim="1">ion</dimension>
   <field type="string">element</field>
   <field type="int">atomtype</field>
   <set>
    <rc><c>Kr</c><c>   1</c></rc>
   </set>
  </array>
  <array name="atomtypes" >
   <dimension dim="1">type</dimension>
   <field type="int">atomspertype</field>
   <field type="string">element</field>
   <field>mass</field>
   <field>valence</field>
   <field type="string">pseudopotential</field>
   <set>
    <rc><c>   1</c><c>Kr</c><c>     83.80000000</c><c>      8.00000000</c><c>  PAW_PBE Kr_GW 21Aug2013               </c></rc>
   </set>
  </array>
 </atominfo>
 <structure name="initialpos" >
  <crystal>
   <varray name="basis" >
    <v>       4.00933418       0.00000000       0.00000000 </v>
    <v>       2.00466709       3.47218525      -0.00000000 </v>
    <v>       2.00466709       1.15739508       3.27360765 </v>
   </varray>
   <i name="volume">     45.57238633 </i>
   <varray name="rec_basis" >
    <v>       0.24941797      -0.14400153      -0.10182446 </v>
    <v>       0.00000000       0.28800307      -0.10182446 </v>
    <v>      -0.00000000       0.00000000       0.30547338 </v>
   </varray>
  </crystal>
  <varray name="positions" >
   <v>       0.00000000       0.00000000       0.00000000 </v>
  </varray>
  <varray name="velocities" >
   <v>       0.00000000       0.00000000       0.00000000 </v>
  </varray>
 </structure>
 <calculation>
  <scstep>
   <time name="diag">   27.03   27.02</time>
   <time name="total">   27.05   27.04</time>
   <energy>
    <i name="alphaZ">      9.21045435 </i>
    <i name="ewald">   -372.60190661 </i>
    <i name="hartreedc">   -100.47808642 </i>
    <i name="XCdc">     14.66868009 </i>
    <i name="pawpsdc">    410.13528992 </i>
    <i name="pawaedc">   -405.26993330 </i>
    <i name="eentropy">      0.00000000 </i>
    <i name="bandstr">    -62.38694337 </i>
    <i name="atom">    506.70785905 </i>
    <i name="e_fr_energy">     -0.01458629 </i>
    <i name="e_wo_entrp">     -0.01458629 </i>
    <i name="e_0_energy">     -0.01458629 </i>
   </energy>
  </scstep>
  <scstep>
   <time name="diag">   27.01   27.00</time>
   <time name="total">   27.01   27.01</time>
   <energy>
    <i name="e_fr_energy">     -0.01458629 </i>
    <i name="e_wo_entrp">     -0.01458629 </i>
    <i name="e_0_energy">     -0.01458629 </i>
   </energy>
  </scstep>
  <scstep>
   <time name="diag">   26.99   26.98</time>
   <time name="total">   27.00   26.99</time>
   <energy>
    <i name="e_fr_energy">     -0.01458629 </i>
    <i name="e_wo_entrp">     -0.01458629 </i>
    <i name="e_0_energy">     -0.01458629 </i>
   </energy>
  </scstep>
  <scstep>
   <time name="diag">   27.24   27.24</time>
   <time name="total">   27.24   27.24</time>
   <energy>
    <i name="e_fr_energy">     -0.01458629 </i>
    <i name="e_wo_entrp">     -0.01458629 </i>
    <i name="e_0_energy">     -0.01458629 </i>
   </energy>
  </scstep>
  <scstep>
   <time name="diag">   27.02   27.01</time>
   <time name="total">   27.04   27.03</time>
   <energy>
    <i name="e_fr_energy">     -0.01458629 </i>
    <i name="e_wo_entrp">     -0.01458629 </i>
    <i name="e_0_energy">     -0.01458629 </i>
   </energy>
  </scstep>
  <scstep>
   <time name="diag">   27.03   27.02</time>
   <time name="total">   27.04   27.05</time>
   <energy>
    <i name="alphaZ">      9.21045435 </i>
    <i name="ewald">   -372.60190661 </i>
    <i name="hartreedc">   -100.47806437 </i>
    <i name="XCdc">     14.66867878 </i>
    <i name="pawpsdc">    410.13519841 </i>
    <i name="pawaedc">   -405.26984102 </i>
    <i name="eentropy">      0.00000000 </i>
    <i name="bandstr">    -62.38696487 </i>
    <i name="atom">    506.70785905 </i>
    <i name="e_fr_energy">     -0.01458629 </i>
    <i name="e_wo_entrp">     -0.01458629 </i>
    <i name="e_0_energy">     -0.01458629 </i>
   </energy>
  </scstep>
  <structure>
   <crystal>
    <varray name="basis" >
     <v>       4.00933418       0.00000000       0.00000000 </v>
     <v>       2.00466709       3.47218525      -0.00000000 </v>
     <v>       2.00466709       1.15739508       3.27360765 </v>
    </varray>
    <i name="volume">     45.57238633 </i>
    <varray name="rec_basis" >
     <v>       0.24941797      -0.14400153      -0.10182446 </v>
     <v>       0.00000000       0.28800307      -0.10182446 </v>
     <v>      -0.00000000       0.00000000       0.30547338 </v>
    </varray>
   </crystal>
   <varray name="positions" >
    <v>       0.00000000       0.00000000       0.00000000 </v>
   </varray>
  </structure>
  <varray name="forces" >
   <v>      -0.00000000      -0.00000000      -0.00000000 </v>
  </varray>
  <varray name="stress" >
   <v>       2.62605935      -0.00009454      -0.00006722 </v>
   <v>      -0.00009455       2.62616792      -0.00003742 </v>
   <v>      -0.00006706      -0.00003751       2.62619535 </v>
  </varray>
  <energy>
   <i name="e_fr_energy">     -0.13871406 </i>
   <i name="e_wo_entrp">     -0.13871406 </i>
   <i name="e_0_energy">      0.00000000 </i>
  </energy>
  <time name="totalsc">  163.83  163.99</time>
  <eigenvalues>
   <array>
    <dimension dim="1">band</dimension>
    <dimension dim="2">kpoint</dimension>
    <dimension dim="3">spin</dimension>
    <field>eigene</field>
    <field>occ</field>
    <set>
     <set comment="spin 1">
      <set comment="kpoint 1">
       <r>  -18.3110    1.0000 </r>
       <r>   -3.7465    1.0000 </r>
       <r>   -3.7465    1.0000 </r>
       <r>   -3.7465    1.0000 </r>
       <r>    3.5239    0.0000 </r>
       <r>    9.9047    0.0000 </r>
       <r>    9.9047    0.0000 </r>
       <r>    9.9047    0.0000 </r>
       <r>   12.3823    0.0000 </r>
       <r>   12.3823    0.0000 </r>
       <r>   13.6176    0.0000 </r>
       <r>   16.1697    0.0000 </r>
       <r>   16.1697    0.0000 </r>
       <r>   16.1697    0.0000 </r>
       <r>   18.2231    0.0000 </r>
       <r>   26.7061    0.0000 </r>
       <r>   26.7061    0.0000 </r>
       <r>   26.7061    0.0000 </r>
       <r>   27.6846    0.0000 </r>
       <r>   27.6846    0.0000 </r>
       <r>   27.6846    0.0000 </r>
       <r>   30.6466    0.0000 </r>
       <r>   30.6466    0.0000 </r>
       <r>   31.5220    0.0000 </r>
       <r>   31.5220    0.0000 </r>
       <r>   31.5220    0.0000 </r>
       <r>   33.7527    0.0000 </r>
       <r>   40.7293    0.0000 </r>
       <r>   40.7293    0.0000 </r>
       <r>   41.7134    0.0000 </r>
       <r>   41.7134    0.0000 </r>
       <r>   41.7134    0.0000 </r>
       <r>   42.7085    0.0000 </r>
       <r>   43.6983    0.0000 </r>
       <r>   43.6983    0.0000 </r>
       <r>   43.6983    0.0000 </r>
       <r>   44.6158    0.0000 </r>
       <r>   44.6158    0.0000 </r>
       <r>   44.6158    0.0000 </r>
       <r>   47.2178    0.0000 </r>
       <r>   47.2178    0.0000 </r>
       <r>   47.2178    0.0000 </r>
       <r>   47.4622    0.0000 </r>
       <r>   47.4622    0.0000 </r>
       <r>   47.4622    0.0000 </r>
       <r>   48.6587    0.0000 </r>
       <r>   49.8419    0.0000 </r>
       <r>   49.8419    0.0000 </r>
       <r>   49.8419    0.0000 </r>
       <r>   50.5820    0.0000 </r>
       <r>   50.5820    0.0000 </r>
       <r>   53.7044    0.0000 </r>
       <r>   53.7044    0.0000 </r>
       <r>   53.7044    0.0000 </r>
       <r>   53.7670    0.0000 </r>
       <r>   54.1928    0.0000 </r>
       <r>   54.1928    0.0000 </r>
       <r>   54.1928    0.0000 </r>
       <r>   54.4691    0.0000 </r>
       <r>   67.8983    0.0000 </r>
       <r>   67.8983    0.0000 </r>
       <r>   68.5845    0.0000 </r>
       <r>   68.5845    0.0000 </r>
       <r>   68.5845    0.0000 </r>
       <r>   71.3014    0.0000 </r>
       <r>   72.1415    0.0000 </r>
       <r>   72.1415    0.0000 </r>
       <r>   72.1415    0.0000 </r>
       <r>   73.7055    0.0000 </r>
       <r>   73.7055    0.0000 </r>
       <r>   73.7055    0.0000 </r>
       <r>   76.5833    0.0000 </r>
       <r>   76.5833    0.0000 </r>
       <r>   77.6458    0.0000 </r>
       <r>   77.6458    0.0000 </r>
       <r>   77.6458    0.0000 </r>
       <r>   79.1298    0.0000 </r>
       <r>   83.7858    0.0000 </r>
       <r>   83.7858    0.0000 </r>
       <r>   83.7858    0.0000 </r>
       <r>   83.9159    0.0000 </r>
       <r>   83.9159    0.0000 </r>
       <r>   83.9159    0.0000 </r>
       <r>   85.7261    0.0000 </r>
       <r>   85.7261    0.0000 </r>
       <r>   85.7261    0.0000 </r>
       <r>   86.5075    0.0000 </r>
       <r>   86.5075    0.0000 </r>
       <r>   86.8616    0.0000 </r>
       <r>   86.8616    0.0000 </r>
       <r>   87.3388    0.0000 </r>
       <r>   87.3388    0.0000 </r>
       <r>   87.3388    0.0000 </r>
       <r>   87.7878    0.0000 </r>
       <r>   88.0480    0.0000 </r>
       <r>   88.0480    0.0000 </r>
       <r>   88.0480    0.0000 </r>
       <r>   89.2267    0.0000 </r>
       <r>   89.2267    0.0000 </r>
       <r>   89.2267    0.0000 </r>
       <r>   90.4983    0.0000 </r>
       <r>   91.3358    0.0000 </r>
       <r>   91.3358    0.0000 </r>
       <r>   91.3358    0.0000 </r>
       <r>   91.3525    0.0000 </r>
       <r>   91.3525    0.0000 </r>
       <r>   91.3525    0.0000 </r>
       <r>   91.7040    0.0000 </r>
       <r>   91.7040    0.0000 </r>
       <r>   91.7040    0.0000 </r>
       <r>   91.8898    0.0000 </r>
       <r>   91.8898    0.0000 </r>
       <r>   94.1011    0.0000 </r>
       <r>  101.4556    0.0000 </r>
       <r>  103.7672    0.0000 </r>
       <r>  103.7672    0.0000 </r>
       <r>  103.7672    0.0000 </r>
       <r>  104.4735    0.0000 </r>
       <r>  104.4735    0.0000 </r>
       <r>  104.4735    0.0000 </r>
       <r>  106.4710    0.0000 </r>
       <r>  106.4710    0.0000 </r>
       <r>  106.4710    0.0000 </r>
       <r>  106.8052    0.0000 </r>
       <r>  106.8052    0.0000 </r>
       <r>  106.8052    0.0000 </r>
       <r>  106.9404    0.0000 </r>
       <r>  106.9404    0.0000 </r>
      </set>
      <set comment="kpoint 2">
       <r>  -18.2783    1.0000 </r>
       <r>   -4.0709    1.0000 </r>
       <r>   -3.7789    1.0000 </r>
       <r>   -3.7789    1.0000 </r>
       <r>    4.0822    0.0000 </r>
       <r>    9.2135    0.0000 </r>
       <r>   10.1001    0.0000 </r>
       <r>   10.1001    0.0000 </r>
       <r>   11.9329    0.0000 </r>
       <r>   11.9329    0.0000 </r>
       <r>   14.4438    0.0000 </r>
       <r>   15.4656    0.0000 </r>
       <r>   17.4340    0.0000 </r>
       <r>   17.4340    0.0000 </r>
       <r>   20.1784    0.0000 </r>
       <r>   23.3627    0.0000 </r>
       <r>   24.3083    0.0000 </r>
       <r>   24.3083    0.0000 </r>
       <r>   28.0455    0.0000 </r>
       <r>   28.0455    0.0000 </r>
       <r>   29.7723    0.0000 </r>
       <r>   29.7723    0.0000 </r>
       <r>   29.8821    0.0000 </r>
       <r>   31.7085    0.0000 </r>
       <r>   34.7498    0.0000 </r>
       <r>   34.7498    0.0000 </r>
       <r>   35.1643    0.0000 </r>
       <r>   37.7767    0.0000 </r>
       <r>   37.7767    0.0000 </r>
       <r>   38.2983    0.0000 </r>
       <r>   41.0073    0.0000 </r>
       <r>   41.4849    0.0000 </r>
       <r>   41.4849    0.0000 </r>
       <r>   42.9462    0.0000 </r>
       <r>   43.3193    0.0000 </r>
       <r>   43.3193    0.0000 </r>
       <r>   43.8829    0.0000 </r>
       <r>   44.5067    0.0000 </r>
       <r>   44.5067    0.0000 </r>
       <r>   46.3443    0.0000 </r>
       <r>   46.3443    0.0000 </r>
       <r>   46.8802    0.0000 </r>
       <r>   47.9851    0.0000 </r>
       <r>   49.2514    0.0000 </r>
       <r>   49.2514    0.0000 </r>
       <r>   49.6465    0.0000 </r>
       <r>   49.6465    0.0000 </r>
       <r>   50.3004    0.0000 </r>
       <r>   51.4422    0.0000 </r>
       <r>   51.5046    0.0000 </r>
       <r>   52.5519    0.0000 </r>
       <r>   52.5519    0.0000 </r>
       <r>   52.9335    0.0000 </r>
       <r>   55.3674    0.0000 </r>
       <r>   55.3674    0.0000 </r>
       <r>   57.1229    0.0000 </r>
       <r>   57.1423    0.0000 </r>
       <r>   57.1423    0.0000 </r>
       <r>   61.7717    0.0000 </r>
       <r>   63.3765    0.0000 </r>
       <r>   63.3765    0.0000 </r>
       <r>   65.0320    0.0000 </r>
       <r>   66.8251    0.0000 </r>
       <r>   66.8251    0.0000 </r>
       <r>   69.0282    0.0000 </r>
       <r>   71.9887    0.0000 </r>
       <r>   73.3239    0.0000 </r>
       <r>   73.3239    0.0000 </r>
       <r>   74.3439    0.0000 </r>
       <r>   74.3439    0.0000 </r>
       <r>   74.8246    0.0000 </r>
       <r>   75.8757    0.0000 </r>
       <r>   76.6053    0.0000 </r>
       <r>   76.6053    0.0000 </r>
       <r>   78.1222    0.0000 </r>
       <r>   78.1222    0.0000 </r>
       <r>   79.2145    0.0000 </r>
       <r>   79.2145    0.0000 </r>
       <r>   79.4315    0.0000 </r>
       <r>   81.6146    0.0000 </r>
       <r>   82.3187    0.0000 </r>
       <r>   82.3187    0.0000 </r>
       <r>   82.7666    0.0000 </r>
       <r>   83.7939    0.0000 </r>
       <r>   83.7939    0.0000 </r>
       <r>   83.9448    0.0000 </r>
       <r>   84.7628    0.0000 </r>
       <r>   84.7628    0.0000 </r>
       <r>   85.5263    0.0000 </r>
       <r>   86.2781    0.0000 </r>
       <r>   86.2781    0.0000 </r>
       <r>   86.5461    0.0000 </r>
       <r>   87.0421    0.0000 </r>
       <r>   87.0421    0.0000 </r>
       <r>   87.9778    0.0000 </r>
       <r>   87.9778    0.0000 </r>
       <r>   88.1964    0.0000 </r>
       <r>   90.1113    0.0000 </r>
       <r>   91.6584    0.0000 </r>
       <r>   92.2454    0.0000 </r>
       <r>   92.2454    0.0000 </r>
       <r>   92.9710    0.0000 </r>
       <r>   93.1188    0.0000 </r>
       <r>   93.1188    0.0000 </r>
       <r>   93.8818    0.0000 </r>
       <r>   93.8818    0.0000 </r>
       <r>   93.9284    0.0000 </r>
       <r>   95.1365    0.0000 </r>
       <r>   95.8953    0.0000 </r>
       <r>   95.8953    0.0000 </r>
       <r>   96.7788    0.0000 </r>
       <r>   96.7788    0.0000 </r>
       <r>   97.6771    0.0000 </r>
       <r>   99.5481    0.0000 </r>
       <r>   99.9040    0.0000 </r>
       <r>   99.9040    0.0000 </r>
       <r>  100.3919    0.0000 </r>
       <r>  100.3919    0.0000 </r>
       <r>  101.6541    0.0000 </r>
       <r>  101.8010    0.0000 </r>
       <r>  102.0638    0.0000 </r>
       <r>  102.0638    0.0000 </r>
       <r>  105.6512    0.0000 </r>
       <r>  106.0433    0.0000 </r>
       <r>  106.0433    0.0000 </r>
       <r>  107.1884    0.0000 </r>
       <r>  107.1884    0.0000 </r>
       <r>  107.9897    0.0000 </r>
      </set>
      <set comment="kpoint 3">
       <r>  -18.2034    1.0000 </r>
       <r>   -4.6984    1.0000 </r>
       <r>   -3.8497    1.0000 </r>
       <r>   -3.8497    1.0000 </r>
       <r>    5.2076    0.0000 </r>
       <r>    8.5206    0.0000 </r>
       <r>    9.9619    0.0000 </r>
       <r>    9.9619    0.0000 </r>
       <r>   12.3348    0.0000 </r>
       <r>   12.3348    0.0000 </r>
       <r>   13.5013    0.0000 </r>
       <r>   18.0825    0.0000 </r>
       <r>   19.3590    0.0000 </r>
       <r>   20.0837    0.0000 </r>
       <r>   20.0837    0.0000 </r>
       <r>   20.7952    0.0000 </r>
       <r>   20.7952    0.0000 </r>
       <r>   24.1135    0.0000 </r>
       <r>   28.1699    0.0000 </r>
       <r>   28.1699    0.0000 </r>
       <r>   29.8573    0.0000 </r>
       <r>   29.8573    0.0000 </r>
       <r>   30.0227    0.0000 </r>
       <r>   32.1950    0.0000 </r>
       <r>   33.2277    0.0000 </r>
       <r>   33.2277    0.0000 </r>
       <r>   33.5164    0.0000 </r>
       <r>   37.0270    0.0000 </r>
       <r>   38.7588    0.0000 </r>
       <r>   38.7588    0.0000 </r>
       <r>   40.0835    0.0000 </r>
       <r>   40.0835    0.0000 </r>
       <r>   40.2208    0.0000 </r>
       <r>   41.1960    0.0000 </r>
       <r>   41.6962    0.0000 </r>
       <r>   41.6962    0.0000 </r>
       <r>   42.3970    0.0000 </r>
       <r>   42.8001    0.0000 </r>
       <r>   44.9277    0.0000 </r>
       <r>   44.9277    0.0000 </r>
       <r>   47.0173    0.0000 </r>
       <r>   47.0173    0.0000 </r>
       <r>   48.6545    0.0000 </r>
       <r>   49.7574    0.0000 </r>
       <r>   49.7574    0.0000 </r>
       <r>   51.0284    0.0000 </r>
       <r>   53.4103    0.0000 </r>
       <r>   53.4103    0.0000 </r>
       <r>   54.6754    0.0000 </r>
       <r>   55.3721    0.0000 </r>
       <r>   55.3721    0.0000 </r>
       <r>   56.1249    0.0000 </r>
       <r>   58.1253    0.0000 </r>
       <r>   58.6250    0.0000 </r>
       <r>   58.6250    0.0000 </r>
       <r>   60.4737    0.0000 </r>
       <r>   60.4737    0.0000 </r>
       <r>   60.5675    0.0000 </r>
       <r>   60.7528    0.0000 </r>
       <r>   60.7528    0.0000 </r>
       <r>   61.2275    0.0000 </r>
       <r>   62.5775    0.0000 </r>
       <r>   62.5775    0.0000 </r>
       <r>   63.0762    0.0000 </r>
       <r>   69.8469    0.0000 </r>
       <r>   70.0385    0.0000 </r>
       <r>   70.0385    0.0000 </r>
       <r>   70.3630    0.0000 </r>
       <r>   71.0383    0.0000 </r>
       <r>   72.2373    0.0000 </r>
       <r>   72.2373    0.0000 </r>
       <r>   75.0610    0.0000 </r>
       <r>   75.0610    0.0000 </r>
       <r>   75.6227    0.0000 </r>
       <r>   75.9984    0.0000 </r>
       <r>   76.0878    0.0000 </r>
       <r>   76.0878    0.0000 </r>
       <r>   77.3063    0.0000 </r>
       <r>   77.3063    0.0000 </r>
       <r>   79.2472    0.0000 </r>
       <r>   80.0464    0.0000 </r>
       <r>   80.0464    0.0000 </r>
       <r>   80.7285    0.0000 </r>
       <r>   83.8441    0.0000 </r>
       <r>   84.4649    0.0000 </r>
       <r>   84.4649    0.0000 </r>
       <r>   85.8054    0.0000 </r>
       <r>   85.8055    0.0000 </r>
       <r>   85.8552    0.0000 </r>
       <r>   86.3502    0.0000 </r>
       <r>   86.3502    0.0000 </r>
       <r>   86.6388    0.0000 </r>
       <r>   87.3704    0.0000 </r>
       <r>   87.3811    0.0000 </r>
       <r>   87.3811    0.0000 </r>
       <r>   88.1985    0.0000 </r>
       <r>   88.2330    0.0000 </r>
       <r>   88.2330    0.0000 </r>
       <r>   91.1304    0.0000 </r>
       <r>   91.1304    0.0000 </r>
       <r>   93.7942    0.0000 </r>
       <r>   94.8729    0.0000 </r>
       <r>   94.8729    0.0000 </r>
       <r>   95.9915    0.0000 </r>
       <r>   96.1980    0.0000 </r>
       <r>   96.2506    0.0000 </r>
       <r>   96.2506    0.0000 </r>
       <r>   96.7514    0.0000 </r>
       <r>   96.7514    0.0000 </r>
       <r>   97.2767    0.0000 </r>
       <r>   97.8051    0.0000 </r>
       <r>   97.8051    0.0000 </r>
       <r>   99.1222    0.0000 </r>
       <r>   99.5488    0.0000 </r>
       <r>  100.5507    0.0000 </r>
       <r>  101.4723    0.0000 </r>
       <r>  101.4723    0.0000 </r>
       <r>  102.2849    0.0000 </r>
       <r>  102.2849    0.0000 </r>
       <r>  104.5415    0.0000 </r>
       <r>  104.7306    0.0000 </r>
       <r>  104.7306    0.0000 </r>
       <r>  105.7921    0.0000 </r>
       <r>  106.2424    0.0000 </r>
       <r>  106.4377    0.0000 </r>
       <r>  106.4377    0.0000 </r>
       <r>  107.7182    0.0000 </r>
       <r>  107.7182    0.0000 </r>
      </set>
      <set comment="kpoint 4">
       <r>  -18.1418    1.0000 </r>
       <r>   -5.1344    1.0000 </r>
       <r>   -3.9047    1.0000 </r>
       <r>   -3.9047    1.0000 </r>
       <r>    5.8265    0.0000 </r>
       <r>    8.6431    0.0000 </r>
       <r>    9.5720    0.0000 </r>
       <r>    9.5720    0.0000 </r>
       <r>   13.2852    0.0000 </r>
       <r>   13.9070    0.0000 </r>
       <r>   13.9070    0.0000 </r>
       <r>   16.3877    0.0000 </r>
       <r>   17.7799    0.0000 </r>
       <r>   17.7799    0.0000 </r>
       <r>   22.0678    0.0000 </r>
       <r>   23.4121    0.0000 </r>
       <r>   23.4121    0.0000 </r>
       <r>   26.3240    0.0000 </r>
       <r>   26.7511    0.0000 </r>
       <r>   26.7511    0.0000 </r>
       <r>   28.4098    0.0000 </r>
       <r>   29.9385    0.0000 </r>
       <r>   29.9385    0.0000 </r>
       <r>   31.2489    0.0000 </r>
       <r>   31.2489    0.0000 </r>
       <r>   32.5219    0.0000 </r>
       <r>   32.6922    0.0000 </r>
       <r>   33.8770    0.0000 </r>
       <r>   37.7182    0.0000 </r>
       <r>   37.7193    0.0000 </r>
       <r>   37.7193    0.0000 </r>
       <r>   38.7031    0.0000 </r>
       <r>   38.7031    0.0000 </r>
       <r>   39.5933    0.0000 </r>
       <r>   42.3952    0.0000 </r>
       <r>   44.6948    0.0000 </r>
       <r>   44.6948    0.0000 </r>
       <r>   46.4041    0.0000 </r>
       <r>   46.7682    0.0000 </r>
       <r>   46.7682    0.0000 </r>
       <r>   46.8629    0.0000 </r>
       <r>   46.8629    0.0000 </r>
       <r>   48.7395    0.0000 </r>
       <r>   51.5733    0.0000 </r>
       <r>   51.5733    0.0000 </r>
       <r>   52.6361    0.0000 </r>
       <r>   53.3925    0.0000 </r>
       <r>   53.3925    0.0000 </r>
       <r>   55.1364    0.0000 </r>
       <r>   55.7438    0.0000 </r>
       <r>   55.7438    0.0000 </r>
       <r>   57.1729    0.0000 </r>
       <r>   58.6554    0.0000 </r>
       <r>   58.6554    0.0000 </r>
       <r>   59.8799    0.0000 </r>
       <r>   60.1151    0.0000 </r>
       <r>   60.1151    0.0000 </r>
       <r>   61.2757    0.0000 </r>
       <r>   64.1117    0.0000 </r>
       <r>   64.1117    0.0000 </r>
       <r>   64.3156    0.0000 </r>
       <r>   65.1963    0.0000 </r>
       <r>   65.2983    0.0000 </r>
       <r>   65.2983    0.0000 </r>
       <r>   65.9531    0.0000 </r>
       <r>   65.9531    0.0000 </r>
       <r>   66.9728    0.0000 </r>
       <r>   67.6152    0.0000 </r>
       <r>   69.9163    0.0000 </r>
       <r>   69.9163    0.0000 </r>
       <r>   70.0607    0.0000 </r>
       <r>   70.7979    0.0000 </r>
       <r>   70.7979    0.0000 </r>
       <r>   73.3373    0.0000 </r>
       <r>   74.9645    0.0000 </r>
       <r>   74.9686    0.0000 </r>
       <r>   74.9686    0.0000 </r>
       <r>   76.0413    0.0000 </r>
       <r>   76.0413    0.0000 </r>
       <r>   78.8056    0.0000 </r>
       <r>   78.8056    0.0000 </r>
       <r>   79.1140    0.0000 </r>
       <r>   80.7888    0.0000 </r>
       <r>   82.5876    0.0000 </r>
       <r>   83.7576    0.0000 </r>
       <r>   83.7576    0.0000 </r>
       <r>   85.3122    0.0000 </r>
       <r>   85.3122    0.0000 </r>
       <r>   86.0649    0.0000 </r>
       <r>   86.1942    0.0000 </r>
       <r>   86.1942    0.0000 </r>
       <r>   87.4871    0.0000 </r>
       <r>   87.8784    0.0000 </r>
       <r>   87.8784    0.0000 </r>
       <r>   89.1703    0.0000 </r>
       <r>   89.5124    0.0000 </r>
       <r>   90.2705    0.0000 </r>
       <r>   90.4652    0.0000 </r>
       <r>   90.4652    0.0000 </r>
       <r>   92.7695    0.0000 </r>
       <r>   92.7695    0.0000 </r>
       <r>   93.6576    0.0000 </r>
       <r>   93.9331    0.0000 </r>
       <r>   93.9331    0.0000 </r>
       <r>   94.0068    0.0000 </r>
       <r>   95.2688    0.0000 </r>
       <r>   95.2688    0.0000 </r>
       <r>   96.8635    0.0000 </r>
       <r>   97.7987    0.0000 </r>
       <r>   97.7987    0.0000 </r>
       <r>   98.4419    0.0000 </r>
       <r>   99.5001    0.0000 </r>
       <r>   99.5001    0.0000 </r>
       <r>  100.0567    0.0000 </r>
       <r>  100.9252    0.0000 </r>
       <r>  100.9252    0.0000 </r>
       <r>  102.5804    0.0000 </r>
       <r>  103.4566    0.0000 </r>
       <r>  103.4566    0.0000 </r>
       <r>  104.5641    0.0000 </r>
       <r>  104.6550    0.0000 </r>
       <r>  104.6550    0.0000 </r>
       <r>  105.9077    0.0000 </r>
       <r>  107.0938    0.0000 </r>
       <r>  107.3959    0.0000 </r>
       <r>  107.3959    0.0000 </r>
       <r>  107.8538    0.0000 </r>
       <r>  107.8538    0.0000 </r>
      </set>
      <set comment="kpoint 5">
       <r>  -18.2783    1.0000 </r>
       <r>   -4.0709    1.0000 </r>
       <r>   -3.7789    1.0000 </r>
       <r>   -3.7789    1.0000 </r>
       <r>    4.0822    0.0000 </r>
       <r>    9.2135    0.0000 </r>
       <r>   10.1001    0.0000 </r>
       <r>   10.1001    0.0000 </r>
       <r>   11.9329    0.0000 </r>
       <r>   11.9329    0.0000 </r>
       <r>   14.4438    0.0000 </r>
       <r>   15.4656    0.0000 </r>
       <r>   17.4340    0.0000 </r>
       <r>   17.4340    0.0000 </r>
       <r>   20.1784    0.0000 </r>
       <r>   23.3627    0.0000 </r>
       <r>   24.3083    0.0000 </r>
       <r>   24.3083    0.0000 </r>
       <r>   28.0455    0.0000 </r>
       <r>   28.0455    0.0000 </r>
       <r>   29.7723    0.0000 </r>
       <r>   29.7723    0.0000 </r>
       <r>   29.8821    0.0000 </r>
       <r>   31.7085    0.0000 </r>
       <r>   34.7498    0.0000 </r>
       <r>   34.7498    0.0000 </r>
       <r>   35.1643    0.0000 </r>
       <r>   37.7767    0.0000 </r>
       <r>   37.7767    0.0000 </r>
       <r>   38.2983    0.0000 </r>
       <r>   41.0073    0.0000 </r>
       <r>   41.4849    0.0000 </r>
       <r>   41.4849    0.0000 </r>
       <r>   42.9462    0.0000 </r>
       <r>   43.3193    0.0000 </r>
       <r>   43.3193    0.0000 </r>
       <r>   43.8829    0.0000 </r>
       <r>   44.5067    0.0000 </r>
       <r>   44.5067    0.0000 </r>
       <r>   46.3443    0.0000 </r>
       <r>   46.3443    0.0000 </r>
       <r>   46.8802    0.0000 </r>
       <r>   47.9851    0.0000 </r>
       <r>   49.2514    0.0000 </r>
       <r>   49.2514    0.0000 </r>
       <r>   49.6465    0.0000 </r>
       <r>   49.6465    0.0000 </r>
       <r>   50.3004    0.0000 </r>
       <r>   51.4422    0.0000 </r>
       <r>   51.5046    0.0000 </r>
       <r>   52.5519    0.0000 </r>
       <r>   52.5519    0.0000 </r>
       <r>   52.9335    0.0000 </r>
       <r>   55.3674    0.0000 </r>
       <r>   55.3674    0.0000 </r>
       <r>   57.1229    0.0000 </r>
       <r>   57.1423    0.0000 </r>
       <r>   57.1423    0.0000 </r>
       <r>   61.7717    0.0000 </r>
       <r>   63.3765    0.0000 </r>
       <r>   63.3765    0.0000 </r>
       <r>   65.0320    0.0000 </r>
       <r>   66.8251    0.0000 </r>
       <r>   66.8251    0.0000 </r>
       <r>   69.0282    0.0000 </r>
       <r>   71.9887    0.0000 </r>
       <r>   73.3239    0.0000 </r>
       <r>   73.3239    0.0000 </r>
       <r>   74.3439    0.0000 </r>
       <r>   74.3439    0.0000 </r>
       <r>   74.8246    0.0000 </r>
       <r>   75.8757    0.0000 </r>
       <r>   76.6053    0.0000 </r>
       <r>   76.6053    0.0000 </r>
       <r>   78.1222    0.0000 </r>
       <r>   78.1222    0.0000 </r>
       <r>   79.2145    0.0000 </r>
       <r>   79.2145    0.0000 </r>
       <r>   79.4315    0.0000 </r>
       <r>   81.6146    0.0000 </r>
       <r>   82.3187    0.0000 </r>
       <r>   82.3187    0.0000 </r>
       <r>   82.7666    0.0000 </r>
       <r>   83.7939    0.0000 </r>
       <r>   83.7939    0.0000 </r>
       <r>   83.9448    0.0000 </r>
       <r>   84.7628    0.0000 </r>
       <r>   84.7628    0.0000 </r>
       <r>   85.5263    0.0000 </r>
       <r>   86.2781    0.0000 </r>
       <r>   86.2781    0.0000 </r>
       <r>   86.5461    0.0000 </r>
       <r>   87.0421    0.0000 </r>
       <r>   87.0421    0.0000 </r>
       <r>   87.9778    0.0000 </r>
       <r>   87.9778    0.0000 </r>
       <r>   88.1964    0.0000 </r>
       <r>   90.1113    0.0000 </r>
       <r>   91.6584    0.0000 </r>
       <r>   92.2454    0.0000 </r>
       <r>   92.2454    0.0000 </r>
       <r>   92.9710    0.0000 </r>
       <r>   93.1188    0.0000 </r>
       <r>   93.1188    0.0000 </r>
       <r>   93.8818    0.0000 </r>
       <r>   93.8818    0.0000 </r>
       <r>   93.9284    0.0000 </r>
       <r>   95.1365    0.0000 </r>
       <r>   95.8953    0.0000 </r>
       <r>   95.8953    0.0000 </r>
       <r>   96.7788    0.0000 </r>
       <r>   96.7788    0.0000 </r>
       <r>   97.6771    0.0000 </r>
       <r>   99.5481    0.0000 </r>
       <r>   99.9040    0.0000 </r>
       <r>   99.9040    0.0000 </r>
       <r>  100.3919    0.0000 </r>
       <r>  100.3919    0.0000 </r>
       <r>  101.6541    0.0000 </r>
       <r>  101.8010    0.0000 </r>
       <r>  102.0638    0.0000 </r>
       <r>  102.0638    0.0000 </r>
       <r>  105.6512    0.0000 </r>
       <r>  106.0433    0.0000 </r>
       <r>  106.0433    0.0000 </r>
       <r>  107.1884    0.0000 </r>
       <r>  107.1884    0.0000 </r>
       <r>  107.9897    0.0000 </r>
      </set>
      <set comment="kpoint 6">
       <r>  -18.2675    1.0000 </r>
       <r>   -4.0668    1.0000 </r>
       <r>   -3.8435    1.0000 </r>
       <r>   -3.8435    1.0000 </r>
       <r>    4.2651    0.0000 </r>
       <r>    8.9362    0.0000 </r>
       <r>   10.2986    0.0000 </r>
       <r>   10.2986    0.0000 </r>
       <r>   10.7924    0.0000 </r>
       <r>   12.6614    0.0000 </r>
       <r>   15.2936    0.0000 </r>
       <r>   16.3061    0.0000 </r>
       <r>   16.8026    0.0000 </r>
       <r>   16.8026    0.0000 </r>
       <r>   21.1895    0.0000 </r>
       <r>   23.4211    0.0000 </r>
       <r>   23.4211    0.0000 </r>
       <r>   23.9504    0.0000 </r>
       <r>   26.8824    0.0000 </r>
       <r>   27.8386    0.0000 </r>
       <r>   29.2137    0.0000 </r>
       <r>   29.2137    0.0000 </r>
       <r>   31.3104    0.0000 </r>
       <r>   34.0747    0.0000 </r>
       <r>   34.0747    0.0000 </r>
       <r>   35.3635    0.0000 </r>
       <r>   35.4015    0.0000 </r>
       <r>   36.4209    0.0000 </r>
       <r>   38.5905    0.0000 </r>
       <r>   38.5905    0.0000 </r>
       <r>   39.1141    0.0000 </r>
       <r>   40.6307    0.0000 </r>
       <r>   40.8427    0.0000 </r>
       <r>   40.8427    0.0000 </r>
       <r>   43.6473    0.0000 </r>
       <r>   44.2002    0.0000 </r>
       <r>   44.2002    0.0000 </r>
       <r>   44.4449    0.0000 </r>
       <r>   45.8953    0.0000 </r>
       <r>   46.3045    0.0000 </r>
       <r>   46.9958    0.0000 </r>
       <r>   47.6604    0.0000 </r>
       <r>   47.6604    0.0000 </r>
       <r>   48.7168    0.0000 </r>
       <r>   49.5393    0.0000 </r>
       <r>   49.8995    0.0000 </r>
       <r>   49.8995    0.0000 </r>
       <r>   50.2975    0.0000 </r>
       <r>   50.7063    0.0000 </r>
       <r>   50.7063    0.0000 </r>
       <r>   52.3378    0.0000 </r>
       <r>   52.4983    0.0000 </r>
       <r>   54.2239    0.0000 </r>
       <r>   54.2239    0.0000 </r>
       <r>   56.4758    0.0000 </r>
       <r>   58.9422    0.0000 </r>
       <r>   59.1270    0.0000 </r>
       <r>   59.7039    0.0000 </r>
       <r>   59.7039    0.0000 </r>
       <r>   60.6396    0.0000 </r>
       <r>   66.2584    0.0000 </r>
       <r>   66.5236    0.0000 </r>
       <r>   66.5236    0.0000 </r>
       <r>   68.8693    0.0000 </r>
       <r>   68.8693    0.0000 </r>
       <r>   69.2977    0.0000 </r>
       <r>   69.5154    0.0000 </r>
       <r>   72.3518    0.0000 </r>
       <r>   73.1928    0.0000 </r>
       <r>   73.9845    0.0000 </r>
       <r>   73.9845    0.0000 </r>
       <r>   76.0577    0.0000 </r>
       <r>   76.2224    0.0000 </r>
       <r>   77.5812    0.0000 </r>
       <r>   77.5812    0.0000 </r>
       <r>   78.7173    0.0000 </r>
       <r>   78.7780    0.0000 </r>
       <r>   79.4399    0.0000 </r>
       <r>   79.4399    0.0000 </r>
       <r>   80.6949    0.0000 </r>
       <r>   81.1737    0.0000 </r>
       <r>   81.7177    0.0000 </r>
       <r>   82.7345    0.0000 </r>
       <r>   82.7345    0.0000 </r>
       <r>   84.1049    0.0000 </r>
       <r>   84.4656    0.0000 </r>
       <r>   84.7430    0.0000 </r>
       <r>   84.8934    0.0000 </r>
       <r>   84.8934    0.0000 </r>
       <r>   85.6980    0.0000 </r>
       <r>   85.6980    0.0000 </r>
       <r>   86.5251    0.0000 </r>
       <r>   87.7062    0.0000 </r>
       <r>   87.8429    0.0000 </r>
       <r>   87.8429    0.0000 </r>
       <r>   89.0041    0.0000 </r>
       <r>   91.0833    0.0000 </r>
       <r>   91.1341    0.0000 </r>
       <r>   91.8110    0.0000 </r>
       <r>   91.8110    0.0000 </r>
       <r>   92.5528    0.0000 </r>
       <r>   93.0558    0.0000 </r>
       <r>   93.4323    0.0000 </r>
       <r>   93.4323    0.0000 </r>
       <r>   94.7310    0.0000 </r>
       <r>   94.8198    0.0000 </r>
       <r>   94.8522    0.0000 </r>
       <r>   95.2823    0.0000 </r>
       <r>   95.2823    0.0000 </r>
       <r>   95.9242    0.0000 </r>
       <r>   95.9242    0.0000 </r>
       <r>   96.2345    0.0000 </r>
       <r>   98.1001    0.0000 </r>
       <r>  100.2023    0.0000 </r>
       <r>  100.5728    0.0000 </r>
       <r>  100.6871    0.0000 </r>
       <r>  100.6871    0.0000 </r>
       <r>  100.8255    0.0000 </r>
       <r>  100.8255    0.0000 </r>
       <r>  101.2916    0.0000 </r>
       <r>  102.0332    0.0000 </r>
       <r>  102.2278    0.0000 </r>
       <r>  102.5083    0.0000 </r>
       <r>  102.5085    0.0000 </r>
       <r>  102.5085    0.0000 </r>
       <r>  106.3714    0.0000 </r>
       <r>  109.0791    0.0000 </r>
       <r>  109.0791    0.0000 </r>
      </set>
      <set comment="kpoint 7">
       <r>  -18.2068    1.0000 </r>
       <r>   -4.5291    1.0000 </r>
       <r>   -3.9332    1.0000 </r>
       <r>   -3.9228    1.0000 </r>
       <r>    5.2271    0.0000 </r>
       <r>    8.3125    0.0000 </r>
       <r>    9.5040    0.0000 </r>
       <r>   10.5005    0.0000 </r>
       <r>   11.3255    0.0000 </r>
       <r>   13.0253    0.0000 </r>
       <r>   15.1447    0.0000 </r>
       <r>   17.5226    0.0000 </r>
       <r>   18.3197    0.0000 </r>
       <r>   18.9824    0.0000 </r>
       <r>   20.2203    0.0000 </r>
       <r>   20.7704    0.0000 </r>
       <r>   23.2073    0.0000 </r>
       <r>   24.2409    0.0000 </r>
       <r>   25.8432    0.0000 </r>
       <r>   26.2508    0.0000 </r>
       <r>   29.5637    0.0000 </r>
       <r>   29.5830    0.0000 </r>
       <r>   31.6729    0.0000 </r>
       <r>   33.3808    0.0000 </r>
       <r>   34.3543    0.0000 </r>
       <r>   35.3185    0.0000 </r>
       <r>   35.7395    0.0000 </r>
       <r>   35.9691    0.0000 </r>
       <r>   36.4812    0.0000 </r>
       <r>   37.7325    0.0000 </r>
       <r>   38.4242    0.0000 </r>
       <r>   39.9887    0.0000 </r>
       <r>   40.3228    0.0000 </r>
       <r>   41.1002    0.0000 </r>
       <r>   41.7244    0.0000 </r>
       <r>   42.6986    0.0000 </r>
       <r>   43.1767    0.0000 </r>
       <r>   44.0107    0.0000 </r>
       <r>   45.7474    0.0000 </r>
       <r>   46.0673    0.0000 </r>
       <r>   46.9042    0.0000 </r>
       <r>   47.1189    0.0000 </r>
       <r>   47.7471    0.0000 </r>
       <r>   48.7719    0.0000 </r>
       <r>   49.5467    0.0000 </r>
       <r>   50.3310    0.0000 </r>
       <r>   52.0893    0.0000 </r>
       <r>   53.4396    0.0000 </r>
       <r>   53.6043    0.0000 </r>
       <r>   53.9593    0.0000 </r>
       <r>   54.6404    0.0000 </r>
       <r>   55.3889    0.0000 </r>
       <r>   56.8429    0.0000 </r>
       <r>   56.9971    0.0000 </r>
       <r>   58.9887    0.0000 </r>
       <r>   59.9397    0.0000 </r>
       <r>   60.0381    0.0000 </r>
       <r>   61.2326    0.0000 </r>
       <r>   61.5549    0.0000 </r>
       <r>   63.4272    0.0000 </r>
       <r>   64.0332    0.0000 </r>
       <r>   64.1824    0.0000 </r>
       <r>   65.3008    0.0000 </r>
       <r>   66.3749    0.0000 </r>
       <r>   66.8008    0.0000 </r>
       <r>   67.9015    0.0000 </r>
       <r>   70.0583    0.0000 </r>
       <r>   70.3307    0.0000 </r>
       <r>   70.5118    0.0000 </r>
       <r>   70.9580    0.0000 </r>
       <r>   72.7573    0.0000 </r>
       <r>   74.4739    0.0000 </r>
       <r>   74.6556    0.0000 </r>
       <r>   74.8566    0.0000 </r>
       <r>   75.8023    0.0000 </r>
       <r>   77.2823    0.0000 </r>
       <r>   77.4017    0.0000 </r>
       <r>   77.6899    0.0000 </r>
       <r>   78.0403    0.0000 </r>
       <r>   78.7474    0.0000 </r>
       <r>   79.2312    0.0000 </r>
       <r>   79.6519    0.0000 </r>
       <r>   80.6932    0.0000 </r>
       <r>   82.7932    0.0000 </r>
       <r>   83.1610    0.0000 </r>
       <r>   84.1271    0.0000 </r>
       <r>   84.3413    0.0000 </r>
       <r>   85.6457    0.0000 </r>
       <r>   85.8245    0.0000 </r>
       <r>   86.1630    0.0000 </r>
       <r>   87.2128    0.0000 </r>
       <r>   87.3793    0.0000 </r>
       <r>   87.5128    0.0000 </r>
       <r>   88.0218    0.0000 </r>
       <r>   88.6599    0.0000 </r>
       <r>   90.5984    0.0000 </r>
       <r>   90.6521    0.0000 </r>
       <r>   91.0793    0.0000 </r>
       <r>   91.9604    0.0000 </r>
       <r>   92.6824    0.0000 </r>
       <r>   92.7718    0.0000 </r>
       <r>   93.7386    0.0000 </r>
       <r>   93.8628    0.0000 </r>
       <r>   93.9377    0.0000 </r>
       <r>   94.5636    0.0000 </r>
       <r>   94.8245    0.0000 </r>
       <r>   95.0761    0.0000 </r>
       <r>   95.3336    0.0000 </r>
       <r>   96.1533    0.0000 </r>
       <r>   96.5392    0.0000 </r>
       <r>   97.3448    0.0000 </r>
       <r>   97.7582    0.0000 </r>
       <r>   99.7465    0.0000 </r>
       <r>  100.5313    0.0000 </r>
       <r>  101.8344    0.0000 </r>
       <r>  102.0820    0.0000 </r>
       <r>  102.5355    0.0000 </r>
       <r>  102.6083    0.0000 </r>
       <r>  102.7428    0.0000 </r>
       <r>  103.1610    0.0000 </r>
       <r>  103.3391    0.0000 </r>
       <r>  103.3511    0.0000 </r>
       <r>  103.6127    0.0000 </r>
       <r>  103.9907    0.0000 </r>
       <r>  105.1694    0.0000 </r>
       <r>  106.5932    0.0000 </r>
       <r>  106.6092    0.0000 </r>
       <r>  107.2175    0.0000 </r>
      </set>
      <set comment="kpoint 8">
       <r>  -18.1404    1.0000 </r>
       <r>   -4.9748    1.0000 </r>
       <r>   -4.0427    1.0000 </r>
       <r>   -3.9807    1.0000 </r>
       <r>    6.1357    0.0000 </r>
       <r>    8.0994    0.0000 </r>
       <r>    9.0621    0.0000 </r>
       <r>   10.1411    0.0000 </r>
       <r>   12.7466    0.0000 </r>
       <r>   14.2599    0.0000 </r>
       <r>   14.6620    0.0000 </r>
       <r>   16.3970    0.0000 </r>
       <r>   17.6265    0.0000 </r>
       <r>   20.1215    0.0000 </r>
       <r>   21.1561    0.0000 </r>
       <r>   21.3496    0.0000 </r>
       <r>   23.3373    0.0000 </r>
       <r>   24.8781    0.0000 </r>
       <r>   26.7614    0.0000 </r>
       <r>   26.8010    0.0000 </r>
       <r>   28.0327    0.0000 </r>
       <r>   29.2239    0.0000 </r>
       <r>   30.2408    0.0000 </r>
       <r>   31.5422    0.0000 </r>
       <r>   32.1007    0.0000 </r>
       <r>   33.7727    0.0000 </r>
       <r>   34.0139    0.0000 </r>
       <r>   35.3567    0.0000 </r>
       <r>   35.9945    0.0000 </r>
       <r>   36.3050    0.0000 </r>
       <r>   38.1605    0.0000 </r>
       <r>   39.0677    0.0000 </r>
       <r>   39.3554    0.0000 </r>
       <r>   41.7735    0.0000 </r>
       <r>   42.9602    0.0000 </r>
       <r>   43.0378    0.0000 </r>
       <r>   43.4065    0.0000 </r>
       <r>   44.4756    0.0000 </r>
       <r>   46.2876    0.0000 </r>
       <r>   47.1508    0.0000 </r>
       <r>   48.1832    0.0000 </r>
       <r>   48.5035    0.0000 </r>
       <r>   48.8108    0.0000 </r>
       <r>   49.5634    0.0000 </r>
       <r>   50.3711    0.0000 </r>
       <r>   52.3123    0.0000 </r>
       <r>   53.3875    0.0000 </r>
       <r>   53.6722    0.0000 </r>
       <r>   54.2896    0.0000 </r>
       <r>   55.3833    0.0000 </r>
       <r>   56.8779    0.0000 </r>
       <r>   58.0344    0.0000 </r>
       <r>   58.1444    0.0000 </r>
       <r>   58.6192    0.0000 </r>
       <r>   59.7415    0.0000 </r>
       <r>   59.7744    0.0000 </r>
       <r>   61.7500    0.0000 </r>
       <r>   62.2040    0.0000 </r>
       <r>   62.4055    0.0000 </r>
       <r>   63.3359    0.0000 </r>
       <r>   64.1484    0.0000 </r>
       <r>   64.7531    0.0000 </r>
       <r>   64.9341    0.0000 </r>
       <r>   65.8049    0.0000 </r>
       <r>   66.0284    0.0000 </r>
       <r>   66.8087    0.0000 </r>
       <r>   67.7025    0.0000 </r>
       <r>   68.1867    0.0000 </r>
       <r>   69.8160    0.0000 </r>
       <r>   70.5467    0.0000 </r>
       <r>   70.6858    0.0000 </r>
       <r>   71.2049    0.0000 </r>
       <r>   72.1011    0.0000 </r>
       <r>   73.0732    0.0000 </r>
       <r>   74.9607    0.0000 </r>
       <r>   75.6770    0.0000 </r>
       <r>   76.1089    0.0000 </r>
       <r>   76.7245    0.0000 </r>
       <r>   77.8344    0.0000 </r>
       <r>   78.2778    0.0000 </r>
       <r>   78.4378    0.0000 </r>
       <r>   79.7592    0.0000 </r>
       <r>   79.7854    0.0000 </r>
       <r>   81.3310    0.0000 </r>
       <r>   81.5360    0.0000 </r>
       <r>   82.2363    0.0000 </r>
       <r>   82.7976    0.0000 </r>
       <r>   83.9147    0.0000 </r>
       <r>   84.8479    0.0000 </r>
       <r>   85.4120    0.0000 </r>
       <r>   86.2813    0.0000 </r>
       <r>   87.2786    0.0000 </r>
       <r>   87.9479    0.0000 </r>
       <r>   89.0763    0.0000 </r>
       <r>   89.6692    0.0000 </r>
       <r>   89.9952    0.0000 </r>
       <r>   90.8784    0.0000 </r>
       <r>   91.2308    0.0000 </r>
       <r>   91.6272    0.0000 </r>
       <r>   91.9887    0.0000 </r>
       <r>   92.7241    0.0000 </r>
       <r>   93.1963    0.0000 </r>
       <r>   93.6556    0.0000 </r>
       <r>   93.9513    0.0000 </r>
       <r>   94.4789    0.0000 </r>
       <r>   95.4013    0.0000 </r>
       <r>   96.0229    0.0000 </r>
       <r>   96.7829    0.0000 </r>
       <r>   97.2485    0.0000 </r>
       <r>   97.8936    0.0000 </r>
       <r>   98.0063    0.0000 </r>
       <r>   98.4444    0.0000 </r>
       <r>   99.2278    0.0000 </r>
       <r>  100.0169    0.0000 </r>
       <r>  101.0639    0.0000 </r>
       <r>  102.3466    0.0000 </r>
       <r>  103.0765    0.0000 </r>
       <r>  103.3191    0.0000 </r>
       <r>  103.5536    0.0000 </r>
       <r>  104.1645    0.0000 </r>
       <r>  104.3771    0.0000 </r>
       <r>  105.2578    0.0000 </r>
       <r>  105.3460    0.0000 </r>
       <r>  107.0608    0.0000 </r>
       <r>  107.2120    0.0000 </r>
       <r>  107.9202    0.0000 </r>
       <r>  108.5947    0.0000 </r>
       <r>  108.7505    0.0000 </r>
      </set>
      <set comment="kpoint 9">
       <r>  -18.1196    1.0000 </r>
       <r>   -5.0978    1.0000 </r>
       <r>   -4.1309    1.0000 </r>
       <r>   -3.9528    1.0000 </r>
       <r>    6.3850    0.0000 </r>
       <r>    8.0723    0.0000 </r>
       <r>    9.2352    0.0000 </r>
       <r>    9.9054    0.0000 </r>
       <r>   13.7290    0.0000 </r>
       <r>   13.9847    0.0000 </r>
       <r>   14.7064    0.0000 </r>
       <r>   15.5849    0.0000 </r>
       <r>   18.0225    0.0000 </r>
       <r>   18.2356    0.0000 </r>
       <r>   22.0428    0.0000 </r>
       <r>   23.9356    0.0000 </r>
       <r>   24.2395    0.0000 </r>
       <r>   24.8502    0.0000 </r>
       <r>   26.3495    0.0000 </r>
       <r>   26.7164    0.0000 </r>
       <r>   27.7555    0.0000 </r>
       <r>   27.9193    0.0000 </r>
       <r>   30.5199    0.0000 </r>
       <r>   31.1958    0.0000 </r>
       <r>   31.8068    0.0000 </r>
       <r>   32.8222    0.0000 </r>
       <r>   33.1775    0.0000 </r>
       <r>   33.8151    0.0000 </r>
       <r>   36.0222    0.0000 </r>
       <r>   36.1369    0.0000 </r>
       <r>   38.3659    0.0000 </r>
       <r>   38.4159    0.0000 </r>
       <r>   38.6974    0.0000 </r>
       <r>   42.5058    0.0000 </r>
       <r>   42.5770    0.0000 </r>
       <r>   42.9896    0.0000 </r>
       <r>   44.0368    0.0000 </r>
       <r>   45.7901    0.0000 </r>
       <r>   47.0461    0.0000 </r>
       <r>   47.7164    0.0000 </r>
       <r>   48.1404    0.0000 </r>
       <r>   49.2048    0.0000 </r>
       <r>   49.5359    0.0000 </r>
       <r>   50.7586    0.0000 </r>
       <r>   51.9527    0.0000 </r>
       <r>   52.4380    0.0000 </r>
       <r>   52.7337    0.0000 </r>
       <r>   53.4468    0.0000 </r>
       <r>   54.4072    0.0000 </r>
       <r>   56.1665    0.0000 </r>
       <r>   56.5174    0.0000 </r>
       <r>   57.3531    0.0000 </r>
       <r>   57.6203    0.0000 </r>
       <r>   59.3942    0.0000 </r>
       <r>   59.4430    0.0000 </r>
       <r>   59.6872    0.0000 </r>
       <r>   61.0042    0.0000 </r>
       <r>   61.3769    0.0000 </r>
       <r>   63.0403    0.0000 </r>
       <r>   64.1377    0.0000 </r>
       <r>   64.3492    0.0000 </r>
       <r>   64.7050    0.0000 </r>
       <r>   65.0631    0.0000 </r>
       <r>   66.5113    0.0000 </r>
       <r>   67.0352    0.0000 </r>
       <r>   67.4719    0.0000 </r>
       <r>   67.5084    0.0000 </r>
       <r>   68.1145    0.0000 </r>
       <r>   68.2675    0.0000 </r>
       <r>   70.3000    0.0000 </r>
       <r>   71.3505    0.0000 </r>
       <r>   71.9348    0.0000 </r>
       <r>   72.6802    0.0000 </r>
       <r>   72.6871    0.0000 </r>
       <r>   73.8673    0.0000 </r>
       <r>   74.2339    0.0000 </r>
       <r>   74.7855    0.0000 </r>
       <r>   75.7018    0.0000 </r>
       <r>   75.8010    0.0000 </r>
       <r>   77.7509    0.0000 </r>
       <r>   77.7653    0.0000 </r>
       <r>   78.3601    0.0000 </r>
       <r>   80.3959    0.0000 </r>
       <r>   81.8770    0.0000 </r>
       <r>   82.1762    0.0000 </r>
       <r>   82.7808    0.0000 </r>
       <r>   83.7056    0.0000 </r>
       <r>   84.3371    0.0000 </r>
       <r>   84.9043    0.0000 </r>
       <r>   85.2969    0.0000 </r>
       <r>   85.3909    0.0000 </r>
       <r>   86.1533    0.0000 </r>
       <r>   86.6289    0.0000 </r>
       <r>   88.1707    0.0000 </r>
       <r>   88.3680    0.0000 </r>
       <r>   89.5078    0.0000 </r>
       <r>   90.1718    0.0000 </r>
       <r>   91.4396    0.0000 </r>
       <r>   92.0192    0.0000 </r>
       <r>   92.2899    0.0000 </r>
       <r>   93.1945    0.0000 </r>
       <r>   93.2826    0.0000 </r>
       <r>   93.8963    0.0000 </r>
       <r>   94.5930    0.0000 </r>
       <r>   95.2827    0.0000 </r>
       <r>   95.6735    0.0000 </r>
       <r>   95.8648    0.0000 </r>
       <r>   96.6915    0.0000 </r>
       <r>   97.6518    0.0000 </r>
       <r>   97.9738    0.0000 </r>
       <r>   98.7890    0.0000 </r>
       <r>   99.2922    0.0000 </r>
       <r>  100.4708    0.0000 </r>
       <r>  100.8086    0.0000 </r>
       <r>  101.2678    0.0000 </r>
       <r>  101.4888    0.0000 </r>
       <r>  101.8588    0.0000 </r>
       <r>  102.7216    0.0000 </r>
       <r>  102.9706    0.0000 </r>
       <r>  103.1654    0.0000 </r>
       <r>  103.5417    0.0000 </r>
       <r>  103.8789    0.0000 </r>
       <r>  105.0035    0.0000 </r>
       <r>  107.6703    0.0000 </r>
       <r>  108.1731    0.0000 </r>
       <r>  108.6439    0.0000 </r>
       <r>  108.8540    0.0000 </r>
       <r>  109.2073    0.0000 </r>
      </set>
      <set comment="kpoint 10">
       <r>  -18.1608    1.0000 </r>
       <r>   -4.8415    1.0000 </r>
       <r>   -4.1103    1.0000 </r>
       <r>   -3.8693    1.0000 </r>
       <r>    5.9687    0.0000 </r>
       <r>    8.3155    0.0000 </r>
       <r>    9.0248    0.0000 </r>
       <r>   10.1229    0.0000 </r>
       <r>   11.8859    0.0000 </r>
       <r>   14.2040    0.0000 </r>
       <r>   14.7629    0.0000 </r>
       <r>   16.5016    0.0000 </r>
       <r>   18.5405    0.0000 </r>
       <r>   19.3151    0.0000 </r>
       <r>   20.9641    0.0000 </r>
       <r>   21.7773    0.0000 </r>
       <r>   22.7891    0.0000 </r>
       <r>   24.9844    0.0000 </r>
       <r>   25.7597    0.0000 </r>
       <r>   26.7485    0.0000 </r>
       <r>   29.2809    0.0000 </r>
       <r>   29.7451    0.0000 </r>
       <r>   30.1491    0.0000 </r>
       <r>   30.7140    0.0000 </r>
       <r>   32.5776    0.0000 </r>
       <r>   34.8947    0.0000 </r>
       <r>   35.2134    0.0000 </r>
       <r>   35.4778    0.0000 </r>
       <r>   35.8405    0.0000 </r>
       <r>   37.9486    0.0000 </r>
       <r>   39.0457    0.0000 </r>
[...]
     <r>     0.9250     0.0000     0.0000     0.0000     0.0000     0.0000     0.0000 </r>
     <r>     0.9350     0.0000     0.0000     0.0000     0.0000     0.0000     0.0000 </r>
     <r>     0.9451     0.0000     0.0000     0.0000     0.0000     0.0000     0.0000 </r>
     <r>     0.9551     0.0000     0.0000     0.0000     0.0000     0.0000     0.0000 </r>
     <r>     0.9651     0.0000     0.0000     0.0000     0.0000     0.0000     0.0000 </r>
     <r>     0.9751     0.0000     0.0000     0.0000     0.0000     0.0000     0.0000 </r>
     <r>     0.9851     0.0000     0.0000     0.0000     0.0000     0.0000     0.0000 </r>
     <r>     0.9951     0.0000     0.0000     0.0000     0.0000     0.0000     0.0000 </r>
     <r>     1.0051     0.0000     0.0000     0.0000     0.0000     0.0000     0.0000 </r>
     <r>     1.0151     0.0000     0.0000     0.0000     0.0000     0.0000     0.0000 </r>
     <r>     1.0251     0.0000     0.0000     0.0000     0.0000     0.0000     0.0000 </r>
     <r>     1.0351     0.0000     0.0000     0.0000     0.0000     0.0000     0.0000 </r>
     <r>     1.0452     0.0000     0.0000     0.0000     0.0000     0.0000     0.0000 </r>
     <r>     1.0552     0.0000     0.0000     0.0000     0.0000     0.0000     0.0000 </r>
     <r>     1.0652     0.0000     0.0000     0.0000     0.0000     0.0000     0.0000 </r>
     <r>     1.0752     0.0000     0.0000     0.0000     0.0000     0.0000     0.0000 </r>
     <r>     1.0852     0.0000     0.0000     0.0000     0.0000     0.0000     0.0000 </r>
     <r>     1.0952     0.0000     0.0000     0.0000     0.0000     0.0000     0.0000 </r>
     <r>     1.1052     0.0000     0.0000     0.0000     0.0000     0.0000     0.0000 </r>
     <r>     1.1152     0.0000     0.0000     0.0000     0.0000     0.0000     0.0000 </r>
     <r>     1.1252     0.0000     0.0000     0.0000     0.0000     0.0000     0.0000 </r>
     <r>     1.1352     0.0000     0.0000     0.0000     0.0000     0.0000     0.0000 </r>
     <r>     1.1453     0.0000     0.0000     0.0000     0.0000     0.0000     0.0000 </r>
     <r>     1.1553     0.0000     0.0000     0.0000     0.0000     0.0000     0.0000 </r>
     <r>     1.1653     0.0000     0.0000     0.0000     0.0000     0.0000     0.0000 </r>
     <r>     1.1753     0.0000     0.0000     0.0000     0.0000     0.0000     0.0000 </r>
     <r>     1.1853     0.0000     0.0000     0.0000     0.0000     0.0000     0.0000 </r>
     <r>     1.1953     0.0000     0.0000     0.0000     0.0000     0.0000     0.0000 </r>
     <r>     1.2053     0.0000     0.0000     0.0000     0.0000     0.0000     0.0000 </r>
     <r>     1.2153     0.0000     0.0000     0.0000     0.0000     0.0000     0.0000 </r>
     <r>     1.2253     0.0000     0.0000     0.0000     0.0000     0.0000     0.0000 </r>
     <r>     1.2353     0.0000     0.0000     0.0000     0.0000     0.0000     0.0000 </r>
     <r>     1.2454     0.0000     0.0000     0.0000     0.0000     0.0000     0.0000 </r>
     <r>     1.2554     0.0000     0.0000     0.0000     0.0000     0.0000     0.0000 </r>
     <r>     1.2654     0.0000     0.0000     0.0000     0.0000     0.0000     0.0000 </r>
     <r>     1.2754     0.0000     0.0000     0.0000     0.0000     0.0000     0.0000 </r>
     <r>     1.2854     0.0000     0.0000     0.0000     0.0000     0.0000     0.0000 </r>
     <r>     1.2954     0.0000     0.0000     0.0000     0.0000     0.0000     0.0000 </r>
     <r>     1.3054     0.0000     0.0000     0.0000     0.0000     0.0000     0.0000 </r>
     <r>     1.3154     0.0000     0.0000     0.0000     0.0000     0.0000     0.0000 </r>
     <r>     1.3254     0.0000     0.0000     0.0000     0.0000     0.0000     0.0000 </r>
     <r>     1.3354     0.0000     0.0000     0.0000     0.0000     0.0000     0.0000 </r>
     <r>     1.3455     0.0000     0.0000     0.0000     0.0000     0.0000     0.0000 </r>
     <r>     1.3555     0.0000     0.0000     0.0000     0.0000     0.0000     0.0000 </r>
    </set>
   </array>
  </conductivity>
  <dos>
   <i name="efermi">     -3.64453508 </i>
   <total>
    <array>
     <dimension dim="1">gridpoints</dimension>
     <dimension dim="2">spin</dimension>
     <field>energy</field>
     <field>total</field>
     <field>integrated</field>
     <set>
      <set comment="spin 1">
       <r>   -24.7910     0.0000     0.0000 </r>
       <r>   -24.3158     0.0000     0.0000 </r>
       <r>   -23.8406     0.0000     0.0000 </r>
       <r>   -23.3654     0.0000     0.0000 </r>
       <r>   -22.8902     0.0000     0.0000 </r>
       <r>   -22.4150     0.0000     0.0000 </r>
       <r>   -21.9398     0.0000     0.0000 </r>
       <r>   -21.4646     0.0000     0.0000 </r>
       <r>   -20.9894     0.0000     0.0000 </r>
       <r>   -20.5142     0.0000     0.0000 </r>
       <r>   -20.0390     0.0000     0.0000 </r>
       <r>   -19.5638     0.0000     0.0000 </r>
       <r>   -19.0886     0.0000     0.0000 </r>
       <r>   -18.6134     0.0000     0.0000 </r>
       <r>   -18.1382     0.3924     0.8454 </r>
       <r>   -17.6630     0.0000     2.0000 </r>
       <r>   -17.1878     0.0000     2.0000 </r>
       <r>   -16.7126     0.0000     2.0000 </r>
       <r>   -16.2374     0.0000     2.0000 </r>
       <r>   -15.7622     0.0000     2.0000 </r>
       <r>   -15.2870     0.0000     2.0000 </r>
       <r>   -14.8118     0.0000     2.0000 </r>
       <r>   -14.3366     0.0000     2.0000 </r>
       <r>   -13.8614     0.0000     2.0000 </r>
       <r>   -13.3862     0.0000     2.0000 </r>
       <r>   -12.9110     0.0000     2.0000 </r>
       <r>   -12.4358     0.0000     2.0000 </r>
       <r>   -11.9606     0.0000     2.0000 </r>
       <r>   -11.4853     0.0000     2.0000 </r>
       <r>   -11.0101     0.0000     2.0000 </r>
       <r>   -10.5349     0.0000     2.0000 </r>
       <r>   -10.0597     0.0000     2.0000 </r>
       <r>    -9.5845     0.0000     2.0000 </r>
       <r>    -9.1093     0.0000     2.0000 </r>
       <r>    -8.6341     0.0000     2.0000 </r>
       <r>    -8.1589     0.0000     2.0000 </r>
       <r>    -7.6837     0.0000     2.0000 </r>
       <r>    -7.2085     0.0000     2.0000 </r>
       <r>    -6.7333     0.0000     2.0000 </r>
       <r>    -6.2581     0.0000     2.0000 </r>
       <r>    -5.7829     0.0000     2.0000 </r>
       <r>    -5.3077     0.0000     2.0000 </r>
       <r>    -4.8325     0.0000     3.2711 </r>
       <r>    -4.3573     0.0000     4.7522 </r>
       <r>    -3.8821     0.0000     7.5160 </r>
       <r>    -3.4069     0.0000     8.0000 </r>
       <r>    -2.9317     0.0000     8.0000 </r>
       <r>    -2.4565     0.0000     8.0000 </r>
       <r>    -1.9813     0.0000     8.0000 </r>
       <r>    -1.5061     0.0000     8.0000 </r>
       <r>    -1.0309     0.0000     8.0000 </r>
       <r>    -0.5557     0.0000     8.0000 </r>
       <r>    -0.0805     0.0000     8.0000 </r>
       <r>     0.3947     0.0000     8.0000 </r>
       <r>     0.8699     0.0000     8.0000 </r>
       <r>     1.3451     0.0000     8.0000 </r>
       <r>     1.8203     0.0000     8.0000 </r>
       <r>     2.2955     0.0000     8.0000 </r>
       <r>     2.7707     0.0000     8.0000 </r>
       <r>     3.2459     0.0000     8.0000 </r>
       <r>     3.7211     0.0000     8.0058 </r>
       <r>     4.1963     0.0000     8.0525 </r>
       <r>     4.6715     0.0000     8.0875 </r>
       <r>     5.1467     0.0000     8.1574 </r>
       <r>     5.6219     0.0000     8.3440 </r>
       <r>     6.0971     0.0000     8.6706 </r>
       <r>     6.5723     0.0000     9.3703 </r>
       <r>     7.0475     0.0000     9.9650 </r>
       <r>     7.5227     0.0000    10.2449 </r>
       <r>     7.9979     0.0000    11.0496 </r>
       <r>     8.4731     0.0000    11.7493 </r>
       <r>     8.9483     0.0000    12.5773 </r>
       <r>     9.4235     0.0000    13.4985 </r>
       <r>     9.8987     0.0000    13.9067 </r>
       <r>    10.3739     0.0000    14.6006 </r>
       <r>    10.8491     0.0000    15.3353 </r>
       <r>    11.3243     0.0118    15.6908 </r>
       <r>    11.7995     0.0000    16.3149 </r>
       <r>    12.2747     0.0000    16.5481 </r>
       <r>    12.7499     0.2945    17.3178 </r>
       <r>    13.2251     0.0000    17.8776 </r>
       <r>    13.7003     0.0000    18.3615 </r>
       <r>    14.1755     0.0000    19.0146 </r>
       <r>    14.6507     0.0000    20.0058 </r>
       <r>    15.1259     0.0000    20.5656 </r>
       <r>    15.6011     0.0000    21.2770 </r>
       <r>    16.0763     0.0000    22.0466 </r>
       <r>    16.5515     0.0000    22.9854 </r>
       <r>    17.0267     0.1652    23.5887 </r>
       <r>    17.5019     0.2945    24.0233 </r>
       <r>    17.9771     0.0000    25.3411 </r>
       <r>    18.4523     0.0000    26.0933 </r>
       <r>    18.9275     0.0000    26.4082 </r>
       <r>    19.4027     0.0000    27.0845 </r>
       <r>    19.8779     0.0000    27.6793 </r>
       <r>    20.3531     0.0000    28.4140 </r>
       <r>    20.8283     0.0000    29.2770 </r>
       <r>    21.3035     0.0000    30.1166 </r>
       <r>    21.7787     0.2882    30.5334 </r>
       <r>    22.2539     0.0000    31.3528 </r>
       <r>    22.7291     0.0000    31.5977 </r>
       <r>    23.2043     0.0000    32.7172 </r>
       <r>    23.6795     0.0000    33.5219 </r>
       <r>    24.1547     0.0000    34.0933 </r>
       <r>    24.6299     0.0000    34.8513 </r>
       <r>    25.1051     0.0000    35.9708 </r>
       <r>    25.5803     0.2941    36.8103 </r>
       <r>    26.0555     0.5890    38.0000 </r>
       <r>    26.5307     0.0000    38.6064 </r>
       <r>    27.0059     0.0000    39.5918 </r>
       <r>    27.4811     0.0000    40.0117 </r>
       <r>    27.9563     0.0000    41.1137 </r>
       <r>    28.4315     0.0000    41.8017 </r>
       <r>    28.9067     0.0000    42.2566 </r>
       <r>    29.3819     0.0000    43.0262 </r>
       <r>    29.8571     0.0823    44.4881 </r>
       <r>    30.3323     0.0000    45.7085 </r>
       <r>    30.8075     0.0000    46.4898 </r>
       <r>    31.2827     0.0000    47.6676 </r>
       <r>    31.7579     0.0000    48.5364 </r>
       <r>    32.2331     0.0000    49.0729 </r>
       <r>    32.7083     0.0000    49.4810 </r>
       <r>    33.1835     0.2945    50.1108 </r>
       <r>    33.6587     0.0000    50.9504 </r>
       <r>    34.1339     0.0000    52.5423 </r>
       <r>    34.6091     0.0000    53.4519 </r>
       <r>    35.0843     0.0000    54.4548 </r>
       <r>    35.5595     0.0000    55.6910 </r>
       <r>    36.0347     0.0000    57.1254 </r>
       <r>    36.5099     0.0000    57.5802 </r>
       <r>    36.9851     0.0000    58.0700 </r>
       <r>    37.4603     0.0000    58.8163 </r>
       <r>    37.9355     0.0000    59.4694 </r>
       <r>    38.4107     0.0000    61.0204 </r>
       <r>    38.8859     0.0000    62.4665 </r>
       <r>    39.3611     0.4417    63.4810 </r>
       <r>    39.8363     0.2305    64.4069 </r>
       <r>    40.3115     0.0000    65.0671 </r>
       <r>    40.7867     0.0000    65.7784 </r>
       <r>    41.2619     0.0000    66.8513 </r>
       <r>    41.7372     0.0000    68.0350 </r>
       <r>    42.2124     0.2729    68.8294 </r>
       <r>    42.6876     0.0000    69.8426 </r>
       <r>    43.1628     0.0000    71.0962 </r>
       <r>    43.6380     0.0000    72.1341 </r>
       <r>    44.1132     0.2945    73.9125 </r>
       <r>    44.5884     0.0000    74.7405 </r>
       <r>    45.0636     0.0000    75.5394 </r>
       <r>    45.5388     0.0000    76.1341 </r>
       <r>    46.0140     0.0000    76.5889 </r>
       <r>    46.4892     0.0000    78.1983 </r>
       <r>    46.9644     0.0000    79.2012 </r>
       <r>    47.4396     0.0000    80.7813 </r>
       <r>    47.9148     0.0000    81.6385 </r>
       <r>    48.3900     0.0000    82.7697 </r>
       <r>    48.8652     0.0000    83.8834 </r>
       <r>    49.3404     0.0000    85.2362 </r>
       <r>    49.8156     0.0000    86.6122 </r>
       <r>    50.2908     0.0000    87.6443 </r>
       <r>    50.7660     0.2945    88.5773 </r>
       <r>    51.2412     0.0027    89.2549 </r>
       <r>    51.7164     0.2945    90.4898 </r>
       <r>    52.1916     0.0000    91.4694 </r>
       <r>    52.6668     0.0000    92.3440 </r>
       <r>    53.1420     0.1472    93.5802 </r>
       <r>    53.6172     0.0000    95.1662 </r>
       <r>    54.0924     0.0000    95.9592 </r>
       <r>    54.5676     0.0000    97.4869 </r>
       <r>    55.0428     0.0000    98.7580 </r>
       <r>    55.5180     0.5890   100.4606 </r>
       <r>    55.9932     0.0000   100.8338 </r>
       <r>    56.4684     0.0000   102.3499 </r>
       <r>    56.9436     0.0000   103.2245 </r>
       <r>    57.4188     0.1280   104.3815 </r>
       <r>    57.8940     0.0000   104.9854 </r>
       <r>    58.3692     0.0000   106.2216 </r>
       <r>    58.8444     0.0000   107.3178 </r>
       <r>    59.3196     0.0000   108.6472 </r>
       <r>    59.7948     0.0000   110.1166 </r>
       <r>    60.2700     0.2945   111.7959 </r>
       <r>    60.7452     0.0000   112.8805 </r>
       <r>    61.2204     0.2945   113.9534 </r>
       <r>    61.6956     0.0000   115.3411 </r>
       <r>    62.1708     0.0009   116.5777 </r>
       <r>    62.6460     0.0000   117.5802 </r>
       <r>    63.1212     0.0000   118.3615 </r>
       <r>    63.5964     0.0000   119.3994 </r>
       <r>    64.0716     0.0000   120.2391 </r>
       <r>    64.5468     0.0000   122.0933 </r>
       <r>    65.0220     0.0000   123.8076 </r>
       <r>    65.4972     0.0000   125.0787 </r>
       <r>    65.9724     0.0000   126.1166 </r>
       <r>    66.4476     0.0000   127.0612 </r>
       <r>    66.9228     0.2945   128.1341 </r>
       <r>    67.3980     0.0000   129.8251 </r>
       <r>    67.8732     0.0000   131.4461 </r>
       <r>    68.3484     0.0000   132.8571 </r>
       <r>    68.8236     0.0000   133.7143 </r>
       <r>    69.2988     0.0689   135.0182 </r>
       <r>    69.7740     0.5890   135.6501 </r>
       <r>    70.2492     0.0000   137.0496 </r>
       <r>    70.7244     0.2585   138.9683 </r>
       <r>    71.1996     0.2239   140.4913 </r>
       <r>    71.6748     0.0000   141.3353 </r>
       <r>    72.1500     0.0000   142.5539 </r>
       <r>    72.6252     0.0000   143.9417 </r>
       <r>    73.1004     0.2943   145.3061 </r>
       <r>    73.5756     0.0000   146.3207 </r>
       <r>    74.0508     0.0000   147.9825 </r>
       <r>    74.5260     0.0000   149.2653 </r>
       <r>    75.0012     0.2945   150.9213 </r>
       <r>    75.4764     0.0000   151.8542 </r>
       <r>    75.9516     0.0000   153.3120 </r>
       <r>    76.4268     0.0000   154.5248 </r>
       <r>    76.9020     0.0000   155.4694 </r>
       <r>    77.3772     0.0000   156.6472 </r>
       <r>    77.8524     0.0000   158.8338 </r>
       <r>    78.3276     0.0000   160.3265 </r>
       <r>    78.8028     0.0000   161.5510 </r>
       <r>    79.2780     0.0000   162.8513 </r>
       <r>    79.7532     0.0000   163.5977 </r>
       <r>    80.2284     0.0000   165.2653 </r>
       <r>    80.7036     0.3094   166.3919 </r>
       <r>    81.1788     0.0736   168.1224 </r>
       <r>    81.6540     0.0000   169.1837 </r>
       <r>    82.1292     0.0000   170.6880 </r>
       <r>    82.6044     0.0000   171.8776 </r>
       <r>    83.0796     0.0000   173.8484 </r>
       <r>    83.5548     0.0000   175.0379 </r>
       <r>    84.0300     0.0000   176.3324 </r>
       <r>    84.5052     0.1188   177.3918 </r>
       <r>    84.9804     0.0000   178.8980 </r>
       <r>    85.4556     0.0000   180.4606 </r>
       <r>    85.9308     0.0000   181.9942 </r>
       <r>    86.4060     0.1472   183.2303 </r>
       <r>    86.8812     0.0000   184.6764 </r>
       <r>    87.3564     0.0000   186.2216 </r>
       <r>    87.8316     0.0000   187.8134 </r>
       <r>    88.3068     0.2462   189.2307 </r>
       <r>    88.7820     0.0000   190.9329 </r>
       <r>    89.2572     0.0000   192.5714 </r>
       <r>    89.7324     0.0000   193.7026 </r>
       <r>    90.2076     0.0000   194.7988 </r>
       <r>    90.6828     0.0000   195.9942 </r>
       <r>    91.1580     0.0000   197.6968 </r>
       <r>    91.6332     0.2945   198.9563 </r>
       <r>    92.1084     0.0001   200.1516 </r>
       <r>    92.5836     0.0000   201.4344 </r>
       <r>    93.0588     0.0736   203.0787 </r>
       <r>    93.5340     0.0000   204.3265 </r>
       <r>    94.0092     0.0981   206.4140 </r>
       <r>    94.4845     0.2945   207.7493 </r>
       <r>    94.9597     0.0000   208.9971 </r>
       <r>    95.4349     0.0011   211.1667 </r>
       <r>    95.9101     0.0000   213.1487 </r>
       <r>    96.3853     0.0000   214.5598 </r>
       <r>    96.8605     0.0000   215.9708 </r>
       <r>    97.3357     0.2945   217.0437 </r>
       <r>    97.8109     0.3436   218.6764 </r>
       <r>    98.2861     0.2945   219.9009 </r>
       <r>    98.7613     0.0000   221.2770 </r>
       <r>    99.2365     0.0000   222.8280 </r>
       <r>    99.7117     0.0000   223.9242 </r>
       <r>   100.1869     0.0000   224.6939 </r>
       <r>   100.6621     0.2945   226.6531 </r>
       <r>   101.1373     0.1472   228.5656 </r>
       <r>   101.6125     0.0000   230.0991 </r>
       <r>   102.0877     0.2945   231.3703 </r>
       <r>   102.5629     0.0000   233.0379 </r>
       <r>   103.0381     0.0000   235.0437 </r>
       <r>   103.5133     0.0000   236.8513 </r>
       <r>   103.9885     0.2947   238.8631 </r>
       <r>   104.4637     0.0001   240.6123 </r>
       <r>   104.9389     0.0000   241.9592 </r>
       <r>   105.4141     0.0000   243.2886 </r>
       <r>   105.8893     0.0000   244.3615 </r>
       <r>   106.3645     0.0000   245.8076 </r>
       <r>   106.8397     0.0000   247.5802 </r>
       <r>   107.3149     0.0000   248.8163 </r>
       <r>   107.7901     0.5844   249.6655 </r>
       <r>   108.2653     0.0000   251.0321 </r>
       <r>   108.7405     0.0000   252.0816 </r>
       <r>   109.2157     0.0000   253.6910 </r>
       <r>   109.6909     0.0000   253.6910 </r>
       <r>   110.1661     0.0000   254.4956 </r>
       <r>   110.6413     0.0000   255.2653 </r>
       <r>   111.1165     0.0000   255.8601 </r>
       <r>   111.5917     0.0000   256.0000 </r>
       <r>   112.0669     0.0000   256.0000 </r>
       <r>   112.5421     0.0000   256.0000 </r>
       <r>   113.0173     0.0000   256.0000 </r>
       <r>   113.4925     0.0000   256.0000 </r>
       <r>   113.9677     0.0000   256.0000 </r>
       <r>   114.4429     0.0000   256.0000 </r>
       <r>   114.9181     0.0000   256.0000 </r>
       <r>   115.3933     0.0000   256.0000 </r>
       <r>   115.8685     0.0000   256.0000 </r>
       <r>   116.3437     0.0000   256.0000 </r>
       <r>   116.8189     0.0000   256.0000 </r>
       <r>   117.2941     0.0000   256.0000 </r>
       <r>   117.7693     0.0000   256.0000 </r>
      </set>
     </set>
    </array>
   </total>
  </dos>
 </calculation>
 <structure name="finalpos" >
  <crystal>
   <varray name="basis" >
    <v>       4.00933418       0.00000000       0.00000000 </v>
    <v>       2.00466709       3.47218525      -0.00000000 </v>
    <v>       2.00466709       1.15739508       3.27360765 </v>
   </varray>
   <i name="volume">     45.57238633 </i>
   <varray name="rec_basis" >
    <v>       0.24941797      -0.14400153      -0.10182446 </v>
    <v>       0.00000000       0.28800307      -0.10182446 </v>
    <v>      -0.00000000       0.00000000       0.30547338 </v>
   </varray>
  </crystal>
  <varray name="positions" >
   <v>       0.00000000       0.00000000       0.00000000 </v>
  </varray>
  <varray name="velocities" >
   <v>       0.00000000       0.00000000       0.00000000 </v>
  </varray>
 </structure>
</modeling>
