   1   1   0   0
  0.6083477E+02  0.4414576E-09  0.4414576E-09  0.4414576E-09  0.1000000E-15
  1.000000000000000E-004
  CAR 
 Og_FCC                                  
     55.09496980    -48.47428071  301     -0.74611777      1.00000000
    -48.474  0.0000E+00  0.0000E+00
    -48.129  0.0000E+00  0.0000E+00
    -47.784  0.0000E+00  0.0000E+00
    -47.439  0.0000E+00  0.0000E+00
    -47.093  0.0000E+00  0.0000E+00
    -46.748  0.0000E+00  0.0000E+00
    -46.403  0.0000E+00  0.0000E+00
    -46.058  0.0000E+00  0.0000E+00
    -45.712  0.0000E+00  0.0000E+00
    -45.367  0.0000E+00  0.0000E+00
    -45.022  0.0000E+00  0.0000E+00
    -44.677  0.0000E+00  0.0000E+00
    -44.332  0.0000E+00  0.0000E+00
    -43.986  0.0000E+00  0.0000E+00
    -43.641  0.0000E+00  0.4000E+01
    -43.296  0.0000E+00  0.4000E+01
    -42.951  0.0000E+00  0.4000E+01
    -42.605  0.0000E+00  0.4000E+01
    -42.260  0.0000E+00  0.4000E+01
    -41.915  0.0000E+00  0.4000E+01
    -41.570  0.0000E+00  0.4000E+01
    -41.224  0.0000E+00  0.4000E+01
    -40.879  0.0000E+00  0.4000E+01
    -40.534  0.0000E+00  0.4000E+01
    -40.189  0.0000E+00  0.4000E+01
    -39.844  0.0000E+00  0.4000E+01
    -39.498  0.0000E+00  0.4000E+01
    -39.153  0.0000E+00  0.1000E+02
    -38.808  0.0000E+00  0.1000E+02
    -38.463  0.0000E+00  0.1000E+02
    -38.117  0.0000E+00  0.1000E+02
    -37.772  0.0000E+00  0.1000E+02
    -37.427  0.0000E+00  0.1000E+02
    -37.082  0.0000E+00  0.1000E+02
    -36.736  0.0000E+00  0.1000E+02
    -36.391  0.0000E+00  0.1000E+02
    -36.046  0.0000E+00  0.1000E+02
    -35.701  0.0000E+00  0.1000E+02
    -35.356  0.0000E+00  0.1000E+02
    -35.010  0.0000E+00  0.1000E+02
    -34.665  0.0000E+00  0.1000E+02
    -34.320  0.0000E+00  0.1000E+02
    -33.975  0.0000E+00  0.1000E+02
    -33.629  0.0000E+00  0.1000E+02
    -33.284  0.0000E+00  0.1000E+02
    -32.939  0.0000E+00  0.1000E+02
    -32.594  0.0000E+00  0.1000E+02
    -32.248  0.0000E+00  0.1000E+02
    -31.903  0.0000E+00  0.1000E+02
    -31.558  0.0000E+00  0.1000E+02
    -31.213  0.0000E+00  0.1000E+02
    -30.868  0.0000E+00  0.1000E+02
    -30.522  0.0000E+00  0.1000E+02
    -30.177  0.0000E+00  0.1000E+02
    -29.832  0.0000E+00  0.1000E+02
    -29.487  0.0000E+00  0.1000E+02
    -29.141  0.0000E+00  0.1000E+02
    -28.796  0.0000E+00  0.1000E+02
    -28.451  0.0000E+00  0.1000E+02
    -28.106  0.0000E+00  0.1000E+02
    -27.760  0.0000E+00  0.1000E+02
    -27.415  0.0000E+00  0.1000E+02
    -27.070  0.0000E+00  0.1000E+02
    -26.725  0.0000E+00  0.1000E+02
    -26.380  0.0000E+00  0.1000E+02
    -26.034  0.0000E+00  0.1000E+02
    -25.689  0.0000E+00  0.1000E+02
    -25.344  0.0000E+00  0.1000E+02
    -24.999  0.0000E+00  0.1000E+02
    -24.653  0.0000E+00  0.1000E+02
    -24.308  0.0000E+00  0.1000E+02
    -23.963  0.0000E+00  0.1000E+02
    -23.618  0.0000E+00  0.1000E+02
    -23.272  0.0000E+00  0.1000E+02
    -22.927  0.0000E+00  0.1000E+02
    -22.582  0.0000E+00  0.1000E+02
    -22.237  0.0000E+00  0.1000E+02
    -21.892  0.0000E+00  0.1000E+02
    -21.546  0.0000E+00  0.1000E+02
    -21.201  0.0000E+00  0.1000E+02
    -20.856  0.0000E+00  0.1000E+02
    -20.511  0.0000E+00  0.1000E+02
    -20.165  0.0000E+00  0.1000E+02
    -19.820  0.0000E+00  0.1000E+02
    -19.475  0.0000E+00  0.1000E+02
    -19.130  0.0000E+00  0.1000E+02
    -18.784  0.0000E+00  0.1000E+02
    -18.439  0.0000E+00  0.1000E+02
    -18.094  0.0000E+00  0.1000E+02
    -17.749  0.0000E+00  0.1000E+02
    -17.404  0.0000E+00  0.1000E+02
    -17.058  0.1689E-01  0.1001E+02
    -16.713  0.0000E+00  0.1200E+02
    -16.368  0.0000E+00  0.1200E+02
    -16.023  0.0000E+00  0.1200E+02
    -15.677  0.0000E+00  0.1200E+02
    -15.332  0.0000E+00  0.1200E+02
    -14.987  0.0000E+00  0.1200E+02
    -14.642  0.0000E+00  0.1200E+02
    -14.296  0.0000E+00  0.1200E+02
    -13.951  0.0000E+00  0.1200E+02
    -13.606  0.0000E+00  0.1200E+02
    -13.261  0.0000E+00  0.1200E+02
    -12.916  0.0000E+00  0.1200E+02
    -12.570  0.0000E+00  0.1200E+02
    -12.225  0.0000E+00  0.1200E+02
    -11.880  0.0000E+00  0.1200E+02
    -11.535  0.0000E+00  0.1200E+02
    -11.189  0.0000E+00  0.1200E+02
    -10.844  0.0000E+00  0.1200E+02
    -10.499  0.0000E+00  0.1200E+02
    -10.154  0.0000E+00  0.1200E+02
     -9.808  0.0000E+00  0.1200E+02
     -9.463  0.0000E+00  0.1200E+02
     -9.118  0.0000E+00  0.1200E+02
     -8.773  0.0000E+00  0.1200E+02
     -8.428  0.0000E+00  0.1200E+02
     -8.082  0.0000E+00  0.1200E+02
     -7.737  0.0000E+00  0.1200E+02
     -7.392  0.0000E+00  0.1200E+02
     -7.047  0.0000E+00  0.1200E+02
     -6.701  0.0000E+00  0.1200E+02
     -6.356  0.0000E+00  0.1200E+02
     -6.011  0.0000E+00  0.1200E+02
     -5.666  0.0000E+00  0.1200E+02
     -5.320  0.1630E-01  0.1302E+02
     -4.975  0.0000E+00  0.1384E+02
     -4.630  0.0000E+00  0.1400E+02
     -4.285  0.0000E+00  0.1400E+02
     -3.940  0.0000E+00  0.1400E+02
     -3.594  0.0000E+00  0.1400E+02
     -3.249  0.0000E+00  0.1400E+02
     -2.904  0.0000E+00  0.1400E+02
     -2.559  0.5528E-12  0.1421E+02
     -2.213  0.0000E+00  0.1562E+02
     -1.868  0.0000E+00  0.1612E+02
     -1.523  0.0000E+00  0.1693E+02
     -1.178  0.2626E-05  0.1774E+02
     -0.832  0.0000E+00  0.1800E+02
     -0.487  0.0000E+00  0.1800E+02
     -0.142  0.0000E+00  0.1800E+02
      0.203  0.0000E+00  0.1800E+02
      0.548  0.0000E+00  0.1800E+02
      0.894  0.0000E+00  0.1800E+02
      1.239  0.0000E+00  0.1800E+02
      1.584  0.0000E+00  0.1800E+02
      1.929  0.0000E+00  0.1800E+02
      2.275  0.0000E+00  0.1800E+02
      2.620  0.0000E+00  0.1800E+02
      2.965  0.0000E+00  0.1801E+02
      3.310  0.0000E+00  0.1801E+02
      3.656  0.0000E+00  0.1805E+02
      4.001  0.0000E+00  0.1809E+02
      4.346  0.0000E+00  0.1809E+02
      4.691  0.0000E+00  0.1829E+02
      5.036  0.0000E+00  0.1853E+02
      5.382  0.0000E+00  0.1937E+02
      5.727  0.0000E+00  0.1969E+02
      6.072  0.0000E+00  0.2028E+02
      6.417  0.0000E+00  0.2070E+02
      6.763  0.4054E+00  0.2119E+02
      7.108  0.0000E+00  0.2185E+02
      7.453  0.0000E+00  0.2199E+02
      7.798  0.0000E+00  0.2294E+02
      8.144  0.4054E+00  0.2381E+02
      8.489  0.0000E+00  0.2432E+02
      8.834  0.0000E+00  0.2488E+02
      9.179  0.0000E+00  0.2530E+02
      9.524  0.0000E+00  0.2569E+02
      9.870  0.0000E+00  0.2643E+02
     10.215  0.0000E+00  0.2665E+02
     10.560  0.0000E+00  0.2695E+02
     10.905  0.2295E-12  0.2757E+02
     11.251  0.0000E+00  0.2820E+02
     11.596  0.0000E+00  0.2907E+02
     11.941  0.0000E+00  0.3001E+02
     12.286  0.0000E+00  0.3021E+02
     12.632  0.2027E+00  0.3084E+02
     12.977  0.0000E+00  0.3129E+02
     13.322  0.1351E+00  0.3170E+02
     13.667  0.0000E+00  0.3226E+02
     14.013  0.4054E+00  0.3337E+02
     14.358  0.0000E+00  0.3454E+02
     14.703  0.9919E-01  0.3532E+02
     15.048  0.3920E+00  0.3588E+02
     15.393  0.0000E+00  0.3668E+02
     15.739  0.0000E+00  0.3794E+02
     16.084  0.0000E+00  0.3823E+02
     16.429  0.0000E+00  0.3894E+02
     16.774  0.0000E+00  0.3998E+02
     17.120  0.0000E+00  0.4169E+02
     17.465  0.0000E+00  0.4302E+02
     17.810  0.4054E+00  0.4445E+02
     18.155  0.0000E+00  0.4505E+02
     18.501  0.1897E+00  0.4545E+02
     18.846  0.0000E+00  0.4610E+02
     19.191  0.1246E+00  0.4650E+02
     19.536  0.0000E+00  0.4678E+02
     19.881  0.0000E+00  0.4745E+02
     20.227  0.0000E+00  0.4850E+02
     20.572  0.4054E+00  0.4928E+02
     20.917  0.0000E+00  0.4974E+02
     21.262  0.1959E+00  0.5118E+02
     21.608  0.1782E-01  0.5214E+02
     21.953  0.0000E+00  0.5303E+02
     22.298  0.0000E+00  0.5419E+02
     22.643  0.1216E+01  0.5531E+02
     22.989  0.0000E+00  0.5640E+02
     23.334  0.0000E+00  0.5704E+02
     23.679  0.0000E+00  0.5738E+02
     24.024  0.4095E-05  0.5781E+02
     24.369  0.1149E+01  0.5896E+02
     24.715  0.3767E-02  0.5967E+02
     25.060  0.0000E+00  0.6047E+02
     25.405  0.8583E-02  0.6069E+02
     25.750  0.2189E-12  0.6126E+02
     26.096  0.4054E+00  0.6212E+02
     26.441  0.0000E+00  0.6328E+02
     26.786  0.6838E-04  0.6401E+02
     27.131  0.2027E+00  0.6490E+02
     27.477  0.1013E+00  0.6566E+02
     27.822  0.0000E+00  0.6691E+02
     28.167  0.0000E+00  0.6826E+02
     28.512  0.0000E+00  0.6943E+02
     28.857  0.2027E+00  0.7012E+02
     29.203  0.0000E+00  0.7096E+02
     29.548  0.0000E+00  0.7206E+02
     29.893  0.0000E+00  0.7259E+02
     30.238  0.0000E+00  0.7284E+02
     30.584  0.0000E+00  0.7336E+02
     30.929  0.0000E+00  0.7424E+02
     31.274  0.9583E-01  0.7543E+02
     31.619  0.0000E+00  0.7666E+02
     31.965  0.1351E+00  0.7762E+02
     32.310  0.0000E+00  0.7890E+02
     32.655  0.0000E+00  0.7972E+02
     33.000  0.0000E+00  0.8083E+02
     33.345  0.0000E+00  0.8170E+02
     33.691  0.0000E+00  0.8276E+02
     34.036  0.2259E-02  0.8359E+02
     34.381  0.0000E+00  0.8413E+02
     34.726  0.1013E+00  0.8548E+02
     35.072  0.0000E+00  0.8633E+02
     35.417  0.0000E+00  0.8699E+02
     35.762  0.0000E+00  0.8740E+02
     36.107  0.0000E+00  0.8874E+02
     36.453  0.0000E+00  0.8934E+02
     36.798  0.0000E+00  0.9048E+02
     37.143  0.0000E+00  0.9073E+02
     37.488  0.7276E-01  0.9215E+02
     37.833  0.2988E+00  0.9298E+02
     38.179  0.0000E+00  0.9380E+02
     38.524  0.0000E+00  0.9536E+02
     38.869  0.0000E+00  0.9644E+02
     39.214  0.0000E+00  0.9678E+02
     39.560  0.4054E+00  0.9781E+02
     39.905  0.0000E+00  0.9864E+02
     40.250  0.0000E+00  0.9994E+02
     40.595  0.4043E+00  0.1003E+03
     40.941  0.1013E+00  0.1019E+03
     41.286  0.0000E+00  0.1033E+03
     41.631  0.0000E+00  0.1042E+03
     41.976  0.1444E+00  0.1049E+03
     42.321  0.4054E+00  0.1060E+03
     42.667  0.0000E+00  0.1069E+03
     43.012  0.0000E+00  0.1079E+03
     43.357  0.2027E+00  0.1093E+03
     43.702  0.0000E+00  0.1103E+03
     44.048  0.0000E+00  0.1116E+03
     44.393  0.0000E+00  0.1124E+03
     44.738  0.0000E+00  0.1134E+03
     45.083  0.2365E+00  0.1145E+03
     45.429  0.2143E-06  0.1151E+03
     45.774  0.0000E+00  0.1164E+03
     46.119  0.0000E+00  0.1178E+03
     46.464  0.0000E+00  0.1182E+03
     46.809  0.8101E+00  0.1192E+03
     47.155  0.0000E+00  0.1197E+03
     47.500  0.0000E+00  0.1210E+03
     47.845  0.1013E+00  0.1217E+03
     48.190  0.0000E+00  0.1228E+03
     48.536  0.1013E+00  0.1240E+03
     48.881  0.4054E+00  0.1251E+03
     49.226  0.0000E+00  0.1257E+03
     49.571  0.0000E+00  0.1266E+03
     49.917  0.0000E+00  0.1274E+03
     50.262  0.0000E+00  0.1277E+03
     50.607  0.0000E+00  0.1280E+03
     50.952  0.0000E+00  0.1280E+03
     51.297  0.0000E+00  0.1280E+03
     51.643  0.0000E+00  0.1280E+03
     51.988  0.0000E+00  0.1280E+03
     52.333  0.0000E+00  0.1280E+03
     52.678  0.0000E+00  0.1280E+03
     53.024  0.0000E+00  0.1280E+03
     53.369  0.0000E+00  0.1280E+03
     53.714  0.0000E+00  0.1280E+03
     54.059  0.0000E+00  0.1280E+03
     54.405  0.0000E+00  0.1280E+03
     54.750  0.0000E+00  0.1280E+03
     55.095  0.0000E+00  0.1280E+03
