    1    1    1    1
  0.6083477E+02  0.4414576E-09  0.4414576E-09  0.4414576E-09  0.1000000E-15
  1.000000000000000E-004
  CAR 
 Og_FCC                                  
     18    343    128
 
  0.0000000E+00  0.0000000E+00  0.0000000E+00  0.2915452E-02
    1      -43.766588   1.000000
    2      -43.766588   1.000000
    3      -43.766586   1.000000
    4      -43.766586   1.000000
    5      -39.363268   1.000000
    6      -39.363268   1.000000
    7      -39.362491   1.000000
    8      -39.362491   1.000000
    9      -39.362490   1.000000
   10      -39.362490   1.000000
   11      -17.061918   1.000000
   12      -17.061918   1.000000
   13       -4.660941   1.000000
   14       -4.660941   1.000000
   15       -0.892161   1.000000
   16       -0.892161   1.000000
   17       -0.892160   1.000000
   18       -0.892160   1.000000
   19        2.822519   0.000000
   20        2.822519   0.000000
   21        8.076264   0.000000
   22        8.076264   0.000000
   23        8.076264   0.000000
   24        8.076264   0.000000
   25        8.242032   0.000000
   26        8.242032   0.000000
   27        9.834401   0.000000
   28        9.834401   0.000000
   29       10.687847   0.000000
   30       10.687847   0.000000
   31       10.687847   0.000000
   32       10.687847   0.000000
   33       11.902981   0.000000
   34       11.902981   0.000000
   35       11.998313   0.000000
   36       11.998313   0.000000
   37       11.998313   0.000000
   38       11.998313   0.000000
   39       14.654193   0.000000
   40       14.654193   0.000000
   41       18.918915   0.000000
   42       18.918915   0.000000
   43       18.953730   0.000000
   44       18.953730   0.000000
   45       18.953731   0.000000
   46       18.953731   0.000000
   47       21.982300   0.000000
   48       21.982300   0.000000
   49       23.165474   0.000000
   50       23.165474   0.000000
   51       23.165474   0.000000
   52       23.165474   0.000000
   53       23.921099   0.000000
   54       23.921099   0.000000
   55       25.553111   0.000000
   56       25.553111   0.000000
   57       25.602289   0.000000
   58       25.602289   0.000000
   59       25.602290   0.000000
   60       25.602290   0.000000
   61       25.971898   0.000000
   62       25.971898   0.000000
   63       26.494189   0.000000
   64       26.494189   0.000000
   65       26.494189   0.000000
   66       26.494189   0.000000
   67       26.790521   0.000000
   68       26.790521   0.000000
   69       26.790522   0.000000
   70       26.790522   0.000000
   71       28.433716   0.000000
   72       28.433716   0.000000
   73       34.322270   0.000000
   74       34.322270   0.000000
   75       34.352926   0.000000
   76       34.352926   0.000000
   77       34.352926   0.000000
   78       34.352926   0.000000
   79       36.520378   0.000000
   80       36.520378   0.000000
   81       36.520378   0.000000
   82       36.520378   0.000000
   83       36.675028   0.000000
   84       36.675028   0.000000
   85       36.976173   0.000000
   86       36.976173   0.000000
   87       36.976173   0.000000
   88       36.976173   0.000000
   89       36.976173   0.000000
   90       36.976173   0.000000
   91       37.684164   0.000000
   92       37.684164   0.000000
   93       37.684164   0.000000
   94       37.684164   0.000000
   95       37.867776   0.000000
   96       37.867776   0.000000
   97       38.242772   0.000000
   98       38.242772   0.000000
   99       38.242772   0.000000
  100       38.242772   0.000000
  101       39.950581   0.000000
  102       39.950581   0.000000
  103       39.950581   0.000000
  104       39.950581   0.000000
  105       39.987635   0.000000
  106       39.987635   0.000000
  107       40.684675   0.000000
  108       40.684675   0.000000
  109       40.684675   0.000000
  110       40.684675   0.000000
  111       40.693856   0.000000
  112       40.693856   0.000000
  113       42.794434   0.000000
  114       42.794434   0.000000
  115       42.814178   0.000000
  116       42.814178   0.000000
  117       42.814178   0.000000
  118       42.814178   0.000000
  119       43.246616   0.000000
  120       43.246616   0.000000
  121       43.806420   0.000000
  122       43.806420   0.000000
  123       44.159607   0.000000
  124       44.159607   0.000000
  125       44.159607   0.000000
  126       44.159607   0.000000
  127       44.176723   0.000000
  128       44.176723   0.000000
 
  0.1428571E+00 -0.1258766E-16 -0.6938894E-17  0.2915452E-02
    1      -43.766563   1.000000
    2      -43.766563   1.000000
    3      -43.766503   1.000000
    4      -43.766503   1.000000
    5      -39.362901   1.000000
    6      -39.362901   1.000000
    7      -39.362339   1.000000
    8      -39.362339   1.000000
    9      -39.362121   1.000000
   10      -39.362121   1.000000
   11      -17.030149   1.000000
   12      -17.030149   1.000000
   13       -4.782392   1.000000
   14       -4.782392   1.000000
   15       -1.358961   1.000000
   16       -1.358961   1.000000
   17       -0.951815   1.000000
   18       -0.951815   1.000000
   19        3.520870   0.000000
   20        3.520870   0.000000
   21        7.477359   0.000000
   22        7.477359   0.000000
   23        8.246771   0.000000
   24        8.246771   0.000000
   25        8.393595   0.000000
   26        8.393595   0.000000
   27        9.945249   0.000000
   28        9.945249   0.000000
   29       10.011294   0.000000
   30       10.011294   0.000000
   31       10.722838   0.000000
   32       10.722838   0.000000
   33       11.661027   0.000000
   34       11.661027   0.000000
   35       13.265844   0.000000
   36       13.265844   0.000000
   37       13.316441   0.000000
   38       13.316441   0.000000
   39       16.016445   0.000000
   40       16.016445   0.000000
   41       18.245489   0.000000
   42       18.245489   0.000000
   43       18.309007   0.000000
   44       18.309007   0.000000
   45       18.989157   0.000000
   46       18.989157   0.000000
   47       20.483048   0.000000
   48       20.483048   0.000000
   49       22.146994   0.000000
   50       22.146994   0.000000
   51       22.672436   0.000000
   52       22.672436   0.000000
   53       23.642758   0.000000
   54       23.642758   0.000000
   55       24.610941   0.000000
   56       24.610941   0.000000
   57       24.844148   0.000000
   58       24.844148   0.000000
   59       24.968849   0.000000
   60       24.968849   0.000000
   61       26.243924   0.000000
   62       26.243924   0.000000
   63       26.474122   0.000000
   64       26.474122   0.000000
   65       27.226071   0.000000
   66       27.226071   0.000000
   67       27.671333   0.000000
   68       27.671333   0.000000
   69       28.324199   0.000000
   70       28.324199   0.000000
   71       31.055262   0.000000
   72       31.055262   0.000000
   73       33.330550   0.000000
   74       33.330550   0.000000
   75       33.509026   0.000000
   76       33.509026   0.000000
   77       33.727334   0.000000
   78       33.727334   0.000000
   79       33.793678   0.000000
   80       33.793678   0.000000
   81       34.592613   0.000000
   82       34.592613   0.000000
   83       34.841852   0.000000
   84       34.841852   0.000000
   85       36.482263   0.000000
   86       36.482263   0.000000
   87       36.600697   0.000000
   88       36.600697   0.000000
   89       37.184977   0.000000
   90       37.184977   0.000000
   91       37.300529   0.000000
   92       37.300529   0.000000
   93       37.741594   0.000000
   94       37.741594   0.000000
   95       37.968747   0.000000
   96       37.968747   0.000000
   97       38.040643   0.000000
   98       38.040643   0.000000
   99       38.097206   0.000000
  100       38.097206   0.000000
  101       38.571786   0.000000
  102       38.571786   0.000000
  103       39.927398   0.000000
  104       39.927398   0.000000
  105       40.287598   0.000000
  106       40.287598   0.000000
  107       40.540786   0.000000
  108       40.540786   0.000000
  109       41.824781   0.000000
  110       41.824781   0.000000
  111       41.971103   0.000000
  112       41.971103   0.000000
  113       41.977248   0.000000
  114       41.977248   0.000000
  115       43.552915   0.000000
  116       43.552915   0.000000
  117       43.609308   0.000000
  118       43.609308   0.000000
  119       44.440258   0.000000
  120       44.440258   0.000000
  121       45.075473   0.000000
  122       45.075473   0.000000
  123       45.436673   0.000000
  124       45.436673   0.000000
  125       45.548778   0.000000
  126       45.548778   0.000000
  127       45.590189   0.000000
  128       45.590189   0.000000
 
  0.2857143E+00  0.2580261E-17 -0.1387779E-16  0.2915452E-02
    1      -43.766506   1.000000
    2      -43.766506   1.000000
    3      -43.766294   1.000000
    4      -43.766294   1.000000
    5      -39.362923   1.000000
    6      -39.362923   1.000000
    7      -39.362433   1.000000
    8      -39.362433   1.000000
    9      -39.361958   1.000000
   10      -39.361958   1.000000
   11      -16.958428   1.000000
   12      -16.958428   1.000000
   13       -5.072582   1.000000
   14       -5.072582   1.000000
   15       -2.042583   1.000000
   16       -2.042583   1.000000
   17       -1.078934   1.000000
   18       -1.078934   1.000000
   19        4.450640   0.000000
   20        4.450640   0.000000
   21        7.472960   0.000000
   22        7.472960   0.000000
   23        8.088577   0.000000
   24        8.088577   0.000000
   25        8.268216   0.000000
   26        8.268216   0.000000
   27       10.042773   0.000000
   28       10.042773   0.000000
   29       10.239998   0.000000
   30       10.239998   0.000000
   31       10.372074   0.000000
   32       10.372074   0.000000
   33       13.913324   0.000000
   34       13.913324   0.000000
   35       15.333927   0.000000
   36       15.333927   0.000000
   37       15.376248   0.000000
   38       15.376248   0.000000
   39       16.216300   0.000000
   40       16.216300   0.000000
   41       16.453771   0.000000
   42       16.453771   0.000000
   43       17.267592   0.000000
   44       17.267592   0.000000
   45       18.564372   0.000000
   46       18.564372   0.000000
   47       19.099122   0.000000
   48       19.099122   0.000000
   49       21.656233   0.000000
   50       21.656233   0.000000
   51       22.267068   0.000000
   52       22.267068   0.000000
   53       22.885313   0.000000
   54       22.885313   0.000000
   55       23.908174   0.000000
   56       23.908174   0.000000
   57       24.188944   0.000000
   58       24.188944   0.000000
   59       24.504973   0.000000
   60       24.504973   0.000000
   61       26.541373   0.000000
   62       26.541373   0.000000
   63       26.753990   0.000000
   64       26.753990   0.000000
   65       27.454285   0.000000
   66       27.454285   0.000000
   67       28.131841   0.000000
   68       28.131841   0.000000
   69       28.664041   0.000000
   70       28.664041   0.000000
   71       29.647628   0.000000
   72       29.647628   0.000000
   73       31.958552   0.000000
   74       31.958552   0.000000
   75       31.995385   0.000000
   76       31.995385   0.000000
   77       32.085161   0.000000
   78       32.085161   0.000000
   79       32.885822   0.000000
   80       32.885822   0.000000
   81       33.029808   0.000000
   82       33.029808   0.000000
   83       33.269076   0.000000
   84       33.269076   0.000000
   85       35.491716   0.000000
   86       35.491716   0.000000
   87       36.135337   0.000000
   88       36.135337   0.000000
   89       36.286377   0.000000
   90       36.286377   0.000000
   91       36.817257   0.000000
   92       36.817257   0.000000
   93       36.920654   0.000000
   94       36.920654   0.000000
   95       38.310661   0.000000
   96       38.310661   0.000000
   97       38.637622   0.000000
   98       38.637622   0.000000
   99       38.642794   0.000000
  100       38.642794   0.000000
  101       39.122241   0.000000
  102       39.122241   0.000000
  103       40.239010   0.000000
  104       40.239010   0.000000
  105       41.199199   0.000000
  106       41.199199   0.000000
  107       41.475915   0.000000
  108       41.475915   0.000000
  109       42.041412   0.000000
  110       42.041412   0.000000
  111       42.829020   0.000000
  112       42.829020   0.000000
  113       42.970816   0.000000
  114       42.970816   0.000000
  115       45.937459   0.000000
  116       45.937459   0.000000
  117       46.622908   0.000000
  118       46.622908   0.000000
  119       46.847432   0.000000
  120       46.847432   0.000000
  121       47.039661   0.000000
  122       47.039661   0.000000
  123       47.506224   0.000000
  124       47.506224   0.000000
  125       47.591815   0.000000
  126       47.591815   0.000000
  127       48.091413   0.000000
  128       48.091413   0.000000
 
  0.4285714E+00  0.3870391E-17  0.2775558E-16  0.2915452E-02
    1      -43.766467   1.000000
    2      -43.766467   1.000000
    3      -43.766132   1.000000
    4      -43.766132   1.000000
    5      -39.363138   1.000000
    6      -39.363138   1.000000
    7      -39.361953   1.000000
    8      -39.361953   1.000000
    9      -39.361921   1.000000
   10      -39.361921   1.000000
   11      -16.899316   1.000000
   12      -16.899316   1.000000
   13       -5.319598   1.000000
   14       -5.319598   1.000000
   15       -2.415338   1.000000
   16       -2.415338   1.000000
   17       -1.174747   1.000000
   18       -1.174747   1.000000
   19        4.613345   0.000000
   20        4.613345   0.000000
   21        7.736437   0.000000
   22        7.736437   0.000000
   23        7.901398   0.000000
   24        7.901398   0.000000
   25        8.336780   0.000000
   26        8.336780   0.000000
   27       10.023989   0.000000
   28       10.023989   0.000000
   29       11.822592   0.000000
   30       11.822592   0.000000
   31       11.970209   0.000000
   32       11.970209   0.000000
   33       13.854648   0.000000
   34       13.854648   0.000000
   35       14.111570   0.000000
   36       14.111570   0.000000
   37       14.458723   0.000000
   38       14.458723   0.000000
   39       16.529076   0.000000
   40       16.529076   0.000000
   41       17.211360   0.000000
   42       17.211360   0.000000
   43       17.232118   0.000000
   44       17.232118   0.000000
   45       19.189960   0.000000
   46       19.189960   0.000000
   47       20.720258   0.000000
   48       20.720258   0.000000
   49       21.561641   0.000000
   50       21.561641   0.000000
   51       21.913789   0.000000
   52       21.913789   0.000000
   53       22.067465   0.000000
   54       22.067465   0.000000
   55       22.711742   0.000000
   56       22.711742   0.000000
   57       23.440307   0.000000
   58       23.440307   0.000000
   59       24.753922   0.000000
   60       24.753922   0.000000
   61       26.014932   0.000000
   62       26.014932   0.000000
   63       26.751477   0.000000
   64       26.751477   0.000000
   65       26.869100   0.000000
   66       26.869100   0.000000
   67       27.652508   0.000000
   68       27.652508   0.000000
   69       27.830230   0.000000
   70       27.830230   0.000000
   71       28.580185   0.000000
   72       28.580185   0.000000
   73       29.526452   0.000000
   74       29.526452   0.000000
   75       31.210053   0.000000
   76       31.210053   0.000000
   77       31.220414   0.000000
   78       31.220414   0.000000
   79       31.273653   0.000000
   80       31.273653   0.000000
   81       32.345271   0.000000
   82       32.345271   0.000000
   83       32.688447   0.000000
   84       32.688447   0.000000
   85       35.736313   0.000000
   86       35.736313   0.000000
   87       35.820247   0.000000
   88       35.820247   0.000000
   89       36.270013   0.000000
   90       36.270013   0.000000
   91       36.605595   0.000000
   92       36.605595   0.000000
   93       36.767903   0.000000
   94       36.767903   0.000000
   95       39.038024   0.000000
   96       39.038024   0.000000
   97       39.257968   0.000000
   98       39.257968   0.000000
   99       39.645751   0.000000
  100       39.645751   0.000000
  101       39.662099   0.000000
  102       39.662099   0.000000
  103       42.736995   0.000000
  104       42.736995   0.000000
  105       42.805791   0.000000
  106       42.805791   0.000000
  107       42.837970   0.000000
  108       42.837970   0.000000
  109       43.450774   0.000000
  110       43.450774   0.000000
  111       44.870701   0.000000
  112       44.870701   0.000000
  113       44.976711   0.000000
  114       44.976711   0.000000
  115       45.087750   0.000000
  116       45.087750   0.000000
  117       47.617398   0.000000
  118       47.617398   0.000000
  119       47.849162   0.000000
  120       47.849162   0.000000
  121       48.796360   0.000000
  122       48.796360   0.000000
  123       48.979651   0.000000
  124       48.979651   0.000000
  125       49.062423   0.000000
  126       49.062423   0.000000
  127       50.127190   0.000000
  128       50.127190   0.000000
 
 -0.4285714E+00 -0.3870391E-17 -0.2775558E-16  0.2915452E-02
    1      -43.766467   1.000000
    2      -43.766467   1.000000
    3      -43.766132   1.000000
    4      -43.766132   1.000000
    5      -39.363138   1.000000
    6      -39.363138   1.000000
    7      -39.361953   1.000000
    8      -39.361953   1.000000
    9      -39.361921   1.000000
   10      -39.361921   1.000000
   11      -16.899316   1.000000
   12      -16.899316   1.000000
   13       -5.319598   1.000000
   14       -5.319598   1.000000
   15       -2.415338   1.000000
   16       -2.415338   1.000000
   17       -1.174747   1.000000
   18       -1.174747   1.000000
   19        4.613345   0.000000
   20        4.613345   0.000000
   21        7.736437   0.000000
   22        7.736437   0.000000
   23        7.901398   0.000000
   24        7.901398   0.000000
   25        8.336780   0.000000
   26        8.336780   0.000000
   27       10.023989   0.000000
   28       10.023989   0.000000
   29       11.822592   0.000000
   30       11.822592   0.000000
   31       11.970209   0.000000
   32       11.970209   0.000000
   33       13.854648   0.000000
   34       13.854648   0.000000
   35       14.111570   0.000000
   36       14.111570   0.000000
   37       14.458723   0.000000
   38       14.458723   0.000000
   39       16.529076   0.000000
   40       16.529076   0.000000
   41       17.211360   0.000000
   42       17.211360   0.000000
   43       17.232118   0.000000
   44       17.232118   0.000000
   45       19.189960   0.000000
   46       19.189960   0.000000
   47       20.720258   0.000000
   48       20.720258   0.000000
   49       21.561641   0.000000
   50       21.561641   0.000000
   51       21.913789   0.000000
   52       21.913789   0.000000
   53       22.067465   0.000000
   54       22.067465   0.000000
   55       22.711742   0.000000
   56       22.711742   0.000000
   57       23.440307   0.000000
   58       23.440307   0.000000
   59       24.753922   0.000000
   60       24.753922   0.000000
   61       26.014932   0.000000
   62       26.014932   0.000000
   63       26.751477   0.000000
   64       26.751477   0.000000
   65       26.869100   0.000000
   66       26.869100   0.000000
   67       27.652508   0.000000
   68       27.652508   0.000000
   69       27.830230   0.000000
   70       27.830230   0.000000
   71       28.580185   0.000000
   72       28.580185   0.000000
   73       29.526452   0.000000
   74       29.526452   0.000000
   75       31.210053   0.000000
   76       31.210053   0.000000
   77       31.220414   0.000000
   78       31.220414   0.000000
   79       31.273653   0.000000
   80       31.273653   0.000000
   81       32.345271   0.000000
   82       32.345271   0.000000
   83       32.688447   0.000000
   84       32.688447   0.000000
   85       35.736313   0.000000
   86       35.736313   0.000000
   87       35.820247   0.000000
   88       35.820247   0.000000
   89       36.270013   0.000000
   90       36.270013   0.000000
   91       36.605595   0.000000
   92       36.605595   0.000000
   93       36.767903   0.000000
   94       36.767903   0.000000
   95       39.038024   0.000000
   96       39.038024   0.000000
   97       39.257968   0.000000
   98       39.257968   0.000000
   99       39.645751   0.000000
  100       39.645751   0.000000
  101       39.662099   0.000000
  102       39.662099   0.000000
  103       42.736995   0.000000
  104       42.736995   0.000000
  105       42.805791   0.000000
  106       42.805791   0.000000
  107       42.837970   0.000000
  108       42.837970   0.000000
  109       43.450774   0.000000
  110       43.450774   0.000000
  111       44.870701   0.000000
  112       44.870701   0.000000
  113       44.976711   0.000000
  114       44.976711   0.000000
  115       45.087750   0.000000
  116       45.087750   0.000000
  117       47.617398   0.000000
  118       47.617398   0.000000
  119       47.849162   0.000000
  120       47.849162   0.000000
  121       48.796360   0.000000
  122       48.796360   0.000000
  123       48.979651   0.000000
  124       48.979651   0.000000
  125       49.062423   0.000000
  126       49.062423   0.000000
  127       50.127190   0.000000
  128       50.127190   0.000000
 
 -0.2857143E+00 -0.2580261E-17  0.1387779E-16  0.2915452E-02
    1      -43.766506   1.000000
    2      -43.766506   1.000000
    3      -43.766294   1.000000
    4      -43.766294   1.000000
    5      -39.362923   1.000000
    6      -39.362923   1.000000
    7      -39.362433   1.000000
    8      -39.362433   1.000000
    9      -39.361958   1.000000
   10      -39.361958   1.000000
   11      -16.958428   1.000000
   12      -16.958428   1.000000
   13       -5.072582   1.000000
   14       -5.072582   1.000000
   15       -2.042583   1.000000
   16       -2.042583   1.000000
   17       -1.078934   1.000000
   18       -1.078934   1.000000
   19        4.450640   0.000000
   20        4.450640   0.000000
   21        7.472960   0.000000
   22        7.472960   0.000000
   23        8.088577   0.000000
   24        8.088577   0.000000
   25        8.268216   0.000000
   26        8.268216   0.000000
   27       10.042773   0.000000
   28       10.042773   0.000000
   29       10.239998   0.000000
   30       10.239998   0.000000
   31       10.372074   0.000000
   32       10.372074   0.000000
   33       13.913324   0.000000
   34       13.913324   0.000000
   35       15.333927   0.000000
   36       15.333927   0.000000
   37       15.376248   0.000000
   38       15.376248   0.000000
   39       16.216300   0.000000
   40       16.216300   0.000000
   41       16.453771   0.000000
   42       16.453771   0.000000
   43       17.267592   0.000000
   44       17.267592   0.000000
   45       18.564372   0.000000
   46       18.564372   0.000000
   47       19.099122   0.000000
   48       19.099122   0.000000
   49       21.656233   0.000000
   50       21.656233   0.000000
   51       22.267068   0.000000
   52       22.267068   0.000000
   53       22.885313   0.000000
   54       22.885313   0.000000
   55       23.908174   0.000000
   56       23.908174   0.000000
   57       24.188944   0.000000
   58       24.188944   0.000000
   59       24.504973   0.000000
   60       24.504973   0.000000
   61       26.541373   0.000000
   62       26.541373   0.000000
   63       26.753990   0.000000
   64       26.753990   0.000000
   65       27.454285   0.000000
   66       27.454285   0.000000
   67       28.131841   0.000000
   68       28.131841   0.000000
   69       28.664041   0.000000
   70       28.664041   0.000000
   71       29.647628   0.000000
   72       29.647628   0.000000
   73       31.958552   0.000000
   74       31.958552   0.000000
   75       31.995385   0.000000
   76       31.995385   0.000000
   77       32.085161   0.000000
   78       32.085161   0.000000
   79       32.885822   0.000000
   80       32.885822   0.000000
   81       33.029808   0.000000
   82       33.029808   0.000000
   83       33.269076   0.000000
   84       33.269076   0.000000
   85       35.491716   0.000000
   86       35.491716   0.000000
   87       36.135337   0.000000
   88       36.135337   0.000000
   89       36.286377   0.000000
   90       36.286377   0.000000
   91       36.817257   0.000000
   92       36.817257   0.000000
   93       36.920654   0.000000
   94       36.920654   0.000000
   95       38.310661   0.000000
   96       38.310661   0.000000
   97       38.637622   0.000000
   98       38.637622   0.000000
   99       38.642794   0.000000
  100       38.642794   0.000000
  101       39.122241   0.000000
  102       39.122241   0.000000
  103       40.239010   0.000000
  104       40.239010   0.000000
  105       41.199199   0.000000
  106       41.199199   0.000000
  107       41.475915   0.000000
  108       41.475915   0.000000
  109       42.041412   0.000000
  110       42.041412   0.000000
  111       42.829020   0.000000
  112       42.829020   0.000000
  113       42.970816   0.000000
  114       42.970816   0.000000
  115       45.937459   0.000000
  116       45.937459   0.000000
  117       46.622908   0.000000
  118       46.622908   0.000000
  119       46.847432   0.000000
  120       46.847432   0.000000
  121       47.039661   0.000000
  122       47.039661   0.000000
  123       47.506224   0.000000
  124       47.506224   0.000000
  125       47.591815   0.000000
  126       47.591815   0.000000
  127       48.091413   0.000000
  128       48.091413   0.000000
 
 -0.1428571E+00  0.1258766E-16  0.6938894E-17  0.2915452E-02
    1      -43.766563   1.000000
    2      -43.766563   1.000000
    3      -43.766503   1.000000
    4      -43.766503   1.000000
    5      -39.362901   1.000000
    6      -39.362901   1.000000
    7      -39.362339   1.000000
    8      -39.362339   1.000000
    9      -39.362121   1.000000
   10      -39.362121   1.000000
   11      -17.030149   1.000000
   12      -17.030149   1.000000
   13       -4.782392   1.000000
   14       -4.782392   1.000000
   15       -1.358961   1.000000
   16       -1.358961   1.000000
   17       -0.951815   1.000000
   18       -0.951815   1.000000
   19        3.520870   0.000000
   20        3.520870   0.000000
   21        7.477359   0.000000
   22        7.477359   0.000000
   23        8.246771   0.000000
   24        8.246771   0.000000
   25        8.393595   0.000000
   26        8.393595   0.000000
   27        9.945249   0.000000
   28        9.945249   0.000000
   29       10.011294   0.000000
   30       10.011294   0.000000
   31       10.722838   0.000000
   32       10.722838   0.000000
   33       11.661027   0.000000
   34       11.661027   0.000000
   35       13.265844   0.000000
   36       13.265844   0.000000
   37       13.316441   0.000000
   38       13.316441   0.000000
   39       16.016445   0.000000
   40       16.016445   0.000000
   41       18.245489   0.000000
   42       18.245489   0.000000
   43       18.309007   0.000000
   44       18.309007   0.000000
   45       18.989157   0.000000
   46       18.989157   0.000000
   47       20.483048   0.000000
   48       20.483048   0.000000
   49       22.146994   0.000000
   50       22.146994   0.000000
   51       22.672436   0.000000
   52       22.672436   0.000000
   53       23.642758   0.000000
   54       23.642758   0.000000
   55       24.610941   0.000000
   56       24.610941   0.000000
   57       24.844148   0.000000
   58       24.844148   0.000000
   59       24.968849   0.000000
   60       24.968849   0.000000
   61       26.243924   0.000000
   62       26.243924   0.000000
   63       26.474122   0.000000
   64       26.474122   0.000000
   65       27.226071   0.000000
   66       27.226071   0.000000
   67       27.671333   0.000000
   68       27.671333   0.000000
   69       28.324199   0.000000
   70       28.324199   0.000000
   71       31.055262   0.000000
   72       31.055262   0.000000
   73       33.330550   0.000000
   74       33.330550   0.000000
   75       33.509026   0.000000
   76       33.509026   0.000000
   77       33.727334   0.000000
   78       33.727334   0.000000
   79       33.793678   0.000000
   80       33.793678   0.000000
   81       34.592613   0.000000
   82       34.592613   0.000000
   83       34.841852   0.000000
   84       34.841852   0.000000
   85       36.482263   0.000000
   86       36.482263   0.000000
   87       36.600697   0.000000
   88       36.600697   0.000000
   89       37.184977   0.000000
   90       37.184977   0.000000
   91       37.300529   0.000000
   92       37.300529   0.000000
   93       37.741594   0.000000
   94       37.741594   0.000000
   95       37.968747   0.000000
   96       37.968747   0.000000
   97       38.040643   0.000000
   98       38.040643   0.000000
   99       38.097206   0.000000
  100       38.097206   0.000000
  101       38.571786   0.000000
  102       38.571786   0.000000
  103       39.927398   0.000000
  104       39.927398   0.000000
  105       40.287598   0.000000
  106       40.287598   0.000000
  107       40.540786   0.000000
  108       40.540786   0.000000
  109       41.824781   0.000000
  110       41.824781   0.000000
  111       41.971103   0.000000
  112       41.971103   0.000000
  113       41.977248   0.000000
  114       41.977248   0.000000
  115       43.552915   0.000000
  116       43.552915   0.000000
  117       43.609308   0.000000
  118       43.609308   0.000000
  119       44.440258   0.000000
  120       44.440258   0.000000
  121       45.075473   0.000000