 vasp.5.4.4.18Apr17-6-g9f103f2a35 (build Nov 03 2018 10:20:46) complex          
  
 executed on             LinuxIFC date 2018.12.07  11:05:01
 running on   56 total cores
 distrk:  each k-point on   28 cores,    2 groups
 distr:  one band on NCORES_PER_BAND=   7 cores,    4 groups


--------------------------------------------------------------------------------------------------------


 INCAR:
 POTCAR:    PAW_PBE Rn_d_GW 14Apr2014             

 ----------------------------------------------------------------------------- 
|                                                                             |
|           W    W    AA    RRRRR   N    N  II  N    N   GGGG   !!!           |
|           W    W   A  A   R    R  NN   N  II  NN   N  G    G  !!!           |
|           W    W  A    A  R    R  N N  N  II  N N  N  G       !!!           |
|           W WW W  AAAAAA  RRRRR   N  N N  II  N  N N  G  GGG   !            |
|           WW  WW  A    A  R   R   N   NN  II  N   NN  G    G                |
|           W    W  A    A  R    R  N    N  II  N    N   GGGG   !!!           |
|                                                                             |
|      You have enabled k-point parallelism (KPAR>1).                         |
|      This developmental code was originally  written by Paul Kent at ORNL,  |
|      and carefully double checked in Vienna.                                |
|      GW as well as linear response parallelism added by Martijn Marsman     |
|      and Georg Kresse.                                                      |
|      Carefully verify results versus KPAR=1.                                |
|      Report problems to Paul Kent and Vienna.                               |
|                                                                             |
 ----------------------------------------------------------------------------- 

 POTCAR:    PAW_PBE Rn_d_GW 14Apr2014             
   VRHFIN =Rn:                                                                  
   LEXCH  = PE                                                                  
   EATOM  =  3030.7130 eV,  222.7511 Ry                                         
                                                                                
   TITEL  = PAW_PBE Rn_d_GW 14Apr2014                                           
   LULTRA =        F    use ultrasoft PP ?                                      
   IUNSCR =        1    unscreen: 0-lin 1-nonlin 2-no                           
   RPACOR =    1.800    partial core radius                                     
   POMASS =  220.170; ZVAL   =   18.000    mass and valenz                      
   RCORE  =    2.500    outmost cutoff radius                                   
   RWIGS  =    2.500; RWIGS  =    1.323    wigner-seitz radius (au A)           
   ENMAX  =  268.495; ENMIN  =  201.371 eV                                      
   RCLOC  =    1.808    cutoff for local pot                                    
   LCOR   =        T    correct aug charges                                     
   LPAW   =        T    paw PP                                                  
   EAUG   =  715.607                                                            
   DEXC   =    0.000                                                            
   RMAX   =    2.556    core radius for proj-oper                               
   RAUG   =    1.300    factor for augmentation sphere                          
   RDEP   =    2.531    radius for radial grids                                 
   RDEPT  =    1.947    core radius for aug-charge                              
                                                                                
   Atomic configuration                                                         
   16 entries                                                                   
     n  l   j            E        occ.                                          
     1  0  0.50    -98595.8050   2.0000                                         
     2  0  0.50    -17950.5082   2.0000                                         
     2  1  1.50    -15211.8638   6.0000                                         
     3  0  0.50     -4402.4302   2.0000                                         
     3  1  1.50     -3628.5852   6.0000                                         
     3  2  2.50     -2889.7488  10.0000                                         
     4  0  0.50     -1049.6607   2.0000                                         
     4  1  1.50      -796.4440   6.0000                                         
     4  2  2.50      -519.0207  10.0000                                         
     4  3  3.50      -216.6456  14.0000                                         
     5  0  0.50      -201.5459   2.0000                                         
     5  1  1.50      -127.7069   6.0000                                         
     5  2  2.50       -46.2584  10.0000                                         
     6  0  0.50       -21.8730   2.0000                                         
     6  1  0.50        -7.7135   6.0000                                         
     5  3  2.50        -2.7212   0.0000                                         
   Description                                                                  
     l       E           TYP  RCUT    TYP  RCUT                                 
     2    -46.2583946     23  2.400                                             
     2    -47.6189772     23  2.400                                             
     2     40.8174780     23  2.400                                             
     0    -21.8730472     23  1.700                                             
     0     81.6349560     23  1.700                                             
     1     -7.7135306     23  2.300                                             
     1     68.0291300     23  2.300                                             
     3      6.8029130     23  2.500                                             
     3     27.2116520     23  2.500                                             
  local pseudopotential read in
  partial core-charges read in
  partial kinetic energy density read in
  kinetic energy density of atom read in
  atomic valenz-charges read in
  non local Contribution for L=           2  read in
    real space projection operators read in
  non local Contribution for L=           2  read in
    real space projection operators read in
  non local Contribution for L=           2  read in
    real space projection operators read in
  non local Contribution for L=           0  read in
    real space projection operators read in
  non local Contribution for L=           0  read in
    real space projection operators read in
  non local Contribution for L=           1  read in
    real space projection operators read in
  non local Contribution for L=           1  read in
    real space projection operators read in
  non local Contribution for L=           3  read in
    real space projection operators read in
  non local Contribution for L=           3  read in
    real space projection operators read in
    PAW grid and wavefunctions read in
 
   number of l-projection  operators is LMAX  =           9
   number of lm-projection operators is LMMAX =          37
 
  PAW_PBE Rn_d_GW 14Apr2014             :
 energy of atom  1       EATOM=-3030.7130
 kinetic energy error for atom=    0.0889 (will be added to EATOM!!)
 
 
 POSCAR: Rn_FCC                                  
  positions in direct lattice
  velocities in cartesian coordinates
 exchange correlation table for  LEXCH =        8
   RHO(1)=    0.500       N(1)  =     2000
   RHO(2)=  100.500       N(2)  =     4000
 


--------------------------------------------------------------------------------------------------------


 ion  position               nearest neighbor table
   1  0.000  0.000  0.000-
 

IMPORTANT INFORMATION: All symmetrisations will be switched off!
NOSYMM: (Re-)initialisation of all symmetry stuff for point group C_1.

 
 
 KPOINTS: k-points                                

Automatic generation of k-mesh.
Space group operators:
 irot       det(A)        alpha          n_x          n_y          n_z        tau_x        tau_y        tau_z
    1     1.000000     0.000000     1.000000     0.000000     0.000000     0.000000     0.000000     0.000000
 
 Subroutine IBZKPT returns following result:
 ===========================================
 
 Found    343 irreducible k-points:
 
 Following reciprocal coordinates:
            Coordinates               Weight
  0.000000  0.000000  0.000000      1.000000
  0.142857 -0.000000 -0.000000      1.000000
  0.285714  0.000000 -0.000000      1.000000
  0.428571  0.000000  0.000000      1.000000
 -0.428571 -0.000000 -0.000000      1.000000
 -0.285714 -0.000000  0.000000      1.000000
 -0.142857  0.000000  0.000000      1.000000
  0.000000  0.142857  0.000000      1.000000
  0.142857  0.142857 -0.000000      1.000000
  0.285714  0.142857 -0.000000      1.000000
  0.428571  0.142857  0.000000      1.000000
 -0.428571  0.142857 -0.000000      1.000000
 -0.285714  0.142857  0.000000      1.000000
 -0.142857  0.142857 -0.000000      1.000000
  0.000000  0.285714  0.000000      1.000000
  0.142857  0.285714 -0.000000      1.000000
  0.285714  0.285714 -0.000000      1.000000
  0.428571  0.285714  0.000000      1.000000
 -0.428571  0.285714  0.000000      1.000000
 -0.285714  0.285714  0.000000      1.000000
 -0.142857  0.285714 -0.000000      1.000000
  0.000000  0.428571  0.000000      1.000000
  0.142857  0.428571  0.000000      1.000000
  0.285714  0.428571  0.000000      1.000000
  0.428571  0.428571  0.000000      1.000000
 -0.428571  0.428571 -0.000000      1.000000
 -0.285714  0.428571 -0.000000      1.000000
 -0.142857  0.428571  0.000000      1.000000
  0.000000 -0.428571  0.000000      1.000000
  0.142857 -0.428571 -0.000000      1.000000
  0.285714 -0.428571  0.000000      1.000000
  0.428571 -0.428571  0.000000      1.000000
 -0.428571 -0.428571  0.000000      1.000000
 -0.285714 -0.428571  0.000000      1.000000
 -0.142857 -0.428571  0.000000      1.000000
  0.000000 -0.285714 -0.000000      1.000000
  0.142857 -0.285714  0.000000      1.000000
  0.285714 -0.285714 -0.000000      1.000000
  0.428571 -0.285714  0.000000      1.000000
 -0.428571 -0.285714  0.000000      1.000000
 -0.285714 -0.285714  0.000000      1.000000
 -0.142857 -0.285714  0.000000      1.000000
  0.000000 -0.142857 -0.000000      1.000000
  0.142857 -0.142857  0.000000      1.000000
  0.285714 -0.142857 -0.000000      1.000000
  0.428571 -0.142857  0.000000      1.000000
 -0.428571 -0.142857  0.000000      1.000000
 -0.285714 -0.142857  0.000000      1.000000
 -0.142857 -0.142857  0.000000      1.000000
  0.000000  0.000000  0.142857      1.000000
  0.142857 -0.000000  0.142857      1.000000
  0.285714 -0.000000  0.142857      1.000000
  0.428571  0.000000  0.142857      1.000000
 -0.428571 -0.000000  0.142857      1.000000
 -0.285714 -0.000000  0.142857      1.000000
 -0.142857  0.000000  0.142857      1.000000
 -0.000000  0.142857  0.142857      1.000000
  0.142857  0.142857  0.142857      1.000000
  0.285714  0.142857  0.142857      1.000000
  0.428571  0.142857  0.142857      1.000000
 -0.428571  0.142857  0.142857      1.000000
 -0.285714  0.142857  0.142857      1.000000
 -0.142857  0.142857  0.142857      1.000000
 -0.000000  0.285714  0.142857      1.000000
  0.142857  0.285714  0.142857      1.000000
  0.285714  0.285714  0.142857      1.000000
  0.428571  0.285714  0.142857      1.000000
 -0.428571  0.285714  0.142857      1.000000
 -0.285714  0.285714  0.142857      1.000000
 -0.142857  0.285714  0.142857      1.000000
 -0.000000  0.428571  0.142857      1.000000
  0.142857  0.428571  0.142857      1.000000
  0.285714  0.428571  0.142857      1.000000
  0.428571  0.428571  0.142857      1.000000
 -0.428571  0.428571  0.142857      1.000000
 -0.285714  0.428571  0.142857      1.000000
 -0.142857  0.428571  0.142857      1.000000
  0.000000 -0.428571  0.142857      1.000000
  0.142857 -0.428571  0.142857      1.000000
  0.285714 -0.428571  0.142857      1.000000
  0.428571 -0.428571  0.142857      1.000000
 -0.428571 -0.428571  0.142857      1.000000
 -0.285714 -0.428571  0.142857      1.000000
 -0.142857 -0.428571  0.142857      1.000000
  0.000000 -0.285714  0.142857      1.000000
  0.142857 -0.285714  0.142857      1.000000
  0.285714 -0.285714  0.142857      1.000000
  0.428571 -0.285714  0.142857      1.000000
 -0.428571 -0.285714  0.142857      1.000000
 -0.285714 -0.285714  0.142857      1.000000
 -0.142857 -0.285714  0.142857      1.000000
 -0.000000 -0.142857  0.142857      1.000000
  0.142857 -0.142857  0.142857      1.000000
  0.285714 -0.142857  0.142857      1.000000
  0.428571 -0.142857  0.142857      1.000000
 -0.428571 -0.142857  0.142857      1.000000
 -0.285714 -0.142857  0.142857      1.000000
 -0.142857 -0.142857  0.142857      1.000000
  0.000000  0.000000  0.285714      1.000000
  0.142857  0.000000  0.285714      1.000000
  0.285714 -0.000000  0.285714      1.000000
  0.428571 -0.000000  0.285714      1.000000
 -0.428571 -0.000000  0.285714      1.000000
 -0.285714 -0.000000  0.285714      1.000000
 -0.142857  0.000000  0.285714      1.000000
 -0.000000  0.142857  0.285714      1.000000
  0.142857  0.142857  0.285714      1.000000
  0.285714  0.142857  0.285714      1.000000
  0.428571  0.142857  0.285714      1.000000
 -0.428571  0.142857  0.285714      1.000000
 -0.285714  0.142857  0.285714      1.000000
 -0.142857  0.142857  0.285714      1.000000
 -0.000000  0.285714  0.285714      1.000000
  0.142857  0.285714  0.285714      1.000000
  0.285714  0.285714  0.285714      1.000000
  0.428571  0.285714  0.285714      1.000000
 -0.428571  0.285714  0.285714      1.000000
 -0.285714  0.285714  0.285714      1.000000
 -0.142857  0.285714  0.285714      1.000000
 -0.000000  0.428571  0.285714      1.000000
  0.142857  0.428571  0.285714      1.000000
  0.285714  0.428571  0.285714      1.000000
  0.428571  0.428571  0.285714      1.000000
 -0.428571  0.428571  0.285714      1.000000
 -0.285714  0.428571  0.285714      1.000000
 -0.142857  0.428571  0.285714      1.000000
  0.000000 -0.428571  0.285714      1.000000
  0.142857 -0.428571  0.285714      1.000000
  0.285714 -0.428571  0.285714      1.000000
  0.428571 -0.428571  0.285714      1.000000
 -0.428571 -0.428571  0.285714      1.000000
 -0.285714 -0.428571  0.285714      1.000000
 -0.142857 -0.428571  0.285714      1.000000
 -0.000000 -0.285714  0.285714      1.000000
  0.142857 -0.285714  0.285714      1.000000
  0.285714 -0.285714  0.285714      1.000000
  0.428571 -0.285714  0.285714      1.000000
 -0.428571 -0.285714  0.285714      1.000000
 -0.285714 -0.285714  0.285714      1.000000
 -0.142857 -0.285714  0.285714      1.000000
  0.000000 -0.142857  0.285714      1.000000
  0.142857 -0.142857  0.285714      1.000000
  0.285714 -0.142857  0.285714      1.000000
  0.428571 -0.142857  0.285714      1.000000
 -0.428571 -0.142857  0.285714      1.000000
 -0.285714 -0.142857  0.285714      1.000000
 -0.142857 -0.142857  0.285714      1.000000
 -0.000000  0.000000  0.428571      1.000000
  0.142857 -0.000000  0.428571      1.000000
  0.285714  0.000000  0.428571      1.000000
  0.428571  0.000000  0.428571      1.000000
 -0.428571  0.000000  0.428571      1.000000
 -0.285714  0.000000  0.428571      1.000000
 -0.142857  0.000000  0.428571      1.000000
 -0.000000  0.142857  0.428571      1.000000
  0.142857  0.142857  0.428571      1.000000
  0.285714  0.142857  0.428571      1.000000
  0.428571  0.142857  0.428571      1.000000
 -0.428571  0.142857  0.428571      1.000000
 -0.285714  0.142857  0.428571      1.000000
 -0.142857  0.142857  0.428571      1.000000
 -0.000000  0.285714  0.428571      1.000000
  0.142857  0.285714  0.428571      1.000000
  0.285714  0.285714  0.428571      1.000000
  0.428571  0.285714  0.428571      1.000000
 -0.428571  0.285714  0.428571      1.000000
 -0.285714  0.285714  0.428571      1.000000
 -0.142857  0.285714  0.428571      1.000000
 -0.000000  0.428571  0.428571      1.000000
  0.142857  0.428571  0.428571      1.000000
  0.285714  0.428571  0.428571      1.000000
  0.428571  0.428571  0.428571      1.000000
 -0.428571  0.428571  0.428571      1.000000
 -0.285714  0.428571  0.428571      1.000000
 -0.142857  0.428571  0.428571      1.000000
 -0.000000 -0.428571  0.428571      1.000000
  0.142857 -0.428571  0.428571      1.000000
  0.285714 -0.428571  0.428571      1.000000
  0.428571 -0.428571  0.428571      1.000000
 -0.428571 -0.428571  0.428571      1.000000
 -0.285714 -0.428571  0.428571      1.000000
 -0.142857 -0.428571  0.428571      1.000000
 -0.000000 -0.285714  0.428571      1.000000
  0.142857 -0.285714  0.428571      1.000000
  0.285714 -0.285714  0.428571      1.000000
  0.428571 -0.285714  0.428571      1.000000
 -0.428571 -0.285714  0.428571      1.000000
 -0.285714 -0.285714  0.428571      1.000000
 -0.142857 -0.285714  0.428571      1.000000
 -0.000000 -0.142857  0.428571      1.000000
  0.142857 -0.142857  0.428571      1.000000
  0.285714 -0.142857  0.428571      1.000000
  0.428571 -0.142857  0.428571      1.000000
 -0.428571 -0.142857  0.428571      1.000000
 -0.285714 -0.142857  0.428571      1.000000
 -0.142857 -0.142857  0.428571      1.000000
  0.000000  0.000000 -0.428571      1.000000
  0.142857 -0.000000 -0.428571      1.000000
  0.285714 -0.000000 -0.428571      1.000000
  0.428571 -0.000000 -0.428571      1.000000
 -0.428571 -0.000000 -0.428571      1.000000
 -0.285714 -0.000000 -0.428571      1.000000
 -0.142857  0.000000 -0.428571      1.000000
  0.000000  0.142857 -0.428571      1.000000
  0.142857  0.142857 -0.428571      1.000000
  0.285714  0.142857 -0.428571      1.000000
  0.428571  0.142857 -0.428571      1.000000
 -0.428571  0.142857 -0.428571      1.000000
 -0.285714  0.142857 -0.428571      1.000000
 -0.142857  0.142857 -0.428571      1.000000
  0.000000  0.285714 -0.428571      1.000000
  0.142857  0.285714 -0.428571      1.000000
  0.285714  0.285714 -0.428571      1.000000
  0.428571  0.285714 -0.428571      1.000000
 -0.428571  0.285714 -0.428571      1.000000
 -0.285714  0.285714 -0.428571      1.000000
 -0.142857  0.285714 -0.428571      1.000000
  0.000000  0.428571 -0.428571      1.000000
  0.142857  0.428571 -0.428571      1.000000
  0.285714  0.428571 -0.428571      1.000000
  0.428571  0.428571 -0.428571      1.000000
 -0.428571  0.428571 -0.428571      1.000000
 -0.285714  0.428571 -0.428571      1.000000
 -0.142857  0.428571 -0.428571      1.000000
  0.000000 -0.428571 -0.428571      1.000000
  0.142857 -0.428571 -0.428571      1.000000
  0.285714 -0.428571 -0.428571      1.000000
  0.428571 -0.428571 -0.428571      1.000000
 -0.428571 -0.428571 -0.428571      1.000000
 -0.285714 -0.428571 -0.428571      1.000000
 -0.142857 -0.428571 -0.428571      1.000000
  0.000000 -0.285714 -0.428571      1.000000
  0.142857 -0.285714 -0.428571      1.000000
  0.285714 -0.285714 -0.428571      1.000000
  0.428571 -0.285714 -0.428571      1.000000
 -0.428571 -0.285714 -0.428571      1.000000
 -0.285714 -0.285714 -0.428571      1.000000
 -0.142857 -0.285714 -0.428571      1.000000
  0.000000 -0.142857 -0.428571      1.000000
  0.142857 -0.142857 -0.428571      1.000000
  0.285714 -0.142857 -0.428571      1.000000
  0.428571 -0.142857 -0.428571      1.000000
 -0.428571 -0.142857 -0.428571      1.000000
 -0.285714 -0.142857 -0.428571      1.000000
 -0.142857 -0.142857 -0.428571      1.000000
  0.000000 -0.000000 -0.285714      1.000000
  0.142857 -0.000000 -0.285714      1.000000
  0.285714  0.000000 -0.285714      1.000000
  0.428571  0.000000 -0.285714      1.000000
 -0.428571  0.000000 -0.285714      1.000000
 -0.285714  0.000000 -0.285714      1.000000
 -0.142857 -0.000000 -0.285714      1.000000
  0.000000  0.142857 -0.285714      1.000000
  0.142857  0.142857 -0.285714      1.000000
  0.285714  0.142857 -0.285714      1.000000
  0.428571  0.142857 -0.285714      1.000000
 -0.428571  0.142857 -0.285714      1.000000
 -0.285714  0.142857 -0.285714      1.000000
 -0.142857  0.142857 -0.285714      1.000000
  0.000000  0.285714 -0.285714      1.000000
  0.142857  0.285714 -0.285714      1.000000
  0.285714  0.285714 -0.285714      1.000000
  0.428571  0.285714 -0.285714      1.000000
 -0.428571  0.285714 -0.285714      1.000000
 -0.285714  0.285714 -0.285714      1.000000
 -0.142857  0.285714 -0.285714      1.000000
 -0.000000  0.428571 -0.285714      1.000000
  0.142857  0.428571 -0.285714      1.000000
  0.285714  0.428571 -0.285714      1.000000
  0.428571  0.428571 -0.285714      1.000000
 -0.428571  0.428571 -0.285714      1.000000
 -0.285714  0.428571 -0.285714      1.000000
 -0.142857  0.428571 -0.285714      1.000000
  0.000000 -0.428571 -0.285714      1.000000
  0.142857 -0.428571 -0.285714      1.000000
  0.285714 -0.428571 -0.285714      1.000000
  0.428571 -0.428571 -0.285714      1.000000
 -0.428571 -0.428571 -0.285714      1.000000
 -0.285714 -0.428571 -0.285714      1.000000
 -0.142857 -0.428571 -0.285714      1.000000
  0.000000 -0.285714 -0.285714      1.000000
  0.142857 -0.285714 -0.285714      1.000000
  0.285714 -0.285714 -0.285714      1.000000
  0.428571 -0.285714 -0.285714      1.000000
 -0.428571 -0.285714 -0.285714      1.000000
 -0.285714 -0.285714 -0.285714      1.000000
 -0.142857 -0.285714 -0.285714      1.000000
  0.000000 -0.142857 -0.285714      1.000000
  0.142857 -0.142857 -0.285714      1.000000
  0.285714 -0.142857 -0.285714      1.000000
  0.428571 -0.142857 -0.285714      1.000000
 -0.428571 -0.142857 -0.285714      1.000000
 -0.285714 -0.142857 -0.285714      1.000000
 -0.142857 -0.142857 -0.285714      1.000000
  0.000000  0.000000 -0.142857      1.000000
  0.142857 -0.000000 -0.142857      1.000000
  0.285714  0.000000 -0.142857      1.000000
  0.428571  0.000000 -0.142857      1.000000
 -0.428571 -0.000000 -0.142857      1.000000
 -0.285714  0.000000 -0.142857      1.000000
 -0.142857  0.000000 -0.142857      1.000000
 -0.000000  0.142857 -0.142857      1.000000
  0.142857  0.142857 -0.142857      1.000000
  0.285714  0.142857 -0.142857      1.000000
  0.428571  0.142857 -0.142857      1.000000
 -0.428571  0.142857 -0.142857      1.000000
 -0.285714  0.142857 -0.142857      1.000000
 -0.142857  0.142857 -0.142857      1.000000
 -0.000000  0.285714 -0.142857      1.000000
  0.142857  0.285714 -0.142857      1.000000
  0.285714  0.285714 -0.142857      1.000000
  0.428571  0.285714 -0.142857      1.000000
 -0.428571  0.285714 -0.142857      1.000000
 -0.285714  0.285714 -0.142857      1.000000
 -0.142857  0.285714 -0.142857      1.000000
  0.000000  0.428571 -0.142857      1.000000
  0.142857  0.428571 -0.142857      1.000000
  0.285714  0.428571 -0.142857      1.000000
  0.428571  0.428571 -0.142857      1.000000
 -0.428571  0.428571 -0.142857      1.000000
 -0.285714  0.428571 -0.142857      1.000000
 -0.142857  0.428571 -0.142857      1.000000
  0.000000 -0.428571 -0.142857      1.000000
  0.142857 -0.428571 -0.142857      1.000000
  0.285714 -0.428571 -0.142857      1.000000
  0.428571 -0.428571 -0.142857      1.000000
 -0.428571 -0.428571 -0.142857      1.000000
 -0.285714 -0.428571 -0.142857      1.000000
 -0.142857 -0.428571 -0.142857      1.000000
  0.000000 -0.285714 -0.142857      1.000000
  0.142857 -0.285714 -0.142857      1.000000
  0.285714 -0.285714 -0.142857      1.000000
  0.428571 -0.285714 -0.142857      1.000000
 -0.428571 -0.285714 -0.142857      1.000000
 -0.285714 -0.285714 -0.142857      1.000000
 -0.142857 -0.285714 -0.142857      1.000000
  0.000000 -0.142857 -0.142857      1.000000
  0.142857 -0.142857 -0.142857      1.000000
  0.285714 -0.142857 -0.142857      1.000000
  0.428571 -0.142857 -0.142857      1.000000
 -0.428571 -0.142857 -0.142857      1.000000
 -0.285714 -0.142857 -0.142857      1.000000
 -0.142857 -0.142857 -0.142857      1.000000
 
 Following cartesian coordinates:
            Coordinates               Weight
  0.000000  0.000000  0.000000      1.000000
  0.031602 -0.018245 -0.012901      1.000000
  0.063203 -0.036490 -0.025803      1.000000
  0.094805 -0.054736 -0.038704      1.000000
 -0.094805  0.054736  0.038704      1.000000
 -0.063203  0.036490  0.025803      1.000000
 -0.031602  0.018245  0.012901      1.000000
  0.000000  0.036490 -0.012901      1.000000
  0.031602  0.018245 -0.025803      1.000000
  0.063203  0.000000 -0.038704      1.000000
  0.094805 -0.018245 -0.051605      1.000000
 -0.094805  0.091226  0.025803      1.000000
 -0.063203  0.072981  0.012901      1.000000
 -0.031602  0.054736  0.000000      1.000000
  0.000000  0.072981 -0.025803      1.000000
  0.031602  0.054736 -0.038704      1.000000
  0.063203  0.036490 -0.051605      1.000000
  0.094805  0.018245 -0.064507      1.000000
 -0.094805  0.127716  0.012901      1.000000
 -0.063203  0.109471  0.000000      1.000000
 -0.031602  0.091226 -0.012901      1.000000
  0.000000  0.109471 -0.038704      1.000000
  0.031602  0.091226 -0.051605      1.000000
  0.063203  0.072981 -0.064507      1.000000
  0.094805  0.054736 -0.077408      1.000000
 -0.094805  0.164207  0.000000      1.000000
 -0.063203  0.145962 -0.012901      1.000000
 -0.031602  0.127716 -0.025803      1.000000
 -0.000000 -0.109471  0.038704      1.000000
  0.031602 -0.127716  0.025803      1.000000
  0.063203 -0.145962  0.012901      1.000000
  0.094805 -0.164207 -0.000000      1.000000
 -0.094805 -0.054736  0.077408      1.000000
 -0.063203 -0.072981  0.064507      1.000000
 -0.031602 -0.091226  0.051605      1.000000
 -0.000000 -0.072981  0.025803      1.000000
  0.031602 -0.091226  0.012901      1.000000
  0.063203 -0.109471 -0.000000      1.000000
  0.094805 -0.127716 -0.012901      1.000000
 -0.094805 -0.018245  0.064507      1.000000
 -0.063203 -0.036490  0.051605      1.000000
 -0.031602 -0.054736  0.038704      1.000000
 -0.000000 -0.036490  0.012901      1.000000
  0.031602 -0.054736 -0.000000      1.000000
  0.063203 -0.072981 -0.012901      1.000000
  0.094805 -0.091226 -0.025803      1.000000
 -0.094805  0.018245  0.051605      1.000000
 -0.063203 -0.000000  0.038704      1.000000
 -0.031602 -0.018245  0.025803      1.000000
 -0.000000  0.000000  0.038704      1.000000
  0.031602 -0.018245  0.025803      1.000000
  0.063203 -0.036490  0.012901      1.000000
  0.094805 -0.054736 -0.000000      1.000000
 -0.094805  0.054736  0.077408      1.000000
 -0.063203  0.036490  0.064507      1.000000
 -0.031602  0.018245  0.051605      1.000000
 -0.000000  0.036490  0.025803      1.000000
  0.031602  0.018245  0.012901      1.000000
  0.063203  0.000000  0.000000      1.000000
  0.094805 -0.018245 -0.012901      1.000000
 -0.094805  0.091226  0.064507      1.000000
 -0.063203  0.072981  0.051605      1.000000
 -0.031602  0.054736  0.038704      1.000000
 -0.000000  0.072981  0.012901      1.000000
  0.031602  0.054736  0.000000      1.000000
  0.063203  0.036490 -0.012901      1.000000
  0.094805  0.018245 -0.025803      1.000000
 -0.094805  0.127716  0.051605      1.000000
 -0.063203  0.109471  0.038704      1.000000
 -0.031602  0.091226  0.025803      1.000000
 -0.000000  0.109471  0.000000      1.000000
  0.031602  0.091226 -0.012901      1.000000
  0.063203  0.072981 -0.025803      1.000000
  0.094805  0.054736 -0.038704      1.000000
 -0.094805  0.164207  0.038704      1.000000
 -0.063203  0.145962  0.025803      1.000000
 -0.031602  0.127716  0.012901      1.000000
 -0.000000 -0.109471  0.077408      1.000000
  0.031602 -0.127716  0.064507      1.000000
  0.063203 -0.145962  0.051605      1.000000
  0.094805 -0.164207  0.038704      1.000000
 -0.094805 -0.054736  0.116112      1.000000
 -0.063203 -0.072981  0.103210      1.000000
 -0.031602 -0.091226  0.090309      1.000000
 -0.000000 -0.072981  0.064507      1.000000
  0.031602 -0.091226  0.051605      1.000000
  0.063203 -0.109471  0.038704      1.000000
  0.094805 -0.127716  0.025803      1.000000
 -0.094805 -0.018245  0.103210      1.000000
 -0.063203 -0.036490  0.090309      1.000000
 -0.031602 -0.054736  0.077408      1.000000
 -0.000000 -0.036490  0.051605      1.000000
  0.031602 -0.054736  0.038704      1.000000
  0.063203 -0.072981  0.025803      1.000000
  0.094805 -0.091226  0.012901      1.000000
 -0.094805  0.018245  0.090309      1.000000
 -0.063203 -0.000000  0.077408      1.000000
 -0.031602 -0.018245  0.064507      1.000000
 -0.000000  0.000000  0.077408      1.000000
  0.031602 -0.018245  0.064507      1.000000
  0.063203 -0.036490  0.051605      1.000000
  0.094805 -0.054736  0.038704      1.000000
 -0.094805  0.054736  0.116112      1.000000
 -0.063203  0.036490  0.103210      1.000000
 -0.031602  0.018245  0.090309      1.000000
 -0.000000  0.036490  0.064507      1.000000
  0.031602  0.018245  0.051605      1.000000
  0.063203  0.000000  0.038704      1.000000
  0.094805 -0.018245  0.025803      1.000000
 -0.094805  0.091226  0.103210      1.000000
 -0.063203  0.072981  0.090309      1.000000
 -0.031602  0.054736  0.077408      1.000000
 -0.000000  0.072981  0.051605      1.000000
  0.031602  0.054736  0.038704      1.000000
  0.063203  0.036490  0.025803      1.000000
  0.094805  0.018245  0.012901      1.000000
 -0.094805  0.127716  0.090309      1.000000
 -0.063203  0.109471  0.077408      1.000000
 -0.031602  0.091226  0.064507      1.000000
 -0.000000  0.109471  0.038704      1.000000
  0.031602  0.091226  0.025803      1.000000
  0.063203  0.072981  0.012901      1.000000
  0.094805  0.054736  0.000000      1.000000
 -0.094805  0.164207  0.077408      1.000000
 -0.063203  0.145962  0.064507      1.000000
 -0.031602  0.127716  0.051605      1.000000
 -0.000000 -0.109471  0.116112      1.000000
  0.031602 -0.127716  0.103210      1.000000
  0.063203 -0.145962  0.090309      1.000000
  0.094805 -0.164207  0.077408      1.000000
 -0.094805 -0.054736  0.154816      1.000000
 -0.063203 -0.072981  0.141914      1.000000
 -0.031602 -0.091226  0.129013      1.000000
 -0.000000 -0.072981  0.103210      1.000000
  0.031602 -0.091226  0.090309      1.000000
  0.063203 -0.109471  0.077408      1.000000
  0.094805 -0.127716  0.064507      1.000000
 -0.094805 -0.018245  0.141914      1.000000
 -0.063203 -0.036490  0.129013      1.000000
 -0.031602 -0.054736  0.116112      1.000000
 -0.000000 -0.036490  0.090309      1.000000
  0.031602 -0.054736  0.077408      1.000000
  0.063203 -0.072981  0.064507      1.000000
  0.094805 -0.091226  0.051605      1.000000
 -0.094805  0.018245  0.129013      1.000000
 -0.063203 -0.000000  0.116112      1.000000
 -0.031602 -0.018245  0.103210      1.000000
 -0.000000  0.000000  0.116112      1.000000
  0.031602 -0.018245  0.103210      1.000000
  0.063203 -0.036490  0.090309      1.000000
  0.094805 -0.054736  0.077408      1.000000
 -0.094805  0.054736  0.154816      1.000000
 -0.063203  0.036490  0.141914      1.000000
 -0.031602  0.018245  0.129013      1.000000
 -0.000000  0.036490  0.103210      1.000000
  0.031602  0.018245  0.090309      1.000000
  0.063203  0.000000  0.077408      1.000000
  0.094805 -0.018245  0.064507      1.000000
 -0.094805  0.091226  0.141914      1.000000
 -0.063203  0.072981  0.129013      1.000000
 -0.031602  0.054736  0.116112      1.000000
 -0.000000  0.072981  0.090309      1.000000
  0.031602  0.054736  0.077408      1.000000
  0.063203  0.036490  0.064507      1.000000
  0.094805  0.018245  0.051605      1.000000
 -0.094805  0.127716  0.129013      1.000000
 -0.063203  0.109471  0.116112      1.000000
 -0.031602  0.091226  0.103210      1.000000
 -0.000000  0.109471  0.077408      1.000000
  0.031602  0.091226  0.064507      1.000000
  0.063203  0.072981  0.051605      1.000000
  0.094805  0.054736  0.038704      1.000000
 -0.094805  0.164207  0.116112      1.000000
 -0.063203  0.145962  0.103210      1.000000
 -0.031602  0.127716  0.090309      1.000000
 -0.000000 -0.109471  0.154816      1.000000
  0.031602 -0.127716  0.141914      1.000000
  0.063203 -0.145962  0.129013      1.000000
  0.094805 -0.164207  0.116112      1.000000
 -0.094805 -0.054736  0.193520      1.000000
 -0.063203 -0.072981  0.180618      1.000000
 -0.031602 -0.091226  0.167717      1.000000
 -0.000000 -0.072981  0.141914      1.000000
  0.031602 -0.091226  0.129013      1.000000
  0.063203 -0.109471  0.116112      1.000000
  0.094805 -0.127716  0.103210      1.000000
 -0.094805 -0.018245  0.180618      1.000000
 -0.063203 -0.036490  0.167717      1.000000
 -0.031602 -0.054736  0.154816      1.000000
 -0.000000 -0.036490  0.129013      1.000000
  0.031602 -0.054736  0.116112      1.000000
  0.063203 -0.072981  0.103210      1.000000
  0.094805 -0.091226  0.090309      1.000000
 -0.094805  0.018245  0.167717      1.000000
 -0.063203 -0.000000  0.154816      1.000000
 -0.031602 -0.018245  0.141914      1.000000
  0.000000 -0.000000 -0.116112      1.000000
  0.031602 -0.018245 -0.129013      1.000000
  0.063203 -0.036490 -0.141914      1.000000
  0.094805 -0.054736 -0.154816      1.000000
 -0.094805  0.054736 -0.077408      1.000000
 -0.063203  0.036490 -0.090309      1.000000
 -0.031602  0.018245 -0.103210      1.000000
  0.000000  0.036490 -0.129013      1.000000
  0.031602  0.018245 -0.141914      1.000000
  0.063203  0.000000 -0.154816      1.000000
  0.094805 -0.018245 -0.167717      1.000000
 -0.094805  0.091226 -0.090309      1.000000
 -0.063203  0.072981 -0.103210      1.000000
 -0.031602  0.054736 -0.116112      1.000000
  0.000000  0.072981 -0.141914      1.000000
  0.031602  0.054736 -0.154816      1.000000
  0.063203  0.036490 -0.167717      1.000000
  0.094805  0.018245 -0.180618      1.000000
 -0.094805  0.127716 -0.103210      1.000000
 -0.063203  0.109471 -0.116112      1.000000
 -0.031602  0.091226 -0.129013      1.000000
  0.000000  0.109471 -0.154816      1.000000
  0.031602  0.091226 -0.167717      1.000000
  0.063203  0.072981 -0.180618      1.000000
  0.094805  0.054736 -0.193520      1.000000
 -0.094805  0.164207 -0.116112      1.000000
 -0.063203  0.145962 -0.129013      1.000000
 -0.031602  0.127716 -0.141914      1.000000
  0.000000 -0.109471 -0.077408      1.000000
  0.031602 -0.127716 -0.090309      1.000000
  0.063203 -0.145962 -0.103210      1.000000
  0.094805 -0.164207 -0.116112      1.000000
 -0.094805 -0.054736 -0.038704      1.000000
 -0.063203 -0.072981 -0.051605      1.000000
 -0.031602 -0.091226 -0.064507      1.000000
  0.000000 -0.072981 -0.090309      1.000000
  0.031602 -0.091226 -0.103210      1.000000
  0.063203 -0.109471 -0.116112      1.000000
  0.094805 -0.127716 -0.129013      1.000000
 -0.094805 -0.018245 -0.051605      1.000000
 -0.063203 -0.036490 -0.064507      1.000000
 -0.031602 -0.054736 -0.077408      1.000000
  0.000000 -0.036490 -0.103210      1.000000
  0.031602 -0.054736 -0.116112      1.000000
  0.063203 -0.072981 -0.129013      1.000000
  0.094805 -0.091226 -0.141914      1.000000
 -0.094805  0.018245 -0.064507      1.000000
 -0.063203 -0.000000 -0.077408      1.000000
 -0.031602 -0.018245 -0.090309      1.000000
  0.000000 -0.000000 -0.077408      1.000000
  0.031602 -0.018245 -0.090309      1.000000
  0.063203 -0.036490 -0.103210      1.000000
  0.094805 -0.054736 -0.116112      1.000000
 -0.094805  0.054736 -0.038704      1.000000
 -0.063203  0.036490 -0.051605      1.000000
 -0.031602  0.018245 -0.064507      1.000000
  0.000000  0.036490 -0.090309      1.000000
  0.031602  0.018245 -0.103210      1.000000
  0.063203  0.000000 -0.116112      1.000000
  0.094805 -0.018245 -0.129013      1.000000
 -0.094805  0.091226 -0.051605      1.000000
 -0.063203  0.072981 -0.064507      1.000000
 -0.031602  0.054736 -0.077408      1.000000
  0.000000  0.072981 -0.103210      1.000000
  0.031602  0.054736 -0.116112      1.000000
  0.063203  0.036490 -0.129013      1.000000
  0.094805  0.018245 -0.141914      1.000000
 -0.094805  0.127716 -0.064507      1.000000
 -0.063203  0.109471 -0.077408      1.000000
 -0.031602  0.091226 -0.090309      1.000000
  0.000000  0.109471 -0.116112      1.000000
  0.031602  0.091226 -0.129013      1.000000
  0.063203  0.072981 -0.141914      1.000000
  0.094805  0.054736 -0.154816      1.000000
 -0.094805  0.164207 -0.077408      1.000000
 -0.063203  0.145962 -0.090309      1.000000
 -0.031602  0.127716 -0.103210      1.000000
  0.000000 -0.109471 -0.038704      1.000000
  0.031602 -0.127716 -0.051605      1.000000
  0.063203 -0.145962 -0.064507      1.000000
  0.094805 -0.164207 -0.077408      1.000000
 -0.094805 -0.054736 -0.000000      1.000000
 -0.063203 -0.072981 -0.012901      1.000000
 -0.031602 -0.091226 -0.025803      1.000000
  0.000000 -0.072981 -0.051605      1.000000
  0.031602 -0.091226 -0.064507      1.000000
  0.063203 -0.109471 -0.077408      1.000000
  0.094805 -0.127716 -0.090309      1.000000
 -0.094805 -0.018245 -0.012901      1.000000
 -0.063203 -0.036490 -0.025803      1.000000
 -0.031602 -0.054736 -0.038704      1.000000
  0.000000 -0.036490 -0.064507      1.000000
  0.031602 -0.054736 -0.077408      1.000000
  0.063203 -0.072981 -0.090309      1.000000
  0.094805 -0.091226 -0.103210      1.000000
 -0.094805  0.018245 -0.025803      1.000000
 -0.063203 -0.000000 -0.038704      1.000000
 -0.031602 -0.018245 -0.051605      1.000000
  0.000000 -0.000000 -0.038704      1.000000
  0.031602 -0.018245 -0.051605      1.000000
  0.063203 -0.036490 -0.064507      1.000000
  0.094805 -0.054736 -0.077408      1.000000
 -0.094805  0.054736  0.000000      1.000000
 -0.063203  0.036490 -0.012901      1.000000
 -0.031602  0.018245 -0.025803      1.000000
  0.000000  0.036490 -0.051605      1.000000
  0.031602  0.018245 -0.064507      1.000000
  0.063203  0.000000 -0.077408      1.000000
  0.094805 -0.018245 -0.090309      1.000000
 -0.094805  0.091226 -0.012901      1.000000
 -0.063203  0.072981 -0.025803      1.000000
 -0.031602  0.054736 -0.038704      1.000000
  0.000000  0.072981 -0.064507      1.000000
  0.031602  0.054736 -0.077408      1.000000
  0.063203  0.036490 -0.090309      1.000000
  0.094805  0.018245 -0.103210      1.000000
 -0.094805  0.127716 -0.025803      1.000000
 -0.063203  0.109471 -0.038704      1.000000
 -0.031602  0.091226 -0.051605      1.000000
  0.000000  0.109471 -0.077408      1.000000
  0.031602  0.091226 -0.090309      1.000000
  0.063203  0.072981 -0.103210      1.000000
  0.094805  0.054736 -0.116112      1.000000
 -0.094805  0.164207 -0.038704      1.000000
 -0.063203  0.145962 -0.051605      1.000000
 -0.031602  0.127716 -0.064507      1.000000
  0.000000 -0.109471 -0.000000      1.000000
  0.031602 -0.127716 -0.012901      1.000000
  0.063203 -0.145962 -0.025803      1.000000
  0.094805 -0.164207 -0.038704      1.000000
 -0.094805 -0.054736  0.038704      1.000000
 -0.063203 -0.072981  0.025803      1.000000
 -0.031602 -0.091226  0.012901      1.000000
  0.000000 -0.072981 -0.012901      1.000000
  0.031602 -0.091226 -0.025803      1.000000
  0.063203 -0.109471 -0.038704      1.000000
  0.094805 -0.127716 -0.051605      1.000000
 -0.094805 -0.018245  0.025803      1.000000
 -0.063203 -0.036490  0.012901      1.000000
 -0.031602 -0.054736  0.000000      1.000000
  0.000000 -0.036490 -0.025803      1.000000
  0.031602 -0.054736 -0.038704      1.000000
  0.063203 -0.072981 -0.051605      1.000000
  0.094805 -0.091226 -0.064507      1.000000
 -0.094805  0.018245  0.012901      1.000000
 -0.063203 -0.000000 -0.000000      1.000000
 -0.031602 -0.018245 -0.012901      1.000000
 


--------------------------------------------------------------------------------------------------------




 Dimension of arrays:
   k-points           NKPTS =    343   k-points in BZ     NKDIM =    343   number of bands    NBANDS=    128
   number of dos      NEDOS =    301   number of ions     NIONS =      1
   non local maximal  LDIM  =      9   non local SUM 2l+1 LMDIM =     37
   total plane-waves  NPLWV =  21952
   max r-space proj   IRMAX =      1   max aug-charges    IRDMAX= 111272
   dimension x,y,z NGX =    28 NGY =   28 NGZ =   28
   dimension x,y,z NGXF=    56 NGYF=   56 NGZF=   56
   support grid    NGXF=   112 NGYF=  112 NGZF=  112
   ions per type =               1
   NGX,Y,Z   is equivalent  to a cutoff of  10.54, 10.54, 10.54 a.u.
   NGXF,Y,Z  is equivalent  to a cutoff of  21.09, 21.09, 21.09 a.u.

 SYSTEM =  Og_FCC                                  
 POSCAR =  Rn_FCC                                  

 Startparameter for this run:
   NWRITE =      2    write-flag & timer
   PREC   = accura    normal or accurate (medium, high low for compatibility)
   ISTART =      1    job   : 0-new  1-cont  2-samecut
   ICHARG =      0    charge: 1-file 2-atom 10-const
   ISPIN  =      1    spin polarized calculation?
   LNONCOLLINEAR =      T non collinear calculations
   LSORBIT =      T    spin-orbit coupling
   INIWAV =      1    electr: 0-lowe 1-rand  2-diag
   LASPH  =      F    aspherical Exc in radial PAW
   METAGGA=      F    non-selfconsistent MetaGGA calc.

 Electronic Relaxation 1
   ENCUT  =  300.0 eV  22.05 Ry    4.70 a.u.   6.23  6.23  6.23*2*pi/ulx,y,z
   ENINI  =  300.0     initial cutoff
   ENAUG  =  715.6 eV  augmentation charge cutoff
   NELM   =     50;   NELMIN=  2; NELMDL= -5     # of ELM steps 
   EDIFF  = 0.1E-07   stopping-criterion for ELM
   LREAL  =      F    real-space projection
   NLSPLINE    = F    spline interpolate recip. space projectors
   LCOMPAT=      F    compatible to vasp.4.4
   GGA_COMPAT  = F    GGA compatible to vasp.4.4-vasp.4.6
   LMAXPAW     = -100 max onsite density
   LMAXMIX     =    2 max onsite mixed and CHGCAR
   VOSKOWN=      0    Vosko Wilk Nusair interpolation
   ROPT   =    0.00000
 Ionic relaxation
   EDIFFG = 0.1E-04   stopping-criterion for IOM
   NSW    =      1    number of steps for IOM
   NBLOCK =      1;   KBLOCK =      1    inner block; outer block 
   IBRION =     -1    ionic relax: 0-MD 1-quasi-New 2-CG
   NFREE  =      5    steps in history (QN), initial steepest desc. (CG)
   ISIF   =      3    stress and relaxation
   IWAVPR =     10    prediction:  0-non 1-charg 2-wave 3-comb
   ISYM   =      0    0-nonsym 1-usesym 2-fastsym
   LCORR  =      T    Harris-Foulkes like correction to forces

   POTIM  = 0.1000    time-step for ionic-motion
   TEIN   =    0.0    initial temperature
   TEBEG  =    0.0;   TEEND  =   0.0 temperature during run
   SMASS  =  -3.00    Nose mass-parameter (am)
   estimated Nose-frequenzy (Omega)   =  0.10E-29 period in steps =****** mass=  -0.445E-27a.u.
   SCALEE = 1.0000    scale energy and forces
   NPACO  =    256;   APACO  = 16.0  distance and # of slots for P.C.
   PSTRESS=    0.0 pullay stress

  Mass of Ions in am
   POMASS = 220.17
  Ionic Valenz
   ZVAL   =  18.00
  Atomic Wigner-Seitz radii
   RWIGS  =  -1.00
  virtual crystal weights 
   VCA    =   1.00
   NELECT =      18.0000    total number of electrons
   NUPDOWN=      -1.0000    fix difference up-down

 DOS related values:
   EMIN   =  10.00;   EMAX   =-10.00  energy-range for DOS
   EFERMI =   0.00
   ISMEAR =     0;   SIGMA  =   0.00  broadening in eV -4-tet -1-fermi 0-gaus

 Electronic relaxation 2 (details)
   IALGO  =     90    algorithm
   LDIAG  =      T    sub-space diagonalisation (order eigenvalues)
   LSUBROT=      F    optimize rotation matrix (better conditioning)
   TURBO    =      0    0=normal 1=particle mesh
   IRESTART =      0    0=no restart 2=restart with 2 vectors
   NREBOOT  =      0    no. of reboots
   NMIN     =      0    reboot dimension
   EREF     =   0.00    reference energy to select bands
   IMIX   =      4    mixing-type and parameters
     AMIX     =   0.40;   BMIX     =  1.00
     AMIX_MAG =   1.60;   BMIX_MAG =  1.00
     AMIN     =   0.10
     WC   =   100.;   INIMIX=   1;  MIXPRE=   1;  MAXMIX=  50

 Intra band minimization:
   WEIMIN = 0.0000     energy-eigenvalue tresh-hold
   EBREAK =  0.20E-10  absolut break condition
   DEPER  =   0.30     relativ break condition  

   TIME   =   0.40     timestep for ELM

  volume/ion in A,a.u.               =      60.83       410.53
  Fermi-wavevector in a.u.,A,eV,Ry     =   1.090892  2.061487 16.191546  1.190045
  Thomas-Fermi vector in A             =   2.227126
 
 Write flags
   LWAVE        =      T    write WAVECAR
   LDOWNSAMPLE  =      F    k-point downsampling of WAVECAR
   LCHARG       =      F    write CHGCAR
   LVTOT        =      F    write LOCPOT, total local potential
   LVHAR        =      F    write LOCPOT, Hartree potential only
   LELF         =      F    write electronic localiz. function (ELF)
   LORBIT       =      0    0 simple, 1 ext, 2 COOP (PROOUT), +10 PAW based schemes


 Dipole corrections
   LMONO  =      F    monopole corrections only (constant potential shift)
   LDIPOL =      F    correct potential (dipole corrections)
   IDIPOL =      0    1-x, 2-y, 3-z, 4-all directions 
   EPSILON=  1.0000000 bulk dielectric constant

 Exchange correlation treatment:
   GGA     =    PE    GGA type
   LEXCH   =     8    internal setting for exchange type
   VOSKOWN=      0    Vosko Wilk Nusair interpolation
   LHFCALC =     F    Hartree Fock is set to
   LHFONE  =     F    Hartree Fock one center treatment
   AEXX    =    0.0000 exact exchange contribution

 Linear response parameters
   LEPSILON=     F    determine dielectric tensor
   LRPA    =     F    only Hartree local field effects (RPA)
   LNABLA  =     F    use nabla operator in PAW spheres
   LVEL    =     F    velocity operator in full k-point grid
   LINTERFAST=   F  fast interpolation
   KINTER  =     0    interpolate to denser k-point grid
   CSHIFT  =0.1000    complex shift for real part using Kramers Kronig
   OMEGAMAX=  -1.0    maximum frequency
   DEG_THRESHOLD= 0.2000000E-02 threshold for treating states as degnerate
   RTIME   =   -0.100 relaxation time in fs
  (WPLASMAI=    0.000 imaginary part of plasma frequency in eV, 0.658/RTIME)
   DFIELD  = 0.0000000 0.0000000 0.0000000 field for delta impulse in time
 
 Orbital magnetization related:
   ORBITALMAG=     F  switch on orbital magnetization
   LCHIMAG   =     F  perturbation theory with respect to B field
   DQ        =  0.001000  dq finite difference perturbation B field
   LLRAUG    =     F  two centre corrections for induced B field



--------------------------------------------------------------------------------------------------------


 Static calculation
 charge density and potential will be updated during run
 non collinear spin polarized calculation
 Exact diagonalization
 preconditioned conjugated gradient (Jacobi prec)
    charged. constant during bandupdate  
    band-by band algorithm
 perform sub-space diagonalisation
    after iterative eigenvector-optimisation
 modified Broyden-mixing scheme, WC =      100.0
 initial mixing is a Kerker type mixing with AMIX =  0.4000 and BMIX =      1.0000
 Hartree-type preconditioning will be used
 using additional bands          119
 reciprocal scheme for non local part
 use partial core corrections
 calculate Harris-corrections to forces 
   (improved forces if not selfconsistent)
 use gradient corrections 
 use of overlap-Matrix (Vanderbilt PP)
 Gauss-broadening in eV      SIGMA  =   0.00


--------------------------------------------------------------------------------------------------------


  energy-cutoff  :      300.00
  volume of cell :       60.83
      direct lattice vectors                 reciprocal lattice vectors
     4.414575608  0.000000000  0.000000000     0.226522341 -0.130782734 -0.092477358
     2.207287804  3.823134623 -0.000000000     0.000000000  0.261565469 -0.092477358
     2.207287804  1.274378208  3.604485890    -0.000000000  0.000000000  0.277432075

  length of vectors
     4.414575608  4.414575608  4.414575608     0.277432075  0.277432075  0.277432075


 
 old parameters found on file WAVECAR:
  energy-cutoff  :      300.00
  volume of cell :       60.83
      direct lattice vectors                 reciprocal lattice vectors
     4.414575608  0.000000000  0.000000000     0.226522341 -0.130782734 -0.092477358
     2.207287804  3.823134623 -0.000000000     0.000000000  0.261565469 -0.092477358
     2.207287804  1.274378208  3.604485890    -0.000000000  0.000000000  0.277432075

  length of vectors

 
 k-points in units of 2pi/SCALE and weight: k-points                                
   0.00000000  0.00000000  0.00000000       0.003
   0.03160161 -0.01824520 -0.01290130       0.003
   0.06320323 -0.03649040 -0.02580261       0.003
   0.09480484 -0.05473560 -0.03870391       0.003
  -0.09480484  0.05473560  0.03870391       0.003
  -0.06320323  0.03649040  0.02580261       0.003
  -0.03160161  0.01824520  0.01290130       0.003
   0.00000000  0.03649040 -0.01290130       0.003
   0.03160161  0.01824520 -0.02580261       0.003
   0.06320323  0.00000000 -0.03870391       0.003
   0.09480484 -0.01824520 -0.05160522       0.003
  -0.09480484  0.09122600  0.02580261       0.003
  -0.06320323  0.07298080  0.01290130       0.003
  -0.03160161  0.05473560  0.00000000       0.003
   0.00000000  0.07298080 -0.02580261       0.003
   0.03160161  0.05473560 -0.03870391       0.003
   0.06320323  0.03649040 -0.05160522       0.003
   0.09480484  0.01824520 -0.06450652       0.003
  -0.09480484  0.12771640  0.01290130       0.003
  -0.06320323  0.10947120  0.00000000       0.003
  -0.03160161  0.09122600 -0.01290130       0.003
   0.00000000  0.10947120 -0.03870391       0.003
   0.03160161  0.09122600 -0.05160522       0.003
   0.06320323  0.07298080 -0.06450652       0.003
   0.09480484  0.05473560 -0.07740783       0.003
  -0.09480484  0.16420680  0.00000000       0.003
  -0.06320323  0.14596160 -0.01290130       0.003
  -0.03160161  0.12771640 -0.02580261       0.003
  -0.00000000 -0.10947120  0.03870391       0.003
   0.03160161 -0.12771640  0.02580261       0.003
   0.06320323 -0.14596160  0.01290130       0.003
   0.09480484 -0.16420680 -0.00000000       0.003
  -0.09480484 -0.05473560  0.07740783       0.003
  -0.06320323 -0.07298080  0.06450652       0.003
  -0.03160161 -0.09122600  0.05160522       0.003
  -0.00000000 -0.07298080  0.02580261       0.003
   0.03160161 -0.09122600  0.01290130       0.003
   0.06320323 -0.10947120 -0.00000000       0.003
   0.09480484 -0.12771640 -0.01290130       0.003
  -0.09480484 -0.01824520  0.06450652       0.003
  -0.06320323 -0.03649040  0.05160522       0.003
  -0.03160161 -0.05473560  0.03870391       0.003
  -0.00000000 -0.03649040  0.01290130       0.003
   0.03160161 -0.05473560 -0.00000000       0.003
   0.06320323 -0.07298080 -0.01290130       0.003
   0.09480484 -0.09122600 -0.02580261       0.003
  -0.09480484  0.01824520  0.05160522       0.003
  -0.06320323 -0.00000000  0.03870391       0.003
  -0.03160161 -0.01824520  0.02580261       0.003
  -0.00000000  0.00000000  0.03870391       0.003
   0.03160161 -0.01824520  0.02580261       0.003
   0.06320323 -0.03649040  0.01290130       0.003
   0.09480484 -0.05473560 -0.00000000       0.003
  -0.09480484  0.05473560  0.07740783       0.003
  -0.06320323  0.03649040  0.06450652       0.003
  -0.03160161  0.01824520  0.05160522       0.003
  -0.00000000  0.03649040  0.02580261       0.003
   0.03160161  0.01824520  0.01290130       0.003
   0.06320323  0.00000000  0.00000000       0.003
   0.09480484 -0.01824520 -0.01290130       0.003
  -0.09480484  0.09122600  0.06450652       0.003
  -0.06320323  0.07298080  0.05160522       0.003
  -0.03160161  0.05473560  0.03870391       0.003
  -0.00000000  0.07298080  0.01290130       0.003
   0.03160161  0.05473560  0.00000000       0.003
   0.06320323  0.03649040 -0.01290130       0.003
   0.09480484  0.01824520 -0.02580261       0.003
  -0.09480484  0.12771640  0.05160522       0.003
  -0.06320323  0.10947120  0.03870391       0.003
  -0.03160161  0.09122600  0.02580261       0.003
  -0.00000000  0.10947120  0.00000000       0.003
   0.03160161  0.09122600 -0.01290130       0.003
   0.06320323  0.07298080 -0.02580261       0.003
   0.09480484  0.05473560 -0.03870391       0.003
  -0.09480484  0.16420680  0.03870391       0.003
  -0.06320323  0.14596160  0.02580261       0.003
  -0.03160161  0.12771640  0.01290130       0.003
  -0.00000000 -0.10947120  0.07740783       0.003
   0.03160161 -0.12771640  0.06450652       0.003
   0.06320323 -0.14596160  0.05160522       0.003
   0.09480484 -0.16420680  0.03870391       0.003
  -0.09480484 -0.05473560  0.11611174       0.003
  -0.06320323 -0.07298080  0.10321044       0.003
  -0.03160161 -0.09122600  0.09030913       0.003
  -0.00000000 -0.07298080  0.06450652       0.003
   0.03160161 -0.09122600  0.05160522       0.003
   0.06320323 -0.10947120  0.03870391       0.003
   0.09480484 -0.12771640  0.02580261       0.003
  -0.09480484 -0.01824520  0.10321044       0.003
  -0.06320323 -0.03649040  0.09030913       0.003
  -0.03160161 -0.05473560  0.07740783       0.003
  -0.00000000 -0.03649040  0.05160522       0.003
   0.03160161 -0.05473560  0.03870391       0.003
   0.06320323 -0.07298080  0.02580261       0.003
   0.09480484 -0.09122600  0.01290130       0.003
  -0.09480484  0.01824520  0.09030913       0.003
  -0.06320323 -0.00000000  0.07740783       0.003
  -0.03160161 -0.01824520  0.06450652       0.003
  -0.00000000  0.00000000  0.07740783       0.003
   0.03160161 -0.01824520  0.06450652       0.003
   0.06320323 -0.03649040  0.05160522       0.003
   0.09480484 -0.05473560  0.03870391       0.003
  -0.09480484  0.05473560  0.11611174       0.003
  -0.06320323  0.03649040  0.10321044       0.003
  -0.03160161  0.01824520  0.09030913       0.003
  -0.00000000  0.03649040  0.06450652       0.003
   0.03160161  0.01824520  0.05160522       0.003
   0.06320323  0.00000000  0.03870391       0.003
   0.09480484 -0.01824520  0.02580261       0.003
  -0.09480484  0.09122600  0.10321044       0.003
  -0.06320323  0.07298080  0.09030913       0.003
  -0.03160161  0.05473560  0.07740783       0.003
  -0.00000000  0.07298080  0.05160522       0.003
   0.03160161  0.05473560  0.03870391       0.003
   0.06320323  0.03649040  0.02580261       0.003
   0.09480484  0.01824520  0.01290130       0.003
  -0.09480484  0.12771640  0.09030913       0.003
  -0.06320323  0.10947120  0.07740783       0.003
  -0.03160161  0.09122600  0.06450652       0.003
  -0.00000000  0.10947120  0.03870391       0.003
   0.03160161  0.09122600  0.02580261       0.003
   0.06320323  0.07298080  0.01290130       0.003
   0.09480484  0.05473560  0.00000000       0.003
  -0.09480484  0.16420680  0.07740783       0.003
  -0.06320323  0.14596160  0.06450652       0.003
  -0.03160161  0.12771640  0.05160522       0.003
  -0.00000000 -0.10947120  0.11611174       0.003
   0.03160161 -0.12771640  0.10321044       0.003
   0.06320323 -0.14596160  0.09030913       0.003
   0.09480484 -0.16420680  0.07740783       0.003
  -0.09480484 -0.05473560  0.15481566       0.003
  -0.06320323 -0.07298080  0.14191435       0.003
  -0.03160161 -0.09122600  0.12901305       0.003
  -0.00000000 -0.07298080  0.10321044       0.003
   0.03160161 -0.09122600  0.09030913       0.003
   0.06320323 -0.10947120  0.07740783       0.003
   0.09480484 -0.12771640  0.06450652       0.003
  -0.09480484 -0.01824520  0.14191435       0.003
  -0.06320323 -0.03649040  0.12901305       0.003
  -0.03160161 -0.05473560  0.11611174       0.003
  -0.00000000 -0.03649040  0.09030913       0.003
   0.03160161 -0.05473560  0.07740783       0.003
   0.06320323 -0.07298080  0.06450652       0.003
   0.09480484 -0.09122600  0.05160522       0.003
  -0.09480484  0.01824520  0.12901305       0.003
  -0.06320323 -0.00000000  0.11611174       0.003
  -0.03160161 -0.01824520  0.10321044       0.003
  -0.00000000  0.00000000  0.11611174       0.003
   0.03160161 -0.01824520  0.10321044       0.003
   0.06320323 -0.03649040  0.09030913       0.003
   0.09480484 -0.05473560  0.07740783       0.003
  -0.09480484  0.05473560  0.15481566       0.003
  -0.06320323  0.03649040  0.14191435       0.003
  -0.03160161  0.01824520  0.12901305       0.003
  -0.00000000  0.03649040  0.10321044       0.003
   0.03160161  0.01824520  0.09030913       0.003
   0.06320323  0.00000000  0.07740783       0.003
   0.09480484 -0.01824520  0.06450652       0.003
  -0.09480484  0.09122600  0.14191435       0.003
  -0.06320323  0.07298080  0.12901305       0.003
  -0.03160161  0.05473560  0.11611174       0.003
  -0.00000000  0.07298080  0.09030913       0.003
   0.03160161  0.05473560  0.07740783       0.003
   0.06320323  0.03649040  0.06450652       0.003
   0.09480484  0.01824520  0.05160522       0.003
  -0.09480484  0.12771640  0.12901305       0.003
  -0.06320323  0.10947120  0.11611174       0.003
  -0.03160161  0.09122600  0.10321044       0.003
  -0.00000000  0.10947120  0.07740783       0.003
   0.03160161  0.09122600  0.06450652       0.003
   0.06320323  0.07298080  0.05160522       0.003
   0.09480484  0.05473560  0.03870391       0.003
  -0.09480484  0.16420680  0.11611174       0.003
  -0.06320323  0.14596160  0.10321044       0.003
  -0.03160161  0.12771640  0.09030913       0.003
  -0.00000000 -0.10947120  0.15481566       0.003
   0.03160161 -0.12771640  0.14191435       0.003
   0.06320323 -0.14596160  0.12901305       0.003
   0.09480484 -0.16420680  0.11611174       0.003
  -0.09480484 -0.05473560  0.19351957       0.003
  -0.06320323 -0.07298080  0.18061827       0.003
  -0.03160161 -0.09122600  0.16771696       0.003
  -0.00000000 -0.07298080  0.14191435       0.003
   0.03160161 -0.09122600  0.12901305       0.003
   0.06320323 -0.10947120  0.11611174       0.003
   0.09480484 -0.12771640  0.10321044       0.003
  -0.09480484 -0.01824520  0.18061827       0.003
  -0.06320323 -0.03649040  0.16771696       0.003
  -0.03160161 -0.05473560  0.15481566       0.003
  -0.00000000 -0.03649040  0.12901305       0.003
   0.03160161 -0.05473560  0.11611174       0.003
   0.06320323 -0.07298080  0.10321044       0.003
   0.09480484 -0.09122600  0.09030913       0.003
  -0.09480484  0.01824520  0.16771696       0.003
  -0.06320323 -0.00000000  0.15481566       0.003
  -0.03160161 -0.01824520  0.14191435       0.003
   0.00000000 -0.00000000 -0.11611174       0.003
   0.03160161 -0.01824520 -0.12901305       0.003
   0.06320323 -0.03649040 -0.14191435       0.003
   0.09480484 -0.05473560 -0.15481566       0.003
  -0.09480484  0.05473560 -0.07740783       0.003
  -0.06320323  0.03649040 -0.09030913       0.003
  -0.03160161  0.01824520 -0.10321044       0.003
   0.00000000  0.03649040 -0.12901305       0.003
   0.03160161  0.01824520 -0.14191435       0.003
   0.06320323  0.00000000 -0.15481566       0.003
   0.09480484 -0.01824520 -0.16771696       0.003
  -0.09480484  0.09122600 -0.09030913       0.003
  -0.06320323  0.07298080 -0.10321044       0.003
  -0.03160161  0.05473560 -0.11611174       0.003
   0.00000000  0.07298080 -0.14191435       0.003
   0.03160161  0.05473560 -0.15481566       0.003
   0.06320323  0.03649040 -0.16771696       0.003
   0.09480484  0.01824520 -0.18061827       0.003
  -0.09480484  0.12771640 -0.10321044       0.003
  -0.06320323  0.10947120 -0.11611174       0.003
  -0.03160161  0.09122600 -0.12901305       0.003
   0.00000000  0.10947120 -0.15481566       0.003
   0.03160161  0.09122600 -0.16771696       0.003
   0.06320323  0.07298080 -0.18061827       0.003
   0.09480484  0.05473560 -0.19351957       0.003
  -0.09480484  0.16420680 -0.11611174       0.003
  -0.06320323  0.14596160 -0.12901305       0.003
  -0.03160161  0.12771640 -0.14191435       0.003
   0.00000000 -0.10947120 -0.07740783       0.003
   0.03160161 -0.12771640 -0.09030913       0.003
   0.06320323 -0.14596160 -0.10321044       0.003
   0.09480484 -0.16420680 -0.11611174       0.003
  -0.09480484 -0.05473560 -0.03870391       0.003
  -0.06320323 -0.07298080 -0.05160522       0.003
  -0.03160161 -0.09122600 -0.06450652       0.003
   0.00000000 -0.07298080 -0.09030913       0.003
   0.03160161 -0.09122600 -0.10321044       0.003
   0.06320323 -0.10947120 -0.11611174       0.003
   0.09480484 -0.12771640 -0.12901305       0.003
  -0.09480484 -0.01824520 -0.05160522       0.003
  -0.06320323 -0.03649040 -0.06450652       0.003
  -0.03160161 -0.05473560 -0.07740783       0.003
   0.00000000 -0.03649040 -0.10321044       0.003
   0.03160161 -0.05473560 -0.11611174       0.003
   0.06320323 -0.07298080 -0.12901305       0.003
   0.09480484 -0.09122600 -0.14191435       0.003
  -0.09480484  0.01824520 -0.06450652       0.003
  -0.06320323 -0.00000000 -0.07740783       0.003
  -0.03160161 -0.01824520 -0.09030913       0.003
   0.00000000 -0.00000000 -0.07740783       0.003
   0.03160161 -0.01824520 -0.09030913       0.003
   0.06320323 -0.03649040 -0.10321044       0.003
   0.09480484 -0.05473560 -0.11611174       0.003
  -0.09480484  0.05473560 -0.03870391       0.003
  -0.06320323  0.03649040 -0.05160522       0.003
  -0.03160161  0.01824520 -0.06450652       0.003
   0.00000000  0.03649040 -0.09030913       0.003
   0.03160161  0.01824520 -0.10321044       0.003
   0.06320323  0.00000000 -0.11611174       0.003
   0.09480484 -0.01824520 -0.12901305       0.003
  -0.09480484  0.09122600 -0.05160522       0.003
  -0.06320323  0.07298080 -0.06450652       0.003
  -0.03160161  0.05473560 -0.07740783       0.003
   0.00000000  0.07298080 -0.10321044       0.003
   0.03160161  0.05473560 -0.11611174       0.003
   0.06320323  0.03649040 -0.12901305       0.003
   0.09480484  0.01824520 -0.14191435       0.003
  -0.09480484  0.12771640 -0.06450652       0.003
  -0.06320323  0.10947120 -0.07740783       0.003
  -0.03160161  0.09122600 -0.09030913       0.003
   0.00000000  0.10947120 -0.11611174       0.003
   0.03160161  0.09122600 -0.12901305       0.003
   0.06320323  0.07298080 -0.14191435       0.003
   0.09480484  0.05473560 -0.15481566       0.003
  -0.09480484  0.16420680 -0.07740783       0.003
  -0.06320323  0.14596160 -0.09030913       0.003
  -0.03160161  0.12771640 -0.10321044       0.003
   0.00000000 -0.10947120 -0.03870391       0.003
   0.03160161 -0.12771640 -0.05160522       0.003
   0.06320323 -0.14596160 -0.06450652       0.003
   0.09480484 -0.16420680 -0.07740783       0.003
  -0.09480484 -0.05473560 -0.00000000       0.003
  -0.06320323 -0.07298080 -0.01290130       0.003
  -0.03160161 -0.09122600 -0.02580261       0.003
   0.00000000 -0.07298080 -0.05160522       0.003
   0.03160161 -0.09122600 -0.06450652       0.003
   0.06320323 -0.10947120 -0.07740783       0.003
   0.09480484 -0.12771640 -0.09030913       0.003
  -0.09480484 -0.01824520 -0.01290130       0.003
  -0.06320323 -0.03649040 -0.02580261       0.003
  -0.03160161 -0.05473560 -0.03870391       0.003
   0.00000000 -0.03649040 -0.06450652       0.003
   0.03160161 -0.05473560 -0.07740783       0.003
   0.06320323 -0.07298080 -0.09030913       0.003
   0.09480484 -0.09122600 -0.10321044       0.003
  -0.09480484  0.01824520 -0.02580261       0.003
  -0.06320323 -0.00000000 -0.03870391       0.003
  -0.03160161 -0.01824520 -0.05160522       0.003
   0.00000000 -0.00000000 -0.03870391       0.003
   0.03160161 -0.01824520 -0.05160522       0.003
   0.06320323 -0.03649040 -0.06450652       0.003
   0.09480484 -0.05473560 -0.07740783       0.003
  -0.09480484  0.05473560  0.00000000       0.003
  -0.06320323  0.03649040 -0.01290130       0.003
  -0.03160161  0.01824520 -0.02580261       0.003
   0.00000000  0.03649040 -0.05160522       0.003
   0.03160161  0.01824520 -0.06450652       0.003
   0.06320323  0.00000000 -0.07740783       0.003
   0.09480484 -0.01824520 -0.09030913       0.003
  -0.09480484  0.09122600 -0.01290130       0.003
  -0.06320323  0.07298080 -0.02580261       0.003
  -0.03160161  0.05473560 -0.03870391       0.003
   0.00000000  0.07298080 -0.06450652       0.003
   0.03160161  0.05473560 -0.07740783       0.003
   0.06320323  0.03649040 -0.09030913       0.003
   0.09480484  0.01824520 -0.10321044       0.003
  -0.09480484  0.12771640 -0.02580261       0.003
  -0.06320323  0.10947120 -0.03870391       0.003
  -0.03160161  0.09122600 -0.05160522       0.003
   0.00000000  0.10947120 -0.07740783       0.003
   0.03160161  0.09122600 -0.09030913       0.003
   0.06320323  0.07298080 -0.10321044       0.003
   0.09480484  0.05473560 -0.11611174       0.003
  -0.09480484  0.16420680 -0.03870391       0.003
  -0.06320323  0.14596160 -0.05160522       0.003
  -0.03160161  0.12771640 -0.06450652       0.003
   0.00000000 -0.10947120 -0.00000000       0.003
   0.03160161 -0.12771640 -0.01290130       0.003
   0.06320323 -0.14596160 -0.02580261       0.003
   0.09480484 -0.16420680 -0.03870391       0.003
  -0.09480484 -0.05473560  0.03870391       0.003
  -0.06320323 -0.07298080  0.02580261       0.003
  -0.03160161 -0.09122600  0.01290130       0.003
   0.00000000 -0.07298080 -0.01290130       0.003
   0.03160161 -0.09122600 -0.02580261       0.003
   0.06320323 -0.10947120 -0.03870391       0.003
   0.09480484 -0.12771640 -0.05160522       0.003
  -0.09480484 -0.01824520  0.02580261       0.003
  -0.06320323 -0.03649040  0.01290130       0.003
  -0.03160161 -0.05473560  0.00000000       0.003
   0.00000000 -0.03649040 -0.02580261       0.003
   0.03160161 -0.05473560 -0.03870391       0.003
   0.06320323 -0.07298080 -0.05160522       0.003
   0.09480484 -0.09122600 -0.06450652       0.003
  -0.09480484  0.01824520  0.01290130       0.003
  -0.06320323 -0.00000000 -0.00000000       0.003
  -0.03160161 -0.01824520 -0.01290130       0.003
 
 k-points in reciprocal lattice and weights: k-points                                
   0.00000000  0.00000000  0.00000000       0.003
   0.14285714 -0.00000000 -0.00000000       0.003
   0.28571429  0.00000000 -0.00000000       0.003
   0.42857143  0.00000000  0.00000000       0.003
  -0.42857143 -0.00000000 -0.00000000       0.003
  -0.28571429 -0.00000000  0.00000000       0.003
  -0.14285714  0.00000000  0.00000000       0.003
   0.00000000  0.14285714  0.00000000       0.003
   0.14285714  0.14285714 -0.00000000       0.003
   0.28571429  0.14285714 -0.00000000       0.003
   0.42857143  0.14285714  0.00000000       0.003
  -0.42857143  0.14285714 -0.00000000       0.003
  -0.28571429  0.14285714  0.00000000       0.003
  -0.14285714  0.14285714 -0.00000000       0.003
   0.00000000  0.28571429  0.00000000       0.003
   0.14285714  0.28571429 -0.00000000       0.003
   0.28571429  0.28571429 -0.00000000       0.003
   0.42857143  0.28571429  0.00000000       0.003
  -0.42857143  0.28571429  0.00000000       0.003
  -0.28571429  0.28571429  0.00000000       0.003
  -0.14285714  0.28571429 -0.00000000       0.003
   0.00000000  0.42857143  0.00000000       0.003
   0.14285714  0.42857143  0.00000000       0.003
   0.28571429  0.42857143  0.00000000       0.003
   0.42857143  0.42857143  0.00000000       0.003
  -0.42857143  0.42857143 -0.00000000       0.003
  -0.28571429  0.42857143 -0.00000000       0.003
  -0.14285714  0.42857143  0.00000000       0.003
   0.00000000 -0.42857143  0.00000000       0.003
   0.14285714 -0.42857143 -0.00000000       0.003
   0.28571429 -0.42857143  0.00000000       0.003
   0.42857143 -0.42857143  0.00000000       0.003
  -0.42857143 -0.42857143  0.00000000       0.003
  -0.28571429 -0.42857143  0.00000000       0.003
  -0.14285714 -0.42857143  0.00000000       0.003
   0.00000000 -0.28571429 -0.00000000       0.003
   0.14285714 -0.28571429  0.00000000       0.003
   0.28571429 -0.28571429 -0.00000000       0.003
   0.42857143 -0.28571429  0.00000000       0.003
  -0.42857143 -0.28571429  0.00000000       0.003
  -0.28571429 -0.28571429  0.00000000       0.003
  -0.14285714 -0.28571429  0.00000000       0.003
   0.00000000 -0.14285714 -0.00000000       0.003
   0.14285714 -0.14285714  0.00000000       0.003
   0.28571429 -0.14285714 -0.00000000       0.003
   0.42857143 -0.14285714  0.00000000       0.003
  -0.42857143 -0.14285714  0.00000000       0.003
  -0.28571429 -0.14285714  0.00000000       0.003
  -0.14285714 -0.14285714  0.00000000       0.003
   0.00000000  0.00000000  0.14285714       0.003
   0.14285714 -0.00000000  0.14285714       0.003
   0.28571429 -0.00000000  0.14285714       0.003
   0.42857143  0.00000000  0.14285714       0.003
  -0.42857143 -0.00000000  0.14285714       0.003
  -0.28571429 -0.00000000  0.14285714       0.003
  -0.14285714  0.00000000  0.14285714       0.003
  -0.00000000  0.14285714  0.14285714       0.003
   0.14285714  0.14285714  0.14285714       0.003
   0.28571429  0.14285714  0.14285714       0.003
   0.42857143  0.14285714  0.14285714       0.003
  -0.42857143  0.14285714  0.14285714       0.003
  -0.28571429  0.14285714  0.14285714       0.003
  -0.14285714  0.14285714  0.14285714       0.003
  -0.00000000  0.28571429  0.14285714       0.003
   0.14285714  0.28571429  0.14285714       0.003
   0.28571429  0.28571429  0.14285714       0.003
   0.42857143  0.28571429  0.14285714       0.003
  -0.42857143  0.28571429  0.14285714       0.003
  -0.28571429  0.28571429  0.14285714       0.003
  -0.14285714  0.28571429  0.14285714       0.003
  -0.00000000  0.42857143  0.14285714       0.003
   0.14285714  0.42857143  0.14285714       0.003
   0.28571429  0.42857143  0.14285714       0.003
   0.42857143  0.42857143  0.14285714       0.003
  -0.42857143  0.42857143  0.14285714       0.003
  -0.28571429  0.42857143  0.14285714       0.003
  -0.14285714  0.42857143  0.14285714       0.003
   0.00000000 -0.42857143  0.14285714       0.003
   0.14285714 -0.42857143  0.14285714       0.003
   0.28571429 -0.42857143  0.14285714       0.003
   0.42857143 -0.42857143  0.14285714       0.003
  -0.42857143 -0.42857143  0.14285714       0.003
  -0.28571429 -0.42857143  0.14285714       0.003
  -0.14285714 -0.42857143  0.14285714       0.003
   0.00000000 -0.28571429  0.14285714       0.003
   0.14285714 -0.28571429  0.14285714       0.003
   0.28571429 -0.28571429  0.14285714       0.003
   0.42857143 -0.28571429  0.14285714       0.003
  -0.42857143 -0.28571429  0.14285714       0.003
  -0.28571429 -0.28571429  0.14285714       0.003
  -0.14285714 -0.28571429  0.14285714       0.003
  -0.00000000 -0.14285714  0.14285714       0.003
   0.14285714 -0.14285714  0.14285714       0.003
   0.28571429 -0.14285714  0.14285714       0.003
   0.42857143 -0.14285714  0.14285714       0.003
  -0.42857143 -0.14285714  0.14285714       0.003
  -0.28571429 -0.14285714  0.14285714       0.003
  -0.14285714 -0.14285714  0.14285714       0.003
   0.00000000  0.00000000  0.28571429       0.003
   0.14285714  0.00000000  0.28571429       0.003
   0.28571429 -0.00000000  0.28571429       0.003
   0.42857143 -0.00000000  0.28571429       0.003
  -0.42857143 -0.00000000  0.28571429       0.003
  -0.28571429 -0.00000000  0.28571429       0.003
  -0.14285714  0.00000000  0.28571429       0.003
  -0.00000000  0.14285714  0.28571429       0.003
   0.14285714  0.14285714  0.28571429       0.003
   0.28571429  0.14285714  0.28571429       0.003
   0.42857143  0.14285714  0.28571429       0.003
  -0.42857143  0.14285714  0.28571429       0.003
  -0.28571429  0.14285714  0.28571429       0.003
  -0.14285714  0.14285714  0.28571429       0.003
  -0.00000000  0.28571429  0.28571429       0.003
   0.14285714  0.28571429  0.28571429       0.003
   0.28571429  0.28571429  0.28571429       0.003
   0.42857143  0.28571429  0.28571429       0.003
  -0.42857143  0.28571429  0.28571429       0.003
  -0.28571429  0.28571429  0.28571429       0.003
  -0.14285714  0.28571429  0.28571429       0.003
  -0.00000000  0.42857143  0.28571429       0.003
   0.14285714  0.42857143  0.28571429       0.003
   0.28571429  0.42857143  0.28571429       0.003
   0.42857143  0.42857143  0.28571429       0.003
  -0.42857143  0.42857143  0.28571429       0.003
  -0.28571429  0.42857143  0.28571429       0.003
  -0.14285714  0.42857143  0.28571429       0.003
   0.00000000 -0.42857143  0.28571429       0.003
   0.14285714 -0.42857143  0.28571429       0.003
   0.28571429 -0.42857143  0.28571429       0.003
   0.42857143 -0.42857143  0.28571429       0.003
  -0.42857143 -0.42857143  0.28571429       0.003
  -0.28571429 -0.42857143  0.28571429       0.003
  -0.14285714 -0.42857143  0.28571429       0.003
  -0.00000000 -0.28571429  0.28571429       0.003
   0.14285714 -0.28571429  0.28571429       0.003
   0.28571429 -0.28571429  0.28571429       0.003
   0.42857143 -0.28571429  0.28571429       0.003
  -0.42857143 -0.28571429  0.28571429       0.003
  -0.28571429 -0.28571429  0.28571429       0.003
  -0.14285714 -0.28571429  0.28571429       0.003
   0.00000000 -0.14285714  0.28571429       0.003
   0.14285714 -0.14285714  0.28571429       0.003
   0.28571429 -0.14285714  0.28571429       0.003
   0.42857143 -0.14285714  0.28571429       0.003
  -0.42857143 -0.14285714  0.28571429       0.003
  -0.28571429 -0.14285714  0.28571429       0.003
  -0.14285714 -0.14285714  0.28571429       0.003
  -0.00000000  0.00000000  0.42857143       0.003
   0.14285714 -0.00000000  0.42857143       0.003
   0.28571429  0.00000000  0.42857143       0.003
   0.42857143  0.00000000  0.42857143       0.003
  -0.42857143  0.00000000  0.42857143       0.003
  -0.28571429  0.00000000  0.42857143       0.003
  -0.14285714  0.00000000  0.42857143       0.003
  -0.00000000  0.14285714  0.42857143       0.003
   0.14285714  0.14285714  0.42857143       0.003
   0.28571429  0.14285714  0.42857143       0.003
   0.42857143  0.14285714  0.42857143       0.003
  -0.42857143  0.14285714  0.42857143       0.003
  -0.28571429  0.14285714  0.42857143       0.003
  -0.14285714  0.14285714  0.42857143       0.003
  -0.00000000  0.28571429  0.42857143       0.003
   0.14285714  0.28571429  0.42857143       0.003
   0.28571429  0.28571429  0.42857143       0.003
   0.42857143  0.28571429  0.42857143       0.003
  -0.42857143  0.28571429  0.42857143       0.003
  -0.28571429  0.28571429  0.42857143       0.003
  -0.14285714  0.28571429  0.42857143       0.003
  -0.00000000  0.42857143  0.42857143       0.003
   0.14285714  0.42857143  0.42857143       0.003
   0.28571429  0.42857143  0.42857143       0.003
   0.42857143  0.42857143  0.42857143       0.003
  -0.42857143  0.42857143  0.42857143       0.003
  -0.28571429  0.42857143  0.42857143       0.003
  -0.14285714  0.42857143  0.42857143       0.003
  -0.00000000 -0.42857143  0.42857143       0.003
   0.14285714 -0.42857143  0.42857143       0.003
   0.28571429 -0.42857143  0.42857143       0.003
   0.42857143 -0.42857143  0.42857143       0.003
  -0.42857143 -0.42857143  0.42857143       0.003
  -0.28571429 -0.42857143  0.42857143       0.003
  -0.14285714 -0.42857143  0.42857143       0.003
  -0.00000000 -0.28571429  0.42857143       0.003
   0.14285714 -0.28571429  0.42857143       0.003
   0.28571429 -0.28571429  0.42857143       0.003
   0.42857143 -0.28571429  0.42857143       0.003
  -0.42857143 -0.28571429  0.42857143       0.003
  -0.28571429 -0.28571429  0.42857143       0.003
  -0.14285714 -0.28571429  0.42857143       0.003
  -0.00000000 -0.14285714  0.42857143       0.003
   0.14285714 -0.14285714  0.42857143       0.003
   0.28571429 -0.14285714  0.42857143       0.003
   0.42857143 -0.14285714  0.42857143       0.003
  -0.42857143 -0.14285714  0.42857143       0.003
  -0.28571429 -0.14285714  0.42857143       0.003
  -0.14285714 -0.14285714  0.42857143       0.003
   0.00000000  0.00000000 -0.42857143       0.003
   0.14285714 -0.00000000 -0.42857143       0.003
   0.28571429 -0.00000000 -0.42857143       0.003
   0.42857143 -0.00000000 -0.42857143       0.003
  -0.42857143 -0.00000000 -0.42857143       0.003
  -0.28571429 -0.00000000 -0.42857143       0.003
  -0.14285714  0.00000000 -0.42857143       0.003
   0.00000000  0.14285714 -0.42857143       0.003
   0.14285714  0.14285714 -0.42857143       0.003
   0.28571429  0.14285714 -0.42857143       0.003
   0.42857143  0.14285714 -0.42857143       0.003
  -0.42857143  0.14285714 -0.42857143       0.003
  -0.28571429  0.14285714 -0.42857143       0.003
  -0.14285714  0.14285714 -0.42857143       0.003
   0.00000000  0.28571429 -0.42857143       0.003
   0.14285714  0.28571429 -0.42857143       0.003
   0.28571429  0.28571429 -0.42857143       0.003
   0.42857143  0.28571429 -0.42857143       0.003
  -0.42857143  0.28571429 -0.42857143       0.003
  -0.28571429  0.28571429 -0.42857143       0.003
  -0.14285714  0.28571429 -0.42857143       0.003
   0.00000000  0.42857143 -0.42857143       0.003
   0.14285714  0.42857143 -0.42857143       0.003
   0.28571429  0.42857143 -0.42857143       0.003
   0.42857143  0.42857143 -0.42857143       0.003
  -0.42857143  0.42857143 -0.42857143       0.003
  -0.28571429  0.42857143 -0.42857143       0.003
  -0.14285714  0.42857143 -0.42857143       0.003
   0.00000000 -0.42857143 -0.42857143       0.003
   0.14285714 -0.42857143 -0.42857143       0.003
   0.28571429 -0.42857143 -0.42857143       0.003
   0.42857143 -0.42857143 -0.42857143       0.003
  -0.42857143 -0.42857143 -0.42857143       0.003
  -0.28571429 -0.42857143 -0.42857143       0.003
  -0.14285714 -0.42857143 -0.42857143       0.003
   0.00000000 -0.28571429 -0.42857143       0.003
   0.14285714 -0.28571429 -0.42857143       0.003
   0.28571429 -0.28571429 -0.42857143       0.003
   0.42857143 -0.28571429 -0.42857143       0.003
  -0.42857143 -0.28571429 -0.42857143       0.003
  -0.28571429 -0.28571429 -0.42857143       0.003
  -0.14285714 -0.28571429 -0.42857143       0.003
   0.00000000 -0.14285714 -0.42857143       0.003
   0.14285714 -0.14285714 -0.42857143       0.003
   0.28571429 -0.14285714 -0.42857143       0.003
   0.42857143 -0.14285714 -0.42857143       0.003
  -0.42857143 -0.14285714 -0.42857143       0.003
  -0.28571429 -0.14285714 -0.42857143       0.003
  -0.14285714 -0.14285714 -0.42857143       0.003
   0.00000000 -0.00000000 -0.28571429       0.003
   0.14285714 -0.00000000 -0.28571429       0.003
   0.28571429  0.00000000 -0.28571429       0.003
   0.42857143  0.00000000 -0.28571429       0.003
  -0.42857143  0.00000000 -0.28571429       0.003
  -0.28571429  0.00000000 -0.28571429       0.003
  -0.14285714 -0.00000000 -0.28571429       0.003
   0.00000000  0.14285714 -0.28571429       0.003
   0.14285714  0.14285714 -0.28571429       0.003
   0.28571429  0.14285714 -0.28571429       0.003
   0.42857143  0.14285714 -0.28571429       0.003
  -0.42857143  0.14285714 -0.28571429       0.003
  -0.28571429  0.14285714 -0.28571429       0.003
  -0.14285714  0.14285714 -0.28571429       0.003
   0.00000000  0.28571429 -0.28571429       0.003
   0.14285714  0.28571429 -0.28571429       0.003
   0.28571429  0.28571429 -0.28571429       0.003
   0.42857143  0.28571429 -0.28571429       0.003
  -0.42857143  0.28571429 -0.28571429       0.003
  -0.28571429  0.28571429 -0.28571429       0.003
  -0.14285714  0.28571429 -0.28571429       0.003
  -0.00000000  0.42857143 -0.28571429       0.003
   0.14285714  0.42857143 -0.28571429       0.003
   0.28571429  0.42857143 -0.28571429       0.003
   0.42857143  0.42857143 -0.28571429       0.003
  -0.42857143  0.42857143 -0.28571429       0.003
  -0.28571429  0.42857143 -0.28571429       0.003
  -0.14285714  0.42857143 -0.28571429       0.003
   0.00000000 -0.42857143 -0.28571429       0.003
   0.14285714 -0.42857143 -0.28571429       0.003
   0.28571429 -0.42857143 -0.28571429       0.003
   0.42857143 -0.42857143 -0.28571429       0.003
  -0.42857143 -0.42857143 -0.28571429       0.003
  -0.28571429 -0.42857143 -0.28571429       0.003
  -0.14285714 -0.42857143 -0.28571429       0.003
   0.00000000 -0.28571429 -0.28571429       0.003
   0.14285714 -0.28571429 -0.28571429       0.003
   0.28571429 -0.28571429 -0.28571429       0.003
   0.42857143 -0.28571429 -0.28571429       0.003
  -0.42857143 -0.28571429 -0.28571429       0.003
  -0.28571429 -0.28571429 -0.28571429       0.003
[...]
    0.000000    0.000000    0.000000    0.000000    0.000000    0.000000    0.000000
    1.130977    0.000000    0.000000    0.000000    0.000000    0.000000    0.000000
    2.261955    0.000000    0.000000    0.000000    0.000000    0.000000    0.000000
    3.392932    0.000000    0.000000    0.000000    0.000000    0.000000    0.000000
    4.523910    3.006664    3.006663    3.006663    0.000001    0.000000    0.000001
    5.654887    0.000000    0.000000    0.000000    0.000000    0.000000    0.000000
    6.785864    0.000000    0.000000    0.000000    0.000000    0.000000    0.000000
    7.916842    0.748716    0.748716    0.748716    0.000000    0.000000    0.000000
    9.047819    1.556066    1.556066    1.556066   -0.000000   -0.000000   -0.000000
   10.178797    3.250174    3.250174    3.250174    0.000000   -0.000000    0.000000
   11.309774    1.985368    1.985368    1.985368    0.000000   -0.000000    0.000000
   12.440751    1.760905    1.760905    1.760905    0.000000    0.000000    0.000000
   13.571729    1.569196    1.569194    1.569191    0.000002    0.000001    0.000001
   14.702706    1.040128    1.040128    1.040128    0.000000    0.000000   -0.000000
   15.833683    0.781111    0.781111    0.781111    0.000000    0.000000    0.000000
   16.964661    0.625157    0.625156    0.625157   -0.000001   -0.000000    0.000001
   18.095638    0.840461    0.840461    0.840461   -0.000000   -0.000000   -0.000000
   19.226616    0.358840    0.358840    0.358840    0.000000    0.000000    0.000000
   20.357593    0.349837    0.349837    0.349837    0.000000    0.000000    0.000000
   21.488570    0.144437    0.144437    0.144437   -0.000000   -0.000000   -0.000000
   22.619548    0.352161    0.352161    0.352161   -0.000000   -0.000000   -0.000000
   23.750525    0.054018    0.054018    0.054018   -0.000000   -0.000000   -0.000000
   24.881503    0.147483    0.147483    0.147483   -0.000000   -0.000000   -0.000000
   26.012480    0.040939    0.040939    0.040939   -0.000000   -0.000000   -0.000000
   27.143457    0.055782    0.055782    0.055782    0.000000    0.000000    0.000000
   28.274435    0.105838    0.105838    0.105838   -0.000000   -0.000000   -0.000000
   29.405412    0.161531    0.161531    0.161531   -0.000000    0.000000   -0.000000
   30.536390    0.067544    0.067544    0.067544   -0.000000   -0.000000   -0.000000
   31.667367    0.080328    0.080328    0.080328   -0.000000   -0.000000   -0.000000
   32.798344    0.053067    0.053067    0.053067   -0.000000   -0.000000   -0.000000
   33.929322    0.023628    0.023628    0.023628    0.000000   -0.000000   -0.000000
   35.060299    0.053201    0.053201    0.053201   -0.000000   -0.000000   -0.000000
   36.191277    0.036034    0.036034    0.036034   -0.000000   -0.000000   -0.000000
   37.322254    0.036646    0.036646    0.036646   -0.000000   -0.000000   -0.000000
   38.453231    0.014000    0.014000    0.014000   -0.000000    0.000000    0.000000
   39.584209    0.012145    0.012145    0.012145   -0.000000    0.000000    0.000000
   40.715186    0.007953    0.007953    0.007953   -0.000000   -0.000000   -0.000000
   41.846163    0.023403    0.023403    0.023403   -0.000000   -0.000000   -0.000000
   42.977141    0.007501    0.007501    0.007501   -0.000000   -0.000000   -0.000000
   44.108118    0.035383    0.035383    0.035383    0.000000   -0.000000    0.000000
   45.239096    0.033400    0.033400    0.033400   -0.000000   -0.000000   -0.000000
   46.370073    0.034040    0.034040    0.034040   -0.000000   -0.000000   -0.000000
   47.501050    0.076759    0.076759    0.076759    0.000000    0.000000   -0.000000
   48.632028    0.079791    0.079791    0.079791   -0.000000   -0.000000    0.000000
   49.763005    0.050951    0.050951    0.050951   -0.000000   -0.000000   -0.000000
   50.893983    0.135835    0.135835    0.135835    0.000000   -0.000000    0.000000
   52.024960    0.024996    0.024996    0.024996   -0.000000   -0.000000   -0.000000
   53.155937    0.111148    0.111148    0.111148    0.000000    0.000000    0.000000
   54.286915    0.018553    0.018549    0.018548    0.000003    0.000001    0.000002
   55.417892    0.108998    0.108994    0.108993    0.000004    0.000002    0.000003
   56.548870    0.974715    0.974715    0.974714    0.000000    0.000000    0.000000
   57.679847    0.198037    0.198037    0.198037   -0.000000   -0.000000   -0.000000
   58.810824    0.181060    0.181060    0.181060    0.000000    0.000000    0.000000
   59.941802    0.167256    0.167257    0.167257   -0.000000   -0.000000   -0.000000
   61.072779    0.306830    0.306830    0.306830   -0.000000   -0.000000   -0.000000
   62.203757    0.661385    0.661385    0.661385    0.000000    0.000000    0.000000
   63.334734    0.034248    0.034248    0.034248   -0.000000   -0.000000   -0.000000
   64.465711    0.111827    0.111827    0.111827    0.000000    0.000000    0.000000
   65.596689    0.257596    0.257596    0.257596    0.000000    0.000000    0.000000
   66.727666    0.231492    0.231492    0.231492   -0.000000   -0.000000   -0.000000
   67.858643    0.078970    0.078970    0.078970   -0.000000   -0.000000   -0.000000
   68.989621    0.007788    0.007788    0.007788    0.000000    0.000000    0.000000
   70.120598    0.182594    0.182594    0.182594   -0.000000   -0.000000   -0.000000
   71.251576    0.208371    0.208370    0.208371    0.000000    0.000000    0.000000
   72.382553    0.211845    0.211846    0.211847   -0.000002   -0.000001   -0.000001
   73.513530    0.122583    0.122583    0.122583    0.000000    0.000000   -0.000000
   74.644508    0.061292    0.061292    0.061292   -0.000000   -0.000000   -0.000000
   75.775485    0.038198    0.038198    0.038198    0.000000    0.000000    0.000000
   76.906463    0.057922    0.057922    0.057923   -0.000000   -0.000000   -0.000000
   78.037440    0.114512    0.114512    0.114512    0.000000    0.000000    0.000000
   79.168417    0.073091    0.073090    0.073089    0.000002    0.000001    0.000001
   80.299395    0.094064    0.094064    0.094064   -0.000000   -0.000000   -0.000000
   81.430372    0.089745    0.089745    0.089745   -0.000000   -0.000000   -0.000000
   82.561350    0.089164    0.089165    0.089165   -0.000000   -0.000000   -0.000000
   83.692327    0.056577    0.056577    0.056577    0.000000    0.000000    0.000000
   84.823304    0.101653    0.101653    0.101653   -0.000000   -0.000000   -0.000000
   85.954282    0.037800    0.037800    0.037800   -0.000000   -0.000000   -0.000000
   87.085259    0.043352    0.043352    0.043352   -0.000000    0.000000   -0.000000
   88.216237    0.036541    0.036541    0.036541    0.000000    0.000000    0.000000
   89.347214    0.009733    0.009733    0.009733    0.000000   -0.000000    0.000000
   90.478191    0.008159    0.008159    0.008159    0.000000    0.000000    0.000000
   91.609169    0.012317    0.012317    0.012317    0.000000    0.000000    0.000000
   92.740146    0.006892    0.006892    0.006893   -0.000000   -0.000000   -0.000000
   93.871123    0.003404    0.003404    0.003404    0.000000    0.000000    0.000000
   95.002101    0.000000    0.000000    0.000000    0.000000    0.000000    0.000000
   96.133078    0.000000    0.000000    0.000000    0.000000    0.000000    0.000000
   97.264056    0.000000    0.000000    0.000000    0.000000    0.000000    0.000000
   98.395033    0.000000    0.000000    0.000000    0.000000    0.000000    0.000000
   99.526010    0.000000    0.000000    0.000000    0.000000    0.000000    0.000000
  100.656988    0.000000    0.000000    0.000000    0.000000    0.000000    0.000000
  101.787965    0.000000    0.000000    0.000000    0.000000    0.000000    0.000000
  102.918943    0.000000    0.000000    0.000000    0.000000    0.000000    0.000000
  104.049920    0.000000    0.000000    0.000000    0.000000    0.000000    0.000000
  105.180897    0.000000    0.000000    0.000000    0.000000    0.000000    0.000000
  106.311875    0.000000    0.000000    0.000000    0.000000    0.000000    0.000000
  107.442852    0.000000    0.000000    0.000000    0.000000    0.000000    0.000000
  108.573830    0.000000    0.000000    0.000000    0.000000    0.000000    0.000000
  109.704807    0.000000    0.000000    0.000000    0.000000    0.000000    0.000000
  110.835784    0.000000    0.000000    0.000000    0.000000    0.000000    0.000000
  111.966762    0.000000    0.000000    0.000000    0.000000    0.000000    0.000000

  frequency dependent      REAL DIELECTRIC FUNCTION (independent particle, no local field effects) current-current (2nd set in vasprun.xml)
     E(ev)        X           Y           Z          XY          YZ          ZX
  --------------------------------------------------------------------------------------------------------------
    0.000000    3.185434    3.185434    3.185434    0.000000    0.000000    0.000000
    1.130977    3.231147    3.231147    3.231147    0.000000    0.000000    0.000000
    2.261955    3.393808    3.393808    3.393808    0.000000    0.000000    0.000000
    3.392932    3.821956    3.821956    3.821956    0.000000    0.000000    0.000000
    4.523910    4.385779    4.385779    4.385779    0.000000    0.000000    0.000000
    5.654887    4.673510    4.673508    4.673510    0.000001    0.000001    0.000001
    6.785864    2.163236    2.163231    2.163232    0.000003    0.000002    0.000002
    7.916842    2.481139    2.481138    2.481138    0.000000    0.000000    0.000000
    9.047819    1.478251    1.478251    1.478251    0.000000    0.000000    0.000000
   10.178797   -0.294655   -0.294655   -0.294655   -0.000000   -0.000000   -0.000000
   11.309774   -0.058318   -0.058318   -0.058318   -0.000000   -0.000000   -0.000000
   12.440751   -0.217720   -0.217720   -0.217720   -0.000000   -0.000000   -0.000000
   13.571729   -0.507885   -0.507885   -0.507886    0.000000    0.000000    0.000000
   14.702706   -0.184550   -0.184550   -0.184550   -0.000000    0.000000    0.000000
   15.833683    0.501679    0.501679    0.501679   -0.000000   -0.000000   -0.000000
   16.964661    0.149046    0.149045    0.149046   -0.000000   -0.000000    0.000000
   18.095638    0.264973    0.264973    0.264973   -0.000000   -0.000000   -0.000000
   19.226616    0.615508    0.615508    0.615508   -0.000000   -0.000000   -0.000000
   20.357593    0.348711    0.348711    0.348711    0.000000    0.000000   -0.000000
   21.488570    0.461293    0.461293    0.461293    0.000000    0.000000    0.000000
   22.619548    0.552084    0.552084    0.552084    0.000000    0.000000    0.000000
   23.750525    0.531225    0.531225    0.531225    0.000000    0.000000    0.000000
   24.881503    0.656265    0.656265    0.656265    0.000000    0.000000    0.000000
   26.012480    0.674963    0.674963    0.674963    0.000000    0.000000    0.000000
   27.143457    0.735258    0.735258    0.735258    0.000000    0.000000    0.000000
   28.274435    0.761999    0.761999    0.761999    0.000000    0.000000    0.000000
   29.405412    0.802958    0.802958    0.802958    0.000000    0.000000   -0.000000
   30.536390    0.838942    0.838942    0.838942   -0.000000   -0.000000   -0.000000
   31.667367    0.824062    0.824062    0.824062   -0.000000   -0.000000   -0.000000
   32.798344    0.861636    0.861636    0.861636   -0.000000   -0.000000   -0.000000
   33.929322    0.864066    0.864066    0.864066   -0.000000   -0.000000   -0.000000
   35.060299    0.868705    0.868705    0.868705   -0.000000   -0.000000   -0.000000
   36.191277    0.895349    0.895349    0.895349    0.000000    0.000000    0.000000
   37.322254    0.920975    0.920975    0.920975    0.000000    0.000000    0.000000
   38.453231    0.926137    0.926137    0.926137    0.000000    0.000000    0.000000
   39.584209    0.947070    0.947070    0.947070    0.000000    0.000000    0.000000
   40.715186    0.962857    0.962857    0.962857    0.000000    0.000000    0.000000
   41.846163    0.984282    0.984282    0.984282   -0.000000   -0.000000   -0.000000
   42.977141    0.998735    0.998735    0.998735    0.000000    0.000000    0.000000
   44.108118    1.020557    1.020557    1.020557    0.000000   -0.000000    0.000000
   45.239096    1.033956    1.033956    1.033956   -0.000000   -0.000000   -0.000000
   46.370073    1.042993    1.042993    1.042993    0.000000    0.000000    0.000000
   47.501050    1.051173    1.051173    1.051173   -0.000000   -0.000000   -0.000000
   48.632028    1.073791    1.073791    1.073791   -0.000000   -0.000000   -0.000000
   49.763005    1.106276    1.106277    1.106277   -0.000000   -0.000000   -0.000000
   50.893983    1.114048    1.114048    1.114048   -0.000000   -0.000000   -0.000000
   52.024960    1.126413    1.126413    1.126413   -0.000000   -0.000000   -0.000000
   53.155937    1.179379    1.179379    1.179379   -0.000000   -0.000000   -0.000000
   54.286915    1.282484    1.282485    1.282485   -0.000001   -0.000000   -0.000000
   55.417892    1.268727    1.268728    1.268728   -0.000001   -0.000000   -0.000001
   56.548870    1.025710    1.025710    1.025710    0.000000    0.000000    0.000000
   57.679847    1.083755    1.083755    1.083755    0.000000    0.000000    0.000000
   58.810824    1.126177    1.126177    1.126177    0.000000    0.000000    0.000000
   59.941802    1.122225    1.122225    1.122225    0.000000    0.000000    0.000000
   61.072779    0.883216    0.883216    0.883216   -0.000000    0.000000   -0.000000
   62.203757    0.900162    0.900162    0.900162    0.000000    0.000000    0.000000
   63.334734    0.934676    0.934676    0.934676    0.000000    0.000000    0.000000
   64.465711    0.813452    0.813452    0.813452    0.000000    0.000000    0.000000
   65.596689    0.906479    0.906479    0.906479   -0.000000   -0.000000   -0.000000
   66.727666    0.818344    0.818344    0.818344   -0.000000   -0.000000   -0.000000
   67.858643    0.757308    0.757308    0.757308   -0.000000   -0.000000   -0.000000
   68.989621    0.805997    0.805997    0.805997    0.000000    0.000000    0.000000
   70.120598    0.875138    0.875138    0.875138   -0.000000   -0.000000   -0.000000
   71.251576    0.936677    0.936677    0.936677    0.000000    0.000000    0.000000
   72.382553    0.772167    0.772167    0.772166    0.000000    0.000000    0.000000
   73.513530    0.815729    0.815730    0.815730   -0.000000   -0.000000   -0.000000
   74.644508    0.850058    0.850058    0.850058   -0.000000   -0.000000   -0.000000
   75.775485    0.864184    0.864184    0.864184   -0.000000   -0.000000   -0.000000
   76.906463    0.817858    0.817858    0.817858   -0.000000   -0.000000   -0.000000
   78.037440    0.837635    0.837635    0.837635   -0.000000   -0.000000   -0.000000
   79.168417    0.869235    0.869234    0.869234    0.000001    0.000000    0.000000
   80.299395    0.857451    0.857451    0.857451   -0.000000   -0.000000   -0.000000
   81.430372    0.858373    0.858373    0.858373   -0.000000   -0.000000   -0.000000
   82.561350    0.850476    0.850476    0.850476    0.000000    0.000000   -0.000000
   83.692327    0.871069    0.871069    0.871069   -0.000000   -0.000000   -0.000000
   84.823304    0.843051    0.843051    0.843051   -0.000000   -0.000000   -0.000000
   85.954282    0.862714    0.862714    0.862714   -0.000000   -0.000000   -0.000000
   87.085259    0.868736    0.868736    0.868736    0.000000    0.000000    0.000000
   88.216237    0.852639    0.852639    0.852639    0.000000    0.000000    0.000000
   89.347214    0.859590    0.859590    0.859590   -0.000000   -0.000000   -0.000000
   90.478191    0.876766    0.876766    0.876766   -0.000000   -0.000000   -0.000000
   91.609169    0.888175    0.888175    0.888175   -0.000000   -0.000000   -0.000000
   92.740146    0.884513    0.884513    0.884513    0.000000    0.000000    0.000000
   93.871123    0.891730    0.891730    0.891730   -0.000000   -0.000000   -0.000000
   95.002101    0.900990    0.900990    0.900990   -0.000000   -0.000000   -0.000000
   96.133078    0.907664    0.907664    0.907664   -0.000000   -0.000000   -0.000000
   97.264056    0.912833    0.912833    0.912833   -0.000000   -0.000000   -0.000000
   98.395033    0.917197    0.917197    0.917197   -0.000000   -0.000000   -0.000000
   99.526010    0.921013    0.921013    0.921013   -0.000000   -0.000000   -0.000000
  100.656988    0.924420    0.924420    0.924420   -0.000000   -0.000000   -0.000000
  101.787965    0.927501    0.927501    0.927501   -0.000000   -0.000000   -0.000000
  102.918943    0.930315    0.930315    0.930315   -0.000000   -0.000000   -0.000000
  104.049920    0.932904    0.932904    0.932904   -0.000000   -0.000000   -0.000000
  105.180897    0.935300    0.935300    0.935300   -0.000000   -0.000000   -0.000000
  106.311875    0.937528    0.937528    0.937528   -0.000000   -0.000000   -0.000000
  107.442852    0.939608    0.939608    0.939608   -0.000000   -0.000000   -0.000000
  108.573830    0.941557    0.941557    0.941557   -0.000000   -0.000000   -0.000000
  109.704807    0.943389    0.943389    0.943389   -0.000000   -0.000000   -0.000000
  110.835784    0.945114    0.945114    0.945114   -0.000000   -0.000000   -0.000000
  111.966762    0.946744    0.946744    0.946744   -0.000000   -0.000000   -0.000000
 
 The outermost node in the dielectric function lies at epsilon=  14.9


--------------------------------------------------------------------------------------------------------


    OPTICS:  cpu time    1.5689: real time    1.6229
    4ORBIT:  cpu time    0.0000: real time    0.0000

 Spin-Orbit-Coupling matrix elements

 Ion:    1  E_soc:     -3.6862140
 l=   1
     0.0000000    -0.4914577    -0.4914577
    -0.4914577     0.0000000    -0.4914577
    -0.4914577    -0.4914577     0.0000000
 l=   2
     0.0000000    -0.0245819     0.0000000    -0.0245819    -0.0983289
    -0.0245819     0.0000000    -0.0737467    -0.0245816    -0.0245819
     0.0000000    -0.0737467     0.0000000    -0.0737467     0.0000000
    -0.0245819    -0.0245816    -0.0737467     0.0000000    -0.0245819
    -0.0983289    -0.0245819     0.0000000    -0.0245819     0.0000000
 l=   3
     0.0000000    -0.0000000     0.0000000     0.0000000     0.0000000    -0.0000000    -0.0000006
    -0.0000000     0.0000000    -0.0000002     0.0000000    -0.0000002    -0.0000001    -0.0000001
     0.0000000    -0.0000002     0.0000000    -0.0000003    -0.0000001    -0.0000002     0.0000000
     0.0000000     0.0000000    -0.0000003     0.0000000    -0.0000003     0.0000000     0.0000000
     0.0000000    -0.0000002    -0.0000001    -0.0000003     0.0000000    -0.0000002     0.0000000
    -0.0000000    -0.0000001    -0.0000002     0.0000000    -0.0000002     0.0000000    -0.0000001
    -0.0000006    -0.0000001     0.0000000     0.0000000     0.0000000    -0.0000001     0.0000000

 total amount of memory used by VASP MPI-rank0    98757. kBytes
=======================================================================

   base      :      30000. kBytes
   nonl-proj :      11372. kBytes
   fftplans  :       1930. kBytes
   grid      :       1806. kBytes
   one-center:        262. kBytes
   wavefun   :      53387. kBytes
 
  
  
 General timing and accounting informations for this job:
 ========================================================
  
                  Total CPU time used (sec):     1876.015
                            User time (sec):     1857.177
                          System time (sec):       18.837
                         Elapsed time (sec):     1877.578
  
                   Maximum memory used (kb):      774468.
                   Average memory used (kb):           0.
  
                          Minor page faults:       148135
                          Major page faults:            0
                 Voluntary context switches:         4972
