   1   1   0   0
  0.1860393E+02  0.2974221E-09  0.2974221E-09  0.2974221E-09  0.1000000E-15
  1.000000000000000E-004
  CAR 
 Og_FCC                                  
     45.85994347    -49.50676958  301     -4.60494219      1.00000000
    -49.507  0.0000E+00  0.0000E+00
    -49.189  0.0000E+00  0.0000E+00
    -48.871  0.0000E+00  0.0000E+00
    -48.553  0.0000E+00  0.0000E+00
    -48.235  0.0000E+00  0.0000E+00
    -47.917  0.0000E+00  0.0000E+00
    -47.599  0.0000E+00  0.0000E+00
    -47.282  0.0000E+00  0.0000E+00
    -46.964  0.0000E+00  0.0000E+00
    -46.646  0.0000E+00  0.0000E+00
    -46.328  0.0000E+00  0.0000E+00
    -46.010  0.0000E+00  0.0000E+00
    -45.692  0.0000E+00  0.0000E+00
    -45.374  0.0000E+00  0.0000E+00
    -45.056  0.4915E-01  0.2969E+00
    -44.738  0.4915E-01  0.1063E+01
    -44.421  0.0000E+00  0.1688E+01
    -44.103  0.0000E+00  0.2000E+01
    -43.785  0.0000E+00  0.2000E+01
    -43.467  0.0000E+00  0.2000E+01
    -43.149  0.0000E+00  0.2000E+01
    -42.831  0.0000E+00  0.2000E+01
    -42.513  0.0000E+00  0.2000E+01
    -42.195  0.0000E+00  0.2000E+01
    -41.877  0.0000E+00  0.2000E+01
    -41.560  0.0000E+00  0.2000E+01
    -41.242  0.0000E+00  0.2000E+01
    -40.924  0.0000E+00  0.2000E+01
    -40.606  0.0000E+00  0.2000E+01
    -40.288  0.0000E+00  0.2000E+01
    -39.970  0.0000E+00  0.2000E+01
    -39.652  0.0000E+00  0.2000E+01
    -39.334  0.0000E+00  0.2000E+01
    -39.016  0.0000E+00  0.2000E+01
    -38.699  0.0000E+00  0.2000E+01
    -38.381  0.0000E+00  0.2000E+01
    -38.063  0.0000E+00  0.2000E+01
    -37.745  0.0000E+00  0.2000E+01
    -37.427  0.0000E+00  0.2000E+01
    -37.109  0.0000E+00  0.2000E+01
    -36.791  0.0000E+00  0.2000E+01
    -36.473  0.0000E+00  0.2000E+01
    -36.155  0.0000E+00  0.2000E+01
    -35.838  0.0000E+00  0.2000E+01
    -35.520  0.0000E+00  0.2000E+01
    -35.202  0.0000E+00  0.2000E+01
    -34.884  0.0000E+00  0.2000E+01
    -34.566  0.0000E+00  0.2000E+01
    -34.248  0.0000E+00  0.2000E+01
    -33.930  0.0000E+00  0.2000E+01
    -33.612  0.0000E+00  0.2000E+01
    -33.294  0.0000E+00  0.2000E+01
    -32.977  0.0000E+00  0.2000E+01
    -32.659  0.0000E+00  0.2000E+01
    -32.341  0.0000E+00  0.2000E+01
    -32.023  0.0000E+00  0.2000E+01
    -31.705  0.0000E+00  0.2000E+01
    -31.387  0.0000E+00  0.2000E+01
    -31.069  0.0000E+00  0.2000E+01
    -30.751  0.0000E+00  0.2000E+01
    -30.433  0.0000E+00  0.2000E+01
    -30.116  0.0000E+00  0.2000E+01
    -29.798  0.0000E+00  0.2000E+01
    -29.480  0.0000E+00  0.2000E+01
    -29.162  0.0000E+00  0.2000E+01
    -28.844  0.0000E+00  0.2000E+01
    -28.526  0.0000E+00  0.2000E+01
    -28.208  0.0000E+00  0.2000E+01
    -27.890  0.0000E+00  0.2000E+01
    -27.572  0.0000E+00  0.2000E+01
    -27.255  0.0000E+00  0.2000E+01
    -26.937  0.0000E+00  0.2000E+01
    -26.619  0.0000E+00  0.2000E+01
    -26.301  0.0000E+00  0.2000E+01
    -25.983  0.0000E+00  0.2000E+01
    -25.665  0.0000E+00  0.2000E+01
    -25.347  0.0000E+00  0.2000E+01
    -25.029  0.0000E+00  0.2000E+01
    -24.711  0.0000E+00  0.2000E+01
    -24.394  0.0000E+00  0.2000E+01
    -24.076  0.0000E+00  0.2000E+01
    -23.758  0.0000E+00  0.2000E+01
    -23.440  0.0000E+00  0.2000E+01
    -23.122  0.0000E+00  0.2000E+01
    -22.804  0.0000E+00  0.2000E+01
    -22.486  0.0000E+00  0.2000E+01
    -22.168  0.0000E+00  0.2000E+01
    -21.850  0.0000E+00  0.2000E+01
    -21.533  0.0000E+00  0.2000E+01
    -21.215  0.0000E+00  0.2000E+01
    -20.897  0.0000E+00  0.2000E+01
    -20.579  0.0000E+00  0.2000E+01
    -20.261  0.0000E+00  0.2000E+01
    -19.943  0.0000E+00  0.2000E+01
    -19.625  0.0000E+00  0.2000E+01
    -19.307  0.0000E+00  0.2000E+01
    -18.989  0.0000E+00  0.2000E+01
    -18.672  0.0000E+00  0.2000E+01
    -18.354  0.0000E+00  0.2000E+01
    -18.036  0.0000E+00  0.2000E+01
    -17.718  0.0000E+00  0.2000E+01
    -17.400  0.0000E+00  0.2000E+01
    -17.082  0.0000E+00  0.2000E+01
    -16.764  0.0000E+00  0.2000E+01
    -16.446  0.0000E+00  0.2000E+01
    -16.128  0.0000E+00  0.2000E+01
    -15.811  0.0000E+00  0.2000E+01
    -15.493  0.0000E+00  0.2000E+01
    -15.175  0.0000E+00  0.2000E+01
    -14.857  0.0000E+00  0.2000E+01
    -14.539  0.0000E+00  0.2000E+01
    -14.221  0.0000E+00  0.2000E+01
    -13.903  0.0000E+00  0.2016E+01
    -13.585  0.0000E+00  0.2031E+01
    -13.267  0.4915E-01  0.2141E+01
    -12.950  0.0000E+00  0.2250E+01
    -12.632  0.0000E+00  0.2297E+01
    -12.314  0.1135E+00  0.2692E+01
    -11.996  0.1145E-04  0.3406E+01
    -11.678  0.5077E-01  0.4188E+01
    -11.360  0.2313E-11  0.4609E+01
    -11.042  0.0000E+00  0.5141E+01
    -10.724  0.0000E+00  0.5500E+01
    -10.406  0.0000E+00  0.5766E+01
    -10.089  0.2573E-12  0.5906E+01
     -9.771  0.0000E+00  0.6562E+01
     -9.453  0.0000E+00  0.6906E+01
     -9.135  0.0000E+00  0.7156E+01
     -8.817  0.9830E-01  0.7234E+01
     -8.499  0.4535E-07  0.7313E+01
     -8.181  0.5530E-04  0.7609E+01
     -7.863  0.0000E+00  0.7641E+01
     -7.545  0.4910E-01  0.7687E+01
     -7.228  0.9698E-01  0.7890E+01
     -6.910  0.0000E+00  0.7953E+01
     -6.592  0.0000E+00  0.7953E+01
     -6.274  0.0000E+00  0.7969E+01
     -5.956  0.0000E+00  0.7969E+01
     -5.638  0.0000E+00  0.7984E+01
     -5.320  0.0000E+00  0.7984E+01
     -5.002  0.0000E+00  0.7984E+01
     -4.684  0.0000E+00  0.8000E+01
     -4.367  0.0000E+00  0.8000E+01
     -4.049  0.0000E+00  0.8000E+01
     -3.731  0.0000E+00  0.8000E+01
     -3.413  0.0000E+00  0.8000E+01
     -3.095  0.0000E+00  0.8000E+01
     -2.777  0.0000E+00  0.8000E+01
     -2.459  0.0000E+00  0.8000E+01
     -2.141  0.0000E+00  0.8000E+01
     -1.823  0.0000E+00  0.8000E+01
     -1.506  0.0000E+00  0.8000E+01
     -1.188  0.0000E+00  0.8000E+01
     -0.870  0.0000E+00  0.8000E+01
     -0.552  0.0000E+00  0.8000E+01
     -0.234  0.0000E+00  0.8000E+01
      0.084  0.0000E+00  0.8000E+01
      0.402  0.0000E+00  0.8000E+01
      0.720  0.7154E-06  0.8172E+01
      1.038  0.0000E+00  0.8297E+01
      1.355  0.4915E-01  0.8391E+01
      1.673  0.0000E+00  0.8484E+01
      1.991  0.2777E-01  0.8524E+01
      2.309  0.4915E-01  0.8594E+01
      2.627  0.0000E+00  0.8641E+01
      2.945  0.0000E+00  0.8641E+01
      3.263  0.0000E+00  0.8719E+01
      3.581  0.7892E-14  0.8734E+01
      3.899  0.0000E+00  0.8766E+01
      4.216  0.0000E+00  0.8812E+01
      4.534  0.0000E+00  0.8844E+01
      4.852  0.0000E+00  0.8906E+01
      5.170  0.0000E+00  0.8938E+01
      5.488  0.0000E+00  0.8984E+01
      5.806  0.4915E-01  0.9000E+01
      6.124  0.0000E+00  0.9031E+01
      6.442  0.7367E-16  0.9062E+01
      6.760  0.0000E+00  0.9109E+01
      7.077  0.0000E+00  0.9172E+01
      7.395  0.0000E+00  0.9203E+01
      7.713  0.0000E+00  0.9234E+01
      8.031  0.0000E+00  0.9234E+01
      8.349  0.0000E+00  0.9266E+01
      8.667  0.0000E+00  0.9422E+01
      8.985  0.0000E+00  0.9531E+01
      9.303  0.0000E+00  0.9594E+01
      9.621  0.0000E+00  0.9641E+01
      9.938  0.0000E+00  0.9672E+01
     10.256  0.0000E+00  0.9734E+01
     10.574  0.0000E+00  0.9781E+01
     10.892  0.4195E-01  0.9857E+01
     11.210  0.0000E+00  0.9938E+01
     11.528  0.0000E+00  0.9969E+01
     11.846  0.0000E+00  0.1017E+02
     12.164  0.0000E+00  0.1020E+02
     12.482  0.0000E+00  0.1023E+02
     12.799  0.0000E+00  0.1028E+02
     13.117  0.0000E+00  0.1036E+02
     13.435  0.4915E-01  0.1064E+02
     13.753  0.2218E-13  0.1084E+02
     14.071  0.0000E+00  0.1089E+02
     14.389  0.0000E+00  0.1089E+02
     14.707  0.0000E+00  0.1092E+02
     15.025  0.0000E+00  0.1092E+02
     15.343  0.0000E+00  0.1097E+02
     15.660  0.0000E+00  0.1102E+02
     15.978  0.0000E+00  0.1108E+02
     16.296  0.9588E-03  0.1109E+02
     16.614  0.0000E+00  0.1120E+02
     16.932  0.0000E+00  0.1123E+02
     17.250  0.0000E+00  0.1125E+02
     17.568  0.4915E-01  0.1127E+02
     17.886  0.0000E+00  0.1130E+02
     18.204  0.0000E+00  0.1133E+02
     18.521  0.0000E+00  0.1138E+02
     18.839  0.0000E+00  0.1142E+02
     19.157  0.1035E-13  0.1150E+02
     19.475  0.0000E+00  0.1155E+02
     19.793  0.0000E+00  0.1166E+02
     20.111  0.0000E+00  0.1167E+02
     20.429  0.0000E+00  0.1172E+02
     20.747  0.0000E+00  0.1173E+02
     21.065  0.4915E-01  0.1180E+02
     21.382  0.0000E+00  0.1183E+02
     21.700  0.0000E+00  0.1188E+02
     22.018  0.0000E+00  0.1189E+02
     22.336  0.0000E+00  0.1194E+02
     22.654  0.0000E+00  0.1197E+02
     22.972  0.0000E+00  0.1197E+02
     23.290  0.0000E+00  0.1197E+02
     23.608  0.0000E+00  0.1197E+02
     23.926  0.0000E+00  0.1197E+02
     24.243  0.0000E+00  0.1197E+02
     24.561  0.0000E+00  0.1197E+02
     24.879  0.0000E+00  0.1197E+02
     25.197  0.0000E+00  0.1197E+02
     25.515  0.0000E+00  0.1197E+02
     25.833  0.0000E+00  0.1197E+02
     26.151  0.0000E+00  0.1197E+02
     26.469  0.0000E+00  0.1197E+02
     26.787  0.0000E+00  0.1197E+02
     27.104  0.0000E+00  0.1197E+02
     27.422  0.0000E+00  0.1197E+02
     27.740  0.0000E+00  0.1198E+02
     28.058  0.0000E+00  0.1198E+02
     28.376  0.0000E+00  0.1198E+02
     28.694  0.0000E+00  0.1198E+02
     29.012  0.0000E+00  0.1198E+02
     29.330  0.0000E+00  0.1198E+02
     29.648  0.0000E+00  0.1198E+02
     29.965  0.0000E+00  0.1198E+02
     30.283  0.0000E+00  0.1198E+02
     30.601  0.0000E+00  0.1198E+02
     30.919  0.0000E+00  0.1198E+02
     31.237  0.0000E+00  0.1198E+02
     31.555  0.0000E+00  0.1198E+02
     31.873  0.0000E+00  0.1198E+02
     32.191  0.0000E+00  0.1198E+02
     32.509  0.0000E+00  0.1198E+02
     32.826  0.0000E+00  0.1198E+02
     33.144  0.0000E+00  0.1198E+02
     33.462  0.0000E+00  0.1198E+02
     33.780  0.0000E+00  0.1198E+02
     34.098  0.0000E+00  0.1198E+02
     34.416  0.0000E+00  0.1198E+02
     34.734  0.0000E+00  0.1198E+02
     35.052  0.0000E+00  0.1198E+02
     35.370  0.0000E+00  0.1198E+02
     35.687  0.0000E+00  0.1198E+02
     36.005  0.0000E+00  0.1198E+02
     36.323  0.0000E+00  0.1198E+02
     36.641  0.0000E+00  0.1198E+02
     36.959  0.0000E+00  0.1198E+02
     37.277  0.0000E+00  0.1198E+02
     37.595  0.0000E+00  0.1198E+02
     37.913  0.0000E+00  0.1198E+02
     38.231  0.0000E+00  0.1198E+02
     38.548  0.0000E+00  0.1198E+02
     38.866  0.0000E+00  0.1198E+02
     39.184  0.0000E+00  0.1198E+02
     39.502  0.0000E+00  0.1198E+02
     39.820  0.0000E+00  0.1198E+02
     40.138  0.0000E+00  0.1198E+02
     40.456  0.0000E+00  0.1198E+02
     40.774  0.0000E+00  0.1198E+02
     41.092  0.0000E+00  0.1198E+02
     41.409  0.0000E+00  0.1198E+02
     41.727  0.0000E+00  0.1200E+02
     42.045  0.0000E+00  0.1200E+02
     42.363  0.0000E+00  0.1200E+02
     42.681  0.0000E+00  0.1200E+02
     42.999  0.0000E+00  0.1200E+02
     43.317  0.0000E+00  0.1200E+02
     43.635  0.0000E+00  0.1200E+02
     43.953  0.0000E+00  0.1200E+02
     44.270  0.0000E+00  0.1200E+02
     44.588  0.0000E+00  0.1200E+02
     44.906  0.0000E+00  0.1200E+02
     45.224  0.0000E+00  0.1200E+02
     45.542  0.0000E+00  0.1200E+02
     45.860  0.0000E+00  0.1200E+02
