    1    1    1    1
  0.1860393E+02  0.2974221E-09  0.2974221E-09  0.2974221E-09  0.1000000E-15
  1.000000000000000E-004
  CAR 
 Og_FCC                                  
      8    128     12
 
  0.5000000E+00  0.5000000E+00  0.5000000E+00  0.7812500E-02
    1      -44.845542   1.000000
    2      -44.845535   1.000000
    3      -12.111413   1.000000
    4      -12.111412   1.000000
    5      -11.871006   1.000000
    6      -11.870980   1.000000
    7      -10.189430   1.000000
    8      -10.189387   1.000000
    9        7.244222   0.000000
   10        7.244222   0.000000
   11       10.095669   0.000000
   12       10.095703   0.000000
 
  0.4838710E+00  0.4838710E+00  0.4838710E+00  0.7812500E-02
    1      -44.892781   1.000000
    2      -44.892781   1.000000
    3      -12.118593   1.000000
    4      -12.118593   1.000000
    5      -12.004903   1.000000
    6      -12.004903   1.000000
    7      -10.277222   1.000000
    8      -10.277222   1.000000
    9        7.148916   0.000000
   10        7.148916   0.000000
   11        9.865115   0.000000
   12        9.865115   0.000000
 
  0.4677419E+00  0.4677419E+00  0.4677419E+00  0.7812500E-02
    1      -44.878659   1.000000
    2      -44.878659   1.000000
    3      -12.075229   1.000000
    4      -12.075229   1.000000
    5      -11.605012   1.000000
    6      -11.605012   1.000000
    7       -9.792932   1.000000
    8       -9.792931   1.000000
    9        7.042828   0.000000
   10        7.042828   0.000000
   11        9.951018   0.000000
   12        9.951018   0.000000
 
  0.4516129E+00  0.4516129E+00  0.4516129E+00  0.7812500E-02
    1      -44.895384   1.000000
    2      -44.895384   1.000000
    3      -12.056132   1.000000
    4      -12.056132   1.000000
    5      -11.005445   1.000000
    6      -11.005445   1.000000
    7       -9.937816   1.000000
    8       -9.937816   1.000000
    9        6.923109   0.000000
   10        6.923109   0.000000
   11       10.197327   0.000000
   12       10.197327   0.000000
 
  0.4354839E+00  0.4354839E+00  0.4354839E+00  0.7812500E-02
    1      -44.913010   1.000000
    2      -44.913010   1.000000
    3      -12.100647   1.000000
    4      -12.100647   1.000000
    5      -11.992871   1.000000
    6      -11.992871   1.000000
    7      -10.364537   1.000000
    8      -10.364537   1.000000
    9        6.625706   0.000000
   10        6.625706   0.000000
   11       10.424255   0.000000
   12       10.424255   0.000000
 
  0.4193548E+00  0.4193548E+00  0.4193548E+00  0.7812500E-02
    1      -44.923377   1.000000
    2      -44.923377   1.000000
    3      -12.080178   1.000000
    4      -12.080178   1.000000
    5      -11.953351   1.000000
    6      -11.953351   1.000000
    7      -10.592366   1.000000
    8      -10.592366   1.000000
    9        6.447281   0.000000
   10        6.447281   0.000000
   11       10.920057   0.000000
   12       10.920057   0.000000
 
  0.4032258E+00  0.4032258E+00  0.4032258E+00  0.7812500E-02
    1      -44.995829   1.000000
    2      -44.995829   1.000000
    3      -12.281968   1.000000
    4      -12.281968   1.000000
    5      -11.916915   1.000000
    6      -11.916915   1.000000
    7      -10.916304   1.000000
    8      -10.916304   1.000000
    9        6.041021   0.000000
   10        6.041021   0.000000
   11       10.918912   0.000000
   12       10.918912   0.000000
 
  0.3870968E+00  0.3870968E+00  0.3870968E+00  0.7812500E-02
    1      -44.662214   1.000000
    2      -44.662214   1.000000
    3      -11.107890   1.000000
    4      -11.107890   1.000000
    5      -10.862261   1.000000
    6      -10.862261   1.000000
    7       -9.068656   1.000000
    8       -9.068656   1.000000
    9        6.099219   0.000000
   10        6.099219   0.000000
   11       11.718258   0.000000
   12       11.718258   0.000000
 
  0.3709677E+00  0.3709677E+00  0.3709677E+00  0.7812500E-02
    1      -44.760452   1.000000
    2      -44.760452   1.000000
    3      -11.030210   1.000000
    4      -11.030210   1.000000
    5      -10.909134   1.000000
    6      -10.909134   1.000000
    7       -9.844231   1.000000
    8       -9.844231   1.000000
    9        5.346488   0.000000
   10        5.346488   0.000000
   11       11.772936   0.000000
   12       11.772936   0.000000
 
  0.3548387E+00  0.3548387E+00  0.3548387E+00  0.7812500E-02
    1      -44.790914   1.000000
    2      -44.790914   1.000000
    3      -11.118945   1.000000
    4      -11.118945   1.000000
    5      -10.875212   1.000000
    6      -10.875212   1.000000
    7       -9.703145   1.000000
    8       -9.703145   1.000000
    9        5.144771   0.000000
   10        5.144771   0.000000
   11       12.233033   0.000000
   12       12.233033   0.000000
 
  0.3387097E+00  0.3387097E+00  0.3387097E+00  0.7812500E-02
    1      -44.709718   1.000000
    2      -44.709718   1.000000
    3      -11.027474   1.000000
    4      -11.027474   1.000000
    5      -10.946767   1.000000
    6      -10.946767   1.000000
    7       -9.340031   1.000000
    8       -9.340031   1.000000
    9        4.815275   0.000000
   10        4.815275   0.000000
   11       12.754337   0.000000
   12       12.754337   0.000000
 
  0.3225806E+00  0.3225806E+00  0.3225806E+00  0.7812500E-02
    1      -44.709073   1.000000
    2      -44.709073   1.000000
    3      -10.916342   1.000000
    4      -10.916342   1.000000
    5      -10.779875   1.000000
    6      -10.779875   1.000000
    7      -10.509750   1.000000
    8      -10.509750   1.000000
    9        4.758170   0.000000
   10        4.758170   0.000000
   11       19.769988   0.000000
   12       19.769988   0.000000
 
  0.3064516E+00  0.3064516E+00  0.3064516E+00  0.7812500E-02
    1      -44.812085   1.000000
    2      -44.812085   1.000000
    3      -11.035510   1.000000
    4      -11.035510   1.000000
    5      -10.856523   1.000000
    6      -10.856523   1.000000
    7       -9.638885   1.000000
    8       -9.638884   1.000000
    9        4.339373   0.000000
   10        4.339373   0.000000
   11       15.861777   0.000000
   12       15.861777   0.000000
 
  0.2903226E+00  0.2903226E+00  0.2903226E+00  0.7812500E-02
    1      -44.810532   1.000000
    2      -44.810532   1.000000
    3      -11.924415   1.000000
    4      -11.924415   1.000000
    5      -10.965714   1.000000
    6      -10.965714   1.000000
    7       -9.540151   1.000000
    8       -9.540151   1.000000
    9        3.958247   0.000000
   10        3.958247   0.000000
   11       13.873903   0.000000
   12       13.873903   0.000000
 
  0.2741935E+00  0.2741935E+00  0.2741935E+00  0.7812500E-02
    1      -45.010957   1.000000
    2      -45.010957   1.000000
    3      -13.864118   1.000000
    4      -13.864118   1.000000
    5      -11.452422   1.000000
    6      -11.452422   1.000000
    7      -11.386378   1.000000
    8      -11.386378   1.000000
    9        3.127067   0.000000
   10        3.127067   0.000000
   11       19.717935   0.000000
   12       19.717935   0.000000
 
  0.2580645E+00  0.2580645E+00  0.2580645E+00  0.7812500E-02
    1      -45.002042   1.000000
    2      -45.002042   1.000000
    3      -13.066469   1.000000
    4      -13.066469   1.000000
    5      -11.319071   1.000000
    6      -11.319071   1.000000
    7      -11.151578   1.000000
    8      -11.151578   1.000000
    9        3.046096   0.000000
   10        3.046096   0.000000
   11       21.279597   0.000000
   12       21.279597   0.000000
 
  0.2419355E+00  0.2419355E+00  0.2419355E+00  0.7812500E-02
    1      -45.080590   1.000000
    2      -45.080590   1.000000
    3      -12.918170   1.000000
    4      -12.918170   1.000000
    5      -11.340529   1.000000
    6      -11.340529   1.000000
    7      -11.185371   1.000000
    8      -11.185371   1.000000
    9        2.452131   0.000000
   10        2.452131   0.000000
   11       14.450982   0.000000
   12       14.450982   0.000000
 
  0.2258065E+00  0.2258065E+00  0.2258065E+00  0.7812500E-02
    1      -45.077714   1.000000
    2      -45.077714   1.000000
    3      -13.049361   1.000000
    4      -13.049361   1.000000
    5      -11.344869   1.000000
    6      -11.344869   1.000000
    7      -11.244111   1.000000
    8      -11.244111   1.000000
    9        2.266195   0.000000
   10        2.266195   0.000000
   11       15.081466   0.000000
   12       15.081466   0.000000
 
  0.2096774E+00  0.2096774E+00  0.2096774E+00  0.7812500E-02
    1      -45.019051   1.000000
    2      -45.019051   1.000000
    3      -13.088666   1.000000
    4      -13.088666   1.000000
    5      -11.203298   1.000000
    6      -11.203298   1.000000
    7      -10.969011   1.000000
    8      -10.969011   1.000000
    9        2.156331   0.000000
   10        2.156332   0.000000
   11       20.251939   0.000000
   12       20.251939   0.000000
 
  0.1935484E+00  0.1935484E+00  0.1935484E+00  0.7812500E-02
    1      -44.972932   1.000000
    2      -44.972932   1.000000
    3      -12.225991   1.000000
    4      -12.225991   1.000000
    5      -11.160305   1.000000
    6      -11.160305   1.000000
    7       -9.997366   1.000000
    8       -9.997366   1.000000
    9        1.991140   0.000000
   10        1.991140   0.000000
   11       16.310718   0.000000
   12       16.310718   0.000000
 
  0.1774194E+00  0.1774194E+00  0.1774194E+00  0.7812500E-02
    1      -45.066058   1.000000
    2      -45.066058   1.000000
    3      -12.362504   1.000000
    4      -12.362504   1.000000
    5      -11.341287   1.000000
    6      -11.341287   1.000000
    7      -11.253914   1.000000
    8      -11.253914   1.000000
    9        1.640550   0.000000
   10        1.640550   0.000000
   11       16.297722   0.000000
   12       16.297722   0.000000
 
  0.1612903E+00  0.1612903E+00  0.1612903E+00  0.7812500E-02
    1      -45.092035   1.000000
    2      -45.092035   1.000000
    3      -12.387569   1.000000
    4      -12.387569   1.000000
    5      -11.355505   1.000000
    6      -11.355505   1.000000
    7      -11.322593   1.000000
    8      -11.322593   1.000000
    9        1.402946   0.000000
   10        1.402946   0.000000
   11       16.699710   0.000000
   12       16.699710   0.000000
 
  0.1451613E+00  0.1451613E+00  0.1451613E+00  0.7812500E-02
    1      -45.053207   1.000000
    2      -45.053207   1.000000
    3      -12.295468   1.000000
    4      -12.295468   1.000000
    5      -11.324048   1.000000
    6      -11.324048   1.000000
    7      -11.203836   1.000000
    8      -11.203836   1.000000
    9        1.284055   0.000000
   10        1.284055   0.000000
   11       17.772953   0.000000
   12       17.772953   0.000000
 
  0.1290323E+00  0.1290323E+00  0.1290323E+00  0.7812500E-02
    1      -44.918185   1.000000
    2      -44.918185   1.000000
    3      -11.503367   1.000000
    4      -11.503367   1.000000
    5      -11.289512   1.000000
    6      -11.289512   1.000000
    7      -10.243011   1.000000
    8      -10.243011   1.000000
    9        1.346958   0.000000
   10        1.346958   0.000000
   11       19.265952   0.000000
   12       19.265952   0.000000
 
  0.1129032E+00  0.1129032E+00  0.1129032E+00  0.7812500E-02
    1      -45.003808   1.000000
    2      -45.003808   1.000000
    3      -12.225679   1.000000
    4      -12.225679   1.000000
    5      -11.193216   1.000000
    6      -11.193216   1.000000
    7      -10.908916   1.000000
    8      -10.908916   1.000000
    9        1.082588   0.000000
   10        1.082588   0.000000
   11       21.113144   0.000000
   12       21.113144   0.000000
 
  0.9677419E-01  0.9677419E-01  0.9677419E-01  0.7812500E-02
    1      -45.051642   1.000000
    2      -45.051642   1.000000
    3      -12.157829   1.000000
    4      -12.157829   1.000000
    5      -11.301373   1.000000
    6      -11.301373   1.000000
    7      -11.187091   1.000000
    8      -11.187091   1.000000
    9        0.866794   0.000000
   10        0.866794   0.000000
   11       19.131659   0.000000
   12       19.131659   0.000000
 
  0.8064516E-01  0.8064516E-01  0.8064516E-01  0.7812500E-02
    1      -45.025656   1.000000
    2      -45.025656   1.000000
    3      -12.021566   1.000000
    4      -12.021566   1.000000
    5      -11.273022   1.000000
    6      -11.273022   1.000000
    7      -11.068629   1.000000
    8      -11.068629   1.000000
    9        0.802289   0.000000
   10        0.802289   0.000000
   11       19.601358   0.000000
   12       19.601358   0.000000
 
  0.6451613E-01  0.6451613E-01  0.6451613E-01  0.7812500E-02
    1      -44.956368   1.000000
    2      -44.956368   1.000000
    3      -11.341812   1.000000
    4      -11.341812   1.000000
    5      -11.064358   1.000000
    6      -11.064358   1.000000
    7      -10.481631   1.000000
    8      -10.481631   1.000000
    9        0.894400   0.000000
   10        0.894400   0.000000
   11       22.318022   0.000000
   12       22.318023   0.000000
 
  0.4838710E-01  0.4838710E-01  0.4838710E-01  0.7812500E-02
    1      -44.806745   1.000000
    2      -44.806745   1.000000
    3      -11.332523   1.000000
    4      -11.332523   1.000000
    5       -9.751421   1.000000
    6       -9.751421   1.000000
    7       -9.693215   1.000000
    8       -9.693215   1.000000
    9        0.628111   0.000000
   10        0.628111   0.000000
   11       21.565341   0.000000
   12       21.565341   0.000000
 
  0.3225806E-01  0.3225806E-01  0.3225806E-01  0.7812500E-02
    1      -44.757869   1.000000
    2      -44.757869   1.000000
    3      -10.908728   1.000000
    4      -10.908728   1.000000
    5       -9.828348   1.000000
    6       -9.828348   1.000000
    7       -9.601113   1.000000
    8       -9.601113   1.000000
    9        0.645928   0.000000
   10        0.645928   0.000000
   11       22.635737   0.000000
   12       22.635737   0.000000
 
  0.1612903E-01  0.1612903E-01  0.1612903E-01  0.7812500E-02
    1      -44.615005   1.000000
    2      -44.615005   1.000000
    3       -9.566514   1.000000
    4       -9.566514   1.000000
    5       -9.413830   1.000000
    6       -9.413830   1.000000
    7       -8.429911   1.000000
    8       -8.429911   1.000000
    9        0.722655   0.000000
   10        0.722655   0.000000
   11       22.475622   0.000000
   12       22.475623   0.000000
 
  0.0000000E+00  0.0000000E+00  0.0000000E+00  0.7812500E-02
    1      -44.668226   1.000000
    2      -44.668226   1.000000
    3       -9.726301   1.000000
    4       -9.726301   1.000000
    5       -9.611107   1.000000
    6       -9.611107   1.000000
    7       -9.231260   1.000000
    8       -9.231260   1.000000
    9        0.597949   0.000000
   10        0.597949   0.000000
   11       22.256653   0.000000
   12       22.256653   0.000000
 
  0.0000000E+00  0.0000000E+00  0.0000000E+00  0.7812500E-02
    1      -44.583823   1.000000
    2      -44.583823   1.000000
    3       -9.752287   1.000000
    4       -9.752287   1.000000
    5       -9.722379   1.000000
    6       -9.722379   1.000000
    7       -9.099455   1.000000
    8       -9.099455   1.000000
    9        0.573033   0.000000
   10        0.573033   0.000000
   11       20.898964   0.000000
   12       20.898964   0.000000
 
  0.0000000E+00  0.1612903E-01  0.1612903E-01  0.7812500E-02
    1      -44.671075   1.000000
    2      -44.671075   1.000000
    3       -9.729426   1.000000
    4       -9.729426   1.000000
    5       -9.611413   1.000000
    6       -9.611413   1.000000
    7       -9.272246   1.000000
    8       -9.272246   1.000000
    9        0.605377   0.000000
   10        0.605377   0.000000
   11       21.900538   0.000000
   12       21.900538   0.000000
 
  0.0000000E+00  0.3225806E-01  0.3225806E-01  0.7812500E-02
    1      -44.585821   1.000000
    2      -44.585821   1.000000
    3      -11.267830   1.000000
    4      -11.267830   1.000000
    5      -10.083720   1.000000
    6      -10.083720   1.000000
    7       -9.230450   1.000000
    8       -9.230449   1.000000
    9        0.656242   0.000000
   10        0.656242   0.000000
   11       27.703476   0.000000
   12       27.703476   0.000000
 
  0.0000000E+00  0.4838710E-01  0.4838710E-01  0.7812500E-02
    1      -44.789657   1.000000
    2      -44.789657   1.000000
    3      -11.263883   1.000000
    4      -11.263883   1.000000
    5      -10.042073   1.000000
    6      -10.042073   1.000000
    7       -9.783127   1.000000
    8       -9.783127   1.000000
    9        0.706062   0.000000
   10        0.706062   0.000000
   11       21.628886   0.000000
   12       21.628886   0.000000
 
  0.0000000E+00  0.6451613E-01  0.6451613E-01  0.7812500E-02
    1      -45.120372   1.000000
    2      -45.120372   1.000000
    3      -12.183614   1.000000
    4      -12.183614   1.000000
    5      -12.028830   1.000000
    6      -12.028830   1.000000
    7      -11.823058   1.000000
    8      -11.823058   1.000000
    9        0.774407   0.000000
   10        0.774407   0.000000
   11       20.795318   0.000000
   12       20.795318   0.000000
 
  0.0000000E+00  0.8064516E-01  0.8064516E-01  0.7812500E-02
    1      -45.153797   1.000000
    2      -45.153797   1.000000
    3      -12.184877   1.000000
    4      -12.184877   1.000000
    5      -12.125293   1.000000
    6      -12.125293   1.000000
    7      -12.060877   1.000000
    8      -12.060877   1.000000
    9        0.857213   0.000000
   10        0.857213   0.000000
   11       19.695145   0.000000
   12       19.695145   0.000000
 
  0.0000000E+00  0.9677419E-01  0.9677419E-01  0.7812500E-02
    1      -45.109459   1.000000
    2      -45.109459   1.000000
    3      -12.175404   1.000000
    4      -12.175404   1.000000
    5      -12.094243   1.000000
    6      -12.094243   1.000000
    7      -11.805480   1.000000
    8      -11.805480   1.000000
    9        1.082903   0.000000
   10        1.082903   0.000000
   11       20.243202   0.000000
   12       20.243202   0.000000
 
  0.0000000E+00  0.1129032E+00  0.1129032E+00  0.7812500E-02
    1      -45.122820   1.000000
    2      -45.122820   1.000000
    3      -12.137889   1.000000
    4      -12.137889   1.000000
    5      -11.993290   1.000000
    6      -11.993290   1.000000
    7      -11.306499   1.000000
    8      -11.306498   1.000000
    9        1.378980   0.000000
   10        1.378980   0.000000
   11       19.633507   0.000000
   12       19.633508   0.000000
 
  0.0000000E+00  0.1290323E+00  0.1290323E+00  0.7812500E-02
    1      -45.090503   1.000000
    2      -45.090503   1.000000
    3      -12.279197   1.000000
    4      -12.279197   1.000000
    5      -12.241725   1.000000
    6      -12.241725   1.000000
    7      -11.765264   1.000000
    8      -11.765264   1.000000
    9        1.397989   0.000000
   10        1.397989   0.000000
   11       21.434948   0.000000
   12       21.434948   0.000000
 
  0.0000000E+00  0.1451613E+00  0.1451613E+00  0.7812500E-02
    1      -45.140678   1.000000
    2      -45.140678   1.000000
    3      -12.311603   1.000000
    4      -12.311603   1.000000
    5      -12.167874   1.000000
    6      -12.167874   1.000000
    7      -12.071118   1.000000
    8      -12.071118   1.000000
    9        1.564531   0.000000
   10        1.564531   0.000000
   11       18.955073   0.000000
   12       18.955073   0.000000
 
  0.0000000E+00  0.1612903E+00  0.1612903E+00  0.7812500E-02
    1      -45.100856   1.000000
    2      -45.100856   1.000000
    3      -12.332431   1.000000
    4      -12.332431   1.000000
    5      -12.235044   1.000000
    6      -12.235044   1.000000
    7      -11.960608   1.000000
    8      -11.960607   1.000000
    9        1.871128   0.000000
   10        1.871128   0.000000
   11       18.643937   0.000000
   12       18.643937   0.000000
 
  0.0000000E+00  0.1774194E+00  0.1774194E+00  0.7812500E-02
    1      -45.103808   1.000000
    2      -45.103808   1.000000
    3      -12.314949   1.000000
    4      -12.314949   1.000000
    5      -12.105782   1.000000
    6      -12.105782   1.000000
    7      -11.758401   1.000000
    8      -11.758401   1.000000
    9        2.321458   0.000000
   10        2.321458   0.000000
   11       18.795052   0.000000
   12       18.795052   0.000000
 
  0.0000000E+00  0.1935484E+00  0.1935484E+00  0.7812500E-02
    1      -45.171919   1.000000
    2      -45.171919   1.000000
    3      -14.037859   1.000000
    4      -14.037859   1.000000
    5      -12.437307   1.000000
    6      -12.437307   1.000000
    7      -12.191013   1.000000
    8      -12.191013   1.000000
    9        2.301513   0.000000
   10        2.301513   0.000000
   11       18.192789   0.000000
   12       18.192789   0.000000
 
  0.0000000E+00  0.2096774E+00  0.2096774E+00  0.7812500E-02
    1      -44.943722   1.000000
    2      -44.943722   1.000000
    3      -12.321689   1.000000
    4      -12.321689   1.000000
    5      -11.901844   1.000000
    6      -11.901843   1.000000
    7      -10.030471   1.000000
    8      -10.030470   1.000000
    9        3.118927   0.000000
   10        3.118928   0.000000
   11       19.162389   0.000000
   12       19.162390   0.000000
 
  0.0000000E+00  0.2258065E+00  0.2258065E+00  0.7812500E-02
    1      -44.919605   1.000000
    2      -44.919605   1.000000
    3      -12.261950   1.000000
    4      -12.261950   1.000000
    5      -11.812938   1.000000
    6      -11.812938   1.000000
    7       -7.230254   1.000000
    8       -7.230254   1.000000
    9        3.906401   0.000000
   10        3.906401   0.000000
   11       22.145188   0.000000
   12       22.145189   0.000000
 
  0.0000000E+00  0.2419355E+00  0.2419355E+00  0.7812500E-02
    1      -45.051528   1.000000
    2      -45.051528   1.000000
    3      -12.569979   1.000000
    4      -12.569979   1.000000
    5      -12.120327   1.000000
    6      -12.120327   1.000000
    7      -11.783914   1.000000
    8      -11.783914   1.000000
    9        3.561297   0.000000
   10        3.561297   0.000000
   11       17.650116   0.000000
   12       17.650116   0.000000
 
  0.0000000E+00  0.2580645E+00  0.2580645E+00  0.7812500E-02
    1      -45.072884   1.000000
    2      -45.072884   1.000000
    3      -12.670435   1.000000
    4      -12.670435   1.000000
    5      -12.334804   1.000000
    6      -12.334804   1.000000
    7      -10.873442   1.000000
    8      -10.873441   1.000000
    9        3.880290   0.000000
   10        3.880290   0.000000
   11       19.141150   0.000000
   12       19.141150   0.000000
 
  0.0000000E+00  0.2741935E+00  0.2741935E+00  0.7812500E-02
    1      -44.972581   1.000000
    2      -44.972581   1.000000
    3      -12.560730   1.000000
    4      -12.560730   1.000000
    5      -12.157173   1.000000
    6      -12.157173   1.000000
    7       -8.647692   1.000000
    8       -8.647692   1.000000
    9        4.388621   0.000000
   10        4.388621   0.000000
   11       19.682293   0.000000
   12       19.682293   0.000000
 
  0.0000000E+00  0.2903226E+00  0.2903226E+00  0.7812500E-02
    1      -44.888786   1.000000
    2      -44.888786   1.000000
    3      -12.498309   1.000000
    4      -12.498309   1.000000
    5      -12.099177   1.000000
    6      -12.099177   1.000000
    7       -9.339096   1.000000
    8       -9.339096   1.000000
    9        4.542191   0.000000
   10        4.542191   0.000000
   11       18.423073   0.000000
   12       18.423073   0.000000
 
  0.0000000E+00  0.3064516E+00  0.3064516E+00  0.7812500E-02
    1      -45.093963   1.000000
    2      -45.093963   1.000000
    3      -12.839613   1.000000
    4      -12.839613   1.000000
    5      -12.276167   1.000000
    6      -12.276167   1.000000
    7      -12.007245   1.000000
    8      -12.007245   1.000000
    9        4.976567   0.000000
   10        4.976567   0.000000
   11       16.581865   0.000000
   12       16.581865   0.000000
 
  0.0000000E+00  0.3225806E+00  0.3225806E+00  0.7812500E-02
    1      -44.914150   1.000000
    2      -44.914150   1.000000
    3      -12.618097   1.000000
    4      -12.618097   1.000000
    5      -12.371766   1.000000
    6      -12.371766   1.000000
    7      -11.822491   1.000000
    8      -11.822491   1.000000
    9        5.455864   0.000000
   10        5.455864   0.000000
   11       16.532742   0.000000
   12       16.532742   0.000000
 
  0.0000000E+00  0.3387097E+00  0.3387097E+00  0.7812500E-02
    1      -44.829763   1.000000
    2      -44.829763   1.000000
    3      -13.294617   1.000000
    4      -13.294617   1.000000
    5      -13.033648   1.000000
    6      -13.033648   1.000000
    7       -9.462377   1.000000
    8       -9.462377   1.000000
    9        6.270916   0.000000
   10        6.270916   0.000000
   11       16.563845   0.000000
   12       16.563845   0.000000
 
  0.0000000E+00  0.3548387E+00  0.3548387E+00  0.7812500E-02
    1      -44.744250   1.000000
    2      -44.744250   1.000000
    3      -12.034779   1.000000
    4      -12.034779   1.000000
    5      -10.574390   1.000000
    6      -10.574390   1.000000
    7       -7.664610   1.000000
    8       -7.664609   1.000000
    9        6.830238   0.000000
   10        6.830238   0.000000
   11       19.100020   0.000000
   12       19.100021   0.000000
 
  0.0000000E+00  0.3709677E+00  0.3709677E+00  0.7812500E-02
    1      -44.885860   1.000000
    2      -44.885860   1.000000
    3      -12.274774   1.000000
    4      -12.274774   1.000000
    5      -12.181526   1.000000
    6      -12.181526   1.000000
    7      -11.030756   1.000000
    8      -11.030756   1.000000
    9        6.909466   0.000000
   10        6.909466   0.000000
   11       15.605504   0.000000
   12       15.605504   0.000000
 
  0.0000000E+00  0.3870968E+00  0.3870968E+00  0.7812500E-02
    1      -44.692852   1.000000
    2      -44.692852   1.000000
    3      -11.650599   1.000000
    4      -11.650599   1.000000
    5      -11.410155   1.000000
    6      -11.410155   1.000000
    7      -10.317294   1.000000
    8      -10.317294   1.000000
    9        7.595927   0.000000
   10        7.595927   0.000000
   11       15.534860   0.000000
   12       15.534860   0.000000
 
  0.0000000E+00  0.4032258E+00  0.4032258E+00  0.7812500E-02
    1      -44.483984   1.000000
    2      -44.483984   1.000000
    3      -11.459179   1.000000
    4      -11.459179   1.000000
    5      -10.565639   1.000000
    6      -10.565639   1.000000
    7       -7.898020   1.000000
    8       -7.898019   1.000000
    9        8.167278   0.000000
   10        8.167278   0.000000
   11       15.063544   0.000000
   12       15.063545   0.000000
 
  0.0000000E+00  0.4193548E+00  0.4193548E+00  0.7812500E-02
    1      -44.674909   1.000000
    2      -44.674909   1.000000
    3      -10.962257   1.000000
    4      -10.962257   1.000000
    5      -10.399949   1.000000
    6      -10.399949   1.000000
    7       -4.727574   1.000000
    8       -4.727574   1.000000
    9        9.208536   0.000000
   10        9.208536   0.000000
   11       18.227515   0.000000
   12       18.227515   0.000000
 
  0.0000000E+00  0.4354839E+00  0.4354839E+00  0.7812500E-02
    1      -44.689955   1.000000
    2      -44.689955   1.000000
    3      -11.569334   1.000000
    4      -11.569334   1.000000
    5      -11.297999   1.000000
    6      -11.297999   1.000000
    7       -9.515907   1.000000
    8       -9.515907   1.000000
    9        8.825872   0.000000
   10        8.825872   0.000000
   11       15.368813   0.000000
   12       15.368813   0.000000
 
  0.0000000E+00  0.4516129E+00  0.4516129E+00  0.7812500E-02
    1      -44.681655   1.000000
    2      -44.681655   1.000000
    3      -11.693962   1.000000
    4      -11.693962   1.000000
    5      -11.661195   1.000000
    6      -11.661195   1.000000
    7       -9.355034   1.000000
    8       -9.355034   1.000000
    9        8.533670   0.000000
   10        8.533670   0.000000
   11       13.758202   0.000000
   12       13.758202   0.000000
 
  0.0000000E+00  0.4677419E+00  0.4677419E+00  0.7812500E-02
    1      -44.497784   1.000000
    2      -44.497783   1.000000
    3      -11.562647   1.000000
    4      -11.562647   1.000000
    5       -9.741247   1.000000
    6       -9.741247   1.000000
    7       -5.700255   1.000000
    8       -5.700255   1.000000
    9        8.469152   0.000000
   10        8.469152   0.000000
   11       13.489632   0.000000
   12       13.489632   0.000000
 
  0.0000000E+00  0.4838710E+00  0.4838710E+00  0.7812500E-02
    1      -44.460688   1.000000
    2      -44.460688   1.000000
    3      -11.305263   1.000000
    4      -11.305263   1.000000
    5       -9.812226   1.000000
    6       -9.812226   1.000000
    7       -8.495710   1.000000
    8       -8.495710   1.000000
    9       10.761239   0.000000
   10       10.761239   0.000000
   11       41.525093   0.000000
   12       41.525093   0.000000
 
  0.0000000E+00  0.5000000E+00  0.5000000E+00  0.7812500E-02
    1      -44.619941   1.000000
    2      -44.619941   1.000000
    3      -11.750835   1.000000
    4      -11.750835   1.000000
    5       -9.903121   1.000000
    6       -9.903121   1.000000
    7       -8.255445   1.000000
    8       -8.255444   1.000000
    9        8.517649   0.000000
   10        8.517649   0.000000
   11       13.284046   0.000000
   12       13.284046   0.000000
 
  0.0000000E+00  0.5000000E+00  0.5000000E+00  0.7812500E-02
    1      -44.619941   1.000000
    2      -44.619941   1.000000
    3      -11.750835   1.000000
    4      -11.750835   1.000000
    5       -9.903121   1.000000
    6       -9.903121   1.000000
    7       -8.255445   1.000000
    8       -8.255444   1.000000
    9        8.517649   0.000000
   10        8.517649   0.000000
   11       13.284046   0.000000