       N       E                     dE             d eps       ncg     rms          rms(c)
DAV:   1     0.473927436542E+02    0.47393E+02   -0.77286E+02  3656   0.387E+02
   1 F= 0.47369108E+02 E0= 0.47369108E+02  d E =0.000000E+00  mag=    -0.0000    -0.0000     0.0000
