PROCAR lm decomposed
# of k-points:   40         # of bands:   20         # of ions:    1

 k-point     1 :    0.50000000 0.50000000 0.50000000     weight = 0.02500000

band     1 # energy  -44.74342021 # occ.  1.00000000
 
ion      s     py     pz     px    dxy    dyz    dz2    dxz  x2-y2    tot
    1  0.970  0.000  0.000  0.000  0.000  0.000  0.000  0.000  0.000  0.970
    1 -0.450 -0.000 -0.000 -0.000 -0.000 -0.000 -0.000 -0.000 -0.000 -0.450
    1 -0.072 -0.000 -0.000 -0.000  0.000 -0.000 -0.000  0.000 -0.000 -0.072
    1  0.856  0.000  0.000  0.000  0.000  0.000  0.000  0.000  0.000  0.856
 
band     2 # energy  -44.74342003 # occ.  1.00000000
 
ion      s     py     pz     px    dxy    dyz    dz2    dxz  x2-y2    tot
    1  0.970  0.000  0.000  0.000  0.000  0.000  0.000  0.000  0.000  0.970
    1  0.450  0.000  0.000  0.000  0.000  0.000  0.000  0.000  0.000  0.450
    1  0.072  0.000  0.000  0.000 -0.000  0.000  0.000 -0.000  0.000  0.072
    1 -0.856 -0.000 -0.000 -0.000 -0.000 -0.000 -0.000 -0.000 -0.000 -0.856
 
band     3 # energy  -11.63250760 # occ.  1.00000000
 
ion      s     py     pz     px    dxy    dyz    dz2    dxz  x2-y2    tot
    1  0.001  0.333  0.410  0.147  0.000  0.000  0.000  0.000  0.000  0.891
    1  0.000 -0.287 -0.095 -0.008 -0.000 -0.000  0.000 -0.000 -0.000 -0.389
    1  0.000 -0.008 -0.072 -0.145  0.000 -0.000  0.000 -0.000 -0.000 -0.225
    1  0.001  0.168 -0.392  0.026  0.000  0.000 -0.000  0.000  0.000 -0.198
 
band     4 # energy  -11.63250665 # occ.  1.00000000
 
ion      s     py     pz     px    dxy    dyz    dz2    dxz  x2-y2    tot
    1  0.001  0.333  0.410  0.147  0.000  0.000  0.000  0.000  0.000  0.891
    1 -0.000  0.287  0.095  0.008  0.000  0.000 -0.000  0.000  0.000  0.389
    1 -0.000  0.008  0.072  0.145 -0.000  0.000 -0.000  0.000  0.000  0.225
    1 -0.001 -0.168  0.392 -0.026 -0.000 -0.000  0.000 -0.000 -0.000  0.198
 
band     5 # energy  -11.51031526 # occ.  1.00000000
 
ion      s     py     pz     px    dxy    dyz    dz2    dxz  x2-y2    tot
    1  0.000  0.365  0.390  0.153  0.000  0.000  0.000  0.000  0.000  0.909
    1  0.000 -0.288 -0.269 -0.145 -0.000 -0.000 -0.000 -0.000 -0.000 -0.704
    1  0.000 -0.223 -0.137 -0.044 -0.000 -0.000 -0.000 -0.000 -0.000 -0.404
    1 -0.000 -0.026 -0.247 -0.021 -0.000 -0.000 -0.000 -0.000 -0.000 -0.294
 
band     6 # energy  -11.51031298 # occ.  1.00000000
 
ion      s     py     pz     px    dxy    dyz    dz2    dxz  x2-y2    tot
    1  0.000  0.365  0.390  0.153  0.000  0.000  0.000  0.000  0.000  0.909
    1 -0.000  0.288  0.269  0.145  0.000  0.000  0.000  0.000  0.000  0.704
    1 -0.000  0.223  0.137  0.044  0.000  0.000  0.000  0.000  0.000  0.404
    1  0.000  0.026  0.247  0.021  0.000  0.000  0.000  0.000  0.000  0.294
 
band     7 # energy  -10.77607297 # occ.  1.00000000
 
ion      s     py     pz     px    dxy    dyz    dz2    dxz  x2-y2    tot
    1  0.002  0.172  0.085  0.510  0.000  0.000  0.000  0.000  0.000  0.770
    1 -0.001 -0.094 -0.022 -0.258  0.000  0.000 -0.000 -0.000  0.000 -0.376
    1 -0.001 -0.040 -0.012 -0.162  0.000 -0.000 -0.000  0.000 -0.000 -0.215
    1  0.002  0.138  0.081  0.409  0.000  0.000  0.000 -0.000  0.000  0.631
 
band     8 # energy  -10.77607196 # occ.  1.00000000
 
ion      s     py     pz     px    dxy    dyz    dz2    dxz  x2-y2    tot
    1  0.002  0.172  0.085  0.510  0.000  0.000  0.000  0.000  0.000  0.770
    1  0.001  0.094  0.022  0.258 -0.000 -0.000  0.000  0.000 -0.000  0.376
    1  0.001  0.040  0.012  0.162 -0.000  0.000  0.000 -0.000  0.000  0.215
    1 -0.002 -0.138 -0.081 -0.409 -0.000 -0.000 -0.000  0.000 -0.000 -0.631
 
band     9 # energy    7.67669174 # occ.  0.00000000
 
ion      s     py     pz     px    dxy    dyz    dz2    dxz  x2-y2    tot
    1  0.064  0.003  0.002  0.009  0.007  0.001  0.002  0.004  0.002  0.094
    1  0.048  0.001  0.001  0.008  0.005  0.001  0.001  0.002  0.001  0.069
    1  0.039  0.003  0.001  0.005  0.004  0.000  0.001  0.003  0.002  0.057
    1  0.016  0.000  0.001  0.002  0.003 -0.000  0.000 -0.000  0.001  0.023
 
band    10 # energy    7.67669209 # occ.  0.00000000
 
ion      s     py     pz     px    dxy    dyz    dz2    dxz  x2-y2    tot
    1  0.064  0.003  0.002  0.009  0.007  0.001  0.002  0.004  0.002  0.094
    1 -0.048 -0.001 -0.001 -0.008 -0.005 -0.001 -0.001 -0.002 -0.001 -0.069
    1 -0.039 -0.003 -0.001 -0.005 -0.004 -0.000 -0.001 -0.003 -0.002 -0.057
    1 -0.016 -0.000 -0.001 -0.002 -0.003  0.000 -0.000  0.000 -0.001 -0.023
 
band    11 # energy   11.42195977 # occ.  0.00000000
 
ion      s     py     pz     px    dxy    dyz    dz2    dxz  x2-y2    tot
    1  0.001  0.042  0.022  0.123  0.003  0.001  0.001  0.002  0.001  0.195
    1  0.000  0.024  0.013  0.049  0.001  0.001  0.000  0.001 -0.001  0.089
    1  0.001  0.017  0.014  0.077  0.001 -0.000  0.000  0.002  0.001  0.113
    1  0.001  0.029  0.007  0.082  0.003 -0.000  0.001 -0.000  0.001  0.122
 
band    12 # energy   11.42196088 # occ.  0.00000000
 
ion      s     py     pz     px    dxy    dyz    dz2    dxz  x2-y2    tot
    1  0.001  0.042  0.022  0.123  0.003  0.001  0.001  0.002  0.001  0.195
    1 -0.000 -0.024 -0.013 -0.049 -0.001 -0.001 -0.000 -0.001  0.001 -0.089
    1 -0.001 -0.017 -0.014 -0.077 -0.001  0.000 -0.000 -0.002 -0.001 -0.113
    1 -0.001 -0.029 -0.007 -0.082 -0.003  0.000 -0.001  0.000 -0.001 -0.122
 
band    13 # energy   19.85111198 # occ.  0.00000000
 
ion      s     py     pz     px    dxy    dyz    dz2    dxz  x2-y2    tot
    1  0.000  0.001  0.001  0.001  0.013  0.035  0.007  0.023  0.005  0.086
    1  0.000 -0.000 -0.000 -0.000 -0.009 -0.025 -0.004 -0.021 -0.003 -0.063
    1  0.000 -0.001 -0.000  0.000 -0.004 -0.024 -0.003 -0.001 -0.004 -0.036
    1  0.000  0.000 -0.001  0.001 -0.008 -0.000 -0.005 -0.009 -0.003 -0.025
 
band    14 # energy   19.85111305 # occ.  0.00000000
 
ion      s     py     pz     px    dxy    dyz    dz2    dxz  x2-y2    tot
    1  0.000  0.001  0.001  0.001  0.013  0.035  0.007  0.023  0.005  0.086
    1 -0.000  0.000  0.000  0.000  0.009  0.025  0.004  0.021  0.003  0.063
    1 -0.000  0.001  0.000 -0.000  0.004  0.024  0.003  0.001  0.004  0.036
    1 -0.000 -0.000  0.001 -0.001  0.008  0.000  0.005  0.009  0.003  0.025
 
band    15 # energy   20.57792860 # occ.  0.00000000
 
ion      s     py     pz     px    dxy    dyz    dz2    dxz  x2-y2    tot
    1  0.000  0.007  0.008  0.003  0.010  0.028  0.008  0.017  0.004  0.086
    1 -0.000  0.001  0.007  0.002  0.008  0.014  0.007  0.005  0.003  0.048
    1 -0.000  0.007 -0.003  0.002 -0.003  0.022 -0.003  0.006 -0.001  0.028
    1  0.000  0.002  0.003 -0.001  0.005 -0.009  0.003  0.015  0.001  0.019
 
band    16 # energy   20.57793288 # occ.  0.00000000
 
ion      s     py     pz     px    dxy    dyz    dz2    dxz  x2-y2    tot
    1  0.000  0.007  0.008  0.003  0.010  0.028  0.008  0.017  0.004  0.086
    1  0.000 -0.001 -0.007 -0.002 -0.008 -0.014 -0.007 -0.005 -0.003 -0.048
    1  0.000 -0.007  0.003 -0.002  0.003 -0.022  0.003 -0.006  0.001 -0.028
    1 -0.000 -0.002 -0.003  0.001 -0.005  0.009 -0.003 -0.015 -0.001 -0.019
 
band    17 # energy   23.06297125 # occ.  0.00000000
 
ion      s     py     pz     px    dxy    dyz    dz2    dxz  x2-y2    tot
    1  0.021  0.004  0.003  0.009  0.005  0.002  0.002  0.003  0.002  0.052
    1 -0.015 -0.002  0.001 -0.006 -0.003  0.001 -0.002 -0.002 -0.000 -0.029
    1  0.008 -0.003  0.003  0.006  0.002  0.002  0.001 -0.001  0.002  0.019
    1 -0.012 -0.002 -0.001 -0.004 -0.004 -0.000  0.001 -0.001 -0.001 -0.025
 
band    18 # energy   23.06297191 # occ.  0.00000000
 
ion      s     py     pz     px    dxy    dyz    dz2    dxz  x2-y2    tot
    1  0.021  0.004  0.003  0.009  0.005  0.002  0.002  0.003  0.002  0.052
    1  0.015  0.002 -0.001  0.006  0.003 -0.001  0.002  0.002  0.000  0.029
    1 -0.008  0.003 -0.003 -0.006 -0.002 -0.002 -0.001  0.001 -0.002 -0.019
    1  0.012  0.002  0.001  0.004  0.004  0.000 -0.001  0.001  0.001  0.025
 
band    19 # energy   30.74675125 # occ.  0.00000000
 
ion      s     py     pz     px    dxy    dyz    dz2    dxz  x2-y2    tot
    1  0.060  0.010  0.010  0.007  0.008  0.004  0.014  0.004  0.010  0.126
    1  0.004 -0.006 -0.003  0.003  0.003 -0.002 -0.006  0.003 -0.005 -0.009
    1 -0.007  0.003 -0.003 -0.004 -0.004  0.002 -0.006 -0.002  0.003 -0.017
    1  0.060  0.007 -0.009  0.004  0.006  0.003 -0.011  0.003  0.007  0.070
 
band    20 # energy   30.74675155 # occ.  0.00000000
 
ion      s     py     pz     px    dxy    dyz    dz2    dxz  x2-y2    tot
    1  0.060  0.010  0.010  0.007  0.008  0.004  0.014  0.004  0.010  0.126
    1 -0.004  0.006  0.003 -0.003 -0.003  0.002  0.006 -0.003  0.005  0.009
    1  0.007 -0.003  0.003  0.004  0.004 -0.002  0.006  0.002 -0.003  0.017
    1 -0.060 -0.007  0.009 -0.004 -0.006 -0.003  0.011 -0.003 -0.007 -0.070
 

 k-point     2 :    0.44444444 0.44444444 0.44444444     weight = 0.02500000

band     1 # energy  -44.80406444 # occ.  1.00000000
 
ion      s     py     pz     px    dxy    dyz    dz2    dxz  x2-y2    tot
    1  0.971  0.000  0.000  0.000  0.000  0.000  0.000  0.000  0.000  0.971
    1  0.615  0.000 -0.000  0.000  0.000  0.000  0.000  0.000  0.000  0.615
    1  0.746  0.000  0.000  0.000  0.000  0.000  0.000  0.000  0.000  0.746
    1 -0.091  0.000 -0.000 -0.000 -0.000  0.000 -0.000 -0.000  0.000 -0.091
 
band     2 # energy  -44.80406431 # occ.  1.00000000
 
ion      s     py     pz     px    dxy    dyz    dz2    dxz  x2-y2    tot
    1  0.971  0.000  0.000  0.000  0.000  0.000  0.000  0.000  0.000  0.971
    1 -0.615 -0.000  0.000 -0.000 -0.000 -0.000 -0.000 -0.000 -0.000 -0.615
    1 -0.746 -0.000 -0.000 -0.000 -0.000 -0.000 -0.000 -0.000 -0.000 -0.746
    1  0.091 -0.000  0.000  0.000  0.000 -0.000  0.000  0.000 -0.000  0.091
 
band     3 # energy  -11.85833234 # occ.  1.00000000
 
ion      s     py     pz     px    dxy    dyz    dz2    dxz  x2-y2    tot
    1  0.000  0.357  0.206  0.339  0.000  0.000  0.000  0.000  0.000  0.903
    1  0.000  0.206 -0.054  0.112 -0.000  0.000 -0.000  0.000  0.000  0.265
    1  0.000  0.292  0.065  0.285  0.000  0.000  0.000  0.000  0.000  0.642
    1 -0.000  0.002 -0.188 -0.146 -0.000 -0.000 -0.000  0.000 -0.000 -0.332
 
band     4 # energy  -11.85833144 # occ.  1.00000000
 
ion      s     py     pz     px    dxy    dyz    dz2    dxz  x2-y2    tot
    1  0.000  0.357  0.206  0.339  0.000  0.000  0.000  0.000  0.000  0.903
    1 -0.000 -0.206  0.054 -0.112  0.000 -0.000  0.000 -0.000 -0.000 -0.265
    1 -0.000 -0.292 -0.065 -0.285 -0.000 -0.000 -0.000 -0.000 -0.000 -0.642
    1  0.000 -0.002  0.188  0.146  0.000  0.000  0.000 -0.000  0.000  0.332
 
band     5 # energy  -11.27870407 # occ.  1.00000000
 
ion      s     py     pz     px    dxy    dyz    dz2    dxz  x2-y2    tot
    1  0.000  0.269  0.528  0.068  0.000  0.000  0.000  0.000  0.000  0.865
    1 -0.000  0.218  0.364 -0.019  0.000 -0.000  0.000  0.000  0.000  0.563
    1 -0.000  0.129  0.373 -0.062 -0.000 -0.000  0.000  0.000 -0.000  0.440
    1 -0.000  0.089 -0.085 -0.017  0.000 -0.000 -0.000 -0.000  0.000 -0.014
 
band     6 # energy  -11.27870395 # occ.  1.00000000
 
ion      s     py     pz     px    dxy    dyz    dz2    dxz  x2-y2    tot
    1  0.000  0.269  0.528  0.068  0.000  0.000  0.000  0.000  0.000  0.865
    1  0.000 -0.218 -0.364  0.019 -0.000  0.000 -0.000 -0.000 -0.000 -0.563
    1  0.000 -0.129 -0.373  0.062  0.000  0.000 -0.000 -0.000  0.000 -0.440
    1  0.000 -0.089  0.085  0.017 -0.000  0.000  0.000  0.000 -0.000  0.014
 
band     7 # energy  -10.94012395 # occ.  1.00000000
 
ion      s     py     pz     px    dxy    dyz    dz2    dxz  x2-y2    tot
    1  0.000  0.238  0.130  0.411  0.000  0.000  0.000  0.000  0.000  0.780
    1  0.000  0.167  0.081  0.267  0.000  0.000  0.000  0.000  0.000  0.516
    1  0.000  0.163  0.014  0.244  0.000  0.000  0.000  0.000  0.000  0.421
    1  0.000  0.044  0.100  0.196  0.000  0.000 -0.000  0.000  0.000  0.341
 
band     8 # energy  -10.94012377 # occ.  1.00000000
 
ion      s     py     pz     px    dxy    dyz    dz2    dxz  x2-y2    tot
    1  0.000  0.238  0.130  0.411  0.000  0.000  0.000  0.000  0.000  0.780
    1 -0.000 -0.167 -0.081 -0.267 -0.000 -0.000 -0.000 -0.000 -0.000 -0.516
    1 -0.000 -0.163 -0.014 -0.244 -0.000 -0.000 -0.000 -0.000 -0.000 -0.421
    1 -0.000 -0.044 -0.100 -0.196 -0.000 -0.000  0.000 -0.000 -0.000 -0.341
 
band     9 # energy    6.85349428 # occ.  0.00000000
 
ion      s     py     pz     px    dxy    dyz    dz2    dxz  x2-y2    tot
    1  0.059  0.009  0.004  0.030  0.005  0.001  0.001  0.003  0.001  0.113
    1  0.018  0.003  0.001  0.009  0.002  0.000  0.000  0.001  0.000  0.034
    1  0.051  0.008  0.004  0.026  0.004  0.001  0.001  0.002  0.001  0.097
    1  0.023  0.004  0.002  0.012  0.002  0.000  0.000  0.001  0.000  0.045
 
band    10 # energy    6.85349462 # occ.  0.00000000
 
ion      s     py     pz     px    dxy    dyz    dz2    dxz  x2-y2    tot
    1  0.059  0.009  0.004  0.030  0.005  0.001  0.001  0.003  0.001  0.113
    1 -0.018 -0.003 -0.001 -0.009 -0.002 -0.000 -0.000 -0.001 -0.000 -0.034
    1 -0.051 -0.008 -0.004 -0.026 -0.004 -0.001 -0.001 -0.002 -0.001 -0.097
    1 -0.023 -0.004 -0.002 -0.012 -0.002 -0.000 -0.000 -0.001 -0.000 -0.045
 
band    11 # energy   11.81026071 # occ.  0.00000000
 
ion      s     py     pz     px    dxy    dyz    dz2    dxz  x2-y2    tot
    1  0.000  0.045  0.022  0.085  0.005  0.003  0.002  0.003  0.001  0.167
    1 -0.000 -0.000 -0.000 -0.001 -0.000 -0.000 -0.000 -0.000 -0.000 -0.002
    1  0.000  0.036  0.017  0.069  0.005  0.003  0.001  0.002  0.001  0.134
    1  0.000  0.026  0.014  0.051  0.003  0.002  0.001  0.002  0.000  0.099
 
band    12 # energy   11.81026152 # occ.  0.00000000
 
ion      s     py     pz     px    dxy    dyz    dz2    dxz  x2-y2    tot
    1  0.000  0.045  0.022  0.085  0.005  0.003  0.002  0.003  0.001  0.167
    1  0.000  0.000  0.000  0.001  0.000  0.000  0.000  0.000  0.000  0.002
    1 -0.000 -0.036 -0.017 -0.069 -0.005 -0.003 -0.001 -0.002 -0.001 -0.134
    1 -0.000 -0.026 -0.014 -0.051 -0.003 -0.002 -0.001 -0.002 -0.000 -0.099
 
band    13 # energy   19.61515922 # occ.  0.00000000
 
ion      s     py     pz     px    dxy    dyz    dz2    dxz  x2-y2    tot
    1  0.000  0.003  0.002  0.000  0.013  0.026  0.015  0.021  0.005  0.086
    1  0.000  0.000  0.001  0.000  0.005 -0.003  0.005 -0.008  0.001  0.001
    1  0.000  0.002  0.002  0.000 -0.001  0.010 -0.002 -0.019 -0.001 -0.009
    1 -0.000 -0.003 -0.001 -0.000  0.012 -0.024  0.014  0.005  0.004  0.008
 
band    14 # energy   19.61516092 # occ.  0.00000000
 
ion      s     py     pz     px    dxy    dyz    dz2    dxz  x2-y2    tot
    1  0.000  0.003  0.002  0.000  0.013  0.026  0.015  0.021  0.005  0.086
    1 -0.000 -0.000 -0.001 -0.000 -0.005  0.003 -0.005  0.008 -0.001 -0.001
    1 -0.000 -0.002 -0.002 -0.000  0.001 -0.010  0.002  0.019  0.001  0.009
    1  0.000  0.003  0.001  0.000 -0.012  0.024 -0.014 -0.005 -0.004 -0.008
 
band    15 # energy   20.11849262 # occ.  0.00000000
 
ion      s     py     pz     px    dxy    dyz    dz2    dxz  x2-y2    tot
    1  0.000  0.000  0.000  0.003  0.008  0.031  0.009  0.012  0.004  0.067
    1  0.000  0.000  0.000  0.001 -0.005  0.012 -0.005  0.002 -0.002  0.004
    1  0.000  0.000  0.000  0.002 -0.004  0.027 -0.006 -0.003 -0.002  0.014
    1 -0.000 -0.000 -0.000 -0.002 -0.005 -0.007 -0.003  0.011 -0.002 -0.008
 
band    16 # energy   20.11849524 # occ.  0.00000000
 
ion      s     py     pz     px    dxy    dyz    dz2    dxz  x2-y2    tot
    1  0.000  0.000  0.000  0.003  0.008  0.031  0.009  0.012  0.004  0.067
    1 -0.000 -0.000 -0.000 -0.001  0.005 -0.012  0.005 -0.002  0.002 -0.004
    1 -0.000 -0.000 -0.000 -0.002  0.004 -0.027  0.006  0.003  0.002 -0.014
    1  0.000  0.000  0.000  0.002  0.005  0.007  0.003 -0.011  0.002  0.008
 
band    17 # energy   27.15130939 # occ.  0.00000000
 
ion      s     py     pz     px    dxy    dyz    dz2    dxz  x2-y2    tot
    1  0.001  0.023  0.046  0.000  0.005  0.004  0.022  0.010  0.007  0.119
    1 -0.000 -0.001 -0.000 -0.000 -0.000  0.001 -0.002  0.000  0.000 -0.003
    1 -0.000  0.018  0.038 -0.000  0.004  0.004  0.016  0.009  0.006  0.095
    1  0.000 -0.014 -0.026  0.000 -0.003 -0.000 -0.014 -0.006 -0.004 -0.067
 
band    18 # energy   27.15131054 # occ.  0.00000000
 
ion      s     py     pz     px    dxy    dyz    dz2    dxz  x2-y2    tot
    1  0.001  0.023  0.046  0.000  0.005  0.004  0.022  0.010  0.007  0.119
    1  0.000  0.001  0.000  0.000  0.000 -0.001  0.002 -0.000 -0.000  0.003
    1  0.000 -0.018 -0.038  0.000 -0.004 -0.004 -0.016 -0.009 -0.006 -0.095
    1 -0.000  0.014  0.026 -0.000  0.003  0.000  0.014  0.006  0.004  0.067
 
band    19 # energy   29.56214750 # occ.  0.00000000
 
ion      s     py     pz     px    dxy    dyz    dz2    dxz  x2-y2    tot
    1  0.039  0.000  0.000  0.014  0.035  0.001  0.003  0.018  0.013  0.124
    1 -0.001  0.000 -0.000 -0.000  0.001  0.000  0.000 -0.002 -0.001 -0.003
    1 -0.022  0.000 -0.000 -0.008 -0.018 -0.001 -0.001 -0.012 -0.008 -0.069
    1  0.032  0.000 -0.000  0.012  0.031  0.001  0.002  0.013  0.011  0.102
 
band    20 # energy   29.56214950 # occ.  0.00000000
 
ion      s     py     pz     px    dxy    dyz    dz2    dxz  x2-y2    tot
    1  0.039  0.000  0.000  0.014  0.035  0.001  0.003  0.018  0.013  0.124
    1  0.001 -0.000  0.000  0.000 -0.001 -0.000 -0.000  0.002  0.001  0.003
    1  0.022 -0.000  0.000  0.008  0.018  0.001  0.001  0.012  0.008  0.069
    1 -0.032 -0.000  0.000 -0.012 -0.031 -0.001 -0.002 -0.013 -0.011 -0.102
 

 k-point     3 :    0.38888889 0.38888889 0.38888889     weight = 0.02500000

band     1 # energy  -44.60554145 # occ.  1.00000000
 
ion      s     py     pz     px    dxy    dyz    dz2    dxz  x2-y2    tot
    1  0.972  0.000  0.000  0.000  0.000  0.000  0.000  0.000  0.000  0.972
    1  0.703  0.000  0.000  0.000  0.000  0.000  0.000  0.000  0.000  0.703
    1  0.640  0.000  0.000  0.000  0.000  0.000  0.000  0.000  0.000  0.640
    1  0.202  0.000  0.000  0.000  0.000  0.000  0.000  0.000  0.000  0.202
 
band     2 # energy  -44.60554136 # occ.  1.00000000
 
ion      s     py     pz     px    dxy    dyz    dz2    dxz  x2-y2    tot
    1  0.972  0.000  0.000  0.000  0.000  0.000  0.000  0.000  0.000  0.972
    1 -0.703 -0.000 -0.000 -0.000 -0.000 -0.000 -0.000 -0.000 -0.000 -0.703
    1 -0.640 -0.000 -0.000 -0.000 -0.000 -0.000 -0.000 -0.000 -0.000 -0.640
    1 -0.202 -0.000 -0.000 -0.000 -0.000 -0.000 -0.000 -0.000 -0.000 -0.202
 
band     3 # energy  -10.82378003 # occ.  1.00000000
 
ion      s     py     pz     px    dxy    dyz    dz2    dxz  x2-y2    tot
    1  0.000  0.004  0.006  0.797  0.001  0.000  0.000  0.000  0.000  0.809
    1  0.000 -0.002 -0.004  0.546  0.000  0.000  0.000  0.000  0.000  0.541
    1  0.000  0.002 -0.005  0.338  0.000  0.000  0.000  0.000  0.000  0.336
    1  0.000 -0.003 -0.001  0.472  0.001  0.000  0.000  0.000  0.000  0.469
 
band     4 # energy  -10.82377989 # occ.  1.00000000
 
ion      s     py     pz     px    dxy    dyz    dz2    dxz  x2-y2    tot
    1  0.000  0.004  0.006  0.797  0.001  0.000  0.000  0.000  0.000  0.809
    1 -0.000  0.002  0.004 -0.546 -0.000 -0.000 -0.000 -0.000 -0.000 -0.541
    1 -0.000 -0.002  0.005 -0.338 -0.000 -0.000 -0.000 -0.000 -0.000 -0.336
    1 -0.000  0.003  0.001 -0.472 -0.001 -0.000 -0.000 -0.000 -0.000 -0.469
 
band     5 # energy  -10.47770249 # occ.  1.00000000
 
ion      s     py     pz     px    dxy    dyz    dz2    dxz  x2-y2    tot
    1  0.001  0.445  0.435  0.000  0.000  0.000  0.000  0.000  0.000  0.882
    1  0.001  0.246  0.283  0.000  0.000  0.000  0.000  0.000  0.000  0.531
    1 -0.000 -0.356  0.026 -0.000 -0.000 -0.000 -0.000 -0.000 -0.000 -0.331
    1  0.000  0.105 -0.329  0.000 -0.000 -0.000 -0.000 -0.000 -0.000 -0.224
 
band     6 # energy  -10.47770242 # occ.  1.00000000
 
ion      s     py     pz     px    dxy    dyz    dz2    dxz  x2-y2    tot
    1  0.001  0.445  0.435  0.000  0.000  0.000  0.000  0.000  0.000  0.882
    1 -0.001 -0.246 -0.283 -0.000 -0.000 -0.000 -0.000 -0.000 -0.000 -0.531
    1  0.000  0.356 -0.026  0.000  0.000  0.000  0.000  0.000  0.000  0.331
    1 -0.000 -0.105  0.329 -0.000  0.000  0.000  0.000  0.000  0.000  0.224
 
band     7 # energy  -10.07104886 # occ.  1.00000000
 
ion      s     py     pz     px    dxy    dyz    dz2    dxz  x2-y2    tot
    1  0.001  0.414  0.439  0.016  0.000  0.000  0.000  0.001  0.000  0.871
    1  0.000 -0.168  0.339 -0.000  0.000  0.000 -0.000  0.000  0.000  0.171
    1  0.000 -0.286  0.158  0.005 -0.000  0.000 -0.000 -0.001  0.000 -0.124
    1 -0.001 -0.247  0.230 -0.015  0.000 -0.000 -0.000  0.001 -0.000 -0.032
 
band     8 # energy  -10.07104879 # occ.  1.00000000
 
ion      s     py     pz     px    dxy    dyz    dz2    dxz  x2-y2    tot
    1  0.001  0.414  0.439  0.016  0.000  0.000  0.000  0.001  0.000  0.871
    1 -0.000  0.168 -0.339  0.000 -0.000 -0.000  0.000 -0.000 -0.000 -0.171
    1 -0.000  0.286 -0.158 -0.005  0.000 -0.000  0.000  0.001 -0.000  0.124
    1  0.001  0.247 -0.230  0.015 -0.000  0.000  0.000 -0.001  0.000  0.032
 
band     9 # energy    5.68917611 # occ.  0.00000000
 
ion      s     py     pz     px    dxy    dyz    dz2    dxz  x2-y2    tot
    1  0.067  0.013  0.006  0.038  0.002  0.000  0.001  0.001  0.001  0.129
    1  0.017  0.003  0.002  0.010  0.001  0.000  0.000  0.000  0.000  0.033
    1  0.047  0.009  0.005  0.026  0.001  0.000  0.000  0.001  0.001  0.090
    1  0.045  0.009  0.004  0.025  0.002  0.000  0.000  0.000  0.001  0.087
 
band    10 # energy    5.68917638 # occ.  0.00000000
 
ion      s     py     pz     px    dxy    dyz    dz2    dxz  x2-y2    tot
    1  0.067  0.013  0.006  0.038  0.002  0.000  0.001  0.001  0.001  0.129
    1 -0.017 -0.003 -0.002 -0.010 -0.001 -0.000 -0.000 -0.000 -0.000 -0.033
    1 -0.047 -0.009 -0.005 -0.026 -0.001 -0.000 -0.000 -0.001 -0.001 -0.090
    1 -0.045 -0.009 -0.004 -0.025 -0.002 -0.000 -0.000 -0.000 -0.001 -0.087
 
band    11 # energy   12.36215622 # occ.  0.00000000
 
ion      s     py     pz     px    dxy    dyz    dz2    dxz  x2-y2    tot
    1  0.005  0.032  0.016  0.069  0.008  0.004  0.003  0.004  0.001  0.143
    1  0.000  0.000  0.000  0.001  0.001  0.001 -0.002 -0.001  0.000  0.001
    1  0.001  0.004  0.003  0.009  0.003  0.002 -0.002 -0.002  0.001  0.019
    1  0.005  0.032  0.016  0.069  0.007  0.003  0.001  0.004  0.000  0.137
 
band    12 # energy   12.36215688 # occ.  0.00000000
 
ion      s     py     pz     px    dxy    dyz    dz2    dxz  x2-y2    tot
    1  0.005  0.032  0.016  0.069  0.008  0.004  0.003  0.004  0.001  0.143
    1 -0.000 -0.000 -0.000 -0.001 -0.001 -0.001  0.002  0.001 -0.000 -0.001
    1 -0.001 -0.004 -0.003 -0.009 -0.003 -0.002  0.002  0.002 -0.001 -0.019
    1 -0.005 -0.032 -0.016 -0.069 -0.007 -0.003 -0.001 -0.004 -0.000 -0.137
 
band    13 # energy   19.59637410 # occ.  0.00000000
 
ion      s     py     pz     px    dxy    dyz    dz2    dxz  x2-y2    tot
    1  0.000  0.001  0.001  0.000  0.005  0.069  0.009  0.003  0.001  0.088
    1  0.000  0.000 -0.000  0.000  0.001  0.011 -0.000  0.000 -0.000  0.012
    1  0.000  0.001  0.000  0.000  0.003  0.046  0.004  0.001  0.000  0.056
    1 -0.000 -0.001 -0.001 -0.000 -0.004 -0.050 -0.008 -0.002 -0.001 -0.066
 
band    14 # energy   19.59637521 # occ.  0.00000000
 
ion      s     py     pz     px    dxy    dyz    dz2    dxz  x2-y2    tot
    1  0.000  0.001  0.001  0.000  0.005  0.069  0.009  0.003  0.001  0.088
    1 -0.000 -0.000  0.000 -0.000 -0.001 -0.011  0.000 -0.000  0.000 -0.012
    1 -0.000 -0.001 -0.000 -0.000 -0.003 -0.046 -0.004 -0.001 -0.000 -0.056
    1  0.000  0.001  0.001  0.000  0.004  0.050  0.008  0.002  0.001  0.066
 
band    15 # energy   20.71222523 # occ.  0.00000000
 
ion      s     py     pz     px    dxy    dyz    dz2    dxz  x2-y2    tot
    1  0.000  0.002  0.001  0.000  0.014  0.007  0.037  0.026  0.012  0.099
    1 -0.000 -0.000  0.000 -0.000  0.005  0.003 -0.000 -0.003  0.001  0.004
    1  0.000  0.001  0.000  0.000  0.001  0.001 -0.018 -0.016 -0.005 -0.036
    1 -0.000 -0.001 -0.000 -0.000  0.013  0.006  0.032  0.020  0.011  0.079
 
band    16 # energy   20.71222664 # occ.  0.00000000
 
ion      s     py     pz     px    dxy    dyz    dz2    dxz  x2-y2    tot
    1  0.000  0.002  0.001  0.000  0.014  0.007  0.037  0.026  0.012  0.099
    1  0.000  0.000 -0.000  0.000 -0.005 -0.003  0.000  0.003 -0.001 -0.004
    1 -0.000 -0.001 -0.000 -0.000 -0.001 -0.001  0.018  0.016  0.005  0.036
    1  0.000  0.001  0.000  0.000 -0.013 -0.006 -0.032 -0.020 -0.011 -0.079
 
band    17 # energy   21.89130594 # occ.  0.00000000
 
ion      s     py     pz     px    dxy    dyz    dz2    dxz  x2-y2    tot
    1  0.005  0.002  0.001  0.002  0.002  0.001  0.001  0.001  0.000  0.015
    1 -0.000 -0.000 -0.000 -0.000 -0.000 -0.000 -0.000 -0.000 -0.000 -0.001
    1  0.005  0.001  0.001  0.002  0.002  0.001  0.000  0.000  0.000  0.013
    1  0.001  0.001  0.000  0.000 -0.000 -0.000  0.001  0.001 -0.000  0.004
 
band    18 # energy   21.89130690 # occ.  0.00000000
 
ion      s     py     pz     px    dxy    dyz    dz2    dxz  x2-y2    tot
    1  0.005  0.002  0.001  0.002  0.002  0.001  0.001  0.001  0.000  0.015
    1  0.000  0.000  0.000  0.000  0.000  0.000  0.000  0.000  0.000  0.001
    1 -0.005 -0.001 -0.001 -0.002 -0.002 -0.001 -0.000 -0.000 -0.000 -0.013
    1 -0.001 -0.001 -0.000 -0.000  0.000  0.000 -0.001 -0.001  0.000 -0.004
 
band    19 # energy   27.55840595 # occ.  0.00000000
 
ion      s     py     pz     px    dxy    dyz    dz2    dxz  x2-y2    tot
    1  0.045  0.005  0.002  0.029  0.018  0.005  0.003  0.009  0.009  0.127
    1  0.004 -0.000  0.001  0.003  0.002 -0.001 -0.001  0.000  0.004  0.011
    1 -0.024 -0.003 -0.000 -0.015 -0.009 -0.004 -0.001 -0.006 -0.000 -0.062
    1  0.038  0.003  0.002  0.025  0.016  0.003 -0.002  0.007  0.008  0.101
 
band    20 # energy   27.55840768 # occ.  0.00000000
 
ion      s     py     pz     px    dxy    dyz    dz2    dxz  x2-y2    tot
    1  0.045  0.005  0.002  0.029  0.018  0.005  0.003  0.009  0.009  0.127
    1 -0.004  0.000 -0.001 -0.003 -0.002  0.001  0.001 -0.000 -0.004 -0.011
    1  0.024  0.003  0.000  0.015  0.009  0.004  0.001  0.006  0.000  0.062
    1 -0.038 -0.003 -0.002 -0.025 -0.016 -0.003  0.002 -0.007 -0.008 -0.101
 

 k-point     4 :    0.33333333 0.33333333 0.33333333     weight = 0.02500000

band     1 # energy  -44.63807547 # occ.  1.00000000
 
ion      s     py     pz     px    dxy    dyz    dz2    dxz  x2-y2    tot
    1  0.973  0.000  0.000  0.000  0.000  0.000  0.000  0.000  0.000  0.973
    1  0.653  0.000 -0.000  0.000  0.000  0.000  0.000 -0.000  0.000  0.653
    1  0.677 -0.000 -0.000  0.000  0.000  0.000  0.000 -0.000  0.000  0.677
    1  0.249  0.000 -0.000  0.000 -0.000 -0.000 -0.000  0.000  0.000  0.249
 
band     2 # energy  -44.63807535 # occ.  1.00000000
 
ion      s     py     pz     px    dxy    dyz    dz2    dxz  x2-y2    tot
    1  0.973  0.000  0.000  0.000  0.000  0.000  0.000  0.000  0.000  0.973
    1 -0.653 -0.000  0.000 -0.000 -0.000 -0.000 -0.000  0.000 -0.000 -0.653
    1 -0.677  0.000  0.000 -0.000 -0.000 -0.000 -0.000  0.000 -0.000 -0.677
    1 -0.249 -0.000  0.000 -0.000  0.000  0.000  0.000 -0.000 -0.000 -0.249
 
band     3 # energy  -10.76020083 # occ.  1.00000000
 
ion      s     py     pz     px    dxy    dyz    dz2    dxz  x2-y2    tot
    1  0.000  0.148  0.292  0.421  0.000  0.000  0.000  0.000  0.000  0.862
    1  0.000  0.031  0.019  0.289  0.000  0.000  0.000  0.000  0.000  0.339
    1  0.000 -0.136 -0.289  0.236  0.000  0.000  0.000  0.000  0.000 -0.188
    1 -0.000  0.051  0.035 -0.195 -0.000 -0.000 -0.000  0.000 -0.000 -0.109
 
band     4 # energy  -10.76020077 # occ.  1.00000000
 
ion      s     py     pz     px    dxy    dyz    dz2    dxz  x2-y2    tot
    1  0.000  0.148  0.292  0.421  0.000  0.000  0.000  0.000  0.000  0.862
    1 -0.000 -0.031 -0.019 -0.289 -0.000 -0.000 -0.000 -0.000 -0.000 -0.339
    1 -0.000  0.136  0.289 -0.236 -0.000 -0.000 -0.000 -0.000 -0.000  0.188
    1  0.000 -0.051 -0.035  0.195  0.000  0.000  0.000 -0.000  0.000  0.109
 
band     5 # energy  -10.10879737 # occ.  1.00000000
 
ion      s     py     pz     px    dxy    dyz    dz2    dxz  x2-y2    tot
    1  0.000  0.211  0.298  0.363  0.001  0.000  0.000  0.001  0.000  0.875
    1 -0.000 -0.096  0.157 -0.107 -0.000 -0.000 -0.000  0.000 -0.000 -0.045
    1 -0.000 -0.005  0.249 -0.304  0.000 -0.000 -0.000  0.001 -0.000 -0.058
    1  0.000 -0.188  0.046  0.168 -0.000  0.000  0.000 -0.000  0.000  0.025
 
band     6 # energy  -10.10879597 # occ.  1.00000000
 
ion      s     py     pz     px    dxy    dyz    dz2    dxz  x2-y2    tot
    1  0.000  0.211  0.298  0.363  0.001  0.000  0.000  0.001  0.000  0.875
    1  0.000  0.096 -0.157  0.107  0.000  0.000  0.000 -0.000  0.000  0.045
    1  0.000  0.005 -0.249  0.304 -0.000  0.000  0.000 -0.001  0.000  0.058
    1 -0.000  0.188 -0.046 -0.168  0.000 -0.000 -0.000  0.000 -0.000 -0.025
 
band     7 # energy   -8.87686674 # occ.  1.00000000
 
ion      s     py     pz     px    dxy    dyz    dz2    dxz  x2-y2    tot
    1  0.000  0.500  0.298  0.023  0.000  0.000  0.000  0.000  0.000  0.823
    1  0.000  0.298 -0.036  0.008  0.000  0.000  0.000 -0.000  0.000  0.270
    1 -0.000  0.038 -0.259 -0.006  0.000  0.000  0.000 -0.000 -0.000 -0.227
    1  0.000  0.400  0.144  0.021  0.000  0.000  0.000 -0.000  0.000  0.565
 
band     8 # energy   -8.87686648 # occ.  1.00000000
 
ion      s     py     pz     px    dxy    dyz    dz2    dxz  x2-y2    tot
    1  0.000  0.500  0.298  0.023  0.000  0.000  0.000  0.000  0.000  0.823
    1 -0.000 -0.298  0.036 -0.008 -0.000 -0.000 -0.000  0.000 -0.000 -0.270
    1  0.000 -0.038  0.259  0.006 -0.000 -0.000 -0.000  0.000  0.000  0.227
    1 -0.000 -0.400 -0.144 -0.021 -0.000 -0.000 -0.000  0.000 -0.000 -0.565
 