   1   1   0   0
  0.3721384E+02  0.3747484E-09  0.3747484E-09  0.3747484E-09  0.1000000E-15
  1.000000000000000E-004
  CAR 
 Og_FCC                                  
     18.62603030    -24.40453153  301     -6.17033095      1.00000000
    -24.405  0.0000E+00  0.0000E+00
    -24.261  0.0000E+00  0.0000E+00
    -24.118  0.0000E+00  0.0000E+00
    -23.974  0.0000E+00  0.0000E+00
    -23.831  0.0000E+00  0.0000E+00
    -23.687  0.0000E+00  0.0000E+00
    -23.544  0.0000E+00  0.0000E+00
    -23.400  0.0000E+00  0.0000E+00
    -23.257  0.0000E+00  0.0000E+00
    -23.114  0.0000E+00  0.0000E+00
    -22.970  0.0000E+00  0.0000E+00
    -22.827  0.0000E+00  0.0000E+00
    -22.683  0.1016E-11  0.1457E-12
    -22.540  0.3326E-03  0.4771E-04
    -22.396  0.4792E+00  0.6878E-01
    -22.253  0.4760E+01  0.7515E+00
    -22.110  0.8629E+01  0.1989E+01
    -21.966  0.7499E-01  0.2000E+01
    -21.823  0.2329E-08  0.2000E+01
    -21.679  0.0000E+00  0.2000E+01
    -21.536  0.0000E+00  0.2000E+01
    -21.392  0.0000E+00  0.2000E+01
    -21.249  0.0000E+00  0.2000E+01
    -21.106  0.0000E+00  0.2000E+01
    -20.962  0.0000E+00  0.2000E+01
    -20.819  0.0000E+00  0.2000E+01
    -20.675  0.0000E+00  0.2000E+01
    -20.532  0.0000E+00  0.2000E+01
    -20.388  0.0000E+00  0.2000E+01
    -20.245  0.0000E+00  0.2000E+01
    -20.101  0.0000E+00  0.2000E+01
    -19.958  0.0000E+00  0.2000E+01
    -19.815  0.0000E+00  0.2000E+01
    -19.671  0.0000E+00  0.2000E+01
    -19.528  0.0000E+00  0.2000E+01
    -19.384  0.0000E+00  0.2000E+01
    -19.241  0.0000E+00  0.2000E+01
    -19.097  0.0000E+00  0.2000E+01
    -18.954  0.0000E+00  0.2000E+01
    -18.811  0.0000E+00  0.2000E+01
    -18.667  0.0000E+00  0.2000E+01
    -18.524  0.0000E+00  0.2000E+01
    -18.380  0.0000E+00  0.2000E+01
    -18.237  0.0000E+00  0.2000E+01
    -18.093  0.0000E+00  0.2000E+01
    -17.950  0.0000E+00  0.2000E+01
    -17.807  0.0000E+00  0.2000E+01
    -17.663  0.0000E+00  0.2000E+01
    -17.520  0.0000E+00  0.2000E+01
    -17.376  0.0000E+00  0.2000E+01
    -17.233  0.0000E+00  0.2000E+01
    -17.089  0.0000E+00  0.2000E+01
    -16.946  0.0000E+00  0.2000E+01
    -16.802  0.0000E+00  0.2000E+01
    -16.659  0.0000E+00  0.2000E+01
    -16.516  0.0000E+00  0.2000E+01
    -16.372  0.0000E+00  0.2000E+01
    -16.229  0.0000E+00  0.2000E+01
    -16.085  0.0000E+00  0.2000E+01
    -15.942  0.0000E+00  0.2000E+01
    -15.798  0.0000E+00  0.2000E+01
    -15.655  0.0000E+00  0.2000E+01
    -15.512  0.0000E+00  0.2000E+01
    -15.368  0.0000E+00  0.2000E+01
    -15.225  0.0000E+00  0.2000E+01
    -15.081  0.0000E+00  0.2000E+01
    -14.938  0.0000E+00  0.2000E+01
    -14.794  0.0000E+00  0.2000E+01
    -14.651  0.0000E+00  0.2000E+01
    -14.508  0.0000E+00  0.2000E+01
    -14.364  0.0000E+00  0.2000E+01
    -14.221  0.0000E+00  0.2000E+01
    -14.077  0.0000E+00  0.2000E+01
    -13.934  0.0000E+00  0.2000E+01
    -13.790  0.0000E+00  0.2000E+01
    -13.647  0.0000E+00  0.2000E+01
    -13.503  0.0000E+00  0.2000E+01
    -13.360  0.0000E+00  0.2000E+01
    -13.217  0.0000E+00  0.2000E+01
    -13.073  0.0000E+00  0.2000E+01
    -12.930  0.0000E+00  0.2000E+01
    -12.786  0.0000E+00  0.2000E+01
    -12.643  0.0000E+00  0.2000E+01
    -12.499  0.0000E+00  0.2000E+01
    -12.356  0.0000E+00  0.2000E+01
    -12.213  0.0000E+00  0.2000E+01
    -12.069  0.0000E+00  0.2000E+01
    -11.926  0.0000E+00  0.2000E+01
    -11.782  0.0000E+00  0.2000E+01
    -11.639  0.0000E+00  0.2000E+01
    -11.495  0.0000E+00  0.2000E+01
    -11.352  0.0000E+00  0.2000E+01
    -11.208  0.0000E+00  0.2000E+01
    -11.065  0.0000E+00  0.2000E+01
    -10.922  0.0000E+00  0.2000E+01
    -10.778  0.0000E+00  0.2000E+01
    -10.635  0.0000E+00  0.2000E+01
    -10.491  0.0000E+00  0.2000E+01
    -10.348  0.0000E+00  0.2000E+01
    -10.204  0.0000E+00  0.2000E+01
    -10.061  0.0000E+00  0.2000E+01
     -9.918  0.0000E+00  0.2000E+01
     -9.774  0.0000E+00  0.2000E+01
     -9.631  0.0000E+00  0.2000E+01
     -9.487  0.0000E+00  0.2000E+01
     -9.344  0.0000E+00  0.2000E+01
     -9.200  0.0000E+00  0.2000E+01
     -9.057  0.0000E+00  0.2000E+01
     -8.914  0.0000E+00  0.2000E+01
     -8.770  0.0000E+00  0.2000E+01
     -8.627  0.0000E+00  0.2000E+01
     -8.483  0.0000E+00  0.2000E+01
     -8.340  0.0000E+00  0.2000E+01
     -8.196  0.0000E+00  0.2000E+01
     -8.053  0.7529E-14  0.2000E+01
     -7.909  0.7108E-04  0.2000E+01
     -7.766  0.1893E+00  0.2027E+01
     -7.623  0.1604E+01  0.2257E+01
     -7.479  0.5543E+01  0.3052E+01
     -7.336  0.3617E+01  0.3571E+01
     -7.192  0.2231E+01  0.3891E+01
     -7.049  0.3039E+01  0.4327E+01
     -6.905  0.3784E+01  0.4870E+01
     -6.762  0.7682E+01  0.5972E+01
     -6.619  0.7972E+01  0.7115E+01
     -6.475  0.5101E+01  0.7847E+01
     -6.332  0.1059E+01  0.7999E+01
     -6.188  0.7554E-02  0.8000E+01
     -6.045  0.5945E-09  0.8000E+01
     -5.901  0.0000E+00  0.8000E+01
     -5.758  0.0000E+00  0.8000E+01
     -5.615  0.0000E+00  0.8000E+01
     -5.471  0.0000E+00  0.8000E+01
     -5.328  0.0000E+00  0.8000E+01
     -5.184  0.0000E+00  0.8000E+01
     -5.041  0.0000E+00  0.8000E+01
     -4.897  0.0000E+00  0.8000E+01
     -4.754  0.0000E+00  0.8000E+01
     -4.610  0.0000E+00  0.8000E+01
     -4.467  0.0000E+00  0.8000E+01
     -4.324  0.0000E+00  0.8000E+01
     -4.180  0.0000E+00  0.8000E+01
     -4.037  0.0000E+00  0.8000E+01
     -3.893  0.0000E+00  0.8000E+01
     -3.750  0.0000E+00  0.8000E+01
     -3.606  0.0000E+00  0.8000E+01
     -3.463  0.0000E+00  0.8000E+01
     -3.320  0.0000E+00  0.8000E+01
     -3.176  0.0000E+00  0.8000E+01
     -3.033  0.0000E+00  0.8000E+01
     -2.889  0.0000E+00  0.8000E+01
     -2.746  0.0000E+00  0.8000E+01
     -2.602  0.0000E+00  0.8000E+01
     -2.459  0.0000E+00  0.8000E+01
     -2.316  0.0000E+00  0.8000E+01
     -2.172  0.0000E+00  0.8000E+01
     -2.029  0.0000E+00  0.8000E+01
     -1.885  0.0000E+00  0.8000E+01
     -1.742  0.0000E+00  0.8000E+01
     -1.598  0.0000E+00  0.8000E+01
     -1.455  0.0000E+00  0.8000E+01
     -1.311  0.0000E+00  0.8000E+01
     -1.168  0.0000E+00  0.8000E+01
     -1.025  0.0000E+00  0.8000E+01
     -0.881  0.0000E+00  0.8000E+01
     -0.738  0.0000E+00  0.8000E+01
     -0.594  0.0000E+00  0.8000E+01
     -0.451  0.0000E+00  0.8000E+01
     -0.307  0.0000E+00  0.8000E+01
     -0.164  0.0000E+00  0.8000E+01
     -0.021  0.0000E+00  0.8000E+01
      0.123  0.0000E+00  0.8000E+01
      0.266  0.0000E+00  0.8000E+01
      0.410  0.0000E+00  0.8000E+01
      0.553  0.0000E+00  0.8000E+01
      0.697  0.0000E+00  0.8000E+01
      0.840  0.0000E+00  0.8000E+01
      0.983  0.0000E+00  0.8000E+01
      1.127  0.0000E+00  0.8000E+01
      1.270  0.0000E+00  0.8000E+01
      1.414  0.0000E+00  0.8000E+01
      1.557  0.0000E+00  0.8000E+01
      1.701  0.0000E+00  0.8000E+01
      1.844  0.0000E+00  0.8000E+01
      1.988  0.0000E+00  0.8000E+01
      2.131  0.0000E+00  0.8000E+01
      2.274  0.0000E+00  0.8000E+01
      2.418  0.0000E+00  0.8000E+01
      2.561  0.0000E+00  0.8000E+01
      2.705  0.0000E+00  0.8000E+01
      2.848  0.0000E+00  0.8000E+01
      2.992  0.0000E+00  0.8000E+01
      3.135  0.0000E+00  0.8000E+01
      3.278  0.0000E+00  0.8000E+01
      3.422  0.0000E+00  0.8000E+01
      3.565  0.0000E+00  0.8000E+01
      3.709  0.1692E-08  0.8000E+01
      3.852  0.5351E-02  0.8001E+01
      3.996  0.5896E-01  0.8009E+01
      4.139  0.2440E-03  0.8009E+01
      4.283  0.5551E-12  0.8009E+01
      4.426  0.5304E-08  0.8009E+01
      4.569  0.3125E-01  0.8014E+01
      4.713  0.4820E+00  0.8083E+01
      4.856  0.2233E+00  0.8115E+01
      5.000  0.1672E+00  0.8139E+01
      5.143  0.4543E-05  0.8139E+01
      5.287  0.0000E+00  0.8139E+01
      5.430  0.2314E-08  0.8139E+01
      5.573  0.3034E-01  0.8143E+01
      5.717  0.7359E+00  0.8249E+01
      5.860  0.8385E-02  0.8250E+01
      6.004  0.2712E-01  0.8254E+01
      6.147  0.1956E+01  0.8535E+01
      6.291  0.8218E-01  0.8546E+01
      6.434  0.1784E+00  0.8572E+01
      6.577  0.2852E+00  0.8613E+01
      6.721  0.1187E+00  0.8630E+01
      6.864  0.2394E+00  0.8664E+01
      7.008  0.7195E+00  0.8767E+01
      7.151  0.2873E+01  0.9179E+01
      7.295  0.2015E+01  0.9468E+01
      7.438  0.1382E+01  0.9667E+01
      7.582  0.1946E-03  0.9667E+01
      7.725  0.3900E-09  0.9667E+01
      7.868  0.2305E-01  0.9670E+01
      8.012  0.2177E+01  0.9982E+01
      8.155  0.2576E+00  0.1002E+02
      8.299  0.6980E-01  0.1003E+02
      8.442  0.1256E+01  0.1021E+02
      8.586  0.3002E+01  0.1064E+02
      8.729  0.2120E+01  0.1094E+02
      8.872  0.2511E+00  0.1098E+02
      9.016  0.2327E+01  0.1131E+02
      9.159  0.9785E+00  0.1145E+02
      9.303  0.1685E+01  0.1170E+02
      9.446  0.1694E+01  0.1194E+02
      9.590  0.1145E+01  0.1210E+02
      9.733  0.1906E+01  0.1238E+02
      9.876  0.3057E+00  0.1242E+02
     10.020  0.1247E+01  0.1260E+02
     10.163  0.3273E+01  0.1307E+02
     10.307  0.1655E+01  0.1331E+02
     10.450  0.6247E+00  0.1340E+02
     10.594  0.1436E+01  0.1360E+02
     10.737  0.2226E+00  0.1363E+02
     10.881  0.7613E+00  0.1374E+02
     11.024  0.4985E+00  0.1381E+02
     11.167  0.1246E-01  0.1382E+02
     11.311  0.9799E+00  0.1396E+02
     11.454  0.2567E+00  0.1399E+02
     11.598  0.3315E+01  0.1447E+02
     11.741  0.7994E+00  0.1458E+02
     11.885  0.6722E+00  0.1468E+02
     12.028  0.3213E+01  0.1514E+02
     12.171  0.5351E+00  0.1522E+02
     12.315  0.2006E+01  0.1551E+02
     12.458  0.2145E+01  0.1581E+02
     12.602  0.2391E+00  0.1585E+02
     12.745  0.6457E-03  0.1585E+02
     12.889  0.5615E-08  0.1585E+02
     13.032  0.6904E-02  0.1585E+02
     13.175  0.9674E+00  0.1599E+02
     13.319  0.1500E+01  0.1620E+02
     13.462  0.1286E+01  0.1639E+02
     13.606  0.1178E+00  0.1640E+02
     13.749  0.9153E+00  0.1653E+02
     13.893  0.5058E+00  0.1661E+02
     14.036  0.8015E+00  0.1672E+02
     14.180  0.6531E+00  0.1682E+02
     14.323  0.4653E+00  0.1688E+02
     14.466  0.9285E+00  0.1702E+02
     14.610  0.1286E+01  0.1720E+02
     14.753  0.9787E+00  0.1734E+02
     14.897  0.8905E+00  0.1747E+02
     15.040  0.6682E+00  0.1756E+02
     15.184  0.4308E+00  0.1763E+02
     15.327  0.2460E+00  0.1766E+02
     15.470  0.2019E+00  0.1769E+02
     15.614  0.4759E+00  0.1776E+02
     15.757  0.4572E+00  0.1782E+02
     15.901  0.2268E+00  0.1786E+02
     16.044  0.4754E+00  0.1792E+02
     16.188  0.1183E+00  0.1794E+02
     16.331  0.1903E+00  0.1797E+02
     16.475  0.1309E+00  0.1799E+02
     16.618  0.4959E-01  0.1800E+02
     16.761  0.3419E-01  0.1800E+02
     16.905  0.1587E-03  0.1800E+02
     17.048  0.5108E-12  0.1800E+02
     17.192  0.0000E+00  0.1800E+02
     17.335  0.0000E+00  0.1800E+02
     17.479  0.0000E+00  0.1800E+02
     17.622  0.0000E+00  0.1800E+02
     17.765  0.0000E+00  0.1800E+02
     17.909  0.0000E+00  0.1800E+02
     18.052  0.0000E+00  0.1800E+02
     18.196  0.0000E+00  0.1800E+02
     18.339  0.0000E+00  0.1800E+02
     18.483  0.0000E+00  0.1800E+02
     18.626  0.0000E+00  0.1800E+02
