   1   1   0   0
  0.3298244E+02  0.3599697E-09  0.3599697E-09  0.3599697E-09  0.1000000E-15
  1.000000000000000E-004
  CAR 
 Og_FCC                                  
     25.30031474    -24.20011226  301     -5.36932483      1.00000000
    -24.200  0.0000E+00  0.0000E+00
    -24.035  0.0000E+00  0.0000E+00
    -23.870  0.0000E+00  0.0000E+00
    -23.705  0.0000E+00  0.0000E+00
    -23.540  0.0000E+00  0.0000E+00
    -23.375  0.0000E+00  0.0000E+00
    -23.210  0.0000E+00  0.0000E+00
    -23.045  0.0000E+00  0.0000E+00
    -22.880  0.0000E+00  0.0000E+00
    -22.715  0.0000E+00  0.0000E+00
    -22.550  0.0000E+00  0.0000E+00
    -22.385  0.0000E+00  0.0000E+00
    -22.220  0.6168E-15  0.1018E-15
    -22.055  0.8323E-04  0.1373E-04
    -21.890  0.2533E+00  0.4180E-01
    -21.725  0.2136E+01  0.3942E+00
    -21.560  0.7765E+01  0.1675E+01
    -21.395  0.1967E+01  0.2000E+01
    -21.230  0.1028E-04  0.2000E+01
    -21.065  0.0000E+00  0.2000E+01
    -20.900  0.0000E+00  0.2000E+01
    -20.735  0.0000E+00  0.2000E+01
    -20.570  0.0000E+00  0.2000E+01
    -20.405  0.0000E+00  0.2000E+01
    -20.240  0.0000E+00  0.2000E+01
    -20.075  0.0000E+00  0.2000E+01
    -19.910  0.0000E+00  0.2000E+01
    -19.745  0.0000E+00  0.2000E+01
    -19.580  0.0000E+00  0.2000E+01
    -19.415  0.0000E+00  0.2000E+01
    -19.250  0.0000E+00  0.2000E+01
    -19.085  0.0000E+00  0.2000E+01
    -18.920  0.0000E+00  0.2000E+01
    -18.755  0.0000E+00  0.2000E+01
    -18.590  0.0000E+00  0.2000E+01
    -18.425  0.0000E+00  0.2000E+01
    -18.260  0.0000E+00  0.2000E+01
    -18.095  0.0000E+00  0.2000E+01
    -17.930  0.0000E+00  0.2000E+01
    -17.765  0.0000E+00  0.2000E+01
    -17.600  0.0000E+00  0.2000E+01
    -17.435  0.0000E+00  0.2000E+01
    -17.270  0.0000E+00  0.2000E+01
    -17.105  0.0000E+00  0.2000E+01
    -16.940  0.0000E+00  0.2000E+01
    -16.775  0.0000E+00  0.2000E+01
    -16.610  0.0000E+00  0.2000E+01
    -16.445  0.0000E+00  0.2000E+01
    -16.280  0.0000E+00  0.2000E+01
    -16.115  0.0000E+00  0.2000E+01
    -15.950  0.0000E+00  0.2000E+01
    -15.785  0.0000E+00  0.2000E+01
    -15.620  0.0000E+00  0.2000E+01
    -15.455  0.0000E+00  0.2000E+01
    -15.290  0.0000E+00  0.2000E+01
    -15.125  0.0000E+00  0.2000E+01
    -14.960  0.0000E+00  0.2000E+01
    -14.795  0.0000E+00  0.2000E+01
    -14.630  0.0000E+00  0.2000E+01
    -14.465  0.0000E+00  0.2000E+01
    -14.300  0.0000E+00  0.2000E+01
    -14.135  0.0000E+00  0.2000E+01
    -13.970  0.0000E+00  0.2000E+01
    -13.805  0.0000E+00  0.2000E+01
    -13.640  0.0000E+00  0.2000E+01
    -13.475  0.0000E+00  0.2000E+01
    -13.310  0.0000E+00  0.2000E+01
    -13.145  0.0000E+00  0.2000E+01
    -12.980  0.0000E+00  0.2000E+01
    -12.815  0.0000E+00  0.2000E+01
    -12.650  0.0000E+00  0.2000E+01
    -12.485  0.0000E+00  0.2000E+01
    -12.320  0.0000E+00  0.2000E+01
    -12.155  0.0000E+00  0.2000E+01
    -11.990  0.0000E+00  0.2000E+01
    -11.825  0.0000E+00  0.2000E+01
    -11.660  0.0000E+00  0.2000E+01
    -11.495  0.0000E+00  0.2000E+01
    -11.330  0.0000E+00  0.2000E+01
    -11.165  0.0000E+00  0.2000E+01
    -11.000  0.0000E+00  0.2000E+01
    -10.835  0.0000E+00  0.2000E+01
    -10.670  0.0000E+00  0.2000E+01
    -10.505  0.0000E+00  0.2000E+01
    -10.340  0.0000E+00  0.2000E+01
    -10.175  0.0000E+00  0.2000E+01
    -10.010  0.0000E+00  0.2000E+01
     -9.845  0.0000E+00  0.2000E+01
     -9.680  0.0000E+00  0.2000E+01
     -9.515  0.0000E+00  0.2000E+01
     -9.350  0.0000E+00  0.2000E+01
     -9.185  0.0000E+00  0.2000E+01
     -9.020  0.0000E+00  0.2000E+01
     -8.855  0.0000E+00  0.2000E+01
     -8.690  0.0000E+00  0.2000E+01
     -8.525  0.0000E+00  0.2000E+01
     -8.360  0.0000E+00  0.2000E+01
     -8.195  0.0000E+00  0.2000E+01
     -8.030  0.0000E+00  0.2000E+01
     -7.865  0.0000E+00  0.2000E+01
     -7.700  0.5856E-15  0.2000E+01
     -7.535  0.1806E-03  0.2000E+01
     -7.370  0.2104E+00  0.2035E+01
     -7.205  0.1420E+01  0.2269E+01
     -7.040  0.4084E+01  0.2943E+01
     -6.875  0.3453E+01  0.3513E+01
     -6.710  0.2089E+01  0.3858E+01
     -6.545  0.2116E+01  0.4207E+01
     -6.380  0.2332E+01  0.4591E+01
     -6.215  0.3389E+01  0.5151E+01
     -6.050  0.6664E+01  0.6250E+01
     -5.885  0.6412E+01  0.7308E+01
     -5.720  0.3526E+01  0.7890E+01
     -5.555  0.6648E+00  0.8000E+01
     -5.390  0.1757E-02  0.8000E+01
     -5.225  0.0000E+00  0.8000E+01
     -5.060  0.0000E+00  0.8000E+01
     -4.895  0.0000E+00  0.8000E+01
     -4.730  0.0000E+00  0.8000E+01
     -4.565  0.0000E+00  0.8000E+01
     -4.400  0.0000E+00  0.8000E+01
     -4.235  0.0000E+00  0.8000E+01
     -4.070  0.0000E+00  0.8000E+01
     -3.905  0.0000E+00  0.8000E+01
     -3.740  0.0000E+00  0.8000E+01
     -3.575  0.0000E+00  0.8000E+01
     -3.410  0.0000E+00  0.8000E+01
     -3.245  0.0000E+00  0.8000E+01
     -3.080  0.0000E+00  0.8000E+01
     -2.915  0.0000E+00  0.8000E+01
     -2.750  0.0000E+00  0.8000E+01
     -2.585  0.0000E+00  0.8000E+01
     -2.420  0.0000E+00  0.8000E+01
     -2.255  0.0000E+00  0.8000E+01
     -2.090  0.0000E+00  0.8000E+01
     -1.925  0.0000E+00  0.8000E+01
     -1.760  0.0000E+00  0.8000E+01
     -1.595  0.0000E+00  0.8000E+01
     -1.430  0.0000E+00  0.8000E+01
     -1.265  0.0000E+00  0.8000E+01
     -1.100  0.0000E+00  0.8000E+01
     -0.935  0.0000E+00  0.8000E+01
     -0.770  0.0000E+00  0.8000E+01
     -0.605  0.0000E+00  0.8000E+01
     -0.440  0.0000E+00  0.8000E+01
     -0.275  0.0000E+00  0.8000E+01
     -0.110  0.0000E+00  0.8000E+01
      0.055  0.0000E+00  0.8000E+01
      0.220  0.0000E+00  0.8000E+01
      0.385  0.0000E+00  0.8000E+01
      0.550  0.0000E+00  0.8000E+01
      0.715  0.0000E+00  0.8000E+01
      0.880  0.0000E+00  0.8000E+01
      1.045  0.0000E+00  0.8000E+01
      1.210  0.0000E+00  0.8000E+01
      1.375  0.0000E+00  0.8000E+01
      1.540  0.0000E+00  0.8000E+01
      1.705  0.0000E+00  0.8000E+01
      1.870  0.0000E+00  0.8000E+01
      2.035  0.0000E+00  0.8000E+01
      2.200  0.0000E+00  0.8000E+01
      2.365  0.0000E+00  0.8000E+01
      2.530  0.0000E+00  0.8000E+01
      2.695  0.0000E+00  0.8000E+01
      2.860  0.0000E+00  0.8000E+01
      3.025  0.0000E+00  0.8000E+01
      3.190  0.0000E+00  0.8000E+01
      3.355  0.0000E+00  0.8000E+01
      3.520  0.0000E+00  0.8000E+01
      3.685  0.0000E+00  0.8000E+01
      3.850  0.0000E+00  0.8000E+01
      4.015  0.0000E+00  0.8000E+01
      4.180  0.0000E+00  0.8000E+01
      4.345  0.0000E+00  0.8000E+01
      4.510  0.0000E+00  0.8000E+01
      4.675  0.5825E-06  0.8000E+01
      4.840  0.3699E-01  0.8006E+01
      5.005  0.1912E-01  0.8009E+01
      5.170  0.1074E-07  0.8009E+01
      5.335  0.0000E+00  0.8009E+01
      5.500  0.1686E-04  0.8009E+01
      5.665  0.3413E+00  0.8066E+01
      5.830  0.1203E+00  0.8085E+01
      5.995  0.3234E+00  0.8139E+01
      6.160  0.6507E-03  0.8139E+01
      6.325  0.0000E+00  0.8139E+01
      6.490  0.9598E-13  0.8139E+01
      6.655  0.2838E-02  0.8139E+01
      6.820  0.6564E+00  0.8248E+01
      6.985  0.1418E-01  0.8250E+01
      7.150  0.5738E+00  0.8345E+01
      7.315  0.1408E+01  0.8577E+01
      7.480  0.3186E+00  0.8630E+01
      7.645  0.9944E-01  0.8646E+01
      7.810  0.1184E+01  0.8841E+01
      7.975  0.2955E+00  0.8890E+01
      8.140  0.1395E+01  0.9120E+01
      8.305  0.3249E+01  0.9656E+01
      8.470  0.6281E-01  0.9667E+01
      8.635  0.8426E-03  0.9667E+01
      8.800  0.1029E+01  0.9837E+01
      8.965  0.1159E+01  0.1003E+02
      9.130  0.1041E-02  0.1003E+02
      9.295  0.1278E+01  0.1024E+02
      9.460  0.1531E+01  0.1049E+02
      9.625  0.1746E+01  0.1078E+02
      9.790  0.1180E+01  0.1097E+02
      9.955  0.1921E+01  0.1129E+02
     10.120  0.1721E+01  0.1158E+02
     10.285  0.4247E+00  0.1165E+02
     10.450  0.1928E+01  0.1196E+02
     10.615  0.9005E+00  0.1211E+02
     10.780  0.1232E+01  0.1232E+02
     10.945  0.9865E+00  0.1248E+02
     11.110  0.1314E+01  0.1269E+02
     11.275  0.2184E+01  0.1305E+02
     11.440  0.3112E+01  0.1357E+02
     11.605  0.2026E+00  0.1360E+02
     11.770  0.6691E+00  0.1371E+02
     11.935  0.4529E+00  0.1379E+02
     12.100  0.7610E-01  0.1380E+02
     12.265  0.1008E+01  0.1397E+02
     12.430  0.3417E+00  0.1402E+02
     12.595  0.3375E+01  0.1458E+02
     12.760  0.2851E-01  0.1458E+02
     12.925  0.9211E+00  0.1474E+02
     13.090  0.2557E+01  0.1516E+02
     13.255  0.1186E+01  0.1535E+02
     13.420  0.4521E+00  0.1543E+02
     13.585  0.2615E+01  0.1586E+02
     13.750  0.9734E-02  0.1586E+02
     13.915  0.0000E+00  0.1586E+02
     14.080  0.9512E-08  0.1586E+02
     14.245  0.2121E+00  0.1590E+02
     14.410  0.1570E+01  0.1616E+02
     14.575  0.2097E+01  0.1650E+02
     14.740  0.3856E+00  0.1656E+02
     14.905  0.1204E+01  0.1676E+02
     15.070  0.6278E+00  0.1687E+02
     15.235  0.9807E+00  0.1703E+02
     15.400  0.4922E+00  0.1711E+02
     15.565  0.7352E+00  0.1723E+02
     15.730  0.1328E+00  0.1725E+02
     15.895  0.1461E+01  0.1749E+02
     16.060  0.4045E+01  0.1816E+02
     16.225  0.1790E+01  0.1846E+02
     16.390  0.3145E+00  0.1851E+02
     16.555  0.3443E-04  0.1851E+02
     16.720  0.6882E-04  0.1851E+02
     16.885  0.7450E+00  0.1863E+02
     17.050  0.1888E+01  0.1894E+02
     17.215  0.1405E+01  0.1918E+02
     17.380  0.6529E+00  0.1928E+02
     17.545  0.3116E+01  0.1980E+02
     17.710  0.2159E+01  0.2015E+02
     17.875  0.2054E+00  0.2019E+02
     18.040  0.4434E+00  0.2026E+02
     18.205  0.7588E+00  0.2039E+02
     18.370  0.1160E+01  0.2058E+02
     18.535  0.1132E+01  0.2076E+02
     18.700  0.2463E+01  0.2117E+02
     18.865  0.7434E+00  0.2129E+02
     19.030  0.1124E+01  0.2148E+02
     19.195  0.2629E+01  0.2191E+02
     19.360  0.1034E+01  0.2208E+02
     19.525  0.1069E+01  0.2226E+02
     19.690  0.4955E+00  0.2234E+02
     19.855  0.6645E+00  0.2245E+02
     20.020  0.1278E+01  0.2266E+02
     20.185  0.4514E+00  0.2274E+02
     20.350  0.5880E+00  0.2283E+02
     20.515  0.3109E+00  0.2288E+02
     20.680  0.5910E+00  0.2298E+02
     20.845  0.1077E+01  0.2316E+02
     21.010  0.1235E+01  0.2336E+02
     21.175  0.1305E+01  0.2358E+02
     21.340  0.2940E+00  0.2363E+02
     21.505  0.3508E+00  0.2369E+02
     21.670  0.1709E+00  0.2371E+02
     21.835  0.1550E+00  0.2374E+02
     22.000  0.3132E+00  0.2379E+02
     22.165  0.3796E+00  0.2385E+02
     22.330  0.2419E+00  0.2389E+02
     22.495  0.3689E+00  0.2395E+02
     22.660  0.1914E+00  0.2399E+02
     22.825  0.5987E-01  0.2400E+02
     22.990  0.1259E-02  0.2400E+02
     23.155  0.2676E-01  0.2400E+02
     23.320  0.4180E-04  0.2400E+02
     23.485  0.0000E+00  0.2400E+02
     23.650  0.0000E+00  0.2400E+02
     23.815  0.0000E+00  0.2400E+02
     23.980  0.0000E+00  0.2400E+02
     24.145  0.0000E+00  0.2400E+02
     24.310  0.0000E+00  0.2400E+02
     24.475  0.0000E+00  0.2400E+02
     24.640  0.0000E+00  0.2400E+02
     24.805  0.0000E+00  0.2400E+02
     24.970  0.0000E+00  0.2400E+02
     25.135  0.0000E+00  0.2400E+02
     25.300  0.0000E+00  0.2400E+02
