    1    1    1    1
  0.3298244E+02  0.3599697E-09  0.3599697E-09  0.3599697E-09  0.1000000E-15
  1.000000000000000E-004
  CAR 
 Og_FCC                                  
      8    216     24
 
  0.0000000E+00  0.0000000E+00  0.0000000E+00  0.4629630E-02
    1      -21.950093   1.000000
    2      -21.949976   1.000000
    3       -5.836295   1.000000
    4       -5.836262   1.000000
    5       -5.631827   1.000000
    6       -5.631793   1.000000
    7       -5.631760   1.000000
    8       -5.631728   1.000000
    9        4.825627   0.000000
   10        4.825631   0.000000
   11       12.256956   0.000000
   12       12.256971   0.000000
   13       12.256981   0.000000
   14       12.256982   0.000000
   15       12.258515   0.000000
   16       12.258524   0.000000
   17       14.901658   0.000000
   18       14.901658   0.000000
   19       14.901667   0.000000
   20       14.901667   0.000000
   21       17.432534   0.000000
   22       17.432552   0.000000
   23       20.582503   0.000000
   24       20.588875   0.000000
 
  0.1666667E+00  0.1890198E-17 -0.2775558E-16  0.4629630E-02
    1      -21.875794   1.000000
    2      -21.875675   1.000000
    3       -6.200147   1.000000
    4       -6.200065   1.000000
    5       -5.793955   1.000000
    6       -5.793950   1.000000
    7       -5.680535   1.000000
    8       -5.680534   1.000000
    9        5.640126   0.000000
   10        5.640140   0.000000
   11       11.268963   0.000000
   12       11.268986   0.000000
   13       12.515453   0.000000
   14       12.515454   0.000000
   15       12.516349   0.000000
   16       12.516349   0.000000
   17       14.444644   0.000000
   18       14.444644   0.000000
   19       14.446129   0.000000
   20       14.446130   0.000000
   21       18.203800   0.000000
   22       18.203800   0.000000
   23       19.751908   0.000000
   24       19.752100   0.000000
 
  0.3333333E+00  0.3780395E-17 -0.2775558E-16  0.4629630E-02
    1      -21.724049   1.000000
    2      -21.723924   1.000000
    3       -7.038360   1.000000
    4       -7.038300   1.000000
    5       -5.905271   1.000000
    6       -5.905270   1.000000
    7       -5.777866   1.000000
    8       -5.777864   1.000000
    9        7.129848   0.000000
   10        7.129852   0.000000
   11       10.366269   0.000000
   12       10.366290   0.000000
   13       12.148149   0.000000
   14       12.148149   0.000000
   15       12.149441   0.000000
   16       12.149441   0.000000
   17       15.430368   0.000000
   18       15.430368   0.000000
   19       15.434202   0.000000
   20       15.434202   0.000000
   21       16.900662   0.000000
   22       16.900687   0.000000
   23       21.467601   0.000000
   24       22.491194   0.000000
 
  0.5000000E+00  0.5670593E-17 -0.8326673E-16  0.4629630E-02
    1      -21.643995   1.000000
    2      -21.643867   1.000000
    3       -7.423471   1.000000
    4       -7.423423   1.000000
    5       -5.953603   1.000000
    6       -5.953601   1.000000
    7       -5.825140   1.000000
    8       -5.825139   1.000000
    9        7.650378   0.000000
   10        7.650407   0.000000
   11       10.420837   0.000000
   12       10.420918   0.000000
   13       11.806052   0.000000
   14       11.806052   0.000000
   15       11.807420   0.000000
   16       11.807420   0.000000
   17       16.846044   0.000000
   18       16.847339   0.000000
   19       16.848409   0.000000
   20       16.855977   0.000000
   21       16.950125   0.000000
   22       16.951165   0.000000
   23       19.354363   0.000000
   24       21.424453   0.000000
 
 -0.3333333E+00 -0.3780395E-17  0.2775558E-16  0.4629630E-02
    1      -21.724049   1.000000
    2      -21.723925   1.000000
    3       -7.038360   1.000000
    4       -7.038300   1.000000
    5       -5.905271   1.000000
    6       -5.905270   1.000000
    7       -5.777866   1.000000
    8       -5.777864   1.000000
    9        7.129848   0.000000
   10        7.129852   0.000000
   11       10.366269   0.000000
   12       10.366290   0.000000
   13       12.148149   0.000000
   14       12.148149   0.000000
   15       12.149441   0.000000
   16       12.149442   0.000000
   17       15.430367   0.000000
   18       15.430368   0.000000
   19       15.434202   0.000000
   20       15.434204   0.000000
   21       16.900662   0.000000
   22       16.900687   0.000000
   23       21.475079   0.000000
   24       21.632298   0.000000
 
 -0.1666667E+00 -0.1890198E-17  0.2775558E-16  0.4629630E-02
    1      -21.875794   1.000000
    2      -21.875674   1.000000
    3       -6.200147   1.000000
    4       -6.200065   1.000000
    5       -5.793955   1.000000
    6       -5.793950   1.000000
    7       -5.680535   1.000000
    8       -5.680534   1.000000
    9        5.640126   0.000000
   10        5.640140   0.000000
   11       11.268963   0.000000
   12       11.268986   0.000000
   13       12.515453   0.000000
   14       12.515454   0.000000
   15       12.516349   0.000000
   16       12.516349   0.000000
   17       14.444643   0.000000
   18       14.444643   0.000000
   19       14.446130   0.000000
   20       14.446131   0.000000
   21       18.203793   0.000000
   22       18.203808   0.000000
   23       19.751907   0.000000
   24       19.753844   0.000000
 
  0.3851860E-33  0.1666667E+00 -0.1387779E-16  0.4629630E-02
    1      -21.875795   1.000000
    2      -21.875674   1.000000
    3       -6.200146   1.000000
    4       -6.200065   1.000000
    5       -5.793969   1.000000
    6       -5.793937   1.000000
    7       -5.680552   1.000000
    8       -5.680517   1.000000
    9        5.640126   0.000000
   10        5.640140   0.000000
   11       11.268963   0.000000
   12       11.268986   0.000000
   13       12.515446   0.000000
   14       12.515458   0.000000
   15       12.516344   0.000000
   16       12.516356   0.000000
   17       14.444640   0.000000
   18       14.444645   0.000000
   19       14.446128   0.000000
   20       14.446133   0.000000
   21       18.203801   0.000000
   22       18.203802   0.000000
   23       19.751909   0.000000
   24       19.826697   0.000000
 
  0.1666667E+00  0.1666667E+00 -0.6938894E-16  0.4629630E-02
    1      -21.851254   1.000000
    2      -21.851133   1.000000
    3       -6.195122   1.000000
    4       -6.195043   1.000000
    5       -5.882100   1.000000
    6       -5.882074   1.000000
    7       -5.778156   1.000000
    8       -5.778127   1.000000
    9        5.892998   0.000000
   10        5.893017   0.000000
   11       10.904020   0.000000
   12       10.904052   0.000000
   13       12.847035   0.000000
   14       12.847041   0.000000
   15       12.853318   0.000000
   16       12.853324   0.000000
   17       12.900566   0.000000
   18       12.900581   0.000000
   19       15.307019   0.000000
   20       15.307026   0.000000
   21       19.875887   0.000000
   22       19.900546   0.000000
   23       20.267850   0.000000
   24       20.354530   0.000000
 
  0.3333333E+00  0.1666667E+00 -0.5551115E-16  0.4629630E-02
    1      -21.725380   1.000000
    2      -21.725254   1.000000
    3       -6.796778   1.000000
    4       -6.796711   1.000000
    5       -6.027597   1.000000
    6       -6.027580   1.000000
    7       -5.905612   1.000000
    8       -5.905597   1.000000
    9        7.181752   0.000000
   10        7.181776   0.000000
   11       10.100342   0.000000
   12       10.100362   0.000000
   13       11.401685   0.000000
   14       11.401702   0.000000
   15       13.014082   0.000000
   16       13.014097   0.000000
   17       14.280742   0.000000
   18       14.280746   0.000000
   19       16.029627   0.000000
   20       16.029627   0.000000
   21       19.011463   0.000000
   22       19.017171   0.000000
   23       22.461880   0.000000
   24       22.676401   0.000000
 
  0.5000000E+00  0.1666667E+00 -0.1387779E-15  0.4629630E-02
    1      -21.620095   1.000000
    2      -21.619966   1.000000
    3       -7.249703   1.000000
    4       -7.249649   1.000000
    5       -6.179982   1.000000
    6       -6.179910   1.000000
    7       -5.966142   1.000000
    8       -5.966068   1.000000
    9        8.242558   0.000000
   10        8.242570   0.000000
   11        9.664107   0.000000
   12        9.664142   0.000000
   13       11.219064   0.000000
   14       11.219072   0.000000
   15       12.512725   0.000000
   16       12.512743   0.000000
   17       16.155207   0.000000
   18       16.155279   0.000000
   19       16.930222   0.000000
   20       16.935369   0.000000
   21       18.622125   0.000000
   22       18.644612   0.000000
   23       19.180318   0.000000
   24       19.193178   0.000000
 
 -0.3333333E+00  0.1666667E+00 -0.6938894E-17  0.4629630E-02
    1      -21.646511   1.000000
    2      -21.646382   1.000000
    3       -7.130652   1.000000
    4       -7.130595   1.000000
    5       -6.231542   1.000000
    6       -6.231463   1.000000
    7       -5.879392   1.000000
    8       -5.879303   1.000000
    9        8.137307   0.000000
   10        8.137311   0.000000
   11        9.959969   0.000000
   12        9.959996   0.000000
   13       11.001398   0.000000
   14       11.001414   0.000000
   15       12.470489   0.000000
   16       12.470510   0.000000
   17       15.091129   0.000000
   18       15.091137   0.000000
   19       17.396672   0.000000
   20       17.398940   0.000000
   21       18.614619   0.000000
   22       18.624902   0.000000
   23       19.487685   0.000000
   24       19.491301   0.000000
 
 -0.1666667E+00  0.1666667E+00  0.2128544E-16  0.4629630E-02
    1      -21.775445   1.000000
    2      -21.775322   1.000000
    3       -6.610319   1.000000
    4       -6.610247   1.000000
    5       -6.032443   1.000000
    6       -6.032359   1.000000
    7       -5.753105   1.000000
    8       -5.753018   1.000000
    9        6.748287   0.000000
   10        6.748296   0.000000
   11       10.591085   0.000000
   12       10.591108   0.000000
   13       11.726169   0.000000
   14       11.726179   0.000000
   15       13.171413   0.000000
   16       13.171430   0.000000
   17       13.260566   0.000000
   18       13.260588   0.000000
   19       15.767117   0.000000
   20       15.767118   0.000000
   21       19.134818   0.000000
   22       19.165172   0.000000
   23       20.680541   0.000000
   24       21.187939   0.000000
 
  0.7703720E-33  0.3333333E+00  0.0000000E+00  0.4629630E-02
    1      -21.724049   1.000000
    2      -21.723924   1.000000
    3       -7.038359   1.000000
    4       -7.038300   1.000000
    5       -5.905288   1.000000
    6       -5.905254   1.000000
    7       -5.777882   1.000000
    8       -5.777848   1.000000
    9        7.129848   0.000000
   10        7.129852   0.000000
   11       10.366269   0.000000
   12       10.366290   0.000000
   13       12.148143   0.000000
   14       12.148153   0.000000
   15       12.149437   0.000000
   16       12.149447   0.000000
   17       15.430367   0.000000
   18       15.430369   0.000000
   19       15.434200   0.000000
   20       15.434203   0.000000
   21       16.900663   0.000000
   22       16.900686   0.000000
   23       21.417563   0.000000
   24       21.821317   0.000000
 
  0.1666667E+00  0.3333333E+00 -0.2775558E-16  0.4629630E-02
    1      -21.725379   1.000000
    2      -21.725254   1.000000
    3       -6.796777   1.000000
    4       -6.796711   1.000000
    5       -6.027607   1.000000
    6       -6.027571   1.000000
    7       -5.905622   1.000000
    8       -5.905587   1.000000
    9        7.181752   0.000000
   10        7.181776   0.000000
   11       10.100341   0.000000
   12       10.100362   0.000000
   13       11.401685   0.000000
   14       11.401702   0.000000
   15       13.014081   0.000000
   16       13.014096   0.000000
   17       14.280758   0.000000
   18       14.280762   0.000000
   19       16.029627   0.000000
   20       16.029628   0.000000
   21       19.010841   0.000000
   22       19.019857   0.000000
   23       22.036445   0.000000
   24       22.447469   0.000000
 
  0.3333333E+00  0.3333333E+00 -0.2775558E-16  0.4629630E-02
    1      -21.651070   1.000000
    2      -21.650943   1.000000
    3       -6.944820   1.000000
    4       -6.944758   1.000000
    5       -6.184801   1.000000
    6       -6.184775   1.000000
    7       -6.066013   1.000000
    8       -6.065987   1.000000
    9        7.370849   0.000000
   10        7.370870   0.000000
   11        9.347204   0.000000
   12        9.347241   0.000000
   13       11.354253   0.000000
   14       11.354274   0.000000
   15       14.573393   0.000000
   16       14.573409   0.000000
   17       14.590217   0.000000
   18       14.590285   0.000000
   19       16.258885   0.000000
   20       16.258887   0.000000
   21       20.667131   0.000000
   22       20.693219   0.000000
   23       20.728233   0.000000
   24       21.709135   0.000000
 
  0.5000000E+00  0.3333333E+00 -0.1665335E-15  0.4629630E-02
    1      -21.571689   1.000000
    2      -21.571558   1.000000
    3       -7.122094   1.000000
    4       -7.122038   1.000000
    5       -6.411701   1.000000
    6       -6.411630   1.000000
    7       -6.157968   1.000000
    8       -6.157892   1.000000
    9        7.782126   0.000000
   10        7.782137   0.000000
   11        9.242972   0.000000
   12        9.242999   0.000000
   13       11.358341   0.000000
   14       11.358362   0.000000
   15       14.437895   0.000000
   16       14.437897   0.000000
   17       16.016154   0.000000
   18       16.016415   0.000000
   19       17.159862   0.000000
   20       17.197739   0.000000
   21       18.432908   0.000000
   22       18.479668   0.000000
   23       19.932943   0.000000
   24       20.929450   0.000000
 
 -0.3333333E+00  0.3333333E+00  0.2028582E-16  0.4629630E-02
    1      -21.570912   1.000000
    2      -21.570782   1.000000
    3       -6.911100   1.000000
    4       -6.911040   1.000000
    5       -6.781911   1.000000
    6       -6.781850   1.000000
    7       -6.052600   1.000000
    8       -6.052513   1.000000
    9        8.742082   0.000000
   10        8.742093   0.000000
   11        9.391480   0.000000
   12        9.391482   0.000000
   13       10.828639   0.000000
   14       10.828646   0.000000
   15       13.487068   0.000000
   16       13.487071   0.000000
   17       15.788764   0.000000
   18       15.788794   0.000000
   19       15.992825   0.000000
   20       15.992833   0.000000
   21       19.969843   0.000000
   22       20.043730   0.000000
   23       20.727465   0.000000
   24       21.878136   0.000000
 
 -0.1666667E+00  0.3333333E+00  0.1387779E-16  0.4629630E-02
    1      -21.646510   1.000000
    2      -21.646382   1.000000
    3       -7.130651   1.000000
    4       -7.130595   1.000000
    5       -6.231543   1.000000
    6       -6.231462   1.000000
    7       -5.879391   1.000000
    8       -5.879303   1.000000
    9        8.137306   0.000000
   10        8.137311   0.000000
   11        9.959969   0.000000
   12        9.959996   0.000000
   13       11.001399   0.000000
   14       11.001414   0.000000
   15       12.470489   0.000000
   16       12.470510   0.000000
   17       15.091129   0.000000
   18       15.091138   0.000000
   19       17.396281   0.000000
   20       17.401803   0.000000
   21       18.612992   0.000000
   22       18.622446   0.000000
   23       19.492978   0.000000
   24       19.514004   0.000000
 
  0.2311116E-32  0.5000000E+00 -0.2775558E-16  0.4629630E-02
    1      -21.643995   1.000000
    2      -21.643866   1.000000
    3       -7.423471   1.000000
    4       -7.423423   1.000000
    5       -5.953619   1.000000
    6       -5.953585   1.000000
    7       -5.825156   1.000000
    8       -5.825123   1.000000
    9        7.650377   0.000000
   10        7.650407   0.000000
   11       10.420838   0.000000
   12       10.420918   0.000000
   13       11.806046   0.000000
   14       11.806057   0.000000
   15       11.807415   0.000000
   16       11.807425   0.000000
   17       16.845972   0.000000
   18       16.845974   0.000000
   19       16.848384   0.000000
   20       16.848386   0.000000
   21       16.950112   0.000000
   22       16.950122   0.000000
   23       19.325683   0.000000
   24       19.480556   0.000000
 
  0.1666667E+00  0.5000000E+00  0.0000000E+00  0.4629630E-02
    1      -21.620095   1.000000
    2      -21.619966   1.000000
    3       -7.249703   1.000000
    4       -7.249649   1.000000
    5       -6.179983   1.000000
    6       -6.179909   1.000000
    7       -5.966143   1.000000
    8       -5.966067   1.000000
    9        8.242558   0.000000
   10        8.242570   0.000000
   11        9.664107   0.000000
   12        9.664142   0.000000
   13       11.219064   0.000000
   14       11.219072   0.000000
   15       12.512726   0.000000
   16       12.512743   0.000000
   17       16.155206   0.000000
   18       16.155729   0.000000
   19       16.930520   0.000000
   20       16.991503   0.000000
   21       18.627227   0.000000
   22       18.750995   0.000000
   23       19.180221   0.000000
   24       19.310950   0.000000
 
  0.3333333E+00  0.5000000E+00  0.0000000E+00  0.4629630E-02
    1      -21.571689   1.000000
    2      -21.571558   1.000000
    3       -7.122094   1.000000
    4       -7.122038   1.000000
    5       -6.411701   1.000000
    6       -6.411630   1.000000
    7       -6.157968   1.000000
    8       -6.157891   1.000000
    9        7.782126   0.000000
   10        7.782137   0.000000
   11        9.242972   0.000000
   12        9.242999   0.000000
   13       11.358340   0.000000
   14       11.358364   0.000000
   15       14.437896   0.000000
   16       14.437897   0.000000
   17       16.016150   0.000000
   18       16.016429   0.000000
   19       17.159656   0.000000
   20       17.197275   0.000000
   21       18.433514   0.000000
   22       18.455330   0.000000
   23       19.871536   0.000000
   24       20.024441   0.000000
 
  0.5000000E+00  0.5000000E+00 -0.2220446E-15  0.4629630E-02
    1      -21.546327   1.000000
    2      -21.546195   1.000000
    3       -7.267242   1.000000
    4       -7.267188   1.000000
    5       -6.322588   1.000000
    6       -6.322563   1.000000
    7       -6.203793   1.000000
    8       -6.203768   1.000000
    9        7.231241   0.000000
   10        7.231243   0.000000
   11        8.781634   0.000000
   12        8.781673   0.000000
   13       12.263106   0.000000
   14       12.263148   0.000000
   15       16.867922   0.000000
   16       16.873753   0.000000
   17       17.170131   0.000000
   18       17.172550   0.000000
   19       17.216391   0.000000
   20       17.239245   0.000000
   21       17.478879   0.000000
   22       17.481654   0.000000
   23       17.485145   0.000000
   24       17.761128   0.000000
 
 -0.3333333E+00  0.5000000E+00 -0.2775558E-16  0.4629630E-02
    1      -21.571689   1.000000
    2      -21.571558   1.000000
    3       -7.122094   1.000000
    4       -7.122038   1.000000
    5       -6.411701   1.000000
    6       -6.411630   1.000000
    7       -6.157968   1.000000
    8       -6.157891   1.000000
    9        7.782126   0.000000
   10        7.782137   0.000000
   11        9.242972   0.000000
   12        9.242999   0.000000
   13       11.358340   0.000000
   14       11.358364   0.000000
   15       14.437895   0.000000
   16       14.437897   0.000000
   17       16.016152   0.000000
   18       16.016286   0.000000
   19       17.159824   0.000000
   20       17.163907   0.000000
   21       18.439385   0.000000
   22       18.459283   0.000000
   23       19.873058   0.000000
   24       20.144301   0.000000
 
 -0.1666667E+00  0.5000000E+00 -0.2775558E-16  0.4629630E-02
    1      -21.620095   1.000000
    2      -21.619966   1.000000
    3       -7.249703   1.000000
    4       -7.249649   1.000000
    5       -6.179982   1.000000
    6       -6.179909   1.000000
    7       -5.966143   1.000000
    8       -5.966067   1.000000
    9        8.242558   0.000000
   10        8.242570   0.000000
   11        9.664107   0.000000
   12        9.664143   0.000000
   13       11.219064   0.000000
   14       11.219072   0.000000
   15       12.512725   0.000000
   16       12.512743   0.000000
   17       16.155206   0.000000
   18       16.155217   0.000000
   19       16.932244   0.000000
   20       16.943149   0.000000
   21       18.621432   0.000000
   22       18.688581   0.000000
   23       19.181424   0.000000
   24       19.305103   0.000000
 
 -0.7703720E-33 -0.3333333E+00  0.0000000E+00  0.4629630E-02
    1      -21.724049   1.000000
    2      -21.723924   1.000000
    3       -7.038359   1.000000
    4       -7.038300   1.000000
    5       -5.905288   1.000000
    6       -5.905254   1.000000
    7       -5.777882   1.000000
    8       -5.777848   1.000000
    9        7.129848   0.000000
   10        7.129852   0.000000
   11       10.366269   0.000000
   12       10.366290   0.000000
   13       12.148143   0.000000
   14       12.148153   0.000000
   15       12.149437   0.000000
   16       12.149447   0.000000
   17       15.430367   0.000000
   18       15.430368   0.000000
   19       15.434201   0.000000
   20       15.434203   0.000000
   21       16.900663   0.000000
   22       16.900687   0.000000
   23       21.587870   0.000000
   24       22.282606   0.000000
 
  0.1666667E+00 -0.3333333E+00 -0.1387779E-16  0.4629630E-02
    1      -21.646510   1.000000
    2      -21.646383   1.000000
    3       -7.130651   1.000000
    4       -7.130595   1.000000
    5       -6.231543   1.000000
    6       -6.231463   1.000000
    7       -5.879392   1.000000
    8       -5.879303   1.000000
    9        8.137306   0.000000
   10        8.137311   0.000000
   11        9.959969   0.000000
   12        9.959996   0.000000
   13       11.001404   0.000000
   14       11.001414   0.000000
   15       12.470489   0.000000
   16       12.470510   0.000000
   17       15.091130   0.000000
   18       15.091137   0.000000
   19       17.396280   0.000000
   20       17.402960   0.000000
   21       18.614109   0.000000
   22       18.620213   0.000000
   23       19.483950   0.000000
   24       19.512921   0.000000
 
  0.3333333E+00 -0.3333333E+00 -0.2028582E-16  0.4629630E-02
    1      -21.570912   1.000000
    2      -21.570782   1.000000
    3       -6.911099   1.000000
    4       -6.911039   1.000000
    5       -6.781911   1.000000
    6       -6.781851   1.000000
    7       -6.052600   1.000000
    8       -6.052513   1.000000
    9        8.742082   0.000000
   10        8.742093   0.000000
   11        9.391480   0.000000
   12        9.391482   0.000000
   13       10.828639   0.000000
   14       10.828648   0.000000
   15       13.487069   0.000000
   16       13.487075   0.000000
   17       15.788762   0.000000
   18       15.788765   0.000000
   19       15.992826   0.000000
   20       15.992837   0.000000
   21       20.068271   0.000000
   22       20.118128   0.000000
   23       20.467672   0.000000
   24       20.844123   0.000000
 
  0.5000000E+00 -0.3333333E+00 -0.6938894E-16  0.4629630E-02
    1      -21.571689   1.000000
    2      -21.571558   1.000000
    3       -7.122095   1.000000
    4       -7.122038   1.000000
    5       -6.411701   1.000000
    6       -6.411630   1.000000
    7       -6.157968   1.000000
    8       -6.157892   1.000000
    9        7.782126   0.000000
   10        7.782137   0.000000
   11        9.242972   0.000000
   12        9.242999   0.000000
   13       11.358341   0.000000
   14       11.358363   0.000000
   15       14.437895   0.000000
   16       14.437897   0.000000
   17       16.016152   0.000000
   18       16.016224   0.000000
   19       17.162113   0.000000
   20       17.208214   0.000000
   21       18.435676   0.000000
   22       18.516199   0.000000
   23       19.883369   0.000000
   24       20.636027   0.000000
 
 -0.3333333E+00 -0.3333333E+00  0.2775558E-16  0.4629630E-02
    1      -21.651070   1.000000
    2      -21.650943   1.000000
    3       -6.944820   1.000000
    4       -6.944758   1.000000
    5       -6.184801   1.000000
    6       -6.184775   1.000000
    7       -6.066013   1.000000
    8       -6.065987   1.000000
    9        7.370849   0.000000
   10        7.370870   0.000000
   11        9.347204   0.000000
   12        9.347241   0.000000
   13       11.354253   0.000000
   14       11.354266   0.000000
   15       14.573397   0.000000
   16       14.573414   0.000000
   17       14.590243   0.000000
   18       14.590274   0.000000
   19       16.258885   0.000000
   20       16.259550   0.000000
   21       20.666195   0.000000
   22       20.684606   0.000000
   23       20.842401   0.000000
   24       21.783030   0.000000
 
 -0.1666667E+00 -0.3333333E+00  0.2775558E-16  0.4629630E-02
    1      -21.725379   1.000000
    2      -21.725254   1.000000
    3       -6.796777   1.000000
    4       -6.796711   1.000000
    5       -6.027607   1.000000
    6       -6.027571   1.000000
    7       -5.905622   1.000000
    8       -5.905587   1.000000
    9        7.181752   0.000000
   10        7.181776   0.000000
   11       10.100342   0.000000
   12       10.100362   0.000000
   13       11.401685   0.000000
   14       11.401702   0.000000
   15       13.014081   0.000000
   16       13.014097   0.000000
   17       14.280742   0.000000
   18       14.280747   0.000000
   19       16.029627   0.000000
   20       16.029627   0.000000
   21       19.011437   0.000000
   22       19.011983   0.000000
   23       22.041786   0.000000
   24       22.414770   0.000000
 
 -0.3851860E-33 -0.1666667E+00  0.1387779E-16  0.4629630E-02
    1      -21.875794   1.000000
    2      -21.875674   1.000000
    3       -6.200146   1.000000
    4       -6.200065   1.000000
    5       -5.793969   1.000000
    6       -5.793937   1.000000
    7       -5.680552   1.000000
    8       -5.680517   1.000000
    9        5.640126   0.000000
   10        5.640140   0.000000
   11       11.268963   0.000000
   12       11.268986   0.000000
   13       12.515446   0.000000
   14       12.515458   0.000000
   15       12.516344   0.000000
   16       12.516356   0.000000
   17       14.444640   0.000000
   18       14.444646   0.000000
   19       14.446128   0.000000
   20       14.446133   0.000000
   21       18.203799   0.000000
   22       18.203806   0.000000
   23       19.751908   0.000000
   24       19.830203   0.000000
 
  0.1666667E+00 -0.1666667E+00 -0.1408695E-16  0.4629630E-02
    1      -21.775445   1.000000
    2      -21.775322   1.000000
    3       -6.610319   1.000000
    4       -6.610247   1.000000
    5       -6.032443   1.000000
    6       -6.032359   1.000000
    7       -5.753105   1.000000
    8       -5.753018   1.000000
    9        6.748286   0.000000
   10        6.748297   0.000000
   11       10.591085   0.000000
   12       10.591108   0.000000
   13       11.726169   0.000000
   14       11.726179   0.000000
   15       13.171413   0.000000
   16       13.171430   0.000000
   17       13.260566   0.000000
   18       13.260588   0.000000
   19       15.767117   0.000000
   20       15.767117   0.000000
   21       19.135573   0.000000
   22       19.143109   0.000000
   23       20.665006   0.000000
   24       20.724604   0.000000
 
  0.3333333E+00 -0.1666667E+00 -0.3469447E-16  0.4629630E-02
    1      -21.646510   1.000000
    2      -21.646382   1.000000
    3       -7.130652   1.000000
    4       -7.130595   1.000000
    5       -6.231542   1.000000
    6       -6.231463   1.000000
    7       -5.879392   1.000000
    8       -5.879303   1.000000
    9        8.137307   0.000000
   10        8.137311   0.000000
   11        9.959969   0.000000
   12        9.959996   0.000000
   13       11.001399   0.000000
   14       11.001414   0.000000
   15       12.470489   0.000000
   16       12.470510   0.000000
   17       15.091130   0.000000
   18       15.091137   0.000000
   19       17.396280   0.000000
   20       17.399951   0.000000
   21       18.613675   0.000000
   22       18.641363   0.000000
   23       19.488309   0.000000
   24       19.583036   0.000000
 
  0.5000000E+00 -0.1666667E+00 -0.5551115E-16  0.4629630E-02
    1      -21.620095   1.000000
    2      -21.619966   1.000000
    3       -7.249703   1.000000
    4       -7.249649   1.000000
    5       -6.179982   1.000000
    6       -6.179910   1.000000
    7       -5.966142   1.000000
    8       -5.966068   1.000000
    9        8.242558   0.000000
   10        8.242570   0.000000
   11        9.664107   0.000000
   12        9.664143   0.000000
   13       11.219064   0.000000
   14       11.219072   0.000000
   15       12.512725   0.000000
   16       12.512744   0.000000
   17       16.155207   0.000000
   18       16.157715   0.000000
   19       16.930216   0.000000
   20       16.966337   0.000000
   21       18.620264   0.000000
   22       18.719777   0.000000
   23       19.172757   0.000000
   24       19.838712   0.000000
 
 -0.3333333E+00 -0.1666667E+00  0.5551115E-16  0.4629630E-02
    1      -21.725379   1.000000
    2      -21.725254   1.000000
    3       -6.796778   1.000000
    4       -6.796711   1.000000
    5       -6.027597   1.000000
    6       -6.027581   1.000000
    7       -5.905612   1.000000
    8       -5.905597   1.000000
    9        7.181752   0.000000
   10        7.181776   0.000000
   11       10.100341   0.000000
   12       10.100362   0.000000
   13       11.401685   0.000000
   14       11.401702   0.000000
   15       13.014082   0.000000
   16       13.014097   0.000000
   17       14.280747   0.000000
   18       14.280749   0.000000
   19       16.029627   0.000000
   20       16.029627   0.000000