    1    1    1    1
  0.3721384E+02  0.3747484E-09  0.3747484E-09  0.3747484E-09  0.1000000E-15
  1.000000000000000E-004
  CAR 
 Og_FCC                                  
      8    216     18
 
  0.0000000E+00  0.0000000E+00  0.0000000E+00  0.4629630E-02
    1      -22.448597   1.000000
    2      -22.448532   1.000000
    3       -6.592309   1.000000
    4       -6.592290   1.000000
    5       -6.391424   1.000000
    6       -6.391405   1.000000
    7       -6.391387   1.000000
    8       -6.391369   1.000000
    9        3.901194   0.000000
   10        3.901211   0.000000
   11       11.364303   0.000000
   12       11.364309   0.000000
   13       11.364661   0.000000
   14       11.365071   0.000000
   15       11.365291   0.000000
   16       11.365304   0.000000
   17       13.824498   0.000000
   18       13.824499   0.000000
 
  0.1666667E+00  0.1576799E-16  0.2775558E-16  0.4629630E-02
    1      -22.397666   1.000000
    2      -22.397600   1.000000
    3       -6.851414   1.000000
    4       -6.851369   1.000000
    5       -6.532472   1.000000
    6       -6.532468   1.000000
    7       -6.428060   1.000000
    8       -6.428059   1.000000
    9        4.624185   0.000000
   10        4.624207   0.000000
   11       10.383826   0.000000
   12       10.383932   0.000000
   13       11.598138   0.000000
   14       11.598479   0.000000
   15       11.599376   0.000000
   16       11.603125   0.000000
   17       13.388179   0.000000
   18       13.388675   0.000000
 
  0.3333333E+00  0.3153597E-16  0.5551115E-16  0.4629630E-02
    1      -22.294650   1.000000
    2      -22.294582   1.000000
    3       -7.488847   1.000000
    4       -7.488812   1.000000
    5       -6.627753   1.000000
    6       -6.627753   1.000000
    7       -6.504545   1.000000
    8       -6.504545   1.000000
    9        6.096424   0.000000
   10        6.096443   0.000000
   11        9.291104   0.000000
   12        9.291357   0.000000
   13       11.254298   0.000000
   14       11.254570   0.000000
   15       11.254987   0.000000
   16       11.255270   0.000000
   17       14.290662   0.000000
   18       14.394441   0.000000
 
  0.5000000E+00  0.6118174E-16  0.2775558E-16  0.4629630E-02
    1      -22.240997   1.000000
    2      -22.240927   1.000000
    3       -7.787351   1.000000
    4       -7.787320   1.000000
    5       -6.666275   1.000000
    6       -6.666274   1.000000
    7       -6.541365   1.000000
    8       -6.541364   1.000000
    9        6.811605   0.000000
   10        6.811614   0.000000
   11        9.018234   0.000000
   12        9.018300   0.000000
   13       10.942048   0.000000
   14       10.942049   0.000000
   15       10.943097   0.000000
   16       10.943106   0.000000
   17       15.556858   0.000000
   18       15.652230   0.000000
 
 -0.3333333E+00 -0.3153597E-16 -0.5551115E-16  0.4629630E-02
    1      -22.294650   1.000000
    2      -22.294582   1.000000
    3       -7.488847   1.000000
    4       -7.488812   1.000000
    5       -6.627753   1.000000
    6       -6.627753   1.000000
    7       -6.504545   1.000000
    8       -6.504545   1.000000
    9        6.096425   0.000000
   10        6.096442   0.000000
   11        9.291071   0.000000
   12        9.291084   0.000000
   13       11.254307   0.000000
   14       11.254612   0.000000
   15       11.254941   0.000000
   16       11.255227   0.000000
   17       14.289725   0.000000
   18       14.459543   0.000000
 
 -0.1666667E+00 -0.1576799E-16 -0.2775558E-16  0.4629630E-02
    1      -22.397666   1.000000
    2      -22.397599   1.000000
    3       -6.851413   1.000000
    4       -6.851368   1.000000
    5       -6.532472   1.000000
    6       -6.532468   1.000000
    7       -6.428060   1.000000
    8       -6.428059   1.000000
    9        4.624185   0.000000
   10        4.624207   0.000000
   11       10.383825   0.000000
   12       10.383904   0.000000
   13       11.598176   0.000000
   14       11.598391   0.000000
   15       11.598736   0.000000
   16       11.599201   0.000000
   17       13.387992   0.000000
   18       13.389141   0.000000
 
  0.0000000E+00  0.1666667E+00  0.1387779E-16  0.4629630E-02
    1      -22.397666   1.000000
    2      -22.397599   1.000000
    3       -6.851413   1.000000
    4       -6.851369   1.000000
    5       -6.532478   1.000000
    6       -6.532461   1.000000
    7       -6.428069   1.000000
    8       -6.428049   1.000000
    9        4.624185   0.000000
   10        4.624207   0.000000
   11       10.383828   0.000000
   12       10.383841   0.000000
   13       11.598012   0.000000
   14       11.598342   0.000000
   15       11.599523   0.000000
   16       11.600228   0.000000
   17       13.388077   0.000000
   18       13.389057   0.000000
 
  0.1666667E+00  0.1666667E+00  0.4163336E-16  0.4629630E-02
    1      -22.380894   1.000000
    2      -22.380825   1.000000
    3       -6.851952   1.000000
    4       -6.851910   1.000000
    5       -6.597546   1.000000
    6       -6.597532   1.000000
    7       -6.504024   1.000000
    8       -6.504007   1.000000
    9        4.850151   0.000000
   10        4.850176   0.000000
   11       10.101760   0.000000
   12       10.101945   0.000000
   13       11.857606   0.000000
   14       11.859697   0.000000
   15       11.863183   0.000000
   16       11.867117   0.000000
   17       11.919859   0.000000
   18       11.922623   0.000000
 
  0.3333333E+00  0.1666667E+00  0.2775558E-16  0.4629630E-02
    1      -22.295353   1.000000
    2      -22.295283   1.000000
    3       -7.304845   1.000000
    4       -7.304807   1.000000
    5       -6.718941   1.000000
    6       -6.718932   1.000000
    7       -6.601990   1.000000
    8       -6.601982   1.000000
    9        6.079494   0.000000
   10        6.079518   0.000000
   11        9.261296   0.000000
   12        9.261551   0.000000
   13       10.499374   0.000000
   14       10.499433   0.000000
   15       11.997378   0.000000
   16       11.997686   0.000000
   17       13.132492   0.000000
   18       13.134523   0.000000
 
  0.5000000E+00  0.1666667E+00  0.0000000E+00  0.4629630E-02
    1      -22.224684   1.000000
    2      -22.224612   1.000000
    3       -7.652738   1.000000
    4       -7.652705   1.000000
    5       -6.832154   1.000000
    6       -6.832118   1.000000
    7       -6.654619   1.000000
    8       -6.654581   1.000000
    9        7.299296   0.000000
   10        7.299307   0.000000
   11        8.609125   0.000000
   12        8.609224   0.000000
   13       10.211157   0.000000
   14       10.211158   0.000000
   15       11.556724   0.000000
   16       11.556725   0.000000
   17       15.064071   0.000000
   18       15.193561   0.000000
 
 -0.3333333E+00  0.1666667E+00 -0.4857226E-16  0.4629630E-02
    1      -22.242391   1.000000
    2      -22.242320   1.000000
    3       -7.560442   1.000000
    4       -7.560408   1.000000
    5       -6.867776   1.000000
    6       -6.867733   1.000000
    7       -6.591235   1.000000
    8       -6.591188   1.000000
    9        7.069319   0.000000
   10        7.069366   0.000000
   11        8.936433   0.000000
   12        8.936577   0.000000
   13       10.073060   0.000000
   14       10.073133   0.000000
   15       11.536635   0.000000
   16       11.536927   0.000000
   17       14.012508   0.000000
   18       14.487479   0.000000
 
 -0.1666667E+00  0.1666667E+00 -0.1489901E-16  0.4629630E-02
    1      -22.329347   1.000000
    2      -22.329277   1.000000
    3       -7.161966   1.000000
    4       -7.161925   1.000000
    5       -6.713410   1.000000
    6       -6.713365   1.000000
    7       -6.491572   1.000000
    8       -6.491524   1.000000
    9        5.635654   0.000000
   10        5.635684   0.000000
   11        9.717638   0.000000
   12        9.718113   0.000000
   13       10.798325   0.000000
   14       10.799317   0.000000
   15       12.196625   0.000000
   16       12.197682   0.000000
   17       12.296868   0.000000
   18       12.297426   0.000000
 
  0.0000000E+00  0.3333333E+00  0.2775558E-16  0.4629630E-02
    1      -22.294650   1.000000
    2      -22.294582   1.000000
    3       -7.488847   1.000000
    4       -7.488812   1.000000
    5       -6.627762   1.000000
    6       -6.627743   1.000000
    7       -6.504554   1.000000
    8       -6.504535   1.000000
    9        6.096424   0.000000
   10        6.096442   0.000000
   11        9.291142   0.000000
   12        9.291829   0.000000
   13       11.254354   0.000000
   14       11.254418   0.000000
   15       11.255079   0.000000
   16       11.255235   0.000000
   17       14.290259   0.000000
   18       14.454453   0.000000
 
  0.1666667E+00  0.3333333E+00  0.5551115E-16  0.4629630E-02
    1      -22.295353   1.000000
    2      -22.295284   1.000000
    3       -7.304845   1.000000
    4       -7.304807   1.000000
    5       -6.718947   1.000000
    6       -6.718927   1.000000
    7       -6.601997   1.000000
    8       -6.601976   1.000000
    9        6.079489   0.000000
   10        6.079518   0.000000
   11        9.261302   0.000000
   12        9.261382   0.000000
   13       10.499378   0.000000
   14       10.500193   0.000000
   15       11.997430   0.000000
   16       11.997588   0.000000
   17       13.132338   0.000000
   18       13.135514   0.000000
 
  0.3333333E+00  0.3333333E+00  0.0000000E+00  0.4629630E-02
    1      -22.244949   1.000000
    2      -22.244879   1.000000
    3       -7.421589   1.000000
    4       -7.421554   1.000000
    5       -6.841275   1.000000
    6       -6.841260   1.000000
    7       -6.726600   1.000000
    8       -6.726585   1.000000
    9        6.437528   0.000000
   10        6.437559   0.000000
   11        8.659550   0.000000
   12        8.659550   0.000000
   13       10.168117   0.000000
   14       10.168119   0.000000
   15       13.343158   0.000000
   16       13.352001   0.000000
   17       13.367816   0.000000
   18       13.374613   0.000000
 
  0.5000000E+00  0.3333333E+00  0.0000000E+00  0.4629630E-02
    1      -22.191773   1.000000
    2      -22.191701   1.000000
    3       -7.558145   1.000000
    4       -7.558111   1.000000
    5       -7.006290   1.000000
    6       -7.006252   1.000000
    7       -6.803709   1.000000
    8       -6.803668   1.000000
    9        7.015602   0.000000
   10        7.015632   0.000000
   11        8.478486   0.000000
   12        8.478487   0.000000
   13       10.042675   0.000000
   14       10.042934   0.000000
   15       13.247469   0.000000
   16       13.296787   0.000000
   17       14.452562   0.000000
   18       14.627080   0.000000
 
 -0.3333333E+00  0.3333333E+00 -0.3252599E-16  0.4629630E-02
    1      -22.191410   1.000000
    2      -22.191339   1.000000
    3       -7.404078   1.000000
    4       -7.404044   1.000000
    5       -7.274048   1.000000
    6       -7.274013   1.000000
    7       -6.726795   1.000000
    8       -6.726746   1.000000
    9        7.941253   0.000000
   10        7.941348   0.000000
   11        8.377692   0.000000
   12        8.377792   0.000000
   13        9.666440   0.000000
   14        9.666662   0.000000
   15       12.404600   0.000000
   16       12.519717   0.000000
   17       14.483775   0.000000
   18       14.592482   0.000000
 
 -0.1666667E+00  0.3333333E+00  0.6938894E-17  0.4629630E-02
    1      -22.242391   1.000000
    2      -22.242320   1.000000
    3       -7.560442   1.000000
    4       -7.560408   1.000000
    5       -6.867776   1.000000
    6       -6.867732   1.000000
    7       -6.591236   1.000000
    8       -6.591188   1.000000
    9        7.069322   0.000000
   10        7.069345   0.000000
   11        8.936433   0.000000
   12        8.936594   0.000000
   13       10.073060   0.000000
   14       10.073253   0.000000
   15       11.536632   0.000000
   16       11.536673   0.000000
   17       14.012216   0.000000
   18       14.367328   0.000000
 
  0.7703720E-33  0.5000000E+00  0.2775558E-16  0.4629630E-02
    1      -22.240997   1.000000
    2      -22.240926   1.000000
    3       -7.787351   1.000000
    4       -7.787320   1.000000
    5       -6.666283   1.000000
    6       -6.666265   1.000000
    7       -6.541373   1.000000
    8       -6.541355   1.000000
    9        6.811601   0.000000
   10        6.811607   0.000000
   11        9.018235   0.000000
   12        9.018301   0.000000
   13       10.942037   0.000000
   14       10.942049   0.000000
   15       10.943104   0.000000
   16       10.943110   0.000000
   17       15.567261   0.000000
   18       15.590299   0.000000
 
  0.1666667E+00  0.5000000E+00  0.5551115E-16  0.4629630E-02
    1      -22.224684   1.000000
    2      -22.224612   1.000000
    3       -7.652738   1.000000
    4       -7.652705   1.000000
    5       -6.832155   1.000000
    6       -6.832117   1.000000
    7       -6.654620   1.000000
    8       -6.654580   1.000000
    9        7.299296   0.000000
   10        7.299347   0.000000
   11        8.609122   0.000000
   12        8.609290   0.000000
   13       10.211159   0.000000
   14       10.211436   0.000000
   15       11.556730   0.000000
   16       11.556731   0.000000
   17       14.862917   0.000000
   18       15.935393   0.000000
 
  0.3333333E+00  0.5000000E+00  0.0000000E+00  0.4629630E-02
    1      -22.191772   1.000000
    2      -22.191700   1.000000
    3       -7.558145   1.000000
    4       -7.558111   1.000000
    5       -7.006290   1.000000
    6       -7.006251   1.000000
    7       -6.803708   1.000000
    8       -6.803668   1.000000
    9        7.015602   0.000000
   10        7.015637   0.000000
   11        8.478480   0.000000
   12        8.478507   0.000000
   13       10.042674   0.000000
   14       10.043210   0.000000
   15       13.252299   0.000000
   16       13.311299   0.000000
   17       14.517928   0.000000
   18       15.009618   0.000000
 
  0.5000000E+00  0.5000000E+00  0.1110223E-15  0.4629630E-02
    1      -22.174736   1.000000
    2      -22.174663   1.000000
    3       -7.671786   1.000000
    4       -7.671754   1.000000
    5       -6.949619   1.000000
    6       -6.949604   1.000000
    7       -6.833842   1.000000
    8       -6.833827   1.000000
    9        6.586987   0.000000
   10        6.587012   0.000000
   11        8.137681   0.000000
   12        8.137692   0.000000
   13       10.670328   0.000000
   14       10.670361   0.000000
   15       15.416769   0.000000
   16       15.496454   0.000000
   17       15.565550   0.000000
   18       15.923240   0.000000
 
 -0.3333333E+00  0.5000000E+00  0.6938894E-17  0.4629630E-02
    1      -22.191772   1.000000
    2      -22.191700   1.000000
    3       -7.558145   1.000000
    4       -7.558111   1.000000
    5       -7.006290   1.000000
    6       -7.006251   1.000000
    7       -6.803708   1.000000
    8       -6.803668   1.000000
    9        7.015602   0.000000
   10        7.015635   0.000000
   11        8.478480   0.000000
   12        8.478486   0.000000
   13       10.042680   0.000000
   14       10.042688   0.000000
   15       13.260296   0.000000
   16       13.423848   0.000000
   17       14.449037   0.000000
   18       14.866640   0.000000
 
 -0.1666667E+00  0.5000000E+00  0.0000000E+00  0.4629630E-02
    1      -22.224683   1.000000
    2      -22.224611   1.000000
    3       -7.652738   1.000000
    4       -7.652705   1.000000
    5       -6.832155   1.000000
    6       -6.832117   1.000000
    7       -6.654620   1.000000
    8       -6.654580   1.000000
    9        7.299290   0.000000
   10        7.299313   0.000000
   11        8.609161   0.000000
   12        8.609357   0.000000
   13       10.211176   0.000000
   14       10.211396   0.000000
   15       11.556819   0.000000
   16       11.558003   0.000000
   17       15.083416   0.000000
   18       15.670360   0.000000
 
  0.0000000E+00 -0.3333333E+00 -0.2775558E-16  0.4629630E-02
    1      -22.294650   1.000000
    2      -22.294582   1.000000
    3       -7.488847   1.000000
    4       -7.488812   1.000000
    5       -6.627762   1.000000
    6       -6.627743   1.000000
    7       -6.504554   1.000000
    8       -6.504535   1.000000
    9        6.096424   0.000000
   10        6.096442   0.000000
   11        9.291064   0.000000
   12        9.291084   0.000000
   13       11.254282   0.000000
   14       11.254725   0.000000
   15       11.254827   0.000000
   16       11.255243   0.000000
   17       14.298291   0.000000
   18       15.052101   0.000000
 
  0.1666667E+00 -0.3333333E+00 -0.6938894E-17  0.4629630E-02
    1      -22.242391   1.000000
    2      -22.242321   1.000000
    3       -7.560442   1.000000
    4       -7.560408   1.000000
    5       -6.867776   1.000000
    6       -6.867733   1.000000
    7       -6.591236   1.000000
    8       -6.591188   1.000000
    9        7.069319   0.000000
   10        7.069352   0.000000
   11        8.936456   0.000000
   12        8.936493   0.000000
   13       10.073060   0.000000
   14       10.073091   0.000000
   15       11.536634   0.000000
   16       11.536889   0.000000
   17       14.647010   0.000000
   18       16.401342   0.000000
 
  0.3333333E+00 -0.3333333E+00  0.3252599E-16  0.4629630E-02
    1      -22.191410   1.000000
    2      -22.191339   1.000000
    3       -7.404078   1.000000
    4       -7.404044   1.000000
    5       -7.274048   1.000000
    6       -7.274013   1.000000
    7       -6.726795   1.000000
    8       -6.726746   1.000000
    9        7.941258   0.000000
   10        7.941343   0.000000
   11        8.377670   0.000000
   12        8.377674   0.000000
   13        9.666396   0.000000
   14        9.666419   0.000000
   15       12.406152   0.000000
   16       13.068780   0.000000
   17       14.510936   0.000000
   18       14.655533   0.000000
 
  0.5000000E+00 -0.3333333E+00  0.1387779E-16  0.4629630E-02
    1      -22.191772   1.000000
    2      -22.191701   1.000000
    3       -7.558145   1.000000
    4       -7.558111   1.000000
    5       -7.006290   1.000000
    6       -7.006252   1.000000
    7       -6.803709   1.000000
    8       -6.803668   1.000000
    9        7.015602   0.000000
   10        7.015634   0.000000
   11        8.478488   0.000000
   12        8.478504   0.000000
   13       10.042674   0.000000
   14       10.042693   0.000000
   15       13.244271   0.000000
   16       13.244574   0.000000
   17       14.434975   0.000000
   18       14.526962   0.000000
 
 -0.3333333E+00 -0.3333333E+00  0.0000000E+00  0.4629630E-02
    1      -22.244949   1.000000
    2      -22.244879   1.000000
    3       -7.421589   1.000000
    4       -7.421554   1.000000
    5       -6.841275   1.000000
    6       -6.841260   1.000000
    7       -6.726600   1.000000
    8       -6.726585   1.000000
    9        6.437528   0.000000
   10        6.437559   0.000000
   11        8.659552   0.000000
   12        8.659560   0.000000
   13       10.168131   0.000000
   14       10.168568   0.000000
   15       13.340851   0.000000
   16       13.349302   0.000000
   17       13.354040   0.000000
   18       14.120446   0.000000
 
 -0.1666667E+00 -0.3333333E+00 -0.5551115E-16  0.4629630E-02
    1      -22.295352   1.000000
    2      -22.295283   1.000000
    3       -7.304845   1.000000
    4       -7.304807   1.000000
    5       -6.718946   1.000000
    6       -6.718927   1.000000
    7       -6.601996   1.000000
    8       -6.601976   1.000000
    9        6.079489   0.000000
   10        6.079518   0.000000
   11        9.261298   0.000000
   12        9.261397   0.000000
   13       10.499382   0.000000
   14       10.500099   0.000000
   15       11.997434   0.000000
   16       11.998617   0.000000
   17       13.132448   0.000000
   18       13.636459   0.000000
 
  0.0000000E+00 -0.1666667E+00 -0.2081668E-16  0.4629630E-02
    1      -22.397665   1.000000
    2      -22.397598   1.000000
    3       -6.851413   1.000000
    4       -6.851368   1.000000
    5       -6.532478   1.000000
    6       -6.532461   1.000000
    7       -6.428069   1.000000
    8       -6.428049   1.000000
    9        4.624185   0.000000
   10        4.624207   0.000000
   11       10.383900   0.000000
   12       10.384748   0.000000
   13       11.598073   0.000000
   14       11.598374   0.000000
   15       11.599053   0.000000
   16       11.599786   0.000000
   17       13.387959   0.000000
   18       13.388529   0.000000
 
  0.1666667E+00 -0.1666667E+00  0.1988471E-16  0.4629630E-02
    1      -22.329347   1.000000
    2      -22.329277   1.000000
    3       -7.161966   1.000000
    4       -7.161924   1.000000
    5       -6.713410   1.000000
    6       -6.713365   1.000000
    7       -6.491572   1.000000
    8       -6.491524   1.000000
    9        5.635654   0.000000
   10        5.635685   0.000000
   11        9.717640   0.000000
   12        9.717643   0.000000
   13       10.798398   0.000000
   14       10.798564   0.000000
   15       12.196257   0.000000
   16       12.196959   0.000000
   17       12.297002   0.000000
   18       12.297276   0.000000
 
  0.3333333E+00 -0.1666667E+00  0.6938894E-17  0.4629630E-02
    1      -22.242390   1.000000
    2      -22.242319   1.000000
    3       -7.560442   1.000000
    4       -7.560408   1.000000
    5       -6.867776   1.000000
    6       -6.867732   1.000000
    7       -6.591235   1.000000
    8       -6.591188   1.000000
    9        7.069330   0.000000
   10        7.069357   0.000000
   11        8.936472   0.000000
   12        8.936556   0.000000
   13       10.073096   0.000000
   14       10.073271   0.000000
   15       11.536635   0.000000
   16       11.536721   0.000000
   17       14.149115   0.000000
   18       14.554451   0.000000
 
  0.5000000E+00 -0.1666667E+00  0.2775558E-16  0.4629630E-02
    1      -22.224683   1.000000
    2      -22.224611   1.000000
    3       -7.652738   1.000000
    4       -7.652705   1.000000
    5       -6.832154   1.000000
    6       -6.832117   1.000000
    7       -6.654619   1.000000
    8       -6.654580   1.000000
    9        7.299294   0.000000
   10        7.299314   0.000000
   11        8.609116   0.000000
   12        8.609442   0.000000
   13       10.211159   0.000000
   14       10.211633   0.000000
   15       11.556720   0.000000
   16       11.559235   0.000000
   17       14.803065   0.000000
   18       15.822333   0.000000
 
 -0.3333333E+00 -0.1666667E+00 -0.5551115E-16  0.4629630E-02
    1      -22.295352   1.000000
    2      -22.295282   1.000000
    3       -7.304845   1.000000
    4       -7.304807   1.000000
    5       -6.718941   1.000000
    6       -6.718932   1.000000
    7       -6.601990   1.000000
    8       -6.601982   1.000000
    9        6.079490   0.000000
   10        6.079518   0.000000
   11        9.261295   0.000000
   12        9.261403   0.000000
   13       10.499379   0.000000
   14       10.499392   0.000000
   15       11.997395   0.000000
   16       11.997746   0.000000
   17       13.132259   0.000000
   18       13.181458   0.000000
 
 -0.1666667E+00 -0.1666667E+00  0.0000000E+00  0.4629630E-02
    1      -22.380892   1.000000
    2      -22.380824   1.000000
    3       -6.851952   1.000000
    4       -6.851910   1.000000
    5       -6.597546   1.000000
    6       -6.597531   1.000000
    7       -6.504024   1.000000
    8       -6.504007   1.000000
    9        4.850151   0.000000
   10        4.850176   0.000000
   11       10.101756   0.000000
   12       10.101763   0.000000
   13       11.859167   0.000000
   14       11.862175   0.000000
   15       11.862860   0.000000
   16       11.871664   0.000000
   17       11.913038   0.000000
   18       11.922467   0.000000
 
  0.0000000E+00  0.0000000E+00  0.1666667E+00  0.4629630E-02
    1      -22.397666   1.000000
    2      -22.397599   1.000000
    3       -6.851413   1.000000
    4       -6.851369   1.000000
    5       -6.532483   1.000000
    6       -6.532457   1.000000
    7       -6.428075   1.000000
    8       -6.428044   1.000000
    9        4.624185   0.000000
   10        4.624207   0.000000
   11       10.383818   0.000000
   12       10.383854   0.000000
   13       11.598267   0.000000
   14       11.598449   0.000000
   15       11.599030   0.000000
   16       11.599591   0.000000
   17       13.387934   0.000000
   18       13.388866   0.000000
 
  0.1666667E+00  0.3785297E-16  0.1666667E+00  0.4629630E-02
    1      -22.380895   1.000000
    2      -22.380826   1.000000
    3       -6.851952   1.000000
    4       -6.851911   1.000000
    5       -6.597549   1.000000
    6       -6.597528   1.000000
    7       -6.504029   1.000000
    8       -6.504002   1.000000
    9        4.850152   0.000000
   10        4.850175   0.000000
   11       10.101765   0.000000
   12       10.101774   0.000000
   13       11.858452   0.000000
   14       11.860448   0.000000
   15       11.867862   0.000000
   16       11.883436   0.000000
   17       11.904684   0.000000
   18       11.921527   0.000000
 
  0.3333333E+00  0.2586538E-16  0.1666667E+00  0.4629630E-02
    1      -22.295353   1.000000
    2      -22.295284   1.000000
    3       -7.304845   1.000000
    4       -7.304807   1.000000
    5       -6.718943   1.000000
    6       -6.718931   1.000000
    7       -6.601992   1.000000
    8       -6.601980   1.000000
    9        6.079489   0.000000
   10        6.079531   0.000000
   11        9.261295   0.000000
   12        9.261360   0.000000
   13       10.499418   0.000000
   14       10.499582   0.000000
   15       11.997405   0.000000
   16       12.015221   0.000000
   17       13.132055   0.000000
   18       14.297471   0.000000
 
  0.5000000E+00  0.5551115E-16  0.1666667E+00  0.4629630E-02
    1      -22.224685   1.000000
    2      -22.224612   1.000000
    3       -7.652738   1.000000
    4       -7.652705   1.000000
    5       -6.832155   1.000000
    6       -6.832118   1.000000
    7       -6.654619   1.000000
    8       -6.654581   1.000000
    9        7.299291   0.000000
   10        7.299311   0.000000
   11        8.609114   0.000000
   12        8.609371   0.000000
   13       10.211158   0.000000
   14       10.211269   0.000000
   15       11.556726   0.000000
   16       11.556738   0.000000
   17       14.826866   0.000000
   18       14.977768   0.000000
 
 -0.3333333E+00 -0.3720656E-16  0.1666667E+00  0.4629630E-02
    1      -22.242391   1.000000
    2      -22.242320   1.000000
    3       -7.560442   1.000000
    4       -7.560408   1.000000
    5       -6.867776   1.000000
    6       -6.867733   1.000000
    7       -6.591236   1.000000
    8       -6.591188   1.000000
    9        7.069319   0.000000
   10        7.069341   0.000000
   11        8.936477   0.000000
   12        8.936627   0.000000
   13       10.073073   0.000000
   14       10.073309   0.000000
   15       11.536633   0.000000
   16       11.536639   0.000000
   17       14.014527   0.000000
   18       14.047053   0.000000
 
 -0.1666667E+00 -0.7560790E-17  0.1666667E+00  0.4629630E-02
    1      -22.329348   1.000000
    2      -22.329277   1.000000
    3       -7.161966   1.000000
    4       -7.161925   1.000000
    5       -6.713410   1.000000
    6       -6.713365   1.000000
    7       -6.491572   1.000000
    8       -6.491524   1.000000
    9        5.635654   0.000000
   10        5.635684   0.000000
   11        9.717642   0.000000
   12        9.717761   0.000000
   13       10.798446   0.000000
   14       10.799513   0.000000
   15       12.196925   0.000000
   16       12.207554   0.000000
   17       12.296879   0.000000
   18       13.996946   0.000000
 
  0.0000000E+00  0.1666667E+00  0.1666667E+00  0.4629630E-02
    1      -22.380894   1.000000
    2      -22.380825   1.000000
    3       -6.851950   1.000000
    4       -6.851913   1.000000
    5       -6.597554   1.000000
    6       -6.597523   1.000000
    7       -6.504037   1.000000
    8       -6.503993   1.000000
    9        4.850151   0.000000
   10        4.850175   0.000000
   11       10.101758   0.000000
   12       10.101777   0.000000
   13       11.858562   0.000000
   14       11.860336   0.000000
   15       11.862487   0.000000
   16       11.862986   0.000000
   17       11.922273   0.000000
   18       11.922602   0.000000
 
  0.1666667E+00  0.1666667E+00  0.1666667E+00  0.4629630E-02
    1      -22.397666   1.000000
    2      -22.397599   1.000000
    3       -6.851411   1.000000
    4       -6.851370   1.000000
    5       -6.532491   1.000000
    6       -6.532449   1.000000
    7       -6.428085   1.000000
    8       -6.428034   1.000000
    9        4.624185   0.000000
   10        4.624207   0.000000
   11       10.383878   0.000000
   12       10.384288   0.000000
   13       11.598158   0.000000
   14       11.598600   0.000000
   15       11.599218   0.000000
   16       11.599416   0.000000
   17       13.388221   0.000000
   18       13.388527   0.000000
 
  0.3333333E+00  0.1666667E+00  0.1666667E+00  0.4629630E-02
    1      -22.329347   1.000000
    2      -22.329277   1.000000
    3       -7.161964   1.000000
    4       -7.161924   1.000000
    5       -6.713410   1.000000
    6       -6.713365   1.000000
    7       -6.491573   1.000000
    8       -6.491524   1.000000
    9        5.635654   0.000000
   10        5.635683   0.000000
   11        9.717646   0.000000
   12        9.717855   0.000000
   13       10.798576   0.000000
   14       10.799809   0.000000
   15       12.196244   0.000000
   16       12.196879   0.000000
   17       12.296903   0.000000
   18       12.296970   0.000000
 
  0.5000000E+00  0.1666667E+00  0.1666667E+00  0.4629630E-02
    1      -22.242391   1.000000
    2      -22.242320   1.000000
    3       -7.560441   1.000000
    4       -7.560408   1.000000
    5       -6.867776   1.000000