 vasp.5.4.4.18Apr17-6-g9f103f2a35 (build Jul 09 2018 16:43:14) complex          
  
 executed on             LinuxIFC date 2018.11.22  03:25:54
 running on  128 total cores
 distrk:  each k-point on   32 cores,    4 groups
 distr:  one band on NCORES_PER_BAND=   4 cores,    8 groups


--------------------------------------------------------------------------------------------------------


 INCAR:
 POTCAR:    PAW_PBE Ar_GW 21Aug2013               

 ----------------------------------------------------------------------------- 
|                                                                             |
|           W    W    AA    RRRRR   N    N  II  N    N   GGGG   !!!           |
|           W    W   A  A   R    R  NN   N  II  NN   N  G    G  !!!           |
|           W    W  A    A  R    R  N N  N  II  N N  N  G       !!!           |
|           W WW W  AAAAAA  RRRRR   N  N N  II  N  N N  G  GGG   !            |
|           WW  WW  A    A  R   R   N   NN  II  N   NN  G    G                |
|           W    W  A    A  R    R  N    N  II  N    N   GGGG   !!!           |
|                                                                             |
|      For optimal performance we recommend to set                            |
|        NCORE= 4 - approx SQRT( number of cores)                             |
|      NCORE specifies how many cores store one orbital (NPAR=cpu/NCORE).     |
|      This setting can  greatly improve the performance of VASP for DFT.     |
|      The default,   NCORE=1            might be grossly inefficient         |
|      on modern multi-core architectures or massively parallel machines.     |
|      Do your own testing !!!!                                               |
|      Unfortunately you need to use the default for GW and RPA calculations. |
|      (for HF NCORE is supported but not extensively tested yet)             |
|                                                                             |
 ----------------------------------------------------------------------------- 


 ----------------------------------------------------------------------------- 
|                                                                             |
|           W    W    AA    RRRRR   N    N  II  N    N   GGGG   !!!           |
|           W    W   A  A   R    R  NN   N  II  NN   N  G    G  !!!           |
|           W    W  A    A  R    R  N N  N  II  N N  N  G       !!!           |
|           W WW W  AAAAAA  RRRRR   N  N N  II  N  N N  G  GGG   !            |
|           WW  WW  A    A  R   R   N   NN  II  N   NN  G    G                |
|           W    W  A    A  R    R  N    N  II  N    N   GGGG   !!!           |
|                                                                             |
|      You have enabled k-point parallelism (KPAR>1).                         |
|      This developmental code was originally  written by Paul Kent at ORNL,  |
|      and carefully double checked in Vienna.                                |
|      GW as well as linear response parallelism added by Martijn Marsman     |
|      and Georg Kresse.                                                      |
|      Carefully verify results versus KPAR=1.                                |
|      Report problems to Paul Kent and Vienna.                               |
|                                                                             |
 ----------------------------------------------------------------------------- 

 POTCAR:    PAW_PBE Ar_GW 21Aug2013               
   VRHFIN =Ar: s2p6                                                             
   LEXCH  = PE                                                                  
   EATOM  =   579.0493 eV,   42.5589 Ry                                         
                                                                                
   TITEL  = PAW_PBE Ar_GW 21Aug2013                                             
   LULTRA =        F    use ultrasoft PP ?                                      
   IUNSCR =        1    unscreen: 0-lin 1-nonlin 2-no                           
   RPACOR =    1.500    partial core radius                                     
   POMASS =   39.949; ZVAL   =    8.000    mass and valenz                      
   RCORE  =    1.900    outmost cutoff radius                                   
   RWIGS  =    1.900; RWIGS  =    1.005    wigner-seitz radius (au A)           
   ENMAX  =  290.599; ENMIN  =  217.949 eV                                      
   ICORE  =        3    local potential                                         
   LCOR   =        T    correct aug charges                                     
   LPAW   =        T    paw PP                                                  
   EAUG   =  799.859                                                            
   DEXC   =    0.000                                                            
   RMAX   =    1.945    core radius for proj-oper                               
   RAUG   =    1.300    factor for augmentation sphere                          
   RDEP   =    1.972    radius for radial grids                                 
   RDEPT  =    1.517    core radius for aug-charge                              
                                                                                
   Atomic configuration                                                         
    7 entries                                                                   
     n  l   j            E        occ.                                          
     1  0  0.50     -3120.2029   2.0000                                         
     2  0  0.50      -296.9756   2.0000                                         
     2  1  1.50      -229.8673   6.0000                                         
     3  0  0.50       -24.2863   2.0000                                         
     3  1  0.50       -10.2695   6.0000                                         
     3  2  1.50         2.7212   0.0000                                         
     4  3  2.50         2.7212   0.0000                                         
   Description                                                                  
     l       E           TYP  RCUT    TYP  RCUT                                 
     0    -24.2863172     23  1.400                                             
     0     54.4233040     23  1.900                                             
     1    -10.2694819     23  1.900                                             
     1     68.0291300     23  1.900                                             
     2      6.8029130     23  1.900                                             
     2     54.4233040     23  1.900                                             
     3      6.8029130     23  1.900                                             
  local pseudopotential read in
  partial core-charges read in
  partial kinetic energy density read in
  kinetic energy density of atom read in
  atomic valenz-charges read in
  non local Contribution for L=           0  read in
    real space projection operators read in
  non local Contribution for L=           0  read in
    real space projection operators read in
  non local Contribution for L=           1  read in
    real space projection operators read in
  non local Contribution for L=           1  read in
    real space projection operators read in
  non local Contribution for L=           2  read in
    real space projection operators read in
  non local Contribution for L=           2  read in
    real space projection operators read in
    PAW grid and wavefunctions read in
 
   number of l-projection  operators is LMAX  =           6
   number of lm-projection operators is LMMAX =          18
 
  PAW_PBE Ar_GW 21Aug2013               :
 energy of atom  1       EATOM= -579.0493
 kinetic energy error for atom=    0.0359 (will be added to EATOM!!)
 
 
 POSCAR: Ar_FCC                                  
  positions in direct lattice
  velocities in cartesian coordinates
 exchange correlation table for  LEXCH =        8
   RHO(1)=    0.500       N(1)  =     2000
   RHO(2)=  100.500       N(2)  =     4000
 


--------------------------------------------------------------------------------------------------------


 ion  position               nearest neighbor table
   1  0.000  0.000  0.000-
 

IMPORTANT INFORMATION: All symmetrisations will be switched off!
NOSYMM: (Re-)initialisation of all symmetry stuff for point group C_1.

 
 
 KPOINTS: k-points                                

Automatic generation of k-mesh.
Space group operators:
 irot       det(A)        alpha          n_x          n_y          n_z        tau_x        tau_y        tau_z
    1     1.000000     0.000000     1.000000     0.000000     0.000000     0.000000     0.000000     0.000000
 
 Subroutine IBZKPT returns following result:
 ===========================================
 
 Found    216 irreducible k-points:
 
 Following reciprocal coordinates:
            Coordinates               Weight
  0.000000  0.000000  0.000000      1.000000
  0.166667  0.000000 -0.000000      1.000000
  0.333333  0.000000 -0.000000      1.000000
  0.500000  0.000000 -0.000000      1.000000
 -0.333333 -0.000000  0.000000      1.000000
 -0.166667 -0.000000  0.000000      1.000000
  0.000000  0.166667 -0.000000      1.000000
  0.166667  0.166667 -0.000000      1.000000
  0.333333  0.166667 -0.000000      1.000000
  0.500000  0.166667 -0.000000      1.000000
 -0.333333  0.166667 -0.000000      1.000000
 -0.166667  0.166667  0.000000      1.000000
  0.000000  0.333333  0.000000      1.000000
  0.166667  0.333333 -0.000000      1.000000
  0.333333  0.333333 -0.000000      1.000000
  0.500000  0.333333 -0.000000      1.000000
 -0.333333  0.333333  0.000000      1.000000
 -0.166667  0.333333  0.000000      1.000000
  0.000000  0.500000 -0.000000      1.000000
  0.166667  0.500000  0.000000      1.000000
  0.333333  0.500000  0.000000      1.000000
  0.500000  0.500000 -0.000000      1.000000
 -0.333333  0.500000 -0.000000      1.000000
 -0.166667  0.500000 -0.000000      1.000000
 -0.000000 -0.333333  0.000000      1.000000
  0.166667 -0.333333 -0.000000      1.000000
  0.333333 -0.333333 -0.000000      1.000000
  0.500000 -0.333333 -0.000000      1.000000
 -0.333333 -0.333333  0.000000      1.000000
 -0.166667 -0.333333  0.000000      1.000000
 -0.000000 -0.166667  0.000000      1.000000
  0.166667 -0.166667 -0.000000      1.000000
  0.333333 -0.166667 -0.000000      1.000000
  0.500000 -0.166667 -0.000000      1.000000
 -0.333333 -0.166667  0.000000      1.000000
 -0.166667 -0.166667  0.000000      1.000000
 -0.000000  0.000000  0.166667      1.000000
  0.166667  0.000000  0.166667      1.000000
  0.333333 -0.000000  0.166667      1.000000
  0.500000  0.000000  0.166667      1.000000
 -0.333333 -0.000000  0.166667      1.000000
 -0.166667 -0.000000  0.166667      1.000000
  0.000000  0.166667  0.166667      1.000000
  0.166667  0.166667  0.166667      1.000000
  0.333333  0.166667  0.166667      1.000000
  0.500000  0.166667  0.166667      1.000000
 -0.333333  0.166667  0.166667      1.000000
 -0.166667  0.166667  0.166667      1.000000
  0.000000  0.333333  0.166667      1.000000
  0.166667  0.333333  0.166667      1.000000
  0.333333  0.333333  0.166667      1.000000
  0.500000  0.333333  0.166667      1.000000
 -0.333333  0.333333  0.166667      1.000000
 -0.166667  0.333333  0.166667      1.000000
  0.000000  0.500000  0.166667      1.000000
  0.166667  0.500000  0.166667      1.000000
  0.333333  0.500000  0.166667      1.000000
  0.500000  0.500000  0.166667      1.000000
 -0.333333  0.500000  0.166667      1.000000
 -0.166667  0.500000  0.166667      1.000000
  0.000000 -0.333333  0.166667      1.000000
  0.166667 -0.333333  0.166667      1.000000
  0.333333 -0.333333  0.166667      1.000000
  0.500000 -0.333333  0.166667      1.000000
 -0.333333 -0.333333  0.166667      1.000000
 -0.166667 -0.333333  0.166667      1.000000
  0.000000 -0.166667  0.166667      1.000000
  0.166667 -0.166667  0.166667      1.000000
  0.333333 -0.166667  0.166667      1.000000
  0.500000 -0.166667  0.166667      1.000000
 -0.333333 -0.166667  0.166667      1.000000
 -0.166667 -0.166667  0.166667      1.000000
  0.000000  0.000000  0.333333      1.000000
  0.166667  0.000000  0.333333      1.000000
  0.333333  0.000000  0.333333      1.000000
  0.500000 -0.000000  0.333333      1.000000
 -0.333333  0.000000  0.333333      1.000000
 -0.166667  0.000000  0.333333      1.000000
 -0.000000  0.166667  0.333333      1.000000
  0.166667  0.166667  0.333333      1.000000
  0.333333  0.166667  0.333333      1.000000
  0.500000  0.166667  0.333333      1.000000
 -0.333333  0.166667  0.333333      1.000000
 -0.166667  0.166667  0.333333      1.000000
 -0.000000  0.333333  0.333333      1.000000
  0.166667  0.333333  0.333333      1.000000
  0.333333  0.333333  0.333333      1.000000
  0.500000  0.333333  0.333333      1.000000
 -0.333333  0.333333  0.333333      1.000000
 -0.166667  0.333333  0.333333      1.000000
 -0.000000  0.500000  0.333333      1.000000
  0.166667  0.500000  0.333333      1.000000
  0.333333  0.500000  0.333333      1.000000
  0.500000  0.500000  0.333333      1.000000
 -0.333333  0.500000  0.333333      1.000000
 -0.166667  0.500000  0.333333      1.000000
 -0.000000 -0.333333  0.333333      1.000000
  0.166667 -0.333333  0.333333      1.000000
  0.333333 -0.333333  0.333333      1.000000
  0.500000 -0.333333  0.333333      1.000000
 -0.333333 -0.333333  0.333333      1.000000
 -0.166667 -0.333333  0.333333      1.000000
 -0.000000 -0.166667  0.333333      1.000000
  0.166667 -0.166667  0.333333      1.000000
  0.333333 -0.166667  0.333333      1.000000
  0.500000 -0.166667  0.333333      1.000000
 -0.333333 -0.166667  0.333333      1.000000
 -0.166667 -0.166667  0.333333      1.000000
 -0.000000  0.000000  0.500000      1.000000
  0.166667 -0.000000  0.500000      1.000000
  0.333333  0.000000  0.500000      1.000000
  0.500000  0.000000  0.500000      1.000000
 -0.333333  0.000000  0.500000      1.000000
 -0.166667 -0.000000  0.500000      1.000000
  0.000000  0.166667  0.500000      1.000000
  0.166667  0.166667  0.500000      1.000000
  0.333333  0.166667  0.500000      1.000000
  0.500000  0.166667  0.500000      1.000000
 -0.333333  0.166667  0.500000      1.000000
 -0.166667  0.166667  0.500000      1.000000
 -0.000000  0.333333  0.500000      1.000000
  0.166667  0.333333  0.500000      1.000000
  0.333333  0.333333  0.500000      1.000000
  0.500000  0.333333  0.500000      1.000000
 -0.333333  0.333333  0.500000      1.000000
 -0.166667  0.333333  0.500000      1.000000
  0.000000  0.500000  0.500000      1.000000
  0.166667  0.500000  0.500000      1.000000
  0.333333  0.500000  0.500000      1.000000
  0.500000  0.500000  0.500000      1.000000
 -0.333333  0.500000  0.500000      1.000000
 -0.166667  0.500000  0.500000      1.000000
 -0.000000 -0.333333  0.500000      1.000000
  0.166667 -0.333333  0.500000      1.000000
  0.333333 -0.333333  0.500000      1.000000
  0.500000 -0.333333  0.500000      1.000000
 -0.333333 -0.333333  0.500000      1.000000
 -0.166667 -0.333333  0.500000      1.000000
 -0.000000 -0.166667  0.500000      1.000000
  0.166667 -0.166667  0.500000      1.000000
  0.333333 -0.166667  0.500000      1.000000
  0.500000 -0.166667  0.500000      1.000000
 -0.333333 -0.166667  0.500000      1.000000
 -0.166667 -0.166667  0.500000      1.000000
  0.000000 -0.000000 -0.333333      1.000000
  0.166667 -0.000000 -0.333333      1.000000
  0.333333 -0.000000 -0.333333      1.000000
  0.500000  0.000000 -0.333333      1.000000
 -0.333333 -0.000000 -0.333333      1.000000
 -0.166667 -0.000000 -0.333333      1.000000
  0.000000  0.166667 -0.333333      1.000000
  0.166667  0.166667 -0.333333      1.000000
  0.333333  0.166667 -0.333333      1.000000
  0.500000  0.166667 -0.333333      1.000000
 -0.333333  0.166667 -0.333333      1.000000
 -0.166667  0.166667 -0.333333      1.000000
  0.000000  0.333333 -0.333333      1.000000
  0.166667  0.333333 -0.333333      1.000000
  0.333333  0.333333 -0.333333      1.000000
  0.500000  0.333333 -0.333333      1.000000
 -0.333333  0.333333 -0.333333      1.000000
 -0.166667  0.333333 -0.333333      1.000000
  0.000000  0.500000 -0.333333      1.000000
  0.166667  0.500000 -0.333333      1.000000
  0.333333  0.500000 -0.333333      1.000000
  0.500000  0.500000 -0.333333      1.000000
 -0.333333  0.500000 -0.333333      1.000000
 -0.166667  0.500000 -0.333333      1.000000
  0.000000 -0.333333 -0.333333      1.000000
  0.166667 -0.333333 -0.333333      1.000000
  0.333333 -0.333333 -0.333333      1.000000
  0.500000 -0.333333 -0.333333      1.000000
 -0.333333 -0.333333 -0.333333      1.000000
 -0.166667 -0.333333 -0.333333      1.000000
  0.000000 -0.166667 -0.333333      1.000000
  0.166667 -0.166667 -0.333333      1.000000
  0.333333 -0.166667 -0.333333      1.000000
  0.500000 -0.166667 -0.333333      1.000000
 -0.333333 -0.166667 -0.333333      1.000000
 -0.166667 -0.166667 -0.333333      1.000000
  0.000000 -0.000000 -0.166667      1.000000
  0.166667  0.000000 -0.166667      1.000000
  0.333333  0.000000 -0.166667      1.000000
  0.500000  0.000000 -0.166667      1.000000
 -0.333333  0.000000 -0.166667      1.000000
 -0.166667 -0.000000 -0.166667      1.000000
  0.000000  0.166667 -0.166667      1.000000
  0.166667  0.166667 -0.166667      1.000000
  0.333333  0.166667 -0.166667      1.000000
  0.500000  0.166667 -0.166667      1.000000
 -0.333333  0.166667 -0.166667      1.000000
 -0.166667  0.166667 -0.166667      1.000000
  0.000000  0.333333 -0.166667      1.000000
  0.166667  0.333333 -0.166667      1.000000
  0.333333  0.333333 -0.166667      1.000000
  0.500000  0.333333 -0.166667      1.000000
 -0.333333  0.333333 -0.166667      1.000000
 -0.166667  0.333333 -0.166667      1.000000
  0.000000  0.500000 -0.166667      1.000000
  0.166667  0.500000 -0.166667      1.000000
  0.333333  0.500000 -0.166667      1.000000
  0.500000  0.500000 -0.166667      1.000000
 -0.333333  0.500000 -0.166667      1.000000
 -0.166667  0.500000 -0.166667      1.000000
  0.000000 -0.333333 -0.166667      1.000000
  0.166667 -0.333333 -0.166667      1.000000
  0.333333 -0.333333 -0.166667      1.000000
  0.500000 -0.333333 -0.166667      1.000000
 -0.333333 -0.333333 -0.166667      1.000000
 -0.166667 -0.333333 -0.166667      1.000000
  0.000000 -0.166667 -0.166667      1.000000
  0.166667 -0.166667 -0.166667      1.000000
  0.333333 -0.166667 -0.166667      1.000000
  0.500000 -0.166667 -0.166667      1.000000
 -0.333333 -0.166667 -0.166667      1.000000
 -0.166667 -0.166667 -0.166667      1.000000
 
 Following cartesian coordinates:
            Coordinates               Weight
  0.000000  0.000000  0.000000      1.000000
  0.046300 -0.026731 -0.018902      1.000000
  0.092600 -0.053463 -0.037804      1.000000
  0.138901 -0.080194 -0.056706      1.000000
 -0.092600  0.053463  0.037804      1.000000
 -0.046300  0.026731  0.018902      1.000000
  0.000000  0.053463 -0.018902      1.000000
  0.046300  0.026731 -0.037804      1.000000
  0.092600  0.000000 -0.056706      1.000000
  0.138901 -0.026731 -0.075608      1.000000
 -0.092600  0.106926  0.018902      1.000000
 -0.046300  0.080194  0.000000      1.000000
  0.000000  0.106926 -0.037804      1.000000
  0.046300  0.080194 -0.056706      1.000000
  0.092600  0.053463 -0.075608      1.000000
  0.138901  0.026731 -0.094510      1.000000
 -0.092600  0.160389  0.000000      1.000000
 -0.046300  0.133657 -0.018902      1.000000
  0.000000  0.160389 -0.056706      1.000000
  0.046300  0.133657 -0.075608      1.000000
  0.092600  0.106926 -0.094510      1.000000
  0.138901  0.080194 -0.113412      1.000000
 -0.092600  0.213851 -0.018902      1.000000
 -0.046300  0.187120 -0.037804      1.000000
 -0.000000 -0.106926  0.037804      1.000000
  0.046300 -0.133657  0.018902      1.000000
  0.092600 -0.160389 -0.000000      1.000000
  0.138901 -0.187120 -0.018902      1.000000
 -0.092600 -0.053463  0.075608      1.000000
 -0.046300 -0.080194  0.056706      1.000000
 -0.000000 -0.053463  0.018902      1.000000
  0.046300 -0.080194 -0.000000      1.000000
  0.092600 -0.106926 -0.018902      1.000000
  0.138901 -0.133657 -0.037804      1.000000
 -0.092600 -0.000000  0.056706      1.000000
 -0.046300 -0.026731  0.037804      1.000000
 -0.000000  0.000000  0.056706      1.000000
  0.046300 -0.026731  0.037804      1.000000
  0.092600 -0.053463  0.018902      1.000000
  0.138901 -0.080194 -0.000000      1.000000
 -0.092600  0.053463  0.094510      1.000000
 -0.046300  0.026731  0.075608      1.000000
 -0.000000  0.053463  0.037804      1.000000
  0.046300  0.026731  0.018902      1.000000
  0.092600  0.000000  0.000000      1.000000
  0.138901 -0.026731 -0.018902      1.000000
 -0.092600  0.106926  0.075608      1.000000
 -0.046300  0.080194  0.056706      1.000000
 -0.000000  0.106926  0.018902      1.000000
  0.046300  0.080194  0.000000      1.000000
  0.092600  0.053463 -0.018902      1.000000
  0.138901  0.026731 -0.037804      1.000000
 -0.092600  0.160389  0.056706      1.000000
 -0.046300  0.133657  0.037804      1.000000
 -0.000000  0.160389  0.000000      1.000000
  0.046300  0.133657 -0.018902      1.000000
  0.092600  0.106926 -0.037804      1.000000
  0.138901  0.080194 -0.056706      1.000000
 -0.092600  0.213851  0.037804      1.000000
 -0.046300  0.187120  0.018902      1.000000
 -0.000000 -0.106926  0.094510      1.000000
  0.046300 -0.133657  0.075608      1.000000
  0.092600 -0.160389  0.056706      1.000000
  0.138901 -0.187120  0.037804      1.000000
 -0.092600 -0.053463  0.132314      1.000000
 -0.046300 -0.080194  0.113412      1.000000
 -0.000000 -0.053463  0.075608      1.000000
  0.046300 -0.080194  0.056706      1.000000
  0.092600 -0.106926  0.037804      1.000000
  0.138901 -0.133657  0.018902      1.000000
 -0.092600 -0.000000  0.113412      1.000000
 -0.046300 -0.026731  0.094510      1.000000
 -0.000000  0.000000  0.113412      1.000000
  0.046300 -0.026731  0.094510      1.000000
  0.092600 -0.053463  0.075608      1.000000
  0.138901 -0.080194  0.056706      1.000000
 -0.092600  0.053463  0.151216      1.000000
 -0.046300  0.026731  0.132314      1.000000
 -0.000000  0.053463  0.094510      1.000000
  0.046300  0.026731  0.075608      1.000000
  0.092600  0.000000  0.056706      1.000000
  0.138901 -0.026731  0.037804      1.000000
 -0.092600  0.106926  0.132314      1.000000
 -0.046300  0.080194  0.113412      1.000000
 -0.000000  0.106926  0.075608      1.000000
  0.046300  0.080194  0.056706      1.000000
  0.092600  0.053463  0.037804      1.000000
  0.138901  0.026731  0.018902      1.000000
 -0.092600  0.160389  0.113412      1.000000
 -0.046300  0.133657  0.094510      1.000000
 -0.000000  0.160389  0.056706      1.000000
  0.046300  0.133657  0.037804      1.000000
  0.092600  0.106926  0.018902      1.000000
  0.138901  0.080194  0.000000      1.000000
 -0.092600  0.213851  0.094510      1.000000
 -0.046300  0.187120  0.075608      1.000000
 -0.000000 -0.106926  0.151216      1.000000
  0.046300 -0.133657  0.132314      1.000000
  0.092600 -0.160389  0.113412      1.000000
  0.138901 -0.187120  0.094510      1.000000
 -0.092600 -0.053463  0.189020      1.000000
 -0.046300 -0.080194  0.170118      1.000000
 -0.000000 -0.053463  0.132314      1.000000
  0.046300 -0.080194  0.113412      1.000000
  0.092600 -0.106926  0.094510      1.000000
  0.138901 -0.133657  0.075608      1.000000
 -0.092600 -0.000000  0.170118      1.000000
 -0.046300 -0.026731  0.151216      1.000000
 -0.000000  0.000000  0.170118      1.000000
  0.046300 -0.026731  0.151216      1.000000
  0.092600 -0.053463  0.132314      1.000000
  0.138901 -0.080194  0.113412      1.000000
 -0.092600  0.053463  0.207922      1.000000
 -0.046300  0.026731  0.189020      1.000000
 -0.000000  0.053463  0.151216      1.000000
  0.046300  0.026731  0.132314      1.000000
  0.092600  0.000000  0.113412      1.000000
  0.138901 -0.026731  0.094510      1.000000
 -0.092600  0.106926  0.189020      1.000000
 -0.046300  0.080194  0.170118      1.000000
 -0.000000  0.106926  0.132314      1.000000
  0.046300  0.080194  0.113412      1.000000
  0.092600  0.053463  0.094510      1.000000
  0.138901  0.026731  0.075608      1.000000
 -0.092600  0.160389  0.170118      1.000000
 -0.046300  0.133657  0.151216      1.000000
 -0.000000  0.160389  0.113412      1.000000
  0.046300  0.133657  0.094510      1.000000
  0.092600  0.106926  0.075608      1.000000
  0.138901  0.080194  0.056706      1.000000
 -0.092600  0.213851  0.151216      1.000000
 -0.046300  0.187120  0.132314      1.000000
 -0.000000 -0.106926  0.207922      1.000000
  0.046300 -0.133657  0.189020      1.000000
  0.092600 -0.160389  0.170118      1.000000
  0.138901 -0.187120  0.151216      1.000000
 -0.092600 -0.053463  0.245726      1.000000
 -0.046300 -0.080194  0.226824      1.000000
 -0.000000 -0.053463  0.189020      1.000000
  0.046300 -0.080194  0.170118      1.000000
  0.092600 -0.106926  0.151216      1.000000
  0.138901 -0.133657  0.132314      1.000000
 -0.092600 -0.000000  0.226824      1.000000
 -0.046300 -0.026731  0.207922      1.000000
  0.000000 -0.000000 -0.113412      1.000000
  0.046300 -0.026731 -0.132314      1.000000
  0.092600 -0.053463 -0.151216      1.000000
  0.138901 -0.080194 -0.170118      1.000000
 -0.092600  0.053463 -0.075608      1.000000
 -0.046300  0.026731 -0.094510      1.000000
  0.000000  0.053463 -0.132314      1.000000
  0.046300  0.026731 -0.151216      1.000000
  0.092600  0.000000 -0.170118      1.000000
  0.138901 -0.026731 -0.189020      1.000000
 -0.092600  0.106926 -0.094510      1.000000
 -0.046300  0.080194 -0.113412      1.000000
  0.000000  0.106926 -0.151216      1.000000
  0.046300  0.080194 -0.170118      1.000000
  0.092600  0.053463 -0.189020      1.000000
  0.138901  0.026731 -0.207922      1.000000
 -0.092600  0.160389 -0.113412      1.000000
 -0.046300  0.133657 -0.132314      1.000000
  0.000000  0.160389 -0.170118      1.000000
  0.046300  0.133657 -0.189020      1.000000
  0.092600  0.106926 -0.207922      1.000000
  0.138901  0.080194 -0.226824      1.000000
 -0.092600  0.213851 -0.132314      1.000000
 -0.046300  0.187120 -0.151216      1.000000
  0.000000 -0.106926 -0.075608      1.000000
  0.046300 -0.133657 -0.094510      1.000000
  0.092600 -0.160389 -0.113412      1.000000
  0.138901 -0.187120 -0.132314      1.000000
 -0.092600 -0.053463 -0.037804      1.000000
 -0.046300 -0.080194 -0.056706      1.000000
  0.000000 -0.053463 -0.094510      1.000000
  0.046300 -0.080194 -0.113412      1.000000
  0.092600 -0.106926 -0.132314      1.000000
  0.138901 -0.133657 -0.151216      1.000000
 -0.092600 -0.000000 -0.056706      1.000000
 -0.046300 -0.026731 -0.075608      1.000000
  0.000000 -0.000000 -0.056706      1.000000
  0.046300 -0.026731 -0.075608      1.000000
  0.092600 -0.053463 -0.094510      1.000000
  0.138901 -0.080194 -0.113412      1.000000
 -0.092600  0.053463 -0.018902      1.000000
 -0.046300  0.026731 -0.037804      1.000000
  0.000000  0.053463 -0.075608      1.000000
  0.046300  0.026731 -0.094510      1.000000
  0.092600  0.000000 -0.113412      1.000000
  0.138901 -0.026731 -0.132314      1.000000
 -0.092600  0.106926 -0.037804      1.000000
 -0.046300  0.080194 -0.056706      1.000000
  0.000000  0.106926 -0.094510      1.000000
  0.046300  0.080194 -0.113412      1.000000
  0.092600  0.053463 -0.132314      1.000000
  0.138901  0.026731 -0.151216      1.000000
 -0.092600  0.160389 -0.056706      1.000000
 -0.046300  0.133657 -0.075608      1.000000
  0.000000  0.160389 -0.113412      1.000000
  0.046300  0.133657 -0.132314      1.000000
  0.092600  0.106926 -0.151216      1.000000
  0.138901  0.080194 -0.170118      1.000000
 -0.092600  0.213851 -0.075608      1.000000
 -0.046300  0.187120 -0.094510      1.000000
  0.000000 -0.106926 -0.018902      1.000000
  0.046300 -0.133657 -0.037804      1.000000
  0.092600 -0.160389 -0.056706      1.000000
  0.138901 -0.187120 -0.075608      1.000000
 -0.092600 -0.053463  0.018902      1.000000
 -0.046300 -0.080194 -0.000000      1.000000
  0.000000 -0.053463 -0.037804      1.000000
  0.046300 -0.080194 -0.056706      1.000000
  0.092600 -0.106926 -0.075608      1.000000
  0.138901 -0.133657 -0.094510      1.000000
 -0.092600 -0.000000  0.000000      1.000000
 -0.046300 -0.026731 -0.018902      1.000000
 
 
 Subroutine IBZKPT_HF returns following result:
 ==============================================
 
 Found    216 k-points in 1st BZ
 the following    216 k-points will be used (e.g. in the exchange kernel)
 Following reciprocal coordinates:   # in IRBZ
  0.000000  0.000000  0.000000    0.00462963   1 t-inv F
  0.166667  0.000000 -0.000000    0.00462963   2 t-inv F
  0.333333  0.000000 -0.000000    0.00462963   3 t-inv F
  0.500000  0.000000 -0.000000    0.00462963   4 t-inv F
 -0.333333 -0.000000  0.000000    0.00462963   5 t-inv F
 -0.166667 -0.000000  0.000000    0.00462963   6 t-inv F
  0.000000  0.166667 -0.000000    0.00462963   7 t-inv F
  0.166667  0.166667 -0.000000    0.00462963   8 t-inv F
  0.333333  0.166667 -0.000000    0.00462963   9 t-inv F
  0.500000  0.166667 -0.000000    0.00462963  10 t-inv F
 -0.333333  0.166667 -0.000000    0.00462963  11 t-inv F
 -0.166667  0.166667  0.000000    0.00462963  12 t-inv F
  0.000000  0.333333  0.000000    0.00462963  13 t-inv F
  0.166667  0.333333 -0.000000    0.00462963  14 t-inv F
  0.333333  0.333333 -0.000000    0.00462963  15 t-inv F
  0.500000  0.333333 -0.000000    0.00462963  16 t-inv F
 -0.333333  0.333333  0.000000    0.00462963  17 t-inv F
 -0.166667  0.333333  0.000000    0.00462963  18 t-inv F
  0.000000  0.500000 -0.000000    0.00462963  19 t-inv F
  0.166667  0.500000  0.000000    0.00462963  20 t-inv F
  0.333333  0.500000  0.000000    0.00462963  21 t-inv F
  0.500000  0.500000 -0.000000    0.00462963  22 t-inv F
 -0.333333  0.500000 -0.000000    0.00462963  23 t-inv F
 -0.166667  0.500000 -0.000000    0.00462963  24 t-inv F
 -0.000000 -0.333333  0.000000    0.00462963  25 t-inv F
  0.166667 -0.333333 -0.000000    0.00462963  26 t-inv F
  0.333333 -0.333333 -0.000000    0.00462963  27 t-inv F
  0.500000 -0.333333 -0.000000    0.00462963  28 t-inv F
 -0.333333 -0.333333  0.000000    0.00462963  29 t-inv F
 -0.166667 -0.333333  0.000000    0.00462963  30 t-inv F
 -0.000000 -0.166667  0.000000    0.00462963  31 t-inv F
  0.166667 -0.166667 -0.000000    0.00462963  32 t-inv F
  0.333333 -0.166667 -0.000000    0.00462963  33 t-inv F
  0.500000 -0.166667 -0.000000    0.00462963  34 t-inv F
 -0.333333 -0.166667  0.000000    0.00462963  35 t-inv F
 -0.166667 -0.166667  0.000000    0.00462963  36 t-inv F
 -0.000000  0.000000  0.166667    0.00462963  37 t-inv F
  0.166667  0.000000  0.166667    0.00462963  38 t-inv F
  0.333333 -0.000000  0.166667    0.00462963  39 t-inv F
  0.500000  0.000000  0.166667    0.00462963  40 t-inv F
 -0.333333 -0.000000  0.166667    0.00462963  41 t-inv F
 -0.166667 -0.000000  0.166667    0.00462963  42 t-inv F
  0.000000  0.166667  0.166667    0.00462963  43 t-inv F
  0.166667  0.166667  0.166667    0.00462963  44 t-inv F
  0.333333  0.166667  0.166667    0.00462963  45 t-inv F
  0.500000  0.166667  0.166667    0.00462963  46 t-inv F
 -0.333333  0.166667  0.166667    0.00462963  47 t-inv F
 -0.166667  0.166667  0.166667    0.00462963  48 t-inv F
  0.000000  0.333333  0.166667    0.00462963  49 t-inv F
  0.166667  0.333333  0.166667    0.00462963  50 t-inv F
  0.333333  0.333333  0.166667    0.00462963  51 t-inv F
  0.500000  0.333333  0.166667    0.00462963  52 t-inv F
 -0.333333  0.333333  0.166667    0.00462963  53 t-inv F
 -0.166667  0.333333  0.166667    0.00462963  54 t-inv F
  0.000000  0.500000  0.166667    0.00462963  55 t-inv F
  0.166667  0.500000  0.166667    0.00462963  56 t-inv F
  0.333333  0.500000  0.166667    0.00462963  57 t-inv F
  0.500000  0.500000  0.166667    0.00462963  58 t-inv F
 -0.333333  0.500000  0.166667    0.00462963  59 t-inv F
 -0.166667  0.500000  0.166667    0.00462963  60 t-inv F
  0.000000 -0.333333  0.166667    0.00462963  61 t-inv F
  0.166667 -0.333333  0.166667    0.00462963  62 t-inv F
  0.333333 -0.333333  0.166667    0.00462963  63 t-inv F
  0.500000 -0.333333  0.166667    0.00462963  64 t-inv F
 -0.333333 -0.333333  0.166667    0.00462963  65 t-inv F
 -0.166667 -0.333333  0.166667    0.00462963  66 t-inv F
  0.000000 -0.166667  0.166667    0.00462963  67 t-inv F
  0.166667 -0.166667  0.166667    0.00462963  68 t-inv F
  0.333333 -0.166667  0.166667    0.00462963  69 t-inv F
  0.500000 -0.166667  0.166667    0.00462963  70 t-inv F
 -0.333333 -0.166667  0.166667    0.00462963  71 t-inv F
 -0.166667 -0.166667  0.166667    0.00462963  72 t-inv F
  0.000000  0.000000  0.333333    0.00462963  73 t-inv F
  0.166667  0.000000  0.333333    0.00462963  74 t-inv F
  0.333333  0.000000  0.333333    0.00462963  75 t-inv F
  0.500000 -0.000000  0.333333    0.00462963  76 t-inv F
 -0.333333  0.000000  0.333333    0.00462963  77 t-inv F
 -0.166667  0.000000  0.333333    0.00462963  78 t-inv F
 -0.000000  0.166667  0.333333    0.00462963  79 t-inv F
  0.166667  0.166667  0.333333    0.00462963  80 t-inv F
  0.333333  0.166667  0.333333    0.00462963  81 t-inv F
  0.500000  0.166667  0.333333    0.00462963  82 t-inv F
 -0.333333  0.166667  0.333333    0.00462963  83 t-inv F
 -0.166667  0.166667  0.333333    0.00462963  84 t-inv F
 -0.000000  0.333333  0.333333    0.00462963  85 t-inv F
  0.166667  0.333333  0.333333    0.00462963  86 t-inv F
  0.333333  0.333333  0.333333    0.00462963  87 t-inv F
  0.500000  0.333333  0.333333    0.00462963  88 t-inv F
 -0.333333  0.333333  0.333333    0.00462963  89 t-inv F
 -0.166667  0.333333  0.333333    0.00462963  90 t-inv F
 -0.000000  0.500000  0.333333    0.00462963  91 t-inv F
  0.166667  0.500000  0.333333    0.00462963  92 t-inv F
  0.333333  0.500000  0.333333    0.00462963  93 t-inv F
  0.500000  0.500000  0.333333    0.00462963  94 t-inv F
 -0.333333  0.500000  0.333333    0.00462963  95 t-inv F
 -0.166667  0.500000  0.333333    0.00462963  96 t-inv F
 -0.000000 -0.333333  0.333333    0.00462963  97 t-inv F
  0.166667 -0.333333  0.333333    0.00462963  98 t-inv F
  0.333333 -0.333333  0.333333    0.00462963  99 t-inv F
  0.500000 -0.333333  0.333333    0.00462963 100 t-inv F
 -0.333333 -0.333333  0.333333    0.00462963 101 t-inv F
 -0.166667 -0.333333  0.333333    0.00462963 102 t-inv F
 -0.000000 -0.166667  0.333333    0.00462963 103 t-inv F
  0.166667 -0.166667  0.333333    0.00462963 104 t-inv F
  0.333333 -0.166667  0.333333    0.00462963 105 t-inv F
  0.500000 -0.166667  0.333333    0.00462963 106 t-inv F
 -0.333333 -0.166667  0.333333    0.00462963 107 t-inv F
 -0.166667 -0.166667  0.333333    0.00462963 108 t-inv F
 -0.000000  0.000000  0.500000    0.00462963 109 t-inv F
  0.166667 -0.000000  0.500000    0.00462963 110 t-inv F
  0.333333  0.000000  0.500000    0.00462963 111 t-inv F
  0.500000  0.000000  0.500000    0.00462963 112 t-inv F
 -0.333333  0.000000  0.500000    0.00462963 113 t-inv F
 -0.166667 -0.000000  0.500000    0.00462963 114 t-inv F
  0.000000  0.166667  0.500000    0.00462963 115 t-inv F
  0.166667  0.166667  0.500000    0.00462963 116 t-inv F
  0.333333  0.166667  0.500000    0.00462963 117 t-inv F
  0.500000  0.166667  0.500000    0.00462963 118 t-inv F
 -0.333333  0.166667  0.500000    0.00462963 119 t-inv F
 -0.166667  0.166667  0.500000    0.00462963 120 t-inv F
 -0.000000  0.333333  0.500000    0.00462963 121 t-inv F
  0.166667  0.333333  0.500000    0.00462963 122 t-inv F
  0.333333  0.333333  0.500000    0.00462963 123 t-inv F
  0.500000  0.333333  0.500000    0.00462963 124 t-inv F
 -0.333333  0.333333  0.500000    0.00462963 125 t-inv F
 -0.166667  0.333333  0.500000    0.00462963 126 t-inv F
  0.000000  0.500000  0.500000    0.00462963 127 t-inv F
  0.166667  0.500000  0.500000    0.00462963 128 t-inv F
  0.333333  0.500000  0.500000    0.00462963 129 t-inv F
  0.500000  0.500000  0.500000    0.00462963 130 t-inv F
 -0.333333  0.500000  0.500000    0.00462963 131 t-inv F
 -0.166667  0.500000  0.500000    0.00462963 132 t-inv F
 -0.000000 -0.333333  0.500000    0.00462963 133 t-inv F
  0.166667 -0.333333  0.500000    0.00462963 134 t-inv F
  0.333333 -0.333333  0.500000    0.00462963 135 t-inv F
  0.500000 -0.333333  0.500000    0.00462963 136 t-inv F
 -0.333333 -0.333333  0.500000    0.00462963 137 t-inv F
 -0.166667 -0.333333  0.500000    0.00462963 138 t-inv F
 -0.000000 -0.166667  0.500000    0.00462963 139 t-inv F
  0.166667 -0.166667  0.500000    0.00462963 140 t-inv F
  0.333333 -0.166667  0.500000    0.00462963 141 t-inv F
  0.500000 -0.166667  0.500000    0.00462963 142 t-inv F
 -0.333333 -0.166667  0.500000    0.00462963 143 t-inv F
 -0.166667 -0.166667  0.500000    0.00462963 144 t-inv F
  0.000000 -0.000000 -0.333333    0.00462963 145 t-inv F
  0.166667 -0.000000 -0.333333    0.00462963 146 t-inv F
  0.333333 -0.000000 -0.333333    0.00462963 147 t-inv F
  0.500000  0.000000 -0.333333    0.00462963 148 t-inv F
 -0.333333 -0.000000 -0.333333    0.00462963 149 t-inv F
 -0.166667 -0.000000 -0.333333    0.00462963 150 t-inv F
  0.000000  0.166667 -0.333333    0.00462963 151 t-inv F
  0.166667  0.166667 -0.333333    0.00462963 152 t-inv F
  0.333333  0.166667 -0.333333    0.00462963 153 t-inv F
  0.500000  0.166667 -0.333333    0.00462963 154 t-inv F
 -0.333333  0.166667 -0.333333    0.00462963 155 t-inv F
 -0.166667  0.166667 -0.333333    0.00462963 156 t-inv F
  0.000000  0.333333 -0.333333    0.00462963 157 t-inv F
  0.166667  0.333333 -0.333333    0.00462963 158 t-inv F
  0.333333  0.333333 -0.333333    0.00462963 159 t-inv F
  0.500000  0.333333 -0.333333    0.00462963 160 t-inv F
 -0.333333  0.333333 -0.333333    0.00462963 161 t-inv F
 -0.166667  0.333333 -0.333333    0.00462963 162 t-inv F
  0.000000  0.500000 -0.333333    0.00462963 163 t-inv F
  0.166667  0.500000 -0.333333    0.00462963 164 t-inv F
  0.333333  0.500000 -0.333333    0.00462963 165 t-inv F
  0.500000  0.500000 -0.333333    0.00462963 166 t-inv F
 -0.333333  0.500000 -0.333333    0.00462963 167 t-inv F
 -0.166667  0.500000 -0.333333    0.00462963 168 t-inv F
  0.000000 -0.333333 -0.333333    0.00462963 169 t-inv F
  0.166667 -0.333333 -0.333333    0.00462963 170 t-inv F
  0.333333 -0.333333 -0.333333    0.00462963 171 t-inv F
  0.500000 -0.333333 -0.333333    0.00462963 172 t-inv F
 -0.333333 -0.333333 -0.333333    0.00462963 173 t-inv F
 -0.166667 -0.333333 -0.333333    0.00462963 174 t-inv F
  0.000000 -0.166667 -0.333333    0.00462963 175 t-inv F
  0.166667 -0.166667 -0.333333    0.00462963 176 t-inv F
  0.333333 -0.166667 -0.333333    0.00462963 177 t-inv F
  0.500000 -0.166667 -0.333333    0.00462963 178 t-inv F
 -0.333333 -0.166667 -0.333333    0.00462963 179 t-inv F
 -0.166667 -0.166667 -0.333333    0.00462963 180 t-inv F
  0.000000 -0.000000 -0.166667    0.00462963 181 t-inv F
  0.166667  0.000000 -0.166667    0.00462963 182 t-inv F
  0.333333  0.000000 -0.166667    0.00462963 183 t-inv F
  0.500000  0.000000 -0.166667    0.00462963 184 t-inv F
 -0.333333  0.000000 -0.166667    0.00462963 185 t-inv F
 -0.166667 -0.000000 -0.166667    0.00462963 186 t-inv F
  0.000000  0.166667 -0.166667    0.00462963 187 t-inv F
  0.166667  0.166667 -0.166667    0.00462963 188 t-inv F
  0.333333  0.166667 -0.166667    0.00462963 189 t-inv F
  0.500000  0.166667 -0.166667    0.00462963 190 t-inv F
 -0.333333  0.166667 -0.166667    0.00462963 191 t-inv F
 -0.166667  0.166667 -0.166667    0.00462963 192 t-inv F
  0.000000  0.333333 -0.166667    0.00462963 193 t-inv F
  0.166667  0.333333 -0.166667    0.00462963 194 t-inv F
  0.333333  0.333333 -0.166667    0.00462963 195 t-inv F
  0.500000  0.333333 -0.166667    0.00462963 196 t-inv F
 -0.333333  0.333333 -0.166667    0.00462963 197 t-inv F
 -0.166667  0.333333 -0.166667    0.00462963 198 t-inv F
  0.000000  0.500000 -0.166667    0.00462963 199 t-inv F
  0.166667  0.500000 -0.166667    0.00462963 200 t-inv F
  0.333333  0.500000 -0.166667    0.00462963 201 t-inv F
  0.500000  0.500000 -0.166667    0.00462963 202 t-inv F
 -0.333333  0.500000 -0.166667    0.00462963 203 t-inv F
 -0.166667  0.500000 -0.166667    0.00462963 204 t-inv F
  0.000000 -0.333333 -0.166667    0.00462963 205 t-inv F
  0.166667 -0.333333 -0.166667    0.00462963 206 t-inv F
  0.333333 -0.333333 -0.166667    0.00462963 207 t-inv F
  0.500000 -0.333333 -0.166667    0.00462963 208 t-inv F
 -0.333333 -0.333333 -0.166667    0.00462963 209 t-inv F
 -0.166667 -0.333333 -0.166667    0.00462963 210 t-inv F
  0.000000 -0.166667 -0.166667    0.00462963 211 t-inv F
  0.166667 -0.166667 -0.166667    0.00462963 212 t-inv F
  0.333333 -0.166667 -0.166667    0.00462963 213 t-inv F
  0.500000 -0.166667 -0.166667    0.00462963 214 t-inv F
 -0.333333 -0.166667 -0.166667    0.00462963 215 t-inv F
 -0.166667 -0.166667 -0.166667    0.00462963 216 t-inv F


--------------------------------------------------------------------------------------------------------




 Dimension of arrays:
   k-points           NKPTS =    216   k-points in BZ     NKDIM =    216   number of bands    NBANDS=     24
   number of dos      NEDOS =    301   number of ions     NIONS =      1
   non local maximal  LDIM  =      6   non local SUM 2l+1 LMDIM =     18
   total plane-waves  NPLWV =   8000
   max r-space proj   IRMAX =      1   max aug-charges    IRDMAX=  35530
   dimension x,y,z NGX =    20 NGY =   20 NGZ =   20
   dimension x,y,z NGXF=    40 NGYF=   40 NGZF=   40
   support grid    NGXF=    80 NGYF=   80 NGZF=   80
   ions per type =               1
   NGX,Y,Z   is equivalent  to a cutoff of   9.24,  9.24,  9.24 a.u.
   NGXF,Y,Z  is equivalent  to a cutoff of  18.47, 18.47, 18.47 a.u.

 SYSTEM =  Og_FCC                                  
 POSCAR =  Ar_FCC                                  

 Startparameter for this run:
   NWRITE =      2    write-flag & timer
   PREC   = accura    normal or accurate (medium, high low for compatibility)
   ISTART =      0    job   : 0-new  1-cont  2-samecut
   ICHARG =      2    charge: 1-file 2-atom 10-const
   ISPIN  =      1    spin polarized calculation?
   LNONCOLLINEAR =      T non collinear calculations
   LSORBIT =      T    spin-orbit coupling
   INIWAV =      1    electr: 0-lowe 1-rand  2-diag
   LASPH  =      F    aspherical Exc in radial PAW
   METAGGA=      F    non-selfconsistent MetaGGA calc.

 Electronic Relaxation 1
   ENCUT  =  300.0 eV  22.05 Ry    4.70 a.u.   5.08  5.08  5.08*2*pi/ulx,y,z
   ENINI  =  300.0     initial cutoff
   ENAUG  =  799.9 eV  augmentation charge cutoff
   NELM   =     50;   NELMIN=  2; NELMDL= -5     # of ELM steps 
   EDIFF  = 0.1E-06   stopping-criterion for ELM
   LREAL  =      F    real-space projection
   NLSPLINE    = F    spline interpolate recip. space projectors
   LCOMPAT=      F    compatible to vasp.4.4
   GGA_COMPAT  = F    GGA compatible to vasp.4.4-vasp.4.6
   LMAXPAW     = -100 max onsite density
   LMAXMIX     =    2 max onsite mixed and CHGCAR
   VOSKOWN=      0    Vosko Wilk Nusair interpolation
   ROPT   =    0.00000
 Ionic relaxation
   EDIFFG = 0.1E-04   stopping-criterion for IOM
   NSW    =      1    number of steps for IOM
   NBLOCK =      1;   KBLOCK =      1    inner block; outer block 
   IBRION =     -1    ionic relax: 0-MD 1-quasi-New 2-CG
   NFREE  =      5    steps in history (QN), initial steepest desc. (CG)
   ISIF   =      3    stress and relaxation
   IWAVPR =     10    prediction:  0-non 1-charg 2-wave 3-comb
   ISYM   =      0    0-nonsym 1-usesym 2-fastsym
   LCORR  =      T    Harris-Foulkes like correction to forces

   POTIM  = 0.1000    time-step for ionic-motion
   TEIN   =    0.0    initial temperature
   TEBEG  =    0.0;   TEEND  =   0.0 temperature during run
   SMASS  =  -3.00    Nose mass-parameter (am)
   estimated Nose-frequenzy (Omega)   =  0.10E-29 period in steps =****** mass=  -0.296E-27a.u.
   SCALEE = 1.0000    scale energy and forces
   NPACO  =    256;   APACO  = 16.0  distance and # of slots for P.C.
   PSTRESS=    0.0 pullay stress

  Mass of Ions in am
   POMASS =  39.95
  Ionic Valenz
   ZVAL   =   8.00
  Atomic Wigner-Seitz radii
   RWIGS  =  -1.00
  virtual crystal weights 
   VCA    =   1.00
   NELECT =       8.0000    total number of electrons
   NUPDOWN=      -1.0000    fix difference up-down

 DOS related values:
   EMIN   =  10.00;   EMAX   =-10.00  energy-range for DOS
   EFERMI =   0.00
   ISMEAR =     0;   SIGMA  =   0.05  broadening in eV -4-tet -1-fermi 0-gaus

 Electronic relaxation 2 (details)
   IALGO  =     53    algorithm
   LDIAG  =      T    sub-space diagonalisation (order eigenvalues)
   LSUBROT=      F    optimize rotation matrix (better conditioning)
   TURBO    =      0    0=normal 1=particle mesh
   IRESTART =      0    0=no restart 2=restart with 2 vectors
   NREBOOT  =      0    no. of reboots
   NMIN     =      0    reboot dimension
   EREF     =   0.00    reference energy to select bands
   IMIX   =      4    mixing-type and parameters
     AMIX     =   0.40;   BMIX     =  1.00
     AMIX_MAG =   1.60;   BMIX_MAG =  1.00
     AMIN     =   0.10
     WC   =   100.;   INIMIX=   1;  MIXPRE=   1;  MAXMIX=  50

 Intra band minimization:
   WEIMIN = 0.0000     energy-eigenvalue tresh-hold
   EBREAK =  0.10E-08  absolut break condition
   DEPER  =   0.30     relativ break condition  

   TIME   =   0.60     timestep for ELM

  volume/ion in A,a.u.               =      32.98       222.58
  Fermi-wavevector in a.u.,A,eV,Ry     =   1.020964  1.929343 14.182280  1.042368
  Thomas-Fermi vector in A             =   2.154563
 
 Write flags
   LWAVE        =      T    write WAVECAR
   LDOWNSAMPLE  =      F    k-point downsampling of WAVECAR
   LCHARG       =      F    write CHGCAR
   LVTOT        =      F    write LOCPOT, total local potential
   LVHAR        =      F    write LOCPOT, Hartree potential only
   LELF         =      F    write electronic localiz. function (ELF)
   LORBIT       =      0    0 simple, 1 ext, 2 COOP (PROOUT), +10 PAW based schemes


 Dipole corrections
   LMONO  =      F    monopole corrections only (constant potential shift)
   LDIPOL =      F    correct potential (dipole corrections)
   IDIPOL =      0    1-x, 2-y, 3-z, 4-all directions 
   EPSILON=  1.0000000 bulk dielectric constant

 Exchange correlation treatment:
   GGA     =    PE    GGA type
   LEXCH   =     8    internal setting for exchange type
   VOSKOWN=      0    Vosko Wilk Nusair interpolation
   EXXOEP  =     0    0=HF, 1=EXX-LHF (local Hartree Fock) 2=EXX OEP
   LHFCALC =     T    Hartree Fock is set to
   LSYMGRAD=     F    symmetrize gradient (conserves proper symmetry)
   PRECFOCK=normal    Normal, Fast or Accurate (Low or Medium for compatibility)
   LRHFCALC=     F    long range Hartree Fock
   LRSCOR  =     F    long range correlation only (use DFT for short range part)
   LTHOMAS =     F    Thomas Fermi screening in HF
   LMODELHF=     F    short range full HF, long range fraction AEXX
   ENCUT4O =  -1.0   cutoff for four orbital integrals eV
   LMAXFOCK=     4    L truncation for augmentation on plane wave grid
   LMAXFOCKAE=  -1    L truncation for all-electron charge restoration on plane wave grid
   NMAXFOCKAE=   1    number of basis functions for all-electron charge restoration
   LFOCKAEDFT=     F  apply the AE augmentation even for DFT
   NKREDX  =     2    reduce k-point grid by
   NKREDY  =     2    reduce k-point grid by
   NKREDZ  =     2    reduce k-point grid by
   SHIFTRED=     F    shift reduced grid of Gamma
   HFKIDENT=     F    idential grid for each k-point
   ODDONLY =     F    use only odd q-grid points
   EVENONLY=     F    use only even q-grid points
   HFALPHA =   -1.0000 decay constant for conv. correction
   MCALPHA =    0.0000 extent of test-charge in conv. correction in multipole expansion
   AEXX    =    0.2500 exact exchange contribution
   HFSCREEN=    0.2000 screening length (either q_TF or 0.3 A-1)
   HFSCREENC=   0.2000 screening length for correlation (either q_TF or 0.3 A-1)
   HFRCUT  =    0.0000 spherical cutoff for potential kernel
   ALDAX   =    0.7500 LDA exchange part
   AGGAX   =    0.7500 GGA exchange part
   ALDAC   =    1.0000 LDA correlation
   AGGAC   =    1.0000 GGA correlation
   ENCUTFOCK=  -1.0 apply spherical cutoff to Coloumb kernel
   NBANDSGWLOW=     1    first orbital included in HF term
   NBLOCK_FOCK=    64    blocking factor in FOCK_ACC
 Linear response parameters
   LEPSILON=     F    determine dielectric tensor
   LRPA    =     F    only Hartree local field effects (RPA)
   LNABLA  =     F    use nabla operator in PAW spheres
   LVEL    =     F    velocity operator in full k-point grid
   LINTERFAST=   F  fast interpolation
   KINTER  =     0    interpolate to denser k-point grid
   CSHIFT  =0.1000    complex shift for real part using Kramers Kronig
   OMEGAMAX=  -1.0    maximum frequency
   DEG_THRESHOLD= 0.2000000E-02 threshold for treating states as degnerate
   RTIME   =   -0.100 relaxation time in fs
  (WPLASMAI=    0.000 imaginary part of plasma frequency in eV, 0.658/RTIME)
   DFIELD  = 0.0000000 0.0000000 0.0000000 field for delta impulse in time
 
 Orbital magnetization related:
   ORBITALMAG=     F  switch on orbital magnetization
   LCHIMAG   =     F  perturbation theory with respect to B field
   DQ        =  0.001000  dq finite difference perturbation B field
   LLRAUG    =     F  two centre corrections for induced B field



--------------------------------------------------------------------------------------------------------


 Static calculation
 charge density and potential will be updated during run
 non collinear spin polarized calculation
 Conjugate gradient for all bands (Freysoldt, et al. PRB 79, 241103 (2009))
 perform sub-space diagonalisation
    before iterative eigenvector-optimisation
 modified Broyden-mixing scheme, WC =      100.0
 initial mixing is a Kerker type mixing with AMIX =  0.4000 and BMIX =      1.0000
 Hartree-type preconditioning will be used
 using additional bands           20
 reciprocal scheme for non local part
 use partial core corrections
 no Harris-corrections to forces 
 use gradient corrections 
 use of overlap-Matrix (Vanderbilt PP)
 Gauss-broadening in eV      SIGMA  =   0.05


--------------------------------------------------------------------------------------------------------


  energy-cutoff  :      300.00
  volume of cell :       32.98
      direct lattice vectors                 reciprocal lattice vectors
     3.599696745  0.000000000  0.000000000     0.277801179 -0.160388585 -0.113411856
     1.799848373  3.117428827 -0.000000000     0.000000000  0.320777171 -0.113411856
     1.799848373  1.039142942  2.939140085    -0.000000000  0.000000000  0.340235569

  length of vectors
     3.599696745  3.599696745  3.599696745     0.340235569  0.340235569  0.340235569


 
 k-points in units of 2pi/SCALE and weight: k-points                                
   0.00000000  0.00000000  0.00000000       0.005
   0.04630020 -0.02673143 -0.01890198       0.005
   0.09260039 -0.05346286 -0.03780395       0.005
   0.13890059 -0.08019429 -0.05670593       0.005
  -0.09260039  0.05346286  0.03780395       0.005
  -0.04630020  0.02673143  0.01890198       0.005
   0.00000000  0.05346286 -0.01890198       0.005
   0.04630020  0.02673143 -0.03780395       0.005
   0.09260039  0.00000000 -0.05670593       0.005
   0.13890059 -0.02673143 -0.07560790       0.005
  -0.09260039  0.10692572  0.01890198       0.005
  -0.04630020  0.08019429  0.00000000       0.005
   0.00000000  0.10692572 -0.03780395       0.005
   0.04630020  0.08019429 -0.05670593       0.005
   0.09260039  0.05346286 -0.07560790       0.005
   0.13890059  0.02673143 -0.09450988       0.005
  -0.09260039  0.16038859  0.00000000       0.005
  -0.04630020  0.13365715 -0.01890198       0.005
   0.00000000  0.16038859 -0.05670593       0.005
   0.04630020  0.13365715 -0.07560790       0.005
   0.09260039  0.10692572 -0.09450988       0.005
   0.13890059  0.08019429 -0.11341186       0.005
  -0.09260039  0.21385145 -0.01890198       0.005
  -0.04630020  0.18712002 -0.03780395       0.005
  -0.00000000 -0.10692572  0.03780395       0.005
   0.04630020 -0.13365715  0.01890198       0.005
   0.09260039 -0.16038859 -0.00000000       0.005
   0.13890059 -0.18712002 -0.01890198       0.005
  -0.09260039 -0.05346286  0.07560790       0.005
  -0.04630020 -0.08019429  0.05670593       0.005
  -0.00000000 -0.05346286  0.01890198       0.005
   0.04630020 -0.08019429 -0.00000000       0.005
   0.09260039 -0.10692572 -0.01890198       0.005
   0.13890059 -0.13365715 -0.03780395       0.005
  -0.09260039 -0.00000000  0.05670593       0.005
  -0.04630020 -0.02673143  0.03780395       0.005
  -0.00000000  0.00000000  0.05670593       0.005
   0.04630020 -0.02673143  0.03780395       0.005
   0.09260039 -0.05346286  0.01890198       0.005
   0.13890059 -0.08019429 -0.00000000       0.005
  -0.09260039  0.05346286  0.09450988       0.005
  -0.04630020  0.02673143  0.07560790       0.005
  -0.00000000  0.05346286  0.03780395       0.005
   0.04630020  0.02673143  0.01890198       0.005
   0.09260039  0.00000000  0.00000000       0.005
   0.13890059 -0.02673143 -0.01890198       0.005
  -0.09260039  0.10692572  0.07560790       0.005
  -0.04630020  0.08019429  0.05670593       0.005
  -0.00000000  0.10692572  0.01890198       0.005
   0.04630020  0.08019429  0.00000000       0.005
   0.09260039  0.05346286 -0.01890198       0.005
   0.13890059  0.02673143 -0.03780395       0.005
  -0.09260039  0.16038859  0.05670593       0.005
  -0.04630020  0.13365715  0.03780395       0.005
  -0.00000000  0.16038859  0.00000000       0.005
   0.04630020  0.13365715 -0.01890198       0.005
   0.09260039  0.10692572 -0.03780395       0.005
   0.13890059  0.08019429 -0.05670593       0.005
  -0.09260039  0.21385145  0.03780395       0.005
  -0.04630020  0.18712002  0.01890198       0.005
  -0.00000000 -0.10692572  0.09450988       0.005
   0.04630020 -0.13365715  0.07560790       0.005
   0.09260039 -0.16038859  0.05670593       0.005
   0.13890059 -0.18712002  0.03780395       0.005
  -0.09260039 -0.05346286  0.13231383       0.005
  -0.04630020 -0.08019429  0.11341186       0.005
  -0.00000000 -0.05346286  0.07560790       0.005
   0.04630020 -0.08019429  0.05670593       0.005
   0.09260039 -0.10692572  0.03780395       0.005
   0.13890059 -0.13365715  0.01890198       0.005
  -0.09260039 -0.00000000  0.11341186       0.005
  -0.04630020 -0.02673143  0.09450988       0.005
  -0.00000000  0.00000000  0.11341186       0.005
   0.04630020 -0.02673143  0.09450988       0.005
   0.09260039 -0.05346286  0.07560790       0.005
   0.13890059 -0.08019429  0.05670593       0.005
  -0.09260039  0.05346286  0.15121581       0.005
  -0.04630020  0.02673143  0.13231383       0.005
  -0.00000000  0.05346286  0.09450988       0.005
   0.04630020  0.02673143  0.07560790       0.005
   0.09260039  0.00000000  0.05670593       0.005
   0.13890059 -0.02673143  0.03780395       0.005
  -0.09260039  0.10692572  0.13231383       0.005
  -0.04630020  0.08019429  0.11341186       0.005
  -0.00000000  0.10692572  0.07560790       0.005
   0.04630020  0.08019429  0.05670593       0.005
   0.09260039  0.05346286  0.03780395       0.005
   0.13890059  0.02673143  0.01890198       0.005
  -0.09260039  0.16038859  0.11341186       0.005
  -0.04630020  0.13365715  0.09450988       0.005
  -0.00000000  0.16038859  0.05670593       0.005
   0.04630020  0.13365715  0.03780395       0.005
   0.09260039  0.10692572  0.01890198       0.005
   0.13890059  0.08019429  0.00000000       0.005
  -0.09260039  0.21385145  0.09450988       0.005
  -0.04630020  0.18712002  0.07560790       0.005
  -0.00000000 -0.10692572  0.15121581       0.005
   0.04630020 -0.13365715  0.13231383       0.005
   0.09260039 -0.16038859  0.11341186       0.005
   0.13890059 -0.18712002  0.09450988       0.005
  -0.09260039 -0.05346286  0.18901976       0.005
  -0.04630020 -0.08019429  0.17011778       0.005
  -0.00000000 -0.05346286  0.13231383       0.005
   0.04630020 -0.08019429  0.11341186       0.005
   0.09260039 -0.10692572  0.09450988       0.005
   0.13890059 -0.13365715  0.07560790       0.005
  -0.09260039 -0.00000000  0.17011778       0.005
  -0.04630020 -0.02673143  0.15121581       0.005
  -0.00000000  0.00000000  0.17011778       0.005
   0.04630020 -0.02673143  0.15121581       0.005
   0.09260039 -0.05346286  0.13231383       0.005
   0.13890059 -0.08019429  0.11341186       0.005
  -0.09260039  0.05346286  0.20792174       0.005
  -0.04630020  0.02673143  0.18901976       0.005
  -0.00000000  0.05346286  0.15121581       0.005
   0.04630020  0.02673143  0.13231383       0.005
   0.09260039  0.00000000  0.11341186       0.005
   0.13890059 -0.02673143  0.09450988       0.005
  -0.09260039  0.10692572  0.18901976       0.005
  -0.04630020  0.08019429  0.17011778       0.005
  -0.00000000  0.10692572  0.13231383       0.005
   0.04630020  0.08019429  0.11341186       0.005
   0.09260039  0.05346286  0.09450988       0.005
   0.13890059  0.02673143  0.07560790       0.005
  -0.09260039  0.16038859  0.17011778       0.005
  -0.04630020  0.13365715  0.15121581       0.005
  -0.00000000  0.16038859  0.11341186       0.005
   0.04630020  0.13365715  0.09450988       0.005
   0.09260039  0.10692572  0.07560790       0.005
   0.13890059  0.08019429  0.05670593       0.005
  -0.09260039  0.21385145  0.15121581       0.005
  -0.04630020  0.18712002  0.13231383       0.005
  -0.00000000 -0.10692572  0.20792174       0.005
   0.04630020 -0.13365715  0.18901976       0.005
   0.09260039 -0.16038859  0.17011778       0.005
   0.13890059 -0.18712002  0.15121581       0.005
  -0.09260039 -0.05346286  0.24572569       0.005
  -0.04630020 -0.08019429  0.22682371       0.005
  -0.00000000 -0.05346286  0.18901976       0.005
   0.04630020 -0.08019429  0.17011778       0.005
   0.09260039 -0.10692572  0.15121581       0.005
   0.13890059 -0.13365715  0.13231383       0.005
  -0.09260039 -0.00000000  0.22682371       0.005
  -0.04630020 -0.02673143  0.20792174       0.005
   0.00000000 -0.00000000 -0.11341186       0.005
   0.04630020 -0.02673143 -0.13231383       0.005
   0.09260039 -0.05346286 -0.15121581       0.005
   0.13890059 -0.08019429 -0.17011778       0.005
  -0.09260039  0.05346286 -0.07560790       0.005
  -0.04630020  0.02673143 -0.09450988       0.005
   0.00000000  0.05346286 -0.13231383       0.005
   0.04630020  0.02673143 -0.15121581       0.005
   0.09260039  0.00000000 -0.17011778       0.005
   0.13890059 -0.02673143 -0.18901976       0.005
  -0.09260039  0.10692572 -0.09450988       0.005
  -0.04630020  0.08019429 -0.11341186       0.005
   0.00000000  0.10692572 -0.15121581       0.005
   0.04630020  0.08019429 -0.17011778       0.005
   0.09260039  0.05346286 -0.18901976       0.005
   0.13890059  0.02673143 -0.20792174       0.005
  -0.09260039  0.16038859 -0.11341186       0.005
  -0.04630020  0.13365715 -0.13231383       0.005
   0.00000000  0.16038859 -0.17011778       0.005
   0.04630020  0.13365715 -0.18901976       0.005
   0.09260039  0.10692572 -0.20792174       0.005
   0.13890059  0.08019429 -0.22682371       0.005
  -0.09260039  0.21385145 -0.13231383       0.005
  -0.04630020  0.18712002 -0.15121581       0.005
   0.00000000 -0.10692572 -0.07560790       0.005
   0.04630020 -0.13365715 -0.09450988       0.005
   0.09260039 -0.16038859 -0.11341186       0.005
   0.13890059 -0.18712002 -0.13231383       0.005
  -0.09260039 -0.05346286 -0.03780395       0.005
  -0.04630020 -0.08019429 -0.05670593       0.005
   0.00000000 -0.05346286 -0.09450988       0.005
   0.04630020 -0.08019429 -0.11341186       0.005
   0.09260039 -0.10692572 -0.13231383       0.005
   0.13890059 -0.13365715 -0.15121581       0.005
  -0.09260039 -0.00000000 -0.05670593       0.005
  -0.04630020 -0.02673143 -0.07560790       0.005
   0.00000000 -0.00000000 -0.05670593       0.005
   0.04630020 -0.02673143 -0.07560790       0.005
   0.09260039 -0.05346286 -0.09450988       0.005
   0.13890059 -0.08019429 -0.11341186       0.005
  -0.09260039  0.05346286 -0.01890198       0.005
  -0.04630020  0.02673143 -0.03780395       0.005
   0.00000000  0.05346286 -0.07560790       0.005
   0.04630020  0.02673143 -0.09450988       0.005
   0.09260039  0.00000000 -0.11341186       0.005
   0.13890059 -0.02673143 -0.13231383       0.005
  -0.09260039  0.10692572 -0.03780395       0.005
  -0.04630020  0.08019429 -0.05670593       0.005
   0.00000000  0.10692572 -0.09450988       0.005
   0.04630020  0.08019429 -0.11341186       0.005
   0.09260039  0.05346286 -0.13231383       0.005
   0.13890059  0.02673143 -0.15121581       0.005
  -0.09260039  0.16038859 -0.05670593       0.005
  -0.04630020  0.13365715 -0.07560790       0.005
   0.00000000  0.16038859 -0.11341186       0.005
   0.04630020  0.13365715 -0.13231383       0.005
   0.09260039  0.10692572 -0.15121581       0.005
   0.13890059  0.08019429 -0.17011778       0.005
  -0.09260039  0.21385145 -0.07560790       0.005
  -0.04630020  0.18712002 -0.09450988       0.005
   0.00000000 -0.10692572 -0.01890198       0.005
   0.04630020 -0.13365715 -0.03780395       0.005
   0.09260039 -0.16038859 -0.05670593       0.005
   0.13890059 -0.18712002 -0.07560790       0.005
  -0.09260039 -0.05346286  0.01890198       0.005
  -0.04630020 -0.08019429 -0.00000000       0.005
   0.00000000 -0.05346286 -0.03780395       0.005
   0.04630020 -0.08019429 -0.05670593       0.005
   0.09260039 -0.10692572 -0.07560790       0.005
   0.13890059 -0.13365715 -0.09450988       0.005
  -0.09260039 -0.00000000  0.00000000       0.005
  -0.04630020 -0.02673143 -0.01890198       0.005
 
 k-points in reciprocal lattice and weights: k-points                                
   0.00000000  0.00000000  0.00000000       0.005
   0.16666667  0.00000000 -0.00000000       0.005
   0.33333333  0.00000000 -0.00000000       0.005
   0.50000000  0.00000000 -0.00000000       0.005
  -0.33333333 -0.00000000  0.00000000       0.005
  -0.16666667 -0.00000000  0.00000000       0.005
   0.00000000  0.16666667 -0.00000000       0.005
   0.16666667  0.16666667 -0.00000000       0.005
   0.33333333  0.16666667 -0.00000000       0.005
   0.50000000  0.16666667 -0.00000000       0.005
  -0.33333333  0.16666667 -0.00000000       0.005
  -0.16666667  0.16666667  0.00000000       0.005
   0.00000000  0.33333333  0.00000000       0.005
   0.16666667  0.33333333 -0.00000000       0.005
   0.33333333  0.33333333 -0.00000000       0.005
   0.50000000  0.33333333 -0.00000000       0.005
  -0.33333333  0.33333333  0.00000000       0.005
  -0.16666667  0.33333333  0.00000000       0.005
   0.00000000  0.50000000 -0.00000000       0.005
   0.16666667  0.50000000  0.00000000       0.005
   0.33333333  0.50000000  0.00000000       0.005
   0.50000000  0.50000000 -0.00000000       0.005
  -0.33333333  0.50000000 -0.00000000       0.005
  -0.16666667  0.50000000 -0.00000000       0.005
  -0.00000000 -0.33333333  0.00000000       0.005
   0.16666667 -0.33333333 -0.00000000       0.005
   0.33333333 -0.33333333 -0.00000000       0.005
   0.50000000 -0.33333333 -0.00000000       0.005
  -0.33333333 -0.33333333  0.00000000       0.005
  -0.16666667 -0.33333333  0.00000000       0.005
  -0.00000000 -0.16666667  0.00000000       0.005
   0.16666667 -0.16666667 -0.00000000       0.005
   0.33333333 -0.16666667 -0.00000000       0.005
   0.50000000 -0.16666667 -0.00000000       0.005
  -0.33333333 -0.16666667  0.00000000       0.005
  -0.16666667 -0.16666667  0.00000000       0.005
  -0.00000000  0.00000000  0.16666667       0.005
   0.16666667  0.00000000  0.16666667       0.005
   0.33333333 -0.00000000  0.16666667       0.005
   0.50000000  0.00000000  0.16666667       0.005
  -0.33333333 -0.00000000  0.16666667       0.005
  -0.16666667 -0.00000000  0.16666667       0.005
   0.00000000  0.16666667  0.16666667       0.005
   0.16666667  0.16666667  0.16666667       0.005
   0.33333333  0.16666667  0.16666667       0.005
   0.50000000  0.16666667  0.16666667       0.005
  -0.33333333  0.16666667  0.16666667       0.005
  -0.16666667  0.16666667  0.16666667       0.005
   0.00000000  0.33333333  0.16666667       0.005
   0.16666667  0.33333333  0.16666667       0.005
   0.33333333  0.33333333  0.16666667       0.005
   0.50000000  0.33333333  0.16666667       0.005
  -0.33333333  0.33333333  0.16666667       0.005
  -0.16666667  0.33333333  0.16666667       0.005
   0.00000000  0.50000000  0.16666667       0.005
   0.16666667  0.50000000  0.16666667       0.005
   0.33333333  0.50000000  0.16666667       0.005
   0.50000000  0.50000000  0.16666667       0.005
  -0.33333333  0.50000000  0.16666667       0.005
  -0.16666667  0.50000000  0.16666667       0.005
   0.00000000 -0.33333333  0.16666667       0.005
   0.16666667 -0.33333333  0.16666667       0.005
   0.33333333 -0.33333333  0.16666667       0.005
   0.50000000 -0.33333333  0.16666667       0.005
  -0.33333333 -0.33333333  0.16666667       0.005
  -0.16666667 -0.33333333  0.16666667       0.005
   0.00000000 -0.16666667  0.16666667       0.005
   0.16666667 -0.16666667  0.16666667       0.005
   0.33333333 -0.16666667  0.16666667       0.005
   0.50000000 -0.16666667  0.16666667       0.005
  -0.33333333 -0.16666667  0.16666667       0.005
  -0.16666667 -0.16666667  0.16666667       0.005
   0.00000000  0.00000000  0.33333333       0.005
   0.16666667  0.00000000  0.33333333       0.005
   0.33333333  0.00000000  0.33333333       0.005
   0.50000000 -0.00000000  0.33333333       0.005
  -0.33333333  0.00000000  0.33333333       0.005
  -0.16666667  0.00000000  0.33333333       0.005
  -0.00000000  0.16666667  0.33333333       0.005
   0.16666667  0.16666667  0.33333333       0.005
   0.33333333  0.16666667  0.33333333       0.005
   0.50000000  0.16666667  0.33333333       0.005
  -0.33333333  0.16666667  0.33333333       0.005
  -0.16666667  0.16666667  0.33333333       0.005
  -0.00000000  0.33333333  0.33333333       0.005
   0.16666667  0.33333333  0.33333333       0.005
   0.33333333  0.33333333  0.33333333       0.005
   0.50000000  0.33333333  0.33333333       0.005
  -0.33333333  0.33333333  0.33333333       0.005
  -0.16666667  0.33333333  0.33333333       0.005
  -0.00000000  0.50000000  0.33333333       0.005
   0.16666667  0.50000000  0.33333333       0.005
   0.33333333  0.50000000  0.33333333       0.005
   0.50000000  0.50000000  0.33333333       0.005
  -0.33333333  0.50000000  0.33333333       0.005
  -0.16666667  0.50000000  0.33333333       0.005
  -0.00000000 -0.33333333  0.33333333       0.005
   0.16666667 -0.33333333  0.33333333       0.005
   0.33333333 -0.33333333  0.33333333       0.005
   0.50000000 -0.33333333  0.33333333       0.005
  -0.33333333 -0.33333333  0.33333333       0.005
  -0.16666667 -0.33333333  0.33333333       0.005
  -0.00000000 -0.16666667  0.33333333       0.005
   0.16666667 -0.16666667  0.33333333       0.005
   0.33333333 -0.16666667  0.33333333       0.005
   0.50000000 -0.16666667  0.33333333       0.005
  -0.33333333 -0.16666667  0.33333333       0.005
  -0.16666667 -0.16666667  0.33333333       0.005
  -0.00000000  0.00000000  0.50000000       0.005
   0.16666667 -0.00000000  0.50000000       0.005
   0.33333333  0.00000000  0.50000000       0.005
   0.50000000  0.00000000  0.50000000       0.005
  -0.33333333  0.00000000  0.50000000       0.005
  -0.16666667 -0.00000000  0.50000000       0.005
   0.00000000  0.16666667  0.50000000       0.005
   0.16666667  0.16666667  0.50000000       0.005
   0.33333333  0.16666667  0.50000000       0.005
   0.50000000  0.16666667  0.50000000       0.005
  -0.33333333  0.16666667  0.50000000       0.005
  -0.16666667  0.16666667  0.50000000       0.005
  -0.00000000  0.33333333  0.50000000       0.005
   0.16666667  0.33333333  0.50000000       0.005
   0.33333333  0.33333333  0.50000000       0.005
   0.50000000  0.33333333  0.50000000       0.005
  -0.33333333  0.33333333  0.50000000       0.005
  -0.16666667  0.33333333  0.50000000       0.005
   0.00000000  0.50000000  0.50000000       0.005
   0.16666667  0.50000000  0.50000000       0.005
   0.33333333  0.50000000  0.50000000       0.005
   0.50000000  0.50000000  0.50000000       0.005
  -0.33333333  0.50000000  0.50000000       0.005
  -0.16666667  0.50000000  0.50000000       0.005
  -0.00000000 -0.33333333  0.50000000       0.005
   0.16666667 -0.33333333  0.50000000       0.005
   0.33333333 -0.33333333  0.50000000       0.005
   0.50000000 -0.33333333  0.50000000       0.005
  -0.33333333 -0.33333333  0.50000000       0.005
  -0.16666667 -0.33333333  0.50000000       0.005
  -0.00000000 -0.16666667  0.50000000       0.005
   0.16666667 -0.16666667  0.50000000       0.005
   0.33333333 -0.16666667  0.50000000       0.005
   0.50000000 -0.16666667  0.50000000       0.005
  -0.33333333 -0.16666667  0.50000000       0.005
  -0.16666667 -0.16666667  0.50000000       0.005
   0.00000000 -0.00000000 -0.33333333       0.005
   0.16666667 -0.00000000 -0.33333333       0.005
   0.33333333 -0.00000000 -0.33333333       0.005
   0.50000000  0.00000000 -0.33333333       0.005
  -0.33333333 -0.00000000 -0.33333333       0.005
  -0.16666667 -0.00000000 -0.33333333       0.005
   0.00000000  0.16666667 -0.33333333       0.005
   0.16666667  0.16666667 -0.33333333       0.005
   0.33333333  0.16666667 -0.33333333       0.005
   0.50000000  0.16666667 -0.33333333       0.005
  -0.33333333  0.16666667 -0.33333333       0.005
  -0.16666667  0.16666667 -0.33333333       0.005
   0.00000000  0.33333333 -0.33333333       0.005
   0.16666667  0.33333333 -0.33333333       0.005
   0.33333333  0.33333333 -0.33333333       0.005
   0.50000000  0.33333333 -0.33333333       0.005
  -0.33333333  0.33333333 -0.33333333       0.005
  -0.16666667  0.33333333 -0.33333333       0.005
   0.00000000  0.50000000 -0.33333333       0.005
   0.16666667  0.50000000 -0.33333333       0.005
   0.33333333  0.50000000 -0.33333333       0.005
   0.50000000  0.50000000 -0.33333333       0.005
  -0.33333333  0.50000000 -0.33333333       0.005
  -0.16666667  0.50000000 -0.33333333       0.005
   0.00000000 -0.33333333 -0.33333333       0.005
   0.16666667 -0.33333333 -0.33333333       0.005
   0.33333333 -0.33333333 -0.33333333       0.005
   0.50000000 -0.33333333 -0.33333333       0.005
  -0.33333333 -0.33333333 -0.33333333       0.005
  -0.16666667 -0.33333333 -0.33333333       0.005
   0.00000000 -0.16666667 -0.33333333       0.005
   0.16666667 -0.16666667 -0.33333333       0.005
   0.33333333 -0.16666667 -0.33333333       0.005
   0.50000000 -0.16666667 -0.33333333       0.005
  -0.33333333 -0.16666667 -0.33333333       0.005
  -0.16666667 -0.16666667 -0.33333333       0.005
   0.00000000 -0.00000000 -0.16666667       0.005
   0.16666667  0.00000000 -0.16666667       0.005
   0.33333333  0.00000000 -0.16666667       0.005
   0.50000000  0.00000000 -0.16666667       0.005
  -0.33333333  0.00000000 -0.16666667       0.005
  -0.16666667 -0.00000000 -0.16666667       0.005
   0.00000000  0.16666667 -0.16666667       0.005
   0.16666667  0.16666667 -0.16666667       0.005
   0.33333333  0.16666667 -0.16666667       0.005
   0.50000000  0.16666667 -0.16666667       0.005
  -0.33333333  0.16666667 -0.16666667       0.005
  -0.16666667  0.16666667 -0.16666667       0.005
   0.00000000  0.33333333 -0.16666667       0.005
   0.16666667  0.33333333 -0.16666667       0.005
   0.33333333  0.33333333 -0.16666667       0.005
   0.50000000  0.33333333 -0.16666667       0.005
  -0.33333333  0.33333333 -0.16666667       0.005
  -0.16666667  0.33333333 -0.16666667       0.005
   0.00000000  0.50000000 -0.16666667       0.005
   0.16666667  0.50000000 -0.16666667       0.005
   0.33333333  0.50000000 -0.16666667       0.005
   0.50000000  0.50000000 -0.16666667       0.005
  -0.33333333  0.50000000 -0.16666667       0.005
  -0.16666667  0.50000000 -0.16666667       0.005
   0.00000000 -0.33333333 -0.16666667       0.005
   0.16666667 -0.33333333 -0.16666667       0.005
   0.33333333 -0.33333333 -0.16666667       0.005
   0.50000000 -0.33333333 -0.16666667       0.005
  -0.33333333 -0.33333333 -0.16666667       0.005
  -0.16666667 -0.33333333 -0.16666667       0.005
   0.00000000 -0.16666667 -0.16666667       0.005
   0.16666667 -0.16666667 -0.16666667       0.005
   0.33333333 -0.16666667 -0.16666667       0.005
   0.50000000 -0.16666667 -0.16666667       0.005
  -0.33333333 -0.16666667 -0.16666667       0.005
  -0.16666667 -0.16666667 -0.16666667       0.005
 
 position of ions in fractional coordinates (direct lattice) 
   0.00000000  0.00000000  0.00000000
 
 position of ions in cartesian coordinates  (Angst):
   0.00000000  0.00000000  0.00000000
 
 Euler angles ALPHA=     0.0000000  BETA=     0.0000000

 transformation matrix from SAXIS to cartesian coordinates
 ---------------------------------------------------------
     1.0000000 m_x     0.0000000 m_y     0.0000000 m_z
     0.0000000 m_x     1.0000000 m_y     0.0000000 m_z
     0.0000000 m_x     0.0000000 m_y     1.0000000 m_z

 transformation matrix from cartesian coordinates to SAXIS
 ---------------------------------------------------------
     1.0000000 m_x     0.0000000 m_y     0.0000000 m_z
     0.0000000 m_x     1.0000000 m_y     0.0000000 m_z
     0.0000000 m_x     0.0000000 m_y     1.0000000 m_z




--------------------------------------------------------------------------------------------------------


 k-point  1 :   0.0000 0.0000 0.0000  plane waves:     774
 k-point  2 :   0.1667 0.0000-0.0000  plane waves:     760
 k-point  3 :   0.3333 0.0000-0.0000  plane waves:     778
 k-point  4 :   0.5000 0.0000-0.0000  plane waves:     784
 k-point  5 :  -0.3333-0.0000 0.0000  plane waves:     778
 k-point  6 :  -0.1667-0.0000 0.0000  plane waves:     760
 k-point  7 :   0.0000 0.1667-0.0000  plane waves:     760
 k-point  8 :   0.1667 0.1667-0.0000  plane waves:     742
 k-point  9 :   0.3333 0.1667-0.0000  plane waves:     780
 k-point 10 :   0.5000 0.1667-0.0000  plane waves:     786
 k-point 11 :  -0.3333 0.1667-0.0000  plane waves:     778
 k-point 12 :  -0.1667 0.1667 0.0000  plane waves:     770
 k-point 13 :   0.0000 0.3333 0.0000  plane waves:     778
 k-point 14 :   0.1667 0.3333-0.0000  plane waves:     780
 k-point 15 :   0.3333 0.3333-0.0000  plane waves:     774
 k-point 16 :   0.5000 0.3333-0.0000  plane waves:     784
 k-point 17 :  -0.3333 0.3333 0.0000  plane waves:     778
 k-point 18 :  -0.1667 0.3333 0.0000  plane waves:     778
 k-point 19 :   0.0000 0.5000-0.0000  plane waves:     784
 k-point 20 :   0.1667 0.5000 0.0000  plane waves:     786
 k-point 21 :   0.3333 0.5000 0.0000  plane waves:     784
 k-point 22 :   0.5000 0.5000-0.0000  plane waves:     776
 k-point 23 :  -0.3333 0.5000-0.0000  plane waves:     784
 k-point 24 :  -0.1667 0.5000-0.0000  plane waves:     786
 k-point 25 :  -0.0000-0.3333 0.0000  plane waves:     778
 k-point 26 :   0.1667-0.3333-0.0000  plane waves:     778
 k-point 27 :   0.3333-0.3333-0.0000  plane waves:     778
 k-point 28 :   0.5000-0.3333-0.0000  plane waves:     784
 k-point 29 :  -0.3333-0.3333 0.0000  plane waves:     774
 k-point 30 :  -0.1667-0.3333 0.0000  plane waves:     780
 k-point 31 :  -0.0000-0.1667 0.0000  plane waves:     760
 k-point 32 :   0.1667-0.1667-0.0000  plane waves:     770
 k-point 33 :   0.3333-0.1667-0.0000  plane waves:     778
 k-point 34 :   0.5000-0.1667-0.0000  plane waves:     786
 k-point 35 :  -0.3333-0.1667 0.0000  plane waves:     780
 k-point 36 :  -0.1667-0.1667 0.0000  plane waves:     742
 k-point 37 :  -0.0000 0.0000 0.1667  plane waves:     760
 k-point 38 :   0.1667 0.0000 0.1667  plane waves:     742
 k-point 39 :   0.3333-0.0000 0.1667  plane waves:     780
 k-point 40 :   0.5000 0.0000 0.1667  plane waves:     786
 k-point 41 :  -0.3333-0.0000 0.1667  plane waves:     778
 k-point 42 :  -0.1667-0.0000 0.1667  plane waves:     770
 k-point 43 :   0.0000 0.1667 0.1667  plane waves:     742
 k-point 44 :   0.1667 0.1667 0.1667  plane waves:     760
 k-point 45 :   0.3333 0.1667 0.1667  plane waves:     770
 k-point 46 :   0.5000 0.1667 0.1667  plane waves:     778
 k-point 47 :  -0.3333 0.1667 0.1667  plane waves:     786
 k-point 48 :  -0.1667 0.1667 0.1667  plane waves:     780
 k-point 49 :   0.0000 0.3333 0.1667  plane waves:     780
 k-point 50 :   0.1667 0.3333 0.1667  plane waves:     770
 k-point 51 :   0.3333 0.3333 0.1667  plane waves:     780
 k-point 52 :   0.5000 0.3333 0.1667  plane waves:     794
 k-point 53 :  -0.3333 0.3333 0.1667  plane waves:     788
 k-point 54 :  -0.1667 0.3333 0.1667  plane waves:     794
 k-point 55 :   0.0000 0.5000 0.1667  plane waves:     786
 k-point 56 :   0.1667 0.5000 0.1667  plane waves:     778
 k-point 57 :   0.3333 0.5000 0.1667  plane waves:     794
 k-point 58 :   0.5000 0.5000 0.1667  plane waves:     784
 k-point 59 :  -0.3333 0.5000 0.1667  plane waves:     776
 k-point 60 :  -0.1667 0.5000 0.1667  plane waves:     788
 k-point 61 :   0.0000-0.3333 0.1667  plane waves:     778
 k-point 62 :   0.1667-0.3333 0.1667  plane waves:     786
 k-point 63 :   0.3333-0.3333 0.1667  plane waves:     788
 k-point 64 :   0.5000-0.3333 0.1667  plane waves:     776
 k-point 65 :  -0.3333-0.3333 0.1667  plane waves:     784
 k-point 66 :  -0.1667-0.3333 0.1667  plane waves:     794
 k-point 67 :   0.0000-0.1667 0.1667  plane waves:     770
 k-point 68 :   0.1667-0.1667 0.1667  plane waves:     780
 k-point 69 :   0.3333-0.1667 0.1667  plane waves:     794
 k-point 70 :   0.5000-0.1667 0.1667  plane waves:     788
 k-point 71 :  -0.3333-0.1667 0.1667  plane waves:     794
 k-point 72 :  -0.1667-0.1667 0.1667  plane waves:     780
 k-point 73 :   0.0000 0.0000 0.3333  plane waves:     778
 k-point 74 :   0.1667 0.0000 0.3333  plane waves:     780
 k-point 75 :   0.3333 0.0000 0.3333  plane waves:     774
 k-point 76 :   0.5000-0.0000 0.3333  plane waves:     784
 k-point 77 :  -0.3333 0.0000 0.3333  plane waves:     778
 k-point 78 :  -0.1667 0.0000 0.3333  plane waves:     778
 k-point 79 :  -0.0000 0.1667 0.3333  plane waves:     780
 k-point 80 :   0.1667 0.1667 0.3333  plane waves:     770
 k-point 81 :   0.3333 0.1667 0.3333  plane waves:     780
 k-point 82 :   0.5000 0.1667 0.3333  plane waves:     794
 k-point 83 :  -0.3333 0.1667 0.3333  plane waves:     788
 k-point 84 :  -0.1667 0.1667 0.3333  plane waves:     794
 k-point 85 :  -0.0000 0.3333 0.3333  plane waves:     774
 k-point 86 :   0.1667 0.3333 0.3333  plane waves:     780
 k-point 87 :   0.3333 0.3333 0.3333  plane waves:     778
 k-point 88 :   0.5000 0.3333 0.3333  plane waves:     778
 k-point 89 :  -0.3333 0.3333 0.3333  plane waves:     778
 k-point 90 :  -0.1667 0.3333 0.3333  plane waves:     784
 k-point 91 :  -0.0000 0.5000 0.3333  plane waves:     784
 k-point 92 :   0.1667 0.5000 0.3333  plane waves:     794
 k-point 93 :   0.3333 0.5000 0.3333  plane waves:     778
 k-point 94 :   0.5000 0.5000 0.3333  plane waves:     786
 k-point 95 :  -0.3333 0.5000 0.3333  plane waves:     788
 k-point 96 :  -0.1667 0.5000 0.3333  plane waves:     776
 k-point 97 :  -0.0000-0.3333 0.3333  plane waves:     778
 k-point 98 :   0.1667-0.3333 0.3333  plane waves:     788
 k-point 99 :   0.3333-0.3333 0.3333  plane waves:     778
 k-point ** :   0.5000-0.3333 0.3333  plane waves:     788
 k-point ** :  -0.3333-0.3333 0.3333  plane waves:     778
 k-point ** :  -0.1667-0.3333 0.3333  plane waves:     788
 k-point ** :  -0.0000-0.1667 0.3333  plane waves:     778
 k-point ** :   0.1667-0.1667 0.3333  plane waves:     794
[...]
 -0.000  -0.000  -0.000  -0.000   0.000  -0.000  -0.058  -0.000   0.000   0.000   0.000   0.000   0.029  -0.000   0.000   0.000
 -0.000   0.000  -0.000   0.000   0.000   0.000   0.000   0.029   0.000   0.000   0.000   0.000   0.000  -0.016   0.000  -0.000
  0.000   0.000   0.000   0.000   0.000  -0.029   0.000   0.000  -0.029  -0.000   0.000   0.016   0.000   0.000   0.016  -0.000
 -0.000  -0.000  -0.000  -0.000   0.000   0.000   0.029  -0.000   0.000   0.000   0.000   0.000  -0.016  -0.000   0.000   0.000
 -0.000  -0.000   0.000  -0.000   0.000   0.000  -0.000  -0.000   0.000   0.000  -0.000  -0.000   0.000   0.000  -0.000  -0.000
  0.000  -0.000   0.000  -0.000   0.000   0.000  -0.000  -0.000  -0.000  -0.000  -0.000  -0.000   0.000   0.000   0.000   0.000
  0.000   0.000  -0.000  -0.000  -0.000  -0.000  -0.000  -0.000  -0.000  -0.000   0.000   0.000   0.000   0.000   0.000   0.000
  0.000   0.000  -0.000  -0.000  -0.000  -0.000   0.000   0.000  -0.000  -0.000   0.000   0.000  -0.000   0.000   0.000   0.000
  0.000   0.000  -0.000  -0.000   0.000   0.000  -0.000  -0.000   0.000   0.000  -0.000  -0.000   0.000   0.000  -0.000  -0.000
 -0.000   0.000  -0.000  -0.000   0.000   0.000  -0.000  -0.000   0.000   0.000   0.000   0.000  -0.000  -0.000   0.000   0.000
 -0.000  -0.000  -0.000  -0.000   0.000   0.000  -0.000  -0.000  -0.000  -0.000   0.000   0.000  -0.000  -0.000  -0.000  -0.000
  0.000   0.000   0.000   0.000  -0.000  -0.000  -0.000  -0.000  -0.000  -0.000  -0.000  -0.000  -0.000  -0.000  -0.000  -0.000
  0.000   0.000   0.000   0.000  -0.000  -0.000   0.000  -0.000  -0.000  -0.000  -0.000  -0.000   0.000  -0.000  -0.000  -0.000
  0.000   0.000   0.000   0.000   0.000   0.000  -0.000  -0.000   0.000   0.000   0.000   0.000  -0.000  -0.000   0.000   0.000
 pseudopotential strength for first ion, spin component:           4
 42.339  -0.000  -0.392  -0.000  -0.000   0.000   0.000   0.000   0.000  -0.000  -0.000  -0.000   0.000  -0.000   0.000   0.000
 -0.392   0.000   2.571  -0.000  -0.000   0.000   0.000  -0.000   0.000  -0.000   0.000  -0.000   0.000   0.000   0.000   0.000
 -0.000  -0.000  -0.000  -0.000   8.264   0.000   0.000  -0.000   0.000  -0.058  -0.049   0.000   0.000   0.000   0.000   0.029
  0.000  -0.000   0.000   0.000   0.000   0.000   8.264  -0.000   0.000  -0.000   0.000  -0.000  -0.049   0.000   0.000   0.000
  0.000   0.000   0.000   0.000   0.000   0.058   0.000   0.000   8.264  -0.000   0.000  -0.029   0.000  -0.000  -0.049  -0.000
 -0.000   0.000   0.000   0.000  -0.049  -0.000   0.000   0.000   0.000   0.029  11.780  -0.000   0.000  -0.000   0.000  -0.016
  0.000   0.000   0.000  -0.000   0.000  -0.000  -0.049  -0.000   0.000   0.000   0.000   0.000  11.780   0.000   0.000   0.000
  0.000  -0.000   0.000  -0.000   0.000  -0.029   0.000  -0.000  -0.049   0.000   0.000   0.016   0.000  -0.000  11.780  -0.000
 -0.000   0.000   0.000  -0.000   0.000  -0.000  -0.000  -0.000  -0.000   0.000   0.000   0.000  -0.000   0.000   0.000  -0.000
 -0.000  -0.000   0.000  -0.000  -0.000   0.000   0.000  -0.000  -0.000  -0.000   0.000   0.000  -0.000   0.000  -0.000   0.000
  0.000   0.000  -0.000  -0.000   0.000   0.000   0.000   0.000   0.000  -0.000  -0.000  -0.000   0.000   0.000  -0.000   0.000
 -0.000   0.000   0.000  -0.000  -0.000   0.000   0.000   0.000   0.000  -0.000  -0.000  -0.000  -0.000  -0.000  -0.000  -0.000
 -0.000  -0.000   0.000  -0.000  -0.000  -0.000   0.000  -0.000  -0.000  -0.000   0.000   0.000  -0.000  -0.000   0.000   0.000
 -0.000   0.000  -0.000   0.000  -0.000  -0.000   0.000  -0.000  -0.000  -0.000  -0.000  -0.000   0.000  -0.000  -0.000   0.000
 -0.000   0.000  -0.000  -0.000  -0.000  -0.000   0.000  -0.000   0.000  -0.000  -0.000  -0.000   0.000  -0.000   0.000  -0.000
  0.000   0.000   0.000   0.000   0.000  -0.000  -0.000  -0.000   0.000  -0.000   0.000   0.000  -0.000  -0.000   0.000   0.000
 -0.000   0.000  -0.000   0.000   0.000   0.000   0.000   0.000   0.000   0.000   0.000   0.000   0.000  -0.000   0.000  -0.000
 -0.000   0.000  -0.000   0.000  -0.000   0.000   0.000   0.000  -0.000  -0.000  -0.000  -0.000   0.000   0.000  -0.000  -0.000
 total augmentation occupancy for first ion, spin component:           1
  1.993   0.013   0.000  -0.000  -0.000  -0.000   0.000   0.000  -0.000   0.000  -0.000  -0.000  -0.000   0.000   0.000  -0.000
  0.013   0.000  -0.000  -0.000  -0.000   0.000   0.000   0.000  -0.000   0.000   0.000  -0.000  -0.000   0.000   0.000  -0.000
  0.000  -0.000   2.001   0.000   0.000   0.006  -0.000  -0.000   0.000   0.000  -0.000  -0.000   0.000  -0.000   0.000   0.000
 -0.000  -0.000   0.000   2.001  -0.000  -0.000   0.006  -0.000  -0.000   0.000   0.000   0.000   0.000   0.000  -0.000   0.000
 -0.000  -0.000   0.000  -0.000   2.001  -0.000  -0.000   0.006  -0.000   0.000  -0.000  -0.000  -0.000   0.000  -0.000  -0.000
 -0.000   0.000   0.006  -0.000  -0.000   0.000  -0.000  -0.000  -0.000  -0.000  -0.000  -0.000   0.000   0.000  -0.000   0.000
  0.000   0.000  -0.000   0.006  -0.000  -0.000   0.000  -0.000  -0.000   0.000   0.000  -0.000  -0.000   0.000   0.000   0.000
  0.000   0.000  -0.000  -0.000   0.006  -0.000  -0.000   0.000   0.000   0.000  -0.000  -0.000  -0.000  -0.000   0.000   0.000
 -0.000  -0.000   0.000  -0.000  -0.000  -0.000  -0.000   0.000   0.000  -0.000  -0.000   0.000  -0.000   0.000   0.000   0.000
  0.000   0.000   0.000   0.000   0.000  -0.000   0.000   0.000  -0.000   0.000  -0.000  -0.000   0.000   0.000   0.000  -0.000
 -0.000   0.000  -0.000   0.000  -0.000  -0.000   0.000  -0.000  -0.000  -0.000   0.000  -0.000  -0.000  -0.000   0.000   0.000
 -0.000  -0.000  -0.000   0.000  -0.000  -0.000  -0.000  -0.000   0.000  -0.000  -0.000   0.000  -0.000   0.000   0.000   0.000
 -0.000  -0.000   0.000   0.000  -0.000   0.000  -0.000  -0.000  -0.000   0.000  -0.000  -0.000   0.000  -0.000   0.000  -0.000
  0.000   0.000  -0.000   0.000   0.000   0.000   0.000  -0.000   0.000   0.000  -0.000   0.000  -0.000   0.000   0.000  -0.000
  0.000   0.000   0.000  -0.000  -0.000  -0.000   0.000   0.000   0.000   0.000   0.000   0.000   0.000   0.000   0.000   0.000
 -0.000  -0.000   0.000   0.000  -0.000   0.000   0.000   0.000   0.000  -0.000   0.000   0.000  -0.000  -0.000   0.000   0.000
  0.000   0.000  -0.000  -0.000  -0.000  -0.000  -0.000  -0.000   0.000   0.000   0.000   0.000  -0.000   0.000   0.000   0.000
  0.000   0.000  -0.000  -0.000   0.000  -0.000  -0.000   0.000  -0.000   0.000  -0.000   0.000   0.000  -0.000   0.000  -0.000
 total augmentation occupancy for first ion, spin component:           2
  0.000  -0.000  -0.000  -0.000  -0.000  -0.000   0.000   0.000   0.000   0.000   0.000  -0.000   0.000  -0.000   0.000   0.000
 -0.000  -0.000   0.000  -0.000   0.000  -0.000  -0.000   0.000   0.000  -0.000  -0.000   0.000  -0.000   0.000   0.000   0.000
 -0.000   0.000   0.000   0.000   0.000  -0.000   0.000  -0.000  -0.000  -0.000   0.000   0.000  -0.000   0.000  -0.000   0.000
 -0.000  -0.000   0.000   0.000  -0.000  -0.000  -0.000  -0.000   0.000   0.000   0.000  -0.000   0.000   0.000   0.000   0.000
 -0.000   0.000   0.000  -0.000   0.000   0.000   0.000  -0.000  -0.000   0.000   0.000   0.000  -0.000   0.000  -0.000  -0.000
 -0.000  -0.000  -0.000  -0.000   0.000  -0.000   0.000  -0.000  -0.000  -0.000   0.000   0.000  -0.000   0.000  -0.000  -0.000
  0.000  -0.000   0.000  -0.000   0.000   0.000  -0.000   0.000  -0.000  -0.000   0.000   0.000   0.000  -0.000  -0.000  -0.000
  0.000   0.000  -0.000  -0.000  -0.000  -0.000   0.000  -0.000  -0.000   0.000   0.000   0.000  -0.000   0.000   0.000  -0.000
  0.000   0.000  -0.000   0.000  -0.000  -0.000  -0.000  -0.000  -0.000  -0.000   0.000  -0.000  -0.000  -0.000  -0.000   0.000
  0.000  -0.000  -0.000   0.000   0.000  -0.000  -0.000   0.000  -0.000  -0.000   0.000  -0.000  -0.000  -0.000  -0.000   0.000
  0.000  -0.000   0.000   0.000   0.000   0.000   0.000   0.000   0.000   0.000  -0.000  -0.000  -0.000   0.000   0.000  -0.000
 -0.000   0.000   0.000  -0.000   0.000   0.000   0.000   0.000  -0.000  -0.000  -0.000  -0.000   0.000  -0.000  -0.000  -0.000
  0.000  -0.000  -0.000   0.000  -0.000  -0.000   0.000  -0.000  -0.000  -0.000  -0.000   0.000  -0.000   0.000  -0.000  -0.000
 -0.000   0.000   0.000   0.000   0.000   0.000  -0.000   0.000  -0.000  -0.000   0.000  -0.000   0.000  -0.000   0.000   0.000
  0.000   0.000  -0.000   0.000  -0.000  -0.000  -0.000   0.000  -0.000  -0.000   0.000  -0.000  -0.000   0.000  -0.000   0.000
  0.000   0.000   0.000   0.000  -0.000  -0.000  -0.000  -0.000   0.000   0.000  -0.000  -0.000  -0.000   0.000   0.000  -0.000
  0.000   0.000  -0.000  -0.000  -0.000  -0.000   0.000  -0.000  -0.000   0.000   0.000  -0.000   0.000  -0.000  -0.000   0.000
  0.000  -0.000   0.000  -0.000  -0.000   0.000  -0.000  -0.000   0.000  -0.000   0.000  -0.000  -0.000   0.000  -0.000  -0.000
 total augmentation occupancy for first ion, spin component:           3
  0.000  -0.000   0.000   0.000  -0.000  -0.000  -0.000   0.000  -0.000   0.000  -0.000  -0.000   0.000  -0.000  -0.000   0.000
 -0.000  -0.000  -0.000   0.000  -0.000   0.000  -0.000   0.000  -0.000   0.000   0.000   0.000   0.000  -0.000   0.000   0.000
  0.000  -0.000   0.000   0.000   0.000  -0.000   0.000   0.000  -0.000  -0.000   0.000   0.000  -0.000   0.000  -0.000   0.000
  0.000   0.000   0.000   0.000  -0.000  -0.000  -0.000   0.000   0.000   0.000   0.000  -0.000   0.000  -0.000  -0.000  -0.000
 -0.000  -0.000   0.000  -0.000   0.000  -0.000   0.000  -0.000  -0.000   0.000   0.000   0.000  -0.000  -0.000  -0.000  -0.000
 -0.000   0.000  -0.000  -0.000  -0.000  -0.000  -0.000  -0.000  -0.000  -0.000  -0.000  -0.000  -0.000  -0.000   0.000   0.000
 -0.000  -0.000   0.000  -0.000   0.000  -0.000  -0.000   0.000  -0.000  -0.000   0.000  -0.000   0.000  -0.000  -0.000  -0.000
  0.000   0.000   0.000   0.000  -0.000  -0.000   0.000  -0.000  -0.000  -0.000   0.000   0.000  -0.000  -0.000  -0.000  -0.000
 -0.000  -0.000  -0.000   0.000  -0.000  -0.000  -0.000  -0.000  -0.000  -0.000  -0.000  -0.000  -0.000  -0.000  -0.000   0.000
  0.000   0.000  -0.000   0.000   0.000  -0.000  -0.000  -0.000  -0.000  -0.000  -0.000  -0.000  -0.000  -0.000  -0.000  -0.000
 -0.000   0.000   0.000   0.000   0.000  -0.000   0.000   0.000  -0.000  -0.000  -0.000   0.000  -0.000  -0.000   0.000  -0.000
 -0.000   0.000   0.000  -0.000   0.000  -0.000  -0.000   0.000  -0.000  -0.000   0.000  -0.000   0.000  -0.000   0.000   0.000
  0.000   0.000  -0.000   0.000  -0.000  -0.000   0.000  -0.000  -0.000  -0.000  -0.000   0.000  -0.000   0.000  -0.000   0.000
 -0.000  -0.000   0.000  -0.000  -0.000  -0.000  -0.000  -0.000  -0.000  -0.000  -0.000  -0.000   0.000  -0.000  -0.000   0.000
 -0.000   0.000  -0.000  -0.000  -0.000   0.000  -0.000  -0.000  -0.000  -0.000   0.000   0.000  -0.000  -0.000  -0.000   0.000
  0.000   0.000   0.000  -0.000  -0.000   0.000  -0.000  -0.000   0.000  -0.000  -0.000   0.000   0.000   0.000   0.000  -0.000
  0.000   0.000   0.000  -0.000  -0.000   0.000   0.000  -0.000  -0.000  -0.000   0.000  -0.000   0.000  -0.000  -0.000   0.000
  0.000   0.000   0.000   0.000   0.000  -0.000  -0.000   0.000   0.000  -0.000   0.000  -0.000  -0.000   0.000  -0.000   0.000
 total augmentation occupancy for first ion, spin component:           4
  0.000  -0.000   0.000  -0.000  -0.000  -0.000   0.000   0.000   0.000   0.000  -0.000  -0.000  -0.000   0.000  -0.000   0.000
 -0.000  -0.000  -0.000   0.000  -0.000  -0.000   0.000   0.000   0.000   0.000  -0.000  -0.000  -0.000   0.000  -0.000  -0.000
  0.000  -0.000   0.000   0.000   0.000  -0.000  -0.000   0.000  -0.000  -0.000   0.000  -0.000  -0.000  -0.000   0.000   0.000
 -0.000   0.000   0.000   0.000  -0.000   0.000  -0.000   0.000   0.000   0.000   0.000  -0.000   0.000   0.000  -0.000   0.000
 -0.000  -0.000   0.000  -0.000   0.000  -0.000  -0.000  -0.000  -0.000   0.000   0.000   0.000  -0.000  -0.000   0.000   0.000
 -0.000  -0.000  -0.000   0.000  -0.000  -0.000  -0.000  -0.000  -0.000  -0.000   0.000  -0.000   0.000  -0.000  -0.000   0.000
  0.000   0.000  -0.000  -0.000  -0.000  -0.000  -0.000   0.000   0.000   0.000  -0.000  -0.000   0.000  -0.000  -0.000   0.000
  0.000   0.000   0.000   0.000  -0.000  -0.000   0.000  -0.000  -0.000   0.000   0.000   0.000   0.000  -0.000  -0.000  -0.000
  0.000   0.000  -0.000   0.000  -0.000  -0.000   0.000  -0.000  -0.000  -0.000   0.000  -0.000   0.000  -0.000   0.000  -0.000
  0.000   0.000  -0.000   0.000   0.000  -0.000   0.000   0.000  -0.000  -0.000  -0.000   0.000  -0.000  -0.000  -0.000  -0.000
 -0.000  -0.000   0.000   0.000   0.000   0.000  -0.000   0.000   0.000  -0.000  -0.000  -0.000  -0.000  -0.000  -0.000  -0.000
 -0.000  -0.000  -0.000  -0.000   0.000  -0.000  -0.000   0.000  -0.000   0.000  -0.000  -0.000  -0.000  -0.000   0.000  -0.000
 -0.000  -0.000  -0.000   0.000  -0.000   0.000   0.000   0.000   0.000  -0.000  -0.000  -0.000  -0.000  -0.000  -0.000   0.000
  0.000   0.000  -0.000   0.000  -0.000  -0.000  -0.000  -0.000  -0.000  -0.000  -0.000  -0.000  -0.000  -0.000   0.000  -0.000
 -0.000  -0.000   0.000  -0.000   0.000  -0.000  -0.000  -0.000   0.000  -0.000  -0.000   0.000  -0.000   0.000  -0.000  -0.000
  0.000  -0.000   0.000   0.000   0.000   0.000   0.000  -0.000  -0.000  -0.000  -0.000  -0.000   0.000  -0.000  -0.000  -0.000
  0.000   0.000   0.000   0.000   0.000   0.000  -0.000  -0.000  -0.000  -0.000   0.000  -0.000   0.000  -0.000   0.000   0.000
  0.000   0.000  -0.000   0.000   0.000  -0.000   0.000   0.000  -0.000  -0.000   0.000  -0.000  -0.000  -0.000  -0.000   0.000


------------------------ aborting loop because EDIFF is reached ----------------------------------------


    FORLOC:  cpu time    0.0003: real time    0.0003
    FORHF :  cpu time    3.6705: real time    3.6708
    FORNL :  cpu time    0.0551: real time    0.0556
    STRESS:  cpu time    0.2231: real time    0.2232
    FORCOR:  cpu time    0.0220: real time    0.0221
    OFIELD:  cpu time    0.0001: real time    0.0001

  FORCE on cell =-STRESS in cart. coord.  units (eV):
  Direction    XX          YY          ZZ          XY          YZ          ZX
  --------------------------------------------------------------------------------------
  Alpha Z     9.11079     9.11079     9.11079
  Ewald    -138.33439  -138.33439  -138.33439    -0.00000    -0.00000    -0.00000
  Hartree    43.21929    43.21929    43.21929    -0.00000     0.00000    -0.00000
  E(xc)     -24.13853   -24.13853   -24.13853     0.00000     0.00000    -0.00000
  Local    -111.20865  -111.20870  -111.20870     0.00004     0.00001     0.00003
  n-local    95.85761    95.85761    95.85761    -0.00000    -0.00000    -0.00000
  augment   -10.74188   -10.74184   -10.74184    -0.00003    -0.00001    -0.00002
  Kinetic   145.51896   145.51896   145.51896     0.00000    -0.00000     0.00000
  Fock       -9.10956    -9.10954    -9.10953    -0.00002    -0.00001    -0.00002
  -------------------------------------------------------------------------------------
  Total       0.17363     0.17365     0.17366    -0.00002    -0.00001    -0.00001
  in kB       8.43452     8.43556     8.43583    -0.00081    -0.00054    -0.00050
  external pressure =        8.44 kB  Pullay stress =        0.00 kB


 VOLUME and BASIS-vectors are now :
 -----------------------------------------------------------------------------
  energy-cutoff  :      300.00
  volume of cell :       32.98
      direct lattice vectors                 reciprocal lattice vectors
     3.599696745  0.000000000  0.000000000     0.277801179 -0.160388585 -0.113411856
     1.799848373  3.117428827 -0.000000000     0.000000000  0.320777171 -0.113411856
     1.799848373  1.039142942  2.939140085    -0.000000000  0.000000000  0.340235569

  length of vectors
     3.599696745  3.599696745  3.599696745     0.340235569  0.340235569  0.340235569


 FORCES acting on ions:
    Electron-Ion                     Ewald-Force                    Non-Local-Force
 -----------------------------------------------------------------------------------------------
   -.170E-05 0.117E-05 -.203E-05   0.344E-15 0.140E-15 -.637E-15   0.185E-05 -.369E-05 0.204E-05
 -----------------------------------------------------------------------------------------------
   -.171E-05 0.119E-05 -.204E-05   0.344E-15 0.140E-15 -.637E-15   0.185E-05 -.369E-05 0.204E-05
 
 
 POSITION                                       TOTAL-FORCE (eV/Angst)
 -----------------------------------------------------------------------------------
      0.00000      0.00000      0.00000         0.000000     -0.000003      0.000000
 -----------------------------------------------------------------------------------
    total drift:                                0.000000     -0.000003      0.000000


--------------------------------------------------------------------------------------------------------



  FREE ENERGIE OF THE ION-ELECTRON SYSTEM (eV)
  ---------------------------------------------------
  free  energy   TOTEN  =        -0.00400564 eV

  energy  without entropy=       -0.00400564  energy(sigma->0) =       -0.00400564
 


--------------------------------------------------------------------------------------------------------


    POTLOK:  cpu time    0.2154: real time    0.2169


--------------------------------------------------------------------------------------------------------


 writing wavefunctions
     LOOP+:  cpu time   86.5062: real time   86.6070
    4ORBIT:  cpu time    0.0000: real time    0.0000

 Spin-Orbit-Coupling matrix elements

 Ion:    1  E_soc:     -0.0048055
 l=   1
     0.0000000    -0.0008009    -0.0008009
    -0.0008009     0.0000000    -0.0008009
    -0.0008009    -0.0008009     0.0000000
 l=   2
     0.0000000    -0.0000000     0.0000000    -0.0000000    -0.0000000
    -0.0000000     0.0000000    -0.0000000    -0.0000000    -0.0000000
     0.0000000    -0.0000000     0.0000000    -0.0000000     0.0000000
    -0.0000000    -0.0000000    -0.0000000     0.0000000    -0.0000000
    -0.0000000    -0.0000000     0.0000000    -0.0000000     0.0000000
 l=   3
     0.0000000     0.0000000     0.0000000     0.0000000     0.0000000     0.0000000     0.0000000
     0.0000000     0.0000000     0.0000000     0.0000000     0.0000000     0.0000000     0.0000000
     0.0000000     0.0000000     0.0000000     0.0000000     0.0000000     0.0000000     0.0000000
     0.0000000     0.0000000     0.0000000     0.0000000     0.0000000     0.0000000     0.0000000
     0.0000000     0.0000000     0.0000000     0.0000000     0.0000000     0.0000000     0.0000000
     0.0000000     0.0000000     0.0000000     0.0000000     0.0000000     0.0000000     0.0000000
     0.0000000     0.0000000     0.0000000     0.0000000     0.0000000     0.0000000     0.0000000

 total amount of memory used by VASP MPI-rank0    43987. kBytes
=======================================================================

   base      :      30000. kBytes
   nonl-proj :       3485. kBytes
   fftplans  :        820. kBytes
   grid      :        972. kBytes
   one-center:         62. kBytes
   HF        :         64. kBytes
   nonlr-proj:        124. kBytes
   wavefun   :       8460. kBytes
 
  
  
 General timing and accounting informations for this job:
 ========================================================
  
                  Total CPU time used (sec):       99.168
                            User time (sec):       98.421
                          System time (sec):        0.747
                         Elapsed time (sec):      100.152
  
                   Maximum memory used (kb):      183568.
                   Average memory used (kb):           0.
  
                          Minor page faults:        51056
                          Major page faults:            0
                 Voluntary context switches:         2596
