       N       E                     dE             d eps       ncg     rms          rms(c)
DIA:   1    -0.827577494568E+02   -0.82758E+02    0.00000E+00     0   0.000E+00
DIA:   2    -0.827577494568E+02   -0.20009E-10    0.00000E+00     0   0.000E+00
DIA:   3    -0.827577494568E+02    0.90949E-11    0.00000E+00     0   0.000E+00
DIA:   4    -0.827577494568E+02    0.50022E-11    0.00000E+00     0   0.000E+00
DIA:   5    -0.827577494568E+02   -0.22737E-11    0.00000E+00     0   0.000E+00    0.431E-02
DIA:   6    -0.827567084007E+02    0.10411E-02    0.00000E+00     0   0.000E+00    0.221E-02
DIA:   7    -0.827565792641E+02    0.12914E-03    0.00000E+00     0   0.000E+00    0.105E-02
DIA:   8    -0.827565726963E+02    0.65678E-05    0.00000E+00     0   0.000E+00    0.732E-03
DIA:   9    -0.827565670389E+02    0.56574E-05    0.00000E+00     0   0.000E+00    0.158E-03
DIA:  10    -0.827565679716E+02   -0.93276E-06    0.00000E+00     0   0.000E+00    0.699E-04
DIA:  11    -0.827565685467E+02   -0.57507E-06    0.00000E+00     0   0.000E+00    0.206E-04
DIA:  12    -0.827565686941E+02   -0.14742E-06    0.00000E+00     0   0.000E+00    0.102E-04
DIA:  13    -0.827565686624E+02    0.31757E-07    0.00000E+00     0   0.000E+00    0.632E-05
DIA:  14    -0.827565685955E+02    0.66852E-07    0.00000E+00     0   0.000E+00    0.202E-05
DIA:  15    -0.827565685816E+02    0.13882E-07    0.00000E+00     0   0.000E+00    0.603E-06
DIA:  16    -0.827565685819E+02   -0.21419E-09    0.00000E+00     0   0.000E+00
   1 F= -.82756569E+02 E0= -.82756569E+02  d E =0.000000E+00  mag=     0.0000     0.0000    -0.0000
 imaginary and real dielectric function
