    1    1  999    1
  0.6400541E+02  0.4489975E-09  0.4489975E-09  0.4489975E-09  0.1000000E-15
  1.000000000000000E-004
  CAR 
 Og_FCC                                  
     18     35     13
 
  0.0000000E+00  0.0000000E+00  0.0000000E+00  0.1371742E-02
    1      -28.946824   1.000000
    2      -28.946824   1.000000
    3      -28.946824   1.000000
    4      -28.944616   1.000000
    5      -28.944616   1.000000
    6      -21.947446   1.000000
    7        0.758054   0.697968
    8        0.758054   0.697968
    9        0.758054   0.697967
   10        2.919369   0.000000
   11        9.877707   0.000000
   12        9.877707   0.000000
   13        9.879418   0.000000
 
  0.1111111E+00  0.1010271E-17  0.6938894E-17  0.1097394E-01
    1      -28.946649   1.000000
    2      -28.946501   1.000000
    3      -28.946501   1.000000
    4      -28.944526   1.000000
    5      -28.944526   1.000000
    6      -21.940044   1.000000
    7        0.169048   1.000000
    8        0.716710   1.030851
    9        0.716710   1.030851
   10        3.604889   0.000000
   11        9.134830   0.000000
   12        9.998843   0.000000
   13        9.998849   0.000000
 
  0.2222222E+00  0.1589833E-16  0.2775558E-16  0.1097394E-01
    1      -28.946171   1.000000
    2      -28.946132   1.000000
    3      -28.946132   1.000000
    4      -28.943867   1.000000
    5      -28.943867   1.000000
    6      -21.921123   1.000000
    7       -0.727229   1.000000
    8        0.615513   1.000055
    9        0.615513   1.000055
   10        4.639177   0.000000
   11        8.887615   0.000000
   12       10.027512   0.000000
   13       10.027642   0.000000
 
  0.3333333E+00 -0.2472476E-16  0.1387779E-16  0.1097394E-01
    1      -28.946223   1.000000
    2      -28.946223   1.000000
    3      -28.945687   1.000000
    4      -28.942630   1.000000
    5      -28.942630   1.000000
    6      -21.899493   1.000000
    7       -1.418245   1.000000
    8        0.505893   1.000000
    9        0.505893   1.000000
   10        5.198455   0.000000
   11        9.556610   0.000000
   12        9.706914   0.000000
   13        9.710257   0.000000
 
  0.4444444E+00  0.3179666E-16  0.5551115E-16  0.1097394E-01
    1      -28.946365   1.000000
    2      -28.946365   1.000000
    3      -28.945339   1.000000
    4      -28.941703   1.000000
    5      -28.941703   1.000000
    6      -21.885203   1.000000
    7       -1.783968   1.000000
    8        0.437132   1.000000
    9        0.437132   1.000000
   10        5.322420   0.000000
   11        9.476862   0.000000
   12        9.476865   0.000000
   13        9.828585   0.000000
 
  0.1111111E+00  0.1111111E+00  0.1387779E-16  0.8230453E-02
    1      -28.947030   1.000000
    2      -28.946131   1.000000
    3      -28.946131   1.000000
    4      -28.944806   1.000000
    5      -28.944305   1.000000
    6      -21.937606   1.000000
    7        0.135759   1.000000
    8        0.627172   1.000201
    9        0.627172   1.000201
   10        3.837994   0.000000
   11        8.843647   0.000000
   12       10.168487   0.000000
   13       10.181396   0.000000
 
  0.2222222E+00  0.1111111E+00  0.2775558E-16  0.3292181E-01
    1      -28.946932   1.000000
    2      -28.945582   1.000000
    3      -28.945554   1.000000
    4      -28.944606   1.000000
    5      -28.943698   1.000000
    6      -21.922518   1.000000
    7       -0.535581   1.000000
    8        0.493390   1.000000
    9        0.529934   1.000000
   10        4.759913   0.000000
   11        8.466096   0.000000
   12        9.615580   0.000000
   13       10.435419   0.000000
 
  0.3333333E+00  0.1111111E+00  0.2775558E-16  0.3292181E-01
    1      -28.946552   1.000000
    2      -28.945549   1.000000
    3      -28.945521   1.000000
    4      -28.943545   1.000000
    5      -28.942512   1.000000
    6      -21.901778   1.000000
    7       -1.209668   1.000000
    8        0.380011   1.000000
    9        0.380882   1.000000
   10        5.514555   0.000000
   11        8.799547   0.000000
   12        8.970255   0.000000
   13       10.199336   0.000000
 
  0.4444444E+00  0.1111111E+00  0.5551115E-16  0.3292181E-01
    1      -28.946434   1.000000
    2      -28.945742   1.000000
    3      -28.945181   1.000000
    4      -28.942466   1.000000
    5      -28.941639   1.000000
    6      -21.885013   1.000000
    7       -1.636835   1.000000
    8        0.217368   1.000000
    9        0.334940   1.000000
   10        5.768816   0.000000
   11        8.596985   0.000000
   12        9.866259   0.000000
   13        9.989420   0.000000
 
 -0.4444444E+00  0.1111111E+00 -0.8326673E-16  0.3292181E-01
    1      -28.946378   1.000000
    2      -28.945846   1.000000
    3      -28.945036   1.000000
    4      -28.941868   1.000000
    5      -28.941723   1.000000
    6      -21.880266   1.000000
    7       -1.744043   1.000000
    8        0.115412   1.000000
    9        0.375510   1.000000
   10        5.808214   0.000000
   11        8.539839   0.000000
   12        9.689021   0.000000
   13       10.737457   0.000000
 
 -0.3333333E+00  0.1111111E+00 -0.4163336E-16  0.3292181E-01
    1      -28.946194   1.000000
    2      -28.945781   1.000000
    3      -28.945345   1.000000
    4      -28.942745   1.000000
    5      -28.942018   1.000000
    6      -21.889757   1.000000
    7       -1.520137   1.000000
    8        0.121970   1.000000
    9        0.485870   1.000000
   10        5.739749   0.000000
   11        8.787697   0.000000
   12        9.719543   0.000000
   13        9.748950   0.000000
 
 -0.2222222E+00  0.1111111E+00 -0.2775558E-16  0.3292181E-01
    1      -28.946065   1.000000
    2      -28.945863   1.000000
    3      -28.945659   1.000000
    4      -28.944125   1.000000
    5      -28.942875   1.000000
    6      -21.908961   1.000000
    7       -1.007342   1.000000
    8        0.249037   1.000000
    9        0.619813   1.000090
   10        5.306211   0.000000
   11        8.771367   0.000000
   12        9.310124   0.000000
   13       10.052837   0.000000
 
 -0.1111111E+00  0.1111111E+00 -0.5064502E-18  0.1646091E-01
    1      -28.946512   1.000000
    2      -28.946101   1.000000
    3      -28.945995   1.000000
    4      -28.944695   1.000000
    5      -28.943922   1.000000
    6      -21.928807   1.000000
    7       -0.339043   1.000000
    8        0.481091   1.000000
    9        0.713590   1.033919
   10        4.374244   0.000000
   11        8.740491   0.000000
   12        9.933262   0.000000
   13       10.153129   0.000000
 
  0.2222222E+00  0.2222222E+00  0.0000000E+00  0.8230453E-02
    1      -28.947555   1.000000
    2      -28.945272   1.000000
    3      -28.944329   1.000000
    4      -28.944329   1.000000
    5      -28.943534   1.000000
    6      -21.912422   1.000000
    7       -0.710194   1.000000
    8        0.321552   1.000000
    9        0.321552   1.000000
   10        5.362069   0.000000
   11        7.910985   0.000000
   12        9.143106   0.000000
   13       10.924811   0.000000
 
  0.3333333E+00  0.2222222E+00  0.2775558E-16  0.3292181E-01
    1      -28.947484   1.000000
    2      -28.945493   1.000000
    3      -28.944065   1.000000
    4      -28.943316   1.000000
    5      -28.942450   1.000000
    6      -21.895521   1.000000
    7       -1.124060   1.000000
    8        0.120594   1.000000
    9        0.182096   1.000000
   10        5.990163   0.000000
   11        7.797882   0.000000
   12        8.775920   0.000000
   13       11.081509   0.000000
 
  0.4444444E+00  0.2222222E+00  0.2775558E-16  0.3292181E-01
    1      -28.946996   1.000000
    2      -28.945222   1.000000
    3      -28.944276   1.000000
    4      -28.942724   1.000000
    5      -28.941557   1.000000
    6      -21.879709   1.000000
    7       -1.435074   1.000000
    8       -0.176436   1.000000
    9        0.131532   1.000000
   10        6.353715   0.000000
   11        8.261873   0.000000
   12        8.705430   0.000000
   13       10.766313   0.000000
 
 -0.4444444E+00  0.2222222E+00 -0.5551115E-16  0.3292181E-01
    1      -28.946658   1.000000
    2      -28.944454   1.000000
    3      -28.944381   1.000000
    4      -28.942664   1.000000
    5      -28.941656   1.000000
    6      -21.872415   1.000000
    7       -1.527534   1.000000
    8       -0.445548   1.000000
    9        0.188453   1.000000
   10        6.547025   0.000000
   11        8.188614   0.000000
   12        9.912822   0.000000
   13       10.444176   0.000000
 
 -0.3333333E+00  0.2222222E+00 -0.4857226E-16  0.3292181E-01
    1      -28.946368   1.000000
    2      -28.944504   1.000000
    3      -28.944391   1.000000
    4      -28.942747   1.000000
    5      -28.942437   1.000000
    6      -21.877146   1.000000
    7       -1.425626   1.000000
    8       -0.514611   1.000000
    9        0.332077   1.000000
   10        6.673216   0.000000
   11        8.196250   0.000000
   12        9.697802   0.000000
   13       10.278517   0.000000
 
 -0.2222222E+00  0.2222222E+00 -0.4670265E-16  0.1646091E-01
    1      -28.946069   1.000000
    2      -28.945267   1.000000
    3      -28.944420   1.000000
    4      -28.944281   1.000000
    5      -28.942281   1.000000
    6      -21.891591   1.000000
    7       -1.239701   1.000000
    8       -0.251727   1.000000
    9        0.503568   1.000000
   10        6.280003   0.000000
   11        8.540241   0.000000
   12        8.814182   0.000000
   13       10.244376   0.000000
 
  0.3333333E+00  0.3333333E+00  0.5551115E-16  0.8230453E-02
    1      -28.948149   1.000000
    2      -28.945830   1.000000
    3      -28.942653   1.000000
    4      -28.942322   1.000000
    5      -28.942322   1.000000
    6      -21.883676   1.000000
    7       -1.299334   1.000000
    8        0.009871   1.000000
    9        0.009871   1.000000
   10        5.959640   0.000000
   11        7.283800   0.000000
   12        9.471441   0.000000
   13       11.917327   0.000000
 
  0.4444444E+00  0.3333333E+00  0.5551115E-16  0.3292181E-01
    1      -28.947970   1.000000
    2      -28.945892   1.000000
    3      -28.942729   1.000000
    4      -28.941751   1.000000
    5      -28.941398   1.000000
    6      -21.871747   1.000000
    7       -1.457396   1.000000
    8       -0.240708   1.000000
    9       -0.066991   1.000000
   10        6.031545   0.000000
   11        7.361486   0.000000
   12        9.868709   0.000000
   13       11.951222   0.000000
 
 -0.4444444E+00  0.3333333E+00 -0.2775558E-16  0.3292181E-01
    1      -28.947298   1.000000
    2      -28.945209   1.000000
    3      -28.942943   1.000000
    4      -28.942019   1.000000
    5      -28.941414   1.000000
    6      -21.865311   1.000000
    7       -1.397579   1.000000
    8       -0.681947   1.000000
    9       -0.021148   1.000000
   10        6.299728   0.000000
   11        8.115163   0.000000
   12        9.855635   0.000000
   13       11.556460   0.000000
 
 -0.3333333E+00  0.3333333E+00  0.4932132E-17  0.1646091E-01
    1      -28.946754   1.000000
    2      -28.943757   1.000000
    3      -28.943317   1.000000
    4      -28.943025   1.000000
    5      -28.942254   1.000000
    6      -21.867421   1.000000
    7       -1.134983   1.000000
    8       -1.061450   1.000000
    9        0.131620   1.000000
   10        6.657584   0.000000
   11        8.711604   0.000000
   12       10.073849   0.000000
   13       10.370616   0.000000
 
  0.4444444E+00  0.4444444E+00  0.0000000E+00  0.8230453E-02
    1      -28.948529   1.000000
    2      -28.946219   1.000000
    3      -28.942073   1.000000
    4      -28.941001   1.000000
    5      -28.941001   1.000000
    6      -21.864855   1.000000
    7       -1.588635   1.000000
    8       -0.177242   1.000000
    9       -0.177242   1.000000
   10        5.676708   0.000000
   11        6.969458   0.000000
   12       11.427886   0.000000
   13       12.808308   0.000000
 
 -0.4444444E+00  0.4444444E+00 -0.9340530E-16  0.1646091E-01
    1      -28.948157   1.000000
    2      -28.946053   1.000000
    3      -28.942188   1.000000
    4      -28.941113   1.000000
    5      -28.940986   1.000000
    6      -21.862327   1.000000
    7       -1.558243   1.000000
    8       -0.383579   1.000000
    9       -0.160058   1.000000
   10        5.843287   0.000000
   11        7.213013   0.000000
   12       11.764380   0.000000
   13       11.785194   0.000000
 
  0.3333333E+00  0.2222222E+00  0.1111111E+00  0.3292181E-01
    1      -28.946812   1.000000
    2      -28.945568   1.000000
    3      -28.944649   1.000000
    4      -28.944417   1.000000
    5      -28.942830   1.000000
    6      -21.906539   1.000000
    7       -0.942493   1.000000
    8        0.144639   1.000000
    9        0.475304   1.000000
   10        5.613178   0.000000
   11        8.241402   0.000000
   12        8.917014   0.000000
   13       10.807254   0.000000
 
  0.4444444E+00  0.2222222E+00  0.1111111E+00  0.6584362E-01
    1      -28.946299   1.000000
    2      -28.945632   1.000000
    3      -28.944645   1.000000
    4      -28.943258   1.000000
    5      -28.942047   1.000000
    6      -21.888231   1.000000
    7       -1.333195   1.000000
    8       -0.136810   1.000000
    9        0.347667   1.000000
   10        6.312711   0.000000
   11        8.336545   0.000000
   12        8.685188   0.000000
   13       10.496168   0.000000
 
 -0.4444444E+00  0.2222222E+00  0.1111111E+00  0.6584362E-01
    1      -28.946222   1.000000
    2      -28.945453   1.000000
    3      -28.944326   1.000000
    4      -28.942606   1.000000
    5      -28.941724   1.000000
    6      -21.876259   1.000000
    7       -1.563710   1.000000
    8       -0.271834   1.000000
    9        0.236091   1.000000
   10        6.531593   0.000000
   11        8.014515   0.000000
   12        9.913421   0.000000
   13       10.314270   0.000000
 
  0.4444444E+00  0.3333333E+00  0.1111111E+00  0.3292181E-01
    1      -28.947311   1.000000
    2      -28.945642   1.000000
    3      -28.943718   1.000000
    4      -28.942356   1.000000
    5      -28.941919   1.000000
    6      -21.881121   1.000000
    7       -1.325625   1.000000
    8       -0.193024   1.000000
    9        0.073736   1.000000
   10        6.387912   0.000000
   11        7.748603   0.000000
   12        8.743411   0.000000
   13       11.626446   0.000000
 
 -0.4444444E+00  0.3333333E+00  0.1111111E+00  0.6584362E-01
    1      -28.946635   1.000000
    2      -28.945300   1.000000
    3      -28.943770   1.000000
    4      -28.942298   1.000000
    5      -28.941497   1.000000
    6      -21.870012   1.000000
    7       -1.387260   1.000000
    8       -0.532907   1.000000
    9       -0.028596   1.000000
   10        6.760838   0.000000
   11        8.230785   0.000000
   12        8.714481   0.000000
   13       11.366718   0.000000
 
 -0.3333333E+00  0.3333333E+00  0.1111111E+00  0.6584362E-01
    1      -28.946248   1.000000
    2      -28.944586   1.000000
    3      -28.943480   1.000000
    4      -28.943257   1.000000
    5      -28.941590   1.000000
    6      -21.867468   1.000000
    7       -1.305175   1.000000
    8       -0.798212   1.000000
    9        0.016812   1.000000
   10        7.081046   0.000000
   11        8.094581   0.000000
   12        9.747161   0.000000
   13       10.297877   0.000000
 
 -0.2222222E+00  0.3333333E+00  0.1111111E+00  0.3292181E-01
    1      -28.945967   1.000000
    2      -28.945200   1.000000
    3      -28.944099   1.000000
    4      -28.942429   1.000000
    5      -28.942415   1.000000
    6      -21.874685   1.000000
    7       -1.314959   1.000000
    8       -0.637787   1.000000
    9        0.180874   1.000000
   10        7.208109   0.000000
   11        7.860229   0.000000
   12        8.902720   0.000000
   13       10.951816   0.000000
 
 -0.4444444E+00  0.4444444E+00  0.1111111E+00  0.3292181E-01
    1      -28.947640   1.000000
    2      -28.945872   1.000000
    3      -28.942596   1.000000
    4      -28.941672   1.000000
    5      -28.941004   1.000000
    6      -21.864502   1.000000
    7       -1.478121   1.000000
    8       -0.393601   1.000000
    9       -0.220195   1.000000
   10        6.170060   0.000000
   11        7.479113   0.000000
   12       10.187715   0.000000
   13       11.873817   0.000000
 
 -0.3333333E+00  0.4444444E+00  0.1111111E+00  0.3292181E-01
    1      -28.946776   1.000000
    2      -28.945221   1.000000
    3      -28.942777   1.000000
    4      -28.942771   1.000000
    5      -28.941025   1.000000
    6      -21.862828   1.000000
    7       -1.305227   1.000000
    8       -0.773363   1.000000
    9       -0.183070   1.000000
   10        6.626200   0.000000
   11        8.218287   0.000000
   12        9.758102   0.000000
   13       10.484428   0.000000
 
 -0.3333333E+00  0.4444444E+00  0.2222222E+00  0.3292181E-01
    1      -28.945408   1.000000
    2      -28.945376   1.000000
    3      -28.944009   1.000000
    4      -28.942912   1.000000
    5      -28.941021   1.000000
    6      -21.863722   1.000000
    7       -1.177615   1.000000
    8       -0.862865   1.000000
    9       -0.251425   1.000000
   10        7.397508   0.000000
   11        8.362818   0.000000
   12        8.795789   0.000000
   13       10.092095   0.000000
