   1   1   0   0
  0.5802654E+02  0.4345576E-09  0.4345576E-09  0.4345573E-09  0.1000000E-15
  1.000000000000000E-004
  CAR 
 Og_FCC                                  
     33.70506725    -33.52638225  301      3.92713774      1.00000000
    -33.526  0.0000E+00  0.0000E+00
    -33.302  0.0000E+00  0.0000E+00
    -33.078  0.0000E+00  0.0000E+00
    -32.854  0.0000E+00  0.0000E+00
    -32.630  0.0000E+00  0.0000E+00
    -32.406  0.0000E+00  0.0000E+00
    -32.182  0.0000E+00  0.0000E+00
    -31.958  0.0000E+00  0.0000E+00
    -31.734  0.0000E+00  0.0000E+00
    -31.509  0.0000E+00  0.0000E+00
    -31.285  0.0000E+00  0.0000E+00
    -31.061  0.0000E+00  0.0000E+00
    -30.837  0.0000E+00  0.0000E+00
    -30.613  0.0000E+00  0.0000E+00
    -30.389  0.0000E+00  0.4000E+01
    -30.165  0.0000E+00  0.4000E+01
    -29.941  0.0000E+00  0.4000E+01
    -29.717  0.0000E+00  0.4000E+01
    -29.492  0.0000E+00  0.4000E+01
    -29.268  0.0000E+00  0.4000E+01
    -29.044  0.0000E+00  0.4000E+01
    -28.820  0.0000E+00  0.4000E+01
    -28.596  0.0000E+00  0.4000E+01
    -28.372  0.0000E+00  0.4000E+01
    -28.148  0.0000E+00  0.4000E+01
    -27.924  0.0000E+00  0.4000E+01
    -27.700  0.0000E+00  0.4000E+01
    -27.476  0.0000E+00  0.4000E+01
    -27.251  0.0000E+00  0.4000E+01
    -27.027  0.0000E+00  0.4000E+01
    -26.803  0.0000E+00  0.4000E+01
    -26.579  0.0000E+00  0.4000E+01
    -26.355  0.0000E+00  0.4000E+01
    -26.131  0.0000E+00  0.4000E+01
    -25.907  0.0000E+00  0.4000E+01
    -25.683  0.0000E+00  0.4000E+01
    -25.459  0.0000E+00  0.4000E+01
    -25.235  0.0000E+00  0.4000E+01
    -25.010  0.0000E+00  0.4000E+01
    -24.786  0.0000E+00  0.4000E+01
    -24.562  0.0000E+00  0.4000E+01
    -24.338  0.0000E+00  0.4000E+01
    -24.114  0.0000E+00  0.4000E+01
    -23.890  0.0000E+00  0.4000E+01
    -23.666  0.0000E+00  0.1000E+02
    -23.442  0.0000E+00  0.1000E+02
    -23.218  0.0000E+00  0.1000E+02
    -22.993  0.0000E+00  0.1000E+02
    -22.769  0.0000E+00  0.1000E+02
    -22.545  0.0000E+00  0.1000E+02
    -22.321  0.0000E+00  0.1000E+02
    -22.097  0.0000E+00  0.1000E+02
    -21.873  0.0000E+00  0.1000E+02
    -21.649  0.0000E+00  0.1000E+02
    -21.425  0.0000E+00  0.1000E+02
    -21.201  0.0000E+00  0.1000E+02
    -20.977  0.0000E+00  0.1000E+02
    -20.752  0.0000E+00  0.1000E+02
    -20.528  0.0000E+00  0.1000E+02
    -20.304  0.0000E+00  0.1000E+02
    -20.080  0.6275E+00  0.1200E+02
    -19.856  0.0000E+00  0.1200E+02
    -19.632  0.0000E+00  0.1200E+02
    -19.408  0.0000E+00  0.1200E+02
    -19.184  0.0000E+00  0.1200E+02
    -18.960  0.0000E+00  0.1200E+02
    -18.735  0.0000E+00  0.1200E+02
    -18.511  0.0000E+00  0.1200E+02
    -18.287  0.0000E+00  0.1200E+02
    -18.063  0.0000E+00  0.1200E+02
    -17.839  0.0000E+00  0.1200E+02
    -17.615  0.0000E+00  0.1200E+02
    -17.391  0.0000E+00  0.1200E+02
    -17.167  0.0000E+00  0.1200E+02
    -16.943  0.0000E+00  0.1200E+02
    -16.719  0.0000E+00  0.1200E+02
    -16.494  0.0000E+00  0.1200E+02
    -16.270  0.0000E+00  0.1200E+02
    -16.046  0.0000E+00  0.1200E+02
    -15.822  0.0000E+00  0.1200E+02
    -15.598  0.0000E+00  0.1200E+02
    -15.374  0.0000E+00  0.1200E+02
    -15.150  0.0000E+00  0.1200E+02
    -14.926  0.0000E+00  0.1200E+02
    -14.702  0.0000E+00  0.1200E+02
    -14.477  0.0000E+00  0.1200E+02
    -14.253  0.0000E+00  0.1200E+02
    -14.029  0.0000E+00  0.1200E+02
    -13.805  0.0000E+00  0.1200E+02
    -13.581  0.0000E+00  0.1200E+02
    -13.357  0.0000E+00  0.1200E+02
    -13.133  0.0000E+00  0.1200E+02
    -12.909  0.0000E+00  0.1200E+02
    -12.685  0.0000E+00  0.1200E+02
    -12.461  0.0000E+00  0.1200E+02
    -12.236  0.0000E+00  0.1200E+02
    -12.012  0.0000E+00  0.1200E+02
    -11.788  0.0000E+00  0.1200E+02
    -11.564  0.0000E+00  0.1200E+02
    -11.340  0.0000E+00  0.1200E+02
    -11.116  0.0000E+00  0.1200E+02
    -10.892  0.0000E+00  0.1200E+02
    -10.668  0.0000E+00  0.1200E+02
    -10.444  0.0000E+00  0.1200E+02
    -10.219  0.0000E+00  0.1200E+02
     -9.995  0.0000E+00  0.1200E+02
     -9.771  0.0000E+00  0.1200E+02
     -9.547  0.0000E+00  0.1200E+02
     -9.323  0.0000E+00  0.1200E+02
     -9.099  0.0000E+00  0.1200E+02
     -8.875  0.0000E+00  0.1200E+02
     -8.651  0.0000E+00  0.1200E+02
     -8.427  0.0000E+00  0.1200E+02
     -8.203  0.0000E+00  0.1200E+02
     -7.978  0.0000E+00  0.1200E+02
     -7.754  0.0000E+00  0.1200E+02
     -7.530  0.0000E+00  0.1200E+02
     -7.306  0.0000E+00  0.1303E+02
     -7.082  0.0000E+00  0.1397E+02
     -6.858  0.0000E+00  0.1400E+02
     -6.634  0.0000E+00  0.1400E+02
     -6.410  0.0000E+00  0.1400E+02
     -6.186  0.0000E+00  0.1400E+02
     -5.961  0.0000E+00  0.1400E+02
     -5.737  0.0000E+00  0.1400E+02
     -5.513  0.0000E+00  0.1400E+02
     -5.289  0.0000E+00  0.1400E+02
     -5.065  0.0000E+00  0.1400E+02
     -4.841  0.0000E+00  0.1400E+02
     -4.617  0.0000E+00  0.1400E+02
     -4.393  0.0000E+00  0.1400E+02
     -4.169  0.0000E+00  0.1400E+02
     -3.945  0.0000E+00  0.1400E+02
     -3.720  0.0000E+00  0.1400E+02
     -3.496  0.0000E+00  0.1400E+02
     -3.272  0.0000E+00  0.1400E+02
     -3.048  0.0000E+00  0.1400E+02
     -2.824  0.0000E+00  0.1400E+02
     -2.600  0.0000E+00  0.1400E+02
     -2.376  0.0000E+00  0.1400E+02
     -2.152  0.0000E+00  0.1400E+02
     -1.928  0.0000E+00  0.1400E+02
     -1.703  0.0000E+00  0.1400E+02
     -1.479  0.0000E+00  0.1400E+02
     -1.255  0.0000E+00  0.1400E+02
     -1.031  0.0000E+00  0.1400E+02
     -0.807  0.0000E+00  0.1400E+02
     -0.583  0.0000E+00  0.1400E+02
     -0.359  0.0000E+00  0.1400E+02
     -0.135  0.0000E+00  0.1400E+02
      0.089  0.0000E+00  0.1400E+02
      0.313  0.0000E+00  0.1400E+02
      0.538  0.0000E+00  0.1400E+02
      0.762  0.0000E+00  0.1422E+02
      0.986  0.0000E+00  0.1553E+02
      1.210  0.0000E+00  0.1553E+02
      1.434  0.0000E+00  0.1553E+02
      1.658  0.0000E+00  0.1616E+02
      1.882  0.0000E+00  0.1616E+02
      2.106  0.0000E+00  0.1616E+02
      2.330  0.0000E+00  0.1700E+02
      2.554  0.1917E-01  0.1700E+02
      2.779  0.0000E+00  0.1738E+02
      3.003  0.4183E+00  0.1756E+02
      3.227  0.0000E+00  0.1756E+02
      3.451  0.0000E+00  0.1769E+02
      3.675  0.0000E+00  0.1794E+02
      3.899  0.0000E+00  0.1797E+02
      4.123  0.0000E+00  0.1803E+02
      4.347  0.0000E+00  0.1803E+02
      4.571  0.0000E+00  0.1803E+02
      4.796  0.0000E+00  0.1803E+02
      5.020  0.0000E+00  0.1803E+02
      5.244  0.0000E+00  0.1803E+02
      5.468  0.0000E+00  0.1803E+02
      5.692  0.0000E+00  0.1803E+02
      5.916  0.0000E+00  0.1803E+02
      6.140  0.0000E+00  0.1828E+02
      6.364  0.0000E+00  0.1850E+02
      6.588  0.0000E+00  0.1850E+02
      6.812  0.0000E+00  0.1850E+02
      7.037  0.0000E+00  0.1869E+02
      7.261  0.7121E-15  0.1869E+02
      7.485  0.0000E+00  0.1944E+02
      7.709  0.0000E+00  0.2000E+02
      7.933  0.0000E+00  0.2009E+02
      8.157  0.0000E+00  0.2009E+02
      8.381  0.0000E+00  0.2009E+02
      8.605  0.0000E+00  0.2028E+02
      8.829  0.1014E-01  0.2103E+02
      9.054  0.0000E+00  0.2141E+02
      9.278  0.0000E+00  0.2141E+02
      9.502  0.0000E+00  0.2141E+02
      9.726  0.0000E+00  0.2159E+02
      9.950  0.8014E+00  0.2221E+02
     10.174  0.0000E+00  0.2222E+02
     10.398  0.0000E+00  0.2347E+02
     10.622  0.0000E+00  0.2359E+02
     10.846  0.0000E+00  0.2391E+02
     11.070  0.0000E+00  0.2431E+02
     11.295  0.6972E-01  0.2462E+02
     11.519  0.1113E+01  0.2500E+02
     11.743  0.0000E+00  0.2525E+02
     11.967  0.0000E+00  0.2619E+02
     12.191  0.0000E+00  0.2631E+02
     12.415  0.0000E+00  0.2631E+02
     12.639  0.0000E+00  0.2669E+02
     12.863  0.0000E+00  0.2694E+02
     13.087  0.0000E+00  0.2738E+02
     13.312  0.0000E+00  0.2741E+02
     13.536  0.0000E+00  0.2822E+02
     13.760  0.0000E+00  0.2841E+02
     13.984  0.0000E+00  0.2878E+02
     14.208  0.0000E+00  0.2878E+02
     14.432  0.0000E+00  0.2884E+02
     14.656  0.5526E+00  0.2897E+02
     14.880  0.0000E+00  0.3003E+02
     15.104  0.6646E-01  0.3173E+02
     15.328  0.0000E+00  0.3216E+02
     15.553  0.0000E+00  0.3291E+02
     15.777  0.0000E+00  0.3291E+02
     16.001  0.0000E+00  0.3291E+02
     16.225  0.8202E-04  0.3303E+02
     16.449  0.0000E+00  0.3325E+02
     16.673  0.0000E+00  0.3325E+02
     16.897  0.0000E+00  0.3444E+02
     17.121  0.0000E+00  0.3481E+02
     17.345  0.0000E+00  0.3494E+02
     17.570  0.0000E+00  0.3597E+02
     17.794  0.0000E+00  0.3672E+02
     18.018  0.0000E+00  0.3728E+02
     18.242  0.0000E+00  0.3831E+02
     18.466  0.0000E+00  0.3916E+02
     18.690  0.0000E+00  0.4041E+02
     18.914  0.9078E+00  0.4061E+02
     19.138  0.0000E+00  0.4147E+02
     19.362  0.0000E+00  0.4184E+02
     19.586  0.0000E+00  0.4253E+02
     19.811  0.0000E+00  0.4253E+02
     20.035  0.1081E-07  0.4347E+02
     20.259  0.0000E+00  0.4422E+02
     20.483  0.0000E+00  0.4569E+02
     20.707  0.0000E+00  0.4625E+02
     20.931  0.5578E+00  0.4644E+02
     21.155  0.0000E+00  0.4644E+02
     21.379  0.0000E+00  0.4644E+02
     21.603  0.0000E+00  0.4644E+02
     21.828  0.0000E+00  0.4644E+02
     22.052  0.0000E+00  0.4766E+02
     22.276  0.0000E+00  0.4766E+02
     22.500  0.0000E+00  0.4784E+02
     22.724  0.0000E+00  0.4784E+02
     22.948  0.6972E+00  0.4862E+02
     23.172  0.0000E+00  0.4947E+02
     23.396  0.0000E+00  0.4988E+02
     23.620  0.0000E+00  0.4988E+02
     23.844  0.0000E+00  0.4988E+02
     24.069  0.0000E+00  0.5038E+02
     24.293  0.0000E+00  0.5138E+02
     24.517  0.0000E+00  0.5147E+02
     24.741  0.0000E+00  0.5259E+02
     24.965  0.0000E+00  0.5334E+02
     25.189  0.8367E+00  0.5428E+02
     25.413  0.0000E+00  0.5559E+02
     25.637  0.0000E+00  0.5647E+02
     25.861  0.0000E+00  0.5647E+02
     26.086  0.0000E+00  0.5684E+02
     26.310  0.0000E+00  0.5691E+02
     26.534  0.0000E+00  0.5694E+02
     26.758  0.0000E+00  0.5694E+02
     26.982  0.0000E+00  0.5769E+02
     27.206  0.0000E+00  0.5891E+02
     27.430  0.0000E+00  0.5891E+02
     27.654  0.0000E+00  0.5984E+02
     27.878  0.0000E+00  0.6006E+02
     28.102  0.0000E+00  0.6125E+02
     28.327  0.0000E+00  0.6194E+02
     28.551  0.0000E+00  0.6194E+02
     28.775  0.0000E+00  0.6194E+02
     28.999  0.0000E+00  0.6194E+02
     29.223  0.0000E+00  0.6269E+02
     29.447  0.0000E+00  0.6297E+02
     29.671  0.0000E+00  0.6297E+02
     29.895  0.0000E+00  0.6306E+02
     30.119  0.2051E-15  0.6306E+02
     30.343  0.0000E+00  0.6356E+02
     30.568  0.0000E+00  0.6356E+02
     30.792  0.0000E+00  0.6400E+02
     31.016  0.0000E+00  0.6400E+02
     31.240  0.0000E+00  0.6400E+02
     31.464  0.0000E+00  0.6400E+02
     31.688  0.0000E+00  0.6400E+02
     31.912  0.0000E+00  0.6400E+02
     32.136  0.0000E+00  0.6400E+02
     32.360  0.0000E+00  0.6400E+02
     32.585  0.0000E+00  0.6400E+02
     32.809  0.0000E+00  0.6400E+02
     33.033  0.0000E+00  0.6400E+02
     33.257  0.0000E+00  0.6400E+02
     33.481  0.0000E+00  0.6400E+02
     33.705  0.0000E+00  0.6400E+02
