 vasp.5.4.4.18Apr17-6-g9f103f2a35 (build Nov 03 2018 10:20:46) complex          
  
 executed on             LinuxIFC date 2018.11.09  12:57:40
 running on   16 total cores
 distrk:  each k-point on    8 cores,    2 groups
 distr:  one band on NCORES_PER_BAND=   4 cores,    2 groups


--------------------------------------------------------------------------------------------------------


 INCAR:
 POTCAR:    PAW Og, JanMewes Oct 18               

 ----------------------------------------------------------------------------- 
|                                                                             |
|           W    W    AA    RRRRR   N    N  II  N    N   GGGG   !!!           |
|           W    W   A  A   R    R  NN   N  II  NN   N  G    G  !!!           |
|           W    W  A    A  R    R  N N  N  II  N N  N  G       !!!           |
|           W WW W  AAAAAA  RRRRR   N  N N  II  N  N N  G  GGG   !            |
|           WW  WW  A    A  R   R   N   NN  II  N   NN  G    G                |
|           W    W  A    A  R    R  N    N  II  N    N   GGGG   !!!           |
|                                                                             |
|      You have enabled k-point parallelism (KPAR>1).                         |
|      This developmental code was originally  written by Paul Kent at ORNL,  |
|      and carefully double checked in Vienna.                                |
|      GW as well as linear response parallelism added by Martijn Marsman     |
|      and Georg Kresse.                                                      |
|      Carefully verify results versus KPAR=1.                                |
|      Report problems to Paul Kent and Vienna.                               |
|                                                                             |
 ----------------------------------------------------------------------------- 

 POTCAR:    PAW Og, JanMewes Oct 18               
   VRHFIN =Og : 10d 2s 6p, PE                                                   
   LEXCH  = PE                                                                  
   EATOM  =  2640.5573 eV,  194.0755 Ry                                         
                                                                                
   TITEL  = PAW Og, JanMewes Oct 18                                             
   LULTRA =        F    use ultrasoft PP ?                                      
   IUNSCR =        1    unscreen: 0-lin 1-nonlin 2-no                           
   RPACOR =    1.700    partial core radius                                     
   POMASS =    0.010; ZVAL   =   18.000    mass and valenz                      
   RCORE  =    2.600    outmost cutoff radius                                   
   RWIGS  =    3.500; RWIGS  =    1.852    wigner-seitz radius (au A)           
   ENMAX  =  339.336; ENMIN  =  254.502 eV                                      
   ICORE  =        3    local potential                                         
   LCOR   =        T    correct aug charges                                     
   LPAW   =        T    paw PP                                                  
   EAUG   =  361.025                                                            
   DEXC   =   -0.000                                                            
   RAUG   =    1.300    factor for augmentation sphere                          
   RDEP   =    2.775    radius for radial grids                                 
   RDEPT  =    2.135    core radius for aug-charge                              
   QCUT   =   -4.994; QGAM   =    9.988    optimization parameters              
                                                                                
   Atomic configuration                                                         
   22 entries                                                                   
     n  l   j            E        occ.                                          
     1  0  0.50   -225781.4217   2.0000                                         
     2  0  0.50    -47342.3774   2.0000                                         
     2  1  1.50    -33463.4058   6.0000                                         
     3  0  0.50    -12845.8060   2.0000                                         
     3  1  1.50     -9184.5562   6.0000                                         
     3  2  2.50     -7322.6146  10.0000                                         
     4  0  0.50     -3781.9433   2.0000                                         
     4  1  1.50     -2605.9204   6.0000                                         
     4  2  2.50     -1899.4626  10.0000                                         
     4  3  3.50     -1273.6890  14.0000                                         
     5  0  0.50     -1046.0643   2.0000                                         
     5  1  1.50      -650.9265   6.0000                                         
     5  2  2.50      -388.1490  10.0000                                         
     5  3  3.50      -152.1121  14.0000                                         
     6  0  0.50      -224.6639   2.0000                                         
     6  1  0.50      -184.3267   2.0000                                         
     6  1  1.50       -97.8537   4.0000                                         
     6  2  2.50       -35.6667  10.0000                                         
     7  0  0.50       -28.5889   2.0000                                         
     8  0  0.50        -1.3606   0.0000                                         
     7  1  1.50        -7.0827   6.0000                                         
     6  3  3.50        -0.0136   0.0000                                         
   Description                                                                  
     l       E           TYP  RCUT    TYP  RCUT                                 
     2    -35.6666962     23  2.100                                             
     2     34.0145650     23  2.300                                             
     0    -28.5889381     23  1.600                                             
     0     40.8174780     23  2.200                                             
     1     -7.0826811     23  2.200                                             
     1    148.3035034     23  1.900                                             
     3      6.8029130      7  2.600                                             
  local pseudopotential read in
  partial core-charges read in
  partial kinetic energy density read in
  kinetic energy density of atom read in
  atomic valenz-charges read in
  non local Contribution for L=           2  read in
    real space projection operators read in
  non local Contribution for L=           2  read in
    real space projection operators read in
  non local Contribution for L=           0  read in
    real space projection operators read in
  non local Contribution for L=           0  read in
    real space projection operators read in
  non local Contribution for L=           1  read in
    real space projection operators read in
  non local Contribution for L=           1  read in
    real space projection operators read in
    PAW grid and wavefunctions read in
 
   number of l-projection  operators is LMAX  =           6
   number of lm-projection operators is LMMAX =          18
 
  PAW Og, JanMewes Oct 18               :
 energy of atom  1       EATOM=-2640.5573
 kinetic energy error for atom=    0.1815 (will be added to EATOM!!)
 
 
 POSCAR: Og                                      
  positions in direct lattice
  velocities in cartesian coordinates
 exchange correlation table for  LEXCH =        8
   RHO(1)=    0.500       N(1)  =     2000
   RHO(2)=  100.500       N(2)  =     4000
 


--------------------------------------------------------------------------------------------------------


 ion  position               nearest neighbor table
   1  0.000  0.000  0.000-
 

IMPORTANT INFORMATION: All symmetrisations will be switched off!
NOSYMM: (Re-)initialisation of all symmetry stuff for point group C_1.

 
 
 KPOINTS: k-points                                

Automatic generation of k-mesh.
Space group operators:
 irot       det(A)        alpha          n_x          n_y          n_z        tau_x        tau_y        tau_z
    1     1.000000     0.000000     1.000000     0.000000     0.000000     0.000000     0.000000     0.000000
 
 Subroutine IBZKPT returns following result:
 ===========================================
 
 Found     64 irreducible k-points:
 
 Following reciprocal coordinates:
            Coordinates               Weight
  0.000000  0.000000  0.000000      1.000000
  0.250000 -0.000000  0.000000      1.000000
  0.500000 -0.000000  0.000000      1.000000
 -0.250000  0.000000 -0.000000      1.000000
  0.000000  0.250000  0.000000      1.000000
  0.250000  0.250000  0.000000      1.000000
  0.500000  0.250000  0.000000      1.000000
 -0.250000  0.250000 -0.000000      1.000000
  0.000000  0.500000  0.000000      1.000000
  0.250000  0.500000  0.000000      1.000000
  0.500000  0.500000  0.000000      1.000000
 -0.250000  0.500000 -0.000000      1.000000
 -0.000000 -0.250000  0.000000      1.000000
  0.250000 -0.250000  0.000000      1.000000
  0.500000 -0.250000  0.000000      1.000000
 -0.250000 -0.250000 -0.000000      1.000000
  0.000000  0.000000  0.250000      1.000000
  0.250000 -0.000000  0.250000      1.000000
  0.500000 -0.000000  0.250000      1.000000
 -0.250000  0.000000  0.250000      1.000000
  0.000000  0.250000  0.250000      1.000000
  0.250000  0.250000  0.250000      1.000000
  0.500000  0.250000  0.250000      1.000000
 -0.250000  0.250000  0.250000      1.000000
 -0.000000  0.500000  0.250000      1.000000
  0.250000  0.500000  0.250000      1.000000
  0.500000  0.500000  0.250000      1.000000
 -0.250000  0.500000  0.250000      1.000000
 -0.000000 -0.250000  0.250000      1.000000
  0.250000 -0.250000  0.250000      1.000000
  0.500000 -0.250000  0.250000      1.000000
 -0.250000 -0.250000  0.250000      1.000000
  0.000000  0.000000  0.500000      1.000000
  0.250000 -0.000000  0.500000      1.000000
  0.500000 -0.000000  0.500000      1.000000
 -0.250000  0.000000  0.500000      1.000000
  0.000000  0.250000  0.500000      1.000000
  0.250000  0.250000  0.500000      1.000000
  0.500000  0.250000  0.500000      1.000000
 -0.250000  0.250000  0.500000      1.000000
  0.000000  0.500000  0.500000      1.000000
  0.250000  0.500000  0.500000      1.000000
  0.500000  0.500000  0.500000      1.000000
 -0.250000  0.500000  0.500000      1.000000
  0.000000 -0.250000  0.500000      1.000000
  0.250000 -0.250000  0.500000      1.000000
  0.500000 -0.250000  0.500000      1.000000
 -0.250000 -0.250000  0.500000      1.000000
  0.000000  0.000000 -0.250000      1.000000
  0.250000 -0.000000 -0.250000      1.000000
  0.500000 -0.000000 -0.250000      1.000000
 -0.250000  0.000000 -0.250000      1.000000
  0.000000  0.250000 -0.250000      1.000000
  0.250000  0.250000 -0.250000      1.000000
  0.500000  0.250000 -0.250000      1.000000
 -0.250000  0.250000 -0.250000      1.000000
  0.000000  0.500000 -0.250000      1.000000
  0.250000  0.500000 -0.250000      1.000000
  0.500000  0.500000 -0.250000      1.000000
 -0.250000  0.500000 -0.250000      1.000000
  0.000000 -0.250000 -0.250000      1.000000
  0.250000 -0.250000 -0.250000      1.000000
  0.500000 -0.250000 -0.250000      1.000000
 -0.250000 -0.250000 -0.250000      1.000000
 
 Following cartesian coordinates:
            Coordinates               Weight
  0.000000  0.000000  0.000000      1.000000
  0.057530 -0.033215 -0.023486      1.000000
  0.115060 -0.066430 -0.046973      1.000000
 -0.057530  0.033215  0.023486      1.000000
 -0.000000  0.066430 -0.023486      1.000000
  0.057530  0.033215 -0.046973      1.000000
  0.115060 -0.000000 -0.070459      1.000000
 -0.057530  0.099644  0.000000      1.000000
 -0.000000  0.132859 -0.046973      1.000000
  0.057530  0.099644 -0.070459      1.000000
  0.115060  0.066430 -0.093946      1.000000
 -0.057530  0.166074 -0.023486      1.000000
  0.000000 -0.066430  0.023486      1.000000
  0.057530 -0.099644 -0.000000      1.000000
  0.115060 -0.132859 -0.023486      1.000000
 -0.057530 -0.033215  0.046973      1.000000
  0.000000  0.000000  0.070459      1.000000
  0.057530 -0.033215  0.046973      1.000000
  0.115060 -0.066430  0.023486      1.000000
 -0.057530  0.033215  0.093946      1.000000
 -0.000000  0.066430  0.046973      1.000000
  0.057530  0.033215  0.023486      1.000000
  0.115060  0.000000 -0.000000      1.000000
 -0.057530  0.099645  0.070459      1.000000
 -0.000000  0.132859  0.023486      1.000000
  0.057530  0.099644  0.000000      1.000000
  0.115060  0.066430 -0.023486      1.000000
 -0.057530  0.166074  0.046973      1.000000
  0.000000 -0.066430  0.093946      1.000000
  0.057530 -0.099644  0.070459      1.000000
  0.115060 -0.132859  0.046973      1.000000
 -0.057530 -0.033215  0.117432      1.000000
  0.000000  0.000000  0.140919      1.000000
  0.057530 -0.033215  0.117432      1.000000
  0.115060 -0.066430  0.093946      1.000000
 -0.057530  0.033215  0.164405      1.000000
 -0.000000  0.066430  0.117432      1.000000
  0.057530  0.033215  0.093946      1.000000
  0.115060  0.000000  0.070459      1.000000
 -0.057530  0.099645  0.140919      1.000000
 -0.000000  0.132859  0.093946      1.000000
  0.057530  0.099645  0.070459      1.000000
  0.115060  0.066430  0.046973      1.000000
 -0.057530  0.166074  0.117432      1.000000
  0.000000 -0.066430  0.164405      1.000000
  0.057530 -0.099644  0.140919      1.000000
  0.115060 -0.132859  0.117432      1.000000
 -0.057530 -0.033215  0.187892      1.000000
 -0.000000 -0.000000 -0.070459      1.000000
  0.057530 -0.033215 -0.093946      1.000000
  0.115060 -0.066430 -0.117432      1.000000
 -0.057530  0.033215 -0.046973      1.000000
 -0.000000  0.066430 -0.093946      1.000000
  0.057530  0.033215 -0.117432      1.000000
  0.115060 -0.000000 -0.140919      1.000000
 -0.057530  0.099644 -0.070459      1.000000
 -0.000000  0.132859 -0.117432      1.000000
  0.057530  0.099644 -0.140919      1.000000
  0.115060  0.066430 -0.164405      1.000000
 -0.057530  0.166074 -0.093946      1.000000
  0.000000 -0.066430 -0.046973      1.000000
  0.057530 -0.099645 -0.070459      1.000000
  0.115060 -0.132859 -0.093946      1.000000
 -0.057530 -0.033215 -0.023486      1.000000
 


--------------------------------------------------------------------------------------------------------




 Dimension of arrays:
   k-points           NKPTS =     64   k-points in BZ     NKDIM =     64   number of bands    NBANDS=     64
   number of dos      NEDOS =    301   number of ions     NIONS =      1
   non local maximal  LDIM  =      6   non local SUM 2l+1 LMDIM =     18
   total plane-waves  NPLWV =  21952
   max r-space proj   IRMAX =      1   max aug-charges    IRDMAX= 181918
   dimension x,y,z NGX =    28 NGY =   28 NGZ =   28
   dimension x,y,z NGXF=    56 NGYF=   56 NGZF=   56
   support grid    NGXF=   112 NGYF=  112 NGZF=  112
   ions per type =               1
   NGX,Y,Z   is equivalent  to a cutoff of  10.71, 10.71, 10.71 a.u.
   NGXF,Y,Z  is equivalent  to a cutoff of  21.42, 21.42, 21.42 a.u.

 SYSTEM =  Og_FCC                                  
 POSCAR =  Og                                      

 Startparameter for this run:
   NWRITE =      2    write-flag & timer
   PREC   = accura    normal or accurate (medium, high low for compatibility)
   ISTART =      1    job   : 0-new  1-cont  2-samecut
   ICHARG =      0    charge: 1-file 2-atom 10-const
   ISPIN  =      1    spin polarized calculation?
   LNONCOLLINEAR =      T non collinear calculations
   LSORBIT =      T    spin-orbit coupling
   INIWAV =      1    electr: 0-lowe 1-rand  2-diag
   LASPH  =      F    aspherical Exc in radial PAW
   METAGGA=      F    non-selfconsistent MetaGGA calc.

 Electronic Relaxation 1
   ENCUT  =  400.0 eV  29.40 Ry    5.42 a.u.   7.09  7.09  7.09*2*pi/ulx,y,z
   ENINI  =  400.0     initial cutoff
   ENAUG  =  361.0 eV  augmentation charge cutoff
   NELM   =     50;   NELMIN=  2; NELMDL= -5     # of ELM steps 
   EDIFF  = 0.1E-07   stopping-criterion for ELM
   LREAL  =      F    real-space projection
   NLSPLINE    = F    spline interpolate recip. space projectors
   LCOMPAT=      F    compatible to vasp.4.4
   GGA_COMPAT  = F    GGA compatible to vasp.4.4-vasp.4.6
   LMAXPAW     = -100 max onsite density
   LMAXMIX     =    2 max onsite mixed and CHGCAR
   VOSKOWN=      0    Vosko Wilk Nusair interpolation
   ROPT   =    0.00000
 Ionic relaxation
   EDIFFG = 0.1E-04   stopping-criterion for IOM
   NSW    =      1    number of steps for IOM
   NBLOCK =      1;   KBLOCK =      1    inner block; outer block 
   IBRION =     -1    ionic relax: 0-MD 1-quasi-New 2-CG
   NFREE  =      5    steps in history (QN), initial steepest desc. (CG)
   ISIF   =      3    stress and relaxation
   IWAVPR =     10    prediction:  0-non 1-charg 2-wave 3-comb
   ISYM   =      0    0-nonsym 1-usesym 2-fastsym
   LCORR  =      T    Harris-Foulkes like correction to forces

   POTIM  = 0.1000    time-step for ionic-motion
   TEIN   =    0.0    initial temperature
   TEBEG  =    0.0;   TEEND  =   0.0 temperature during run
   SMASS  =  -3.00    Nose mass-parameter (am)
   estimated Nose-frequenzy (Omega)   =  0.10E-29 period in steps =****** mass=  -0.432E-27a.u.
   SCALEE = 1.0000    scale energy and forces
   NPACO  =    256;   APACO  = 16.0  distance and # of slots for P.C.
   PSTRESS=    0.0 pullay stress

  Mass of Ions in am
   POMASS =   0.01
  Ionic Valenz
   ZVAL   =  18.00
  Atomic Wigner-Seitz radii
   RWIGS  =  -1.00
  virtual crystal weights 
   VCA    =   1.00
   NELECT =      18.0000    total number of electrons
   NUPDOWN=      -1.0000    fix difference up-down

 DOS related values:
   EMIN   =  10.00;   EMAX   =-10.00  energy-range for DOS
   EFERMI =   0.00
   ISMEAR =     0;   SIGMA  =   0.00  broadening in eV -4-tet -1-fermi 0-gaus

 Electronic relaxation 2 (details)
   IALGO  =     38    algorithm
   LDIAG  =      T    sub-space diagonalisation (order eigenvalues)
   LSUBROT=      F    optimize rotation matrix (better conditioning)
   TURBO    =      0    0=normal 1=particle mesh
   IRESTART =      0    0=no restart 2=restart with 2 vectors
   NREBOOT  =      0    no. of reboots
   NMIN     =      0    reboot dimension
   EREF     =   0.00    reference energy to select bands
   IMIX   =      4    mixing-type and parameters
     AMIX     =   0.40;   BMIX     =  1.00
     AMIX_MAG =   1.60;   BMIX_MAG =  1.00
     AMIN     =   0.10
     WC   =   100.;   INIMIX=   1;  MIXPRE=   1;  MAXMIX=  50

 Intra band minimization:
   WEIMIN = 0.0000     energy-eigenvalue tresh-hold
   EBREAK =  0.39E-10  absolut break condition
   DEPER  =   0.30     relativ break condition  

   TIME   =   0.40     timestep for ELM

  volume/ion in A,a.u.               =      58.03       391.58
  Fermi-wavevector in a.u.,A,eV,Ry     =   1.108214  2.094220 16.709821  1.228137
  Thomas-Fermi vector in A             =   2.244738
 
 Write flags
   LWAVE        =      T    write WAVECAR
   LDOWNSAMPLE  =      F    k-point downsampling of WAVECAR
   LCHARG       =      F    write CHGCAR
   LVTOT        =      F    write LOCPOT, total local potential
   LVHAR        =      F    write LOCPOT, Hartree potential only
   LELF         =      F    write electronic localiz. function (ELF)
   LORBIT       =      0    0 simple, 1 ext, 2 COOP (PROOUT), +10 PAW based schemes


 Dipole corrections
   LMONO  =      F    monopole corrections only (constant potential shift)
   LDIPOL =      F    correct potential (dipole corrections)
   IDIPOL =      0    1-x, 2-y, 3-z, 4-all directions 
   EPSILON=  1.0000000 bulk dielectric constant

 Exchange correlation treatment:
   GGA     =    PE    GGA type
   LEXCH   =     8    internal setting for exchange type
   VOSKOWN=      0    Vosko Wilk Nusair interpolation
   LHFCALC =     F    Hartree Fock is set to
   LHFONE  =     F    Hartree Fock one center treatment
   AEXX    =    0.0000 exact exchange contribution

 Linear response parameters
   LEPSILON=     F    determine dielectric tensor
   LRPA    =     F    only Hartree local field effects (RPA)
   LNABLA  =     F    use nabla operator in PAW spheres
   LVEL    =     F    velocity operator in full k-point grid
   LINTERFAST=   F  fast interpolation
   KINTER  =     0    interpolate to denser k-point grid
   CSHIFT  =0.1000    complex shift for real part using Kramers Kronig
   OMEGAMAX=  -1.0    maximum frequency
   DEG_THRESHOLD= 0.2000000E-02 threshold for treating states as degnerate
   RTIME   =   -0.100 relaxation time in fs
  (WPLASMAI=    0.000 imaginary part of plasma frequency in eV, 0.658/RTIME)
   DFIELD  = 0.0000000 0.0000000 0.0000000 field for delta impulse in time
 
 Orbital magnetization related:
   ORBITALMAG=     F  switch on orbital magnetization
   LCHIMAG   =     F  perturbation theory with respect to B field
   DQ        =  0.001000  dq finite difference perturbation B field
   LLRAUG    =     F  two centre corrections for induced B field



--------------------------------------------------------------------------------------------------------


 Static calculation
 charge density and potential will be updated during run
 non collinear spin polarized calculation
 Variant of blocked Davidson
 Davidson routine will perform the subspace rotation
 perform sub-space diagonalisation
    after iterative eigenvector-optimisation
 modified Broyden-mixing scheme, WC =      100.0
 initial mixing is a Kerker type mixing with AMIX =  0.4000 and BMIX =      1.0000
 Hartree-type preconditioning will be used
 using additional bands           55
 reciprocal scheme for non local part
 use partial core corrections
 calculate Harris-corrections to forces 
   (improved forces if not selfconsistent)
 use gradient corrections 
 use of overlap-Matrix (Vanderbilt PP)
 Gauss-broadening in eV      SIGMA  =   0.00


--------------------------------------------------------------------------------------------------------


  energy-cutoff  :      400.00
  volume of cell :       58.03
      direct lattice vectors                 reciprocal lattice vectors
     4.345575500  0.000000031 -0.000000016     0.230119118 -0.132859353 -0.093945822
     2.172787749  3.763378984 -0.000001017    -0.000000002  0.265718630 -0.093945721
     2.172787765  1.254458776  3.548145251     0.000000001  0.000000076  0.281837363

  length of vectors
     4.345575500  4.345575678  4.345573405     0.281837247  0.281837168  0.281837363


 
 old parameters found on file WAVECAR:
  energy-cutoff  :      300.00
  volume of cell :       58.03
      direct lattice vectors                 reciprocal lattice vectors
     4.345575500  0.000000031 -0.000000016     0.230119118 -0.132859353 -0.093945822
     2.172787749  3.763378984 -0.000001017    -0.000000002  0.265718630 -0.093945721
     2.172787765  1.254458776  3.548145251     0.000000001  0.000000076  0.281837363

  length of vectors

 
 k-points in units of 2pi/SCALE and weight: k-points                                
   0.00000000  0.00000000  0.00000000       0.016
   0.05752978 -0.03321484 -0.02348646       0.016
   0.11505956 -0.06642968 -0.04697291       0.016
  -0.05752978  0.03321484  0.02348646       0.016
  -0.00000000  0.06642966 -0.02348643       0.016
   0.05752978  0.03321482 -0.04697289       0.016
   0.11505956 -0.00000002 -0.07045934       0.016
  -0.05752978  0.09964450  0.00000003       0.016
  -0.00000000  0.13285932 -0.04697286       0.016
   0.05752978  0.09964448 -0.07045932       0.016
   0.11505956  0.06642964 -0.09394577       0.016
  -0.05752978  0.16607415 -0.02348640       0.016
   0.00000000 -0.06642966  0.02348643       0.016
   0.05752978 -0.09964450 -0.00000003       0.016
   0.11505956 -0.13285933 -0.02348648       0.016
  -0.05752978 -0.03321482  0.04697289       0.016
   0.00000000  0.00000002  0.07045934       0.016
   0.05752978 -0.03321482  0.04697289       0.016
   0.11505956 -0.06642966  0.02348643       0.016
  -0.05752978  0.03321486  0.09394580       0.016
  -0.00000000  0.06642968  0.04697291       0.016
   0.05752978  0.03321484  0.02348646       0.016
   0.11505956  0.00000000 -0.00000000       0.016
  -0.05752978  0.09964451  0.07045937       0.016
  -0.00000000  0.13285933  0.02348648       0.016
   0.05752978  0.09964450  0.00000002       0.016
   0.11505956  0.06642966 -0.02348643       0.016
  -0.05752978  0.16607417  0.04697294       0.016
   0.00000000 -0.06642964  0.09394577       0.016
   0.05752978 -0.09964448  0.07045932       0.016
   0.11505956 -0.13285932  0.04697286       0.016
  -0.05752978 -0.03321480  0.11743223       0.016
   0.00000000  0.00000004  0.14091868       0.016
   0.05752978 -0.03321480  0.11743223       0.016
   0.11505956 -0.06642964  0.09394577       0.016
  -0.05752978  0.03321488  0.16440514       0.016
  -0.00000000  0.06642970  0.11743225       0.016
   0.05752978  0.03321486  0.09394580       0.016
   0.11505956  0.00000002  0.07045934       0.016
  -0.05752978  0.09964453  0.14091871       0.016
  -0.00000000  0.13285935  0.09394582       0.016
   0.05752978  0.09964451  0.07045937       0.016
   0.11505956  0.06642968  0.04697291       0.016
  -0.05752978  0.16607419  0.11743228       0.016
   0.00000000 -0.06642962  0.16440511       0.016
   0.05752978 -0.09964446  0.14091866       0.016
   0.11505956 -0.13285930  0.11743220       0.016
  -0.05752978 -0.03321478  0.18789157       0.016
  -0.00000000 -0.00000002 -0.07045934       0.016
   0.05752978 -0.03321486 -0.09394580       0.016
   0.11505956 -0.06642970 -0.11743225       0.016
  -0.05752978  0.03321482 -0.04697289       0.016
  -0.00000000  0.06642964 -0.09394577       0.016
   0.05752978  0.03321480 -0.11743223       0.016
   0.11505956 -0.00000004 -0.14091868       0.016
  -0.05752978  0.09964448 -0.07045932       0.016
  -0.00000000  0.13285930 -0.11743220       0.016
   0.05752978  0.09964446 -0.14091866       0.016
   0.11505956  0.06642962 -0.16440511       0.016
  -0.05752978  0.16607413 -0.09394575       0.016
   0.00000000 -0.06642968 -0.04697291       0.016
   0.05752978 -0.09964451 -0.07045937       0.016
   0.11505956 -0.13285935 -0.09394582       0.016
  -0.05752978 -0.03321484 -0.02348646       0.016
 
 k-points in reciprocal lattice and weights: k-points                                
   0.00000000  0.00000000  0.00000000       0.016
   0.25000000 -0.00000000  0.00000000       0.016
   0.50000000 -0.00000000  0.00000000       0.016
  -0.25000000  0.00000000 -0.00000000       0.016
   0.00000000  0.25000000  0.00000000       0.016
   0.25000000  0.25000000  0.00000000       0.016
   0.50000000  0.25000000  0.00000000       0.016
  -0.25000000  0.25000000 -0.00000000       0.016
   0.00000000  0.50000000  0.00000000       0.016
   0.25000000  0.50000000  0.00000000       0.016
   0.50000000  0.50000000  0.00000000       0.016
  -0.25000000  0.50000000 -0.00000000       0.016
  -0.00000000 -0.25000000  0.00000000       0.016
   0.25000000 -0.25000000  0.00000000       0.016
   0.50000000 -0.25000000  0.00000000       0.016
  -0.25000000 -0.25000000 -0.00000000       0.016
   0.00000000  0.00000000  0.25000000       0.016
   0.25000000 -0.00000000  0.25000000       0.016
   0.50000000 -0.00000000  0.25000000       0.016
  -0.25000000  0.00000000  0.25000000       0.016
   0.00000000  0.25000000  0.25000000       0.016
   0.25000000  0.25000000  0.25000000       0.016
   0.50000000  0.25000000  0.25000000       0.016
  -0.25000000  0.25000000  0.25000000       0.016
  -0.00000000  0.50000000  0.25000000       0.016
   0.25000000  0.50000000  0.25000000       0.016
   0.50000000  0.50000000  0.25000000       0.016
  -0.25000000  0.50000000  0.25000000       0.016
  -0.00000000 -0.25000000  0.25000000       0.016
   0.25000000 -0.25000000  0.25000000       0.016
   0.50000000 -0.25000000  0.25000000       0.016
  -0.25000000 -0.25000000  0.25000000       0.016
   0.00000000  0.00000000  0.50000000       0.016
   0.25000000 -0.00000000  0.50000000       0.016
   0.50000000 -0.00000000  0.50000000       0.016
  -0.25000000  0.00000000  0.50000000       0.016
   0.00000000  0.25000000  0.50000000       0.016
   0.25000000  0.25000000  0.50000000       0.016
   0.50000000  0.25000000  0.50000000       0.016
  -0.25000000  0.25000000  0.50000000       0.016
   0.00000000  0.50000000  0.50000000       0.016
   0.25000000  0.50000000  0.50000000       0.016
   0.50000000  0.50000000  0.50000000       0.016
  -0.25000000  0.50000000  0.50000000       0.016
   0.00000000 -0.25000000  0.50000000       0.016
   0.25000000 -0.25000000  0.50000000       0.016
   0.50000000 -0.25000000  0.50000000       0.016
  -0.25000000 -0.25000000  0.50000000       0.016
   0.00000000  0.00000000 -0.25000000       0.016
   0.25000000 -0.00000000 -0.25000000       0.016
   0.50000000 -0.00000000 -0.25000000       0.016
  -0.25000000  0.00000000 -0.25000000       0.016
   0.00000000  0.25000000 -0.25000000       0.016
   0.25000000  0.25000000 -0.25000000       0.016
   0.50000000  0.25000000 -0.25000000       0.016
  -0.25000000  0.25000000 -0.25000000       0.016
   0.00000000  0.50000000 -0.25000000       0.016
   0.25000000  0.50000000 -0.25000000       0.016
   0.50000000  0.50000000 -0.25000000       0.016
  -0.25000000  0.50000000 -0.25000000       0.016
   0.00000000 -0.25000000 -0.25000000       0.016
   0.25000000 -0.25000000 -0.25000000       0.016
   0.50000000 -0.25000000 -0.25000000       0.016
  -0.25000000 -0.25000000 -0.25000000       0.016
 
 position of ions in fractional coordinates (direct lattice) 
   0.00000000  0.00000000  0.00000000
 
 position of ions in cartesian coordinates  (Angst):
   0.00000000  0.00000000  0.00000000
 
 Euler angles ALPHA=     0.0000000  BETA=     0.0000000

 transformation matrix from SAXIS to cartesian coordinates
 ---------------------------------------------------------
     1.0000000 m_x     0.0000000 m_y     0.0000000 m_z
     0.0000000 m_x     1.0000000 m_y     0.0000000 m_z
     0.0000000 m_x     0.0000000 m_y     1.0000000 m_z

 transformation matrix from cartesian coordinates to SAXIS
 ---------------------------------------------------------
     1.0000000 m_x     0.0000000 m_y     0.0000000 m_z
     0.0000000 m_x     1.0000000 m_y     0.0000000 m_z
     0.0000000 m_x     0.0000000 m_y     1.0000000 m_z




--------------------------------------------------------------------------------------------------------


 k-point  1 :   0.0000 0.0000 0.0000  plane waves:    2134
 k-point  2 :   0.2500-0.0000 0.0000  plane waves:    2106
 k-point  3 :   0.5000-0.0000 0.0000  plane waves:    2112
 k-point  4 :  -0.2500 0.0000-0.0000  plane waves:    2106
 k-point  5 :   0.0000 0.2500 0.0000  plane waves:    2106
 k-point  6 :   0.2500 0.2500 0.0000  plane waves:    2124
 k-point  7 :   0.5000 0.2500 0.0000  plane waves:    2106
 k-point  8 :  -0.2500 0.2500-0.0000  plane waves:    2098
 k-point  9 :   0.0000 0.5000 0.0000  plane waves:    2112
 k-point 10 :   0.2500 0.5000 0.0000  plane waves:    2106
 k-point 11 :   0.5000 0.5000 0.0000  plane waves:    2068
 k-point 12 :  -0.2500 0.5000-0.0000  plane waves:    2106
 k-point 13 :  -0.0000-0.2500 0.0000  plane waves:    2106
 k-point 14 :   0.2500-0.2500 0.0000  plane waves:    2098
 k-point 15 :   0.5000-0.2500 0.0000  plane waves:    2106
 k-point 16 :  -0.2500-0.2500-0.0000  plane waves:    2124
 k-point 17 :   0.0000 0.0000 0.2500  plane waves:    2106
 k-point 18 :   0.2500-0.0000 0.2500  plane waves:    2124
 k-point 19 :   0.5000-0.0000 0.2500  plane waves:    2106
 k-point 20 :  -0.2500 0.0000 0.2500  plane waves:    2098
 k-point 21 :   0.0000 0.2500 0.2500  plane waves:    2124
 k-point 22 :   0.2500 0.2500 0.2500  plane waves:    2106
 k-point 23 :   0.5000 0.2500 0.2500  plane waves:    2098
 k-point 24 :  -0.2500 0.2500 0.2500  plane waves:    2106
 k-point 25 :  -0.0000 0.5000 0.2500  plane waves:    2106
 k-point 26 :   0.2500 0.5000 0.2500  plane waves:    2098
 k-point 27 :   0.5000 0.5000 0.2500  plane waves:    2106
 k-point 28 :  -0.2500 0.5000 0.2500  plane waves:    2096
 k-point 29 :  -0.0000-0.2500 0.2500  plane waves:    2098
 k-point 30 :   0.2500-0.2500 0.2500  plane waves:    2106
 k-point 31 :   0.5000-0.2500 0.2500  plane waves:    2096
 k-point 32 :  -0.2500-0.2500 0.2500  plane waves:    2106
 k-point 33 :   0.0000 0.0000 0.5000  plane waves:    2112
 k-point 34 :   0.2500-0.0000 0.5000  plane waves:    2106
 k-point 35 :   0.5000-0.0000 0.5000  plane waves:    2068
 k-point 36 :  -0.2500 0.0000 0.5000  plane waves:    2106
 k-point 37 :   0.0000 0.2500 0.5000  plane waves:    2106
 k-point 38 :   0.2500 0.2500 0.5000  plane waves:    2098
 k-point 39 :   0.5000 0.2500 0.5000  plane waves:    2106
 k-point 40 :  -0.2500 0.2500 0.5000  plane waves:    2096
 k-point 41 :   0.0000 0.5000 0.5000  plane waves:    2068
 k-point 42 :   0.2500 0.5000 0.5000  plane waves:    2106
 k-point 43 :   0.5000 0.5000 0.5000  plane waves:    2112
 k-point 44 :  -0.2500 0.5000 0.5000  plane waves:    2106
 k-point 45 :   0.0000-0.2500 0.5000  plane waves:    2106
 k-point 46 :   0.2500-0.2500 0.5000  plane waves:    2096
 k-point 47 :   0.5000-0.2500 0.5000  plane waves:    2106
 k-point 48 :  -0.2500-0.2500 0.5000  plane waves:    2098
 k-point 49 :   0.0000 0.0000-0.2500  plane waves:    2106
 k-point 50 :   0.2500-0.0000-0.2500  plane waves:    2098
 k-point 51 :   0.5000-0.0000-0.2500  plane waves:    2106
 k-point 52 :  -0.2500 0.0000-0.2500  plane waves:    2124
 k-point 53 :   0.0000 0.2500-0.2500  plane waves:    2098
 k-point 54 :   0.2500 0.2500-0.2500  plane waves:    2106
 k-point 55 :   0.5000 0.2500-0.2500  plane waves:    2096
 k-point 56 :  -0.2500 0.2500-0.2500  plane waves:    2106
 k-point 57 :   0.0000 0.5000-0.2500  plane waves:    2106
 k-point 58 :   0.2500 0.5000-0.2500  plane waves:    2096
 k-point 59 :   0.5000 0.5000-0.2500  plane waves:    2106
 k-point 60 :  -0.2500 0.5000-0.2500  plane waves:    2098
 k-point 61 :   0.0000-0.2500-0.2500  plane waves:    2124
 k-point 62 :   0.2500-0.2500-0.2500  plane waves:    2106
 k-point 63 :   0.5000-0.2500-0.2500  plane waves:    2098
 k-point 64 :  -0.2500-0.2500-0.2500  plane waves:    2106

 maximum and minimum number of plane-waves per node :       564      468

 maximum number of plane-waves:      2134
 maximum index in each direction: 
   IXMAX=    7   IYMAX=    7   IZMAX=    7
   IXMIN=   -7   IYMIN=   -7   IZMIN=   -7


 parallel 3D FFT for wavefunctions:
    minimum data exchange during FFTs selected (reduces bandwidth)
 parallel 3D FFT for charge:
    minimum data exchange during FFTs selected (reduces bandwidth)


 total amount of memory used by VASP MPI-rank0    64367. kBytes
=======================================================================

   base      :      30000. kBytes
   nonl-proj :       2584. kBytes
   fftplans  :       6573. kBytes
   grid      :       5619. kBytes
   one-center:         62. kBytes
   wavefun   :      19529. kBytes
 
     INWAV:  cpu time    0.5839: real time    0.5985
 Broyden mixing: mesh for mixing (old mesh)
   NGX = 15   NGY = 15   NGZ = 15
  (NGX  = 56   NGY  = 56   NGZ  = 56)
  gives a total of   3375 points

 charge density for first step will be calculated from the start-wavefunctions


--------------------------------------------------------------------------------------------------------


 Maximum index for augmentation-charges        22065 (set IRDMAX)


--------------------------------------------------------------------------------------------------------


 initial charge from wavefunction
 First call to EWALD:  gamma=   0.458
 Maximum number of real-space cells 3x 3x 3
 Maximum number of reciprocal cells 3x 3x 3

    FEWALD:  cpu time    0.0366: real time    0.0366


--------------------------------------- Iteration      1(   1)  ---------------------------------------


    POTLOK:  cpu time    0.0539: real time    0.0553
    SETDIJ:  cpu time    0.1115: real time    0.1114
     EDDAV:  cpu time    2.2528: real time    2.2519
       DOS:  cpu time    0.0008: real time    0.0008
    --------------------------------------------
      LOOP:  cpu time    2.4190: real time    2.4194

 eigenvalue-minimisations  :  8192
 total energy-change (2. order) :-0.1322937E+02  (-0.5454272E+00)
 number of electron      18.0000000 magnetization      -0.0074458      0.0003095      0.0005185
 augmentation part        2.7614122 magnetization       0.0005075     -0.0000207     -0.0000352

 Free energy of the ion-electron system (eV)
  ---------------------------------------------------
  alpha Z        PSCENC =        65.75019823
  Ewald energy   TEWEN  =     -1740.34414818
  -Hartree energ DENC   =      -672.98335547
  -exchange      EXHF   =         0.00000000
  -V(xc)+E(xc)   XCENC  =       -68.73293870
  PAW double counting   =      2336.60632695    -2261.21909889
  entropy T*S    EENTRO =        -0.00000000
  eigenvalues    EBANDS =      -312.68217164
  atomic energy  EATOM  =      2640.37581857
  Solvation  Ediel_sol  =         0.00000000
  ---------------------------------------------------
  free energy    TOTEN  =       -13.22936912 eV

  energy without entropy =      -13.22936912  energy(sigma->0) =      -13.22936912


--------------------------------------------------------------------------------------------------------




--------------------------------------- Iteration      1(   2)  ---------------------------------------


     EDDAV:  cpu time    2.9839: real time    2.9833
       DOS:  cpu time    0.0008: real time    0.0008
    --------------------------------------------
      LOOP:  cpu time    2.9848: real time    2.9842

 eigenvalue-minimisations  : 12280
 total energy-change (2. order) :-0.8239641E-03  (-0.8239635E-03)
 number of electron      18.0000000 magnetization      -0.0074458      0.0003095      0.0005185
 augmentation part        2.7614122 magnetization       0.0005075     -0.0000207     -0.0000352

 Free energy of the ion-electron system (eV)
  ---------------------------------------------------
  alpha Z        PSCENC =        65.75019823
  Ewald energy   TEWEN  =     -1740.34414818
  -Hartree energ DENC   =      -672.98335547
  -exchange      EXHF   =         0.00000000
  -V(xc)+E(xc)   XCENC  =       -68.73293870
  PAW double counting   =      2336.60632695    -2261.21909889
  entropy T*S    EENTRO =        -0.00000000
  eigenvalues    EBANDS =      -312.68299560
  atomic energy  EATOM  =      2640.37581857
  Solvation  Ediel_sol  =         0.00000000
  ---------------------------------------------------
  free energy    TOTEN  =       -13.23019308 eV

  energy without entropy =      -13.23019308  energy(sigma->0) =      -13.23019308


--------------------------------------------------------------------------------------------------------




--------------------------------------- Iteration      1(   3)  ---------------------------------------


     EDDAV:  cpu time    2.6250: real time    2.6240
       DOS:  cpu time    0.0007: real time    0.0007
    --------------------------------------------
      LOOP:  cpu time    2.6257: real time    2.6247

 eigenvalue-minimisations  : 10352
 total energy-change (2. order) :-0.5373618E-05  (-0.5373583E-05)
 number of electron      18.0000000 magnetization      -0.0074458      0.0003095      0.0005185
 augmentation part        2.7614122 magnetization       0.0005075     -0.0000207     -0.0000352

 Free energy of the ion-electron system (eV)
  ---------------------------------------------------
  alpha Z        PSCENC =        65.75019823
  Ewald energy   TEWEN  =     -1740.34414818
  -Hartree energ DENC   =      -672.98335547
  -exchange      EXHF   =         0.00000000
  -V(xc)+E(xc)   XCENC  =       -68.73293870
  PAW double counting   =      2336.60632695    -2261.21909889
  entropy T*S    EENTRO =        -0.00000000
  eigenvalues    EBANDS =      -312.68300097
  atomic energy  EATOM  =      2640.37581857
  Solvation  Ediel_sol  =         0.00000000
  ---------------------------------------------------
  free energy    TOTEN  =       -13.23019846 eV

  energy without entropy =      -13.23019846  energy(sigma->0) =      -13.23019846


--------------------------------------------------------------------------------------------------------




--------------------------------------- Iteration      1(   4)  ---------------------------------------


     EDDAV:  cpu time    3.0470: real time    3.0458
       DOS:  cpu time    0.0010: real time    0.0007
    --------------------------------------------
      LOOP:  cpu time    3.0480: real time    3.0466

 eigenvalue-minimisations  : 12608
 total energy-change (2. order) :-0.1265917E-06  (-0.1266003E-06)
 number of electron      18.0000000 magnetization      -0.0074458      0.0003095      0.0005185
 augmentation part        2.7614122 magnetization       0.0005075     -0.0000207     -0.0000352

 Free energy of the ion-electron system (eV)
  ---------------------------------------------------
  alpha Z        PSCENC =        65.75019823
  Ewald energy   TEWEN  =     -1740.34414818
  -Hartree energ DENC   =      -672.98335547
  -exchange      EXHF   =         0.00000000
  -V(xc)+E(xc)   XCENC  =       -68.73293870
  PAW double counting   =      2336.60632695    -2261.21909889
  entropy T*S    EENTRO =        -0.00000000
  eigenvalues    EBANDS =      -312.68300110
  atomic energy  EATOM  =      2640.37581857
  Solvation  Ediel_sol  =         0.00000000
  ---------------------------------------------------
  free energy    TOTEN  =       -13.23019858 eV

  energy without entropy =      -13.23019858  energy(sigma->0) =      -13.23019858


--------------------------------------------------------------------------------------------------------




--------------------------------------- Iteration      1(   5)  ---------------------------------------


     EDDAV:  cpu time    2.4365: real time    2.4490
       DOS:  cpu time    0.0008: real time    0.0008
    CHARGE:  cpu time    0.1323: real time    0.1323
    MIXING:  cpu time    0.0363: real time    0.0363
    --------------------------------------------
      LOOP:  cpu time    2.6060: real time    2.6184

 eigenvalue-minimisations  :  9168
 total energy-change (2. order) :-0.3607965E-08  (-0.3630407E-08)
 number of electron      18.0000000 magnetization      -0.0074288      0.0003173      0.0005106
 augmentation part        2.7890347 magnetization       0.0005107     -0.0000194     -0.0000359

 Broyden mixing:
  rms(total) = 0.51407E-01    rms(broyden)= 0.51108E-01
  rms(prec ) = 0.85206E-01
  weight for this iteration     100.00

 Free energy of the ion-electron system (eV)
  ---------------------------------------------------
  alpha Z        PSCENC =        65.75019823
  Ewald energy   TEWEN  =     -1740.34414818
  -Hartree energ DENC   =      -672.98335547
  -exchange      EXHF   =         0.00000000
  -V(xc)+E(xc)   XCENC  =       -68.73293870
  PAW double counting   =      2336.60632695    -2261.21909889
  entropy T*S    EENTRO =        -0.00000000
  eigenvalues    EBANDS =      -312.68300110
  atomic energy  EATOM  =      2640.37581857
  Solvation  Ediel_sol  =         0.00000000
  ---------------------------------------------------
  free energy    TOTEN  =       -13.23019859 eV

  energy without entropy =      -13.23019859  energy(sigma->0) =      -13.23019859


--------------------------------------------------------------------------------------------------------




--------------------------------------- Iteration      1(   6)  ---------------------------------------


    POTLOK:  cpu time    0.0552: real time    0.0554
    SETDIJ:  cpu time    0.1187: real time    0.1186
     EDDAV:  cpu time    2.8617: real time    2.8604
       DOS:  cpu time    0.0014: real time    0.0014
    CHARGE:  cpu time    0.1325: real time    0.1324
    MIXING:  cpu time    0.0761: real time    0.0761
    --------------------------------------------
      LOOP:  cpu time    3.2456: real time    3.2443

 eigenvalue-minimisations  : 11128
 total energy-change (2. order) : 0.2126350E-02  (-0.1867443E-03)
 number of electron      18.0000000 magnetization      -0.0075298      0.0003005      0.0004636
 augmentation part        2.7833472 magnetization       0.0004480     -0.0000314     -0.0000614

 Broyden mixing:
  rms(total) = 0.28230E-01    rms(broyden)= 0.28210E-01
  rms(prec ) = 0.44694E-01
  weight for this iteration     100.00

 eigenvalues of (default mixing * dielectric matrix)
  average eigenvalue GAMMA=   2.1672
  2.1672

 Free energy of the ion-electron system (eV)
  ---------------------------------------------------
  alpha Z        PSCENC =        65.75019823
  Ewald energy   TEWEN  =     -1740.34414818
  -Hartree energ DENC   =      -673.36553835
  -exchange      EXHF   =         0.00000000
  -V(xc)+E(xc)   XCENC  =       -68.76657823
  PAW double counting   =      2330.96083269    -2255.56471388
  entropy T*S    EENTRO =        -0.00000000
  eigenvalues    EBANDS =      -312.27394309
  atomic energy  EATOM  =      2640.37581857
  Solvation  Ediel_sol  =         0.00000000
  ---------------------------------------------------
  free energy    TOTEN  =       -13.22807224 eV

  energy without entropy =      -13.22807224  energy(sigma->0) =      -13.22807224


--------------------------------------------------------------------------------------------------------




--------------------------------------- Iteration      1(   7)  ---------------------------------------


    POTLOK:  cpu time    0.0553: real time    0.0555
    SETDIJ:  cpu time    0.1013: real time    0.1013
     EDDAV:  cpu time    2.7950: real time    2.7957
       DOS:  cpu time    0.0007: real time    0.0007
    CHARGE:  cpu time    0.1324: real time    0.1324
    MIXING:  cpu time    0.0250: real time    0.0250
    --------------------------------------------
      LOOP:  cpu time    3.1098: real time    3.1105

 eigenvalue-minimisations  : 11224
 total energy-change (2. order) : 0.3045159E-03  (-0.1381390E-03)
 number of electron      18.0000000 magnetization      -0.0073541      0.0004028      0.0005257
 augmentation part        2.7783995 magnetization       0.0006002      0.0000338      0.0000012

 Broyden mixing:
  rms(total) = 0.49103E-02    rms(broyden)= 0.49060E-02
  rms(prec ) = 0.79104E-02
  weight for this iteration     100.00

 eigenvalues of (default mixing * dielectric matrix)
  average eigenvalue GAMMA=   2.0132
  1.6421  2.3843

 Free energy of the ion-electron system (eV)
  ---------------------------------------------------
  alpha Z        PSCENC =        65.75019823
  Ewald energy   TEWEN  =     -1740.34414818
  -Hartree energ DENC   =      -673.56444089
  -exchange      EXHF   =         0.00000000
  -V(xc)+E(xc)   XCENC  =       -68.80543704
  PAW double counting   =      2324.37187080    -2248.91963996
  entropy T*S    EENTRO =        -0.00000000
  eigenvalues    EBANDS =      -312.09198927
  atomic energy  EATOM  =      2640.37581857
  Solvation  Ediel_sol  =         0.00000000
  ---------------------------------------------------
  free energy    TOTEN  =       -13.22776772 eV

  energy without entropy =      -13.22776772  energy(sigma->0) =      -13.22776772


--------------------------------------------------------------------------------------------------------




--------------------------------------- Iteration      1(   8)  ---------------------------------------


    POTLOK:  cpu time    0.0564: real time    0.0565
    SETDIJ:  cpu time    0.0786: real time    0.0793
     EDDAV:  cpu time    2.4927: real time    2.4916
       DOS:  cpu time    0.0008: real time    0.0008
    CHARGE:  cpu time    0.1339: real time    0.1338
    MIXING:  cpu time    0.0373: real time    0.0373
    --------------------------------------------
      LOOP:  cpu time    2.7997: real time    2.7993

 eigenvalue-minimisations  :  9560
 total energy-change (2. order) :-0.1967034E-04  (-0.4897996E-05)
 number of electron      18.0000000 magnetization      -0.0075848      0.0001784      0.0003028
 augmentation part        2.7785338 magnetization       0.0003825     -0.0001457     -0.0001543

 Broyden mixing:
  rms(total) = 0.10449E-02    rms(broyden)= 0.10443E-02
  rms(prec ) = 0.22717E-02
  weight for this iteration     100.00

 eigenvalues of (default mixing * dielectric matrix)
  average eigenvalue GAMMA=   1.6280
  2.4280  1.7691  0.6870

 Free energy of the ion-electron system (eV)
  ---------------------------------------------------
  alpha Z        PSCENC =        65.75019823
  Ewald energy   TEWEN  =     -1740.34414818
  -Hartree energ DENC   =      -673.48507497
  -exchange      EXHF   =         0.00000000
  -V(xc)+E(xc)   XCENC  =       -68.80968371
  PAW double counting   =      2323.80349285    -2248.32238091
  entropy T*S    EENTRO =        -0.00000000
  eigenvalues    EBANDS =      -312.19600928
  atomic energy  EATOM  =      2640.37581857
  Solvation  Ediel_sol  =         0.00000000
  ---------------------------------------------------
  free energy    TOTEN  =       -13.22778739 eV

  energy without entropy =      -13.22778739  energy(sigma->0) =      -13.22778739


--------------------------------------------------------------------------------------------------------




--------------------------------------- Iteration      1(   9)  ---------------------------------------


    POTLOK:  cpu time    0.0556: real time    0.0557
    SETDIJ:  cpu time    0.1457: real time    0.1456
     EDDAV:  cpu time    2.5266: real time    2.5255
       DOS:  cpu time    0.0007: real time    0.0007
    CHARGE:  cpu time    0.1370: real time    0.1378
    MIXING:  cpu time    0.0180: real time    0.0180
    --------------------------------------------
      LOOP:  cpu time    2.8836: real time    2.8833

 eigenvalue-minimisations  :  9872
 total energy-change (2. order) :-0.2636076E-05  (-0.6183029E-06)
 number of electron      18.0000000 magnetization      -0.0074940      0.0003507      0.0004309
 augmentation part        2.7784413 magnetization       0.0004613     -0.0000644     -0.0000715

 Broyden mixing:
  rms(total) = 0.75422E-03    rms(broyden)= 0.75419E-03
  rms(prec ) = 0.94004E-03
  weight for this iteration     100.00

 eigenvalues of (default mixing * dielectric matrix)
  average eigenvalue GAMMA=   1.7147
  2.3924  2.3924  1.4468  0.6273

 Free energy of the ion-electron system (eV)
  ---------------------------------------------------
  alpha Z        PSCENC =        65.75019823
  Ewald energy   TEWEN  =     -1740.34414818
  -Hartree energ DENC   =      -673.51920186
  -exchange      EXHF   =         0.00000000
  -V(xc)+E(xc)   XCENC  =       -68.80742953
  PAW double counting   =      2324.41085482    -2248.93745035
  entropy T*S    EENTRO =        -0.00000000
  eigenvalues    EBANDS =      -312.15643173
  atomic energy  EATOM  =      2640.37581857
  Solvation  Ediel_sol  =         0.00000000
  ---------------------------------------------------
  free energy    TOTEN  =       -13.22779003 eV

  energy without entropy =      -13.22779003  energy(sigma->0) =      -13.22779003


--------------------------------------------------------------------------------------------------------




--------------------------------------- Iteration      1(  10)  ---------------------------------------


    POTLOK:  cpu time    0.0537: real time    0.0538
    SETDIJ:  cpu time    0.0868: real time    0.0868
     EDDAV:  cpu time    2.1601: real time    2.1592
       DOS:  cpu time    0.0007: real time    0.0007
    CHARGE:  cpu time    0.1298: real time    0.1297
    MIXING:  cpu time    0.0217: real time    0.0216
    --------------------------------------------
      LOOP:  cpu time    2.4527: real time    2.4518

 eigenvalue-minimisations  :  9016
 total energy-change (2. order) :-0.2951999E-05  (-0.3738592E-06)
 number of electron      18.0000000 magnetization      -0.0074309      0.0003744      0.0004421
 augmentation part        2.7784390 magnetization       0.0005081     -0.0000206     -0.0000280

 Broyden mixing:
  rms(total) = 0.95978E-04    rms(broyden)= 0.95944E-04
  rms(prec ) = 0.12321E-03
  weight for this iteration     100.00

 eigenvalues of (default mixing * dielectric matrix)
  average eigenvalue GAMMA=   1.4934
  2.4327  2.4327  1.4572  0.6115  0.5326

 Free energy of the ion-electron system (eV)
  ---------------------------------------------------
  alpha Z        PSCENC =        65.75019823
  Ewald energy   TEWEN  =     -1740.34414818
  -Hartree energ DENC   =      -673.53007972
  -exchange      EXHF   =         0.00000000
  -V(xc)+E(xc)   XCENC  =       -68.80662758
  PAW double counting   =      2324.59958805    -2249.12862793
  entropy T*S    EENTRO =        -0.00000000
  eigenvalues    EBANDS =      -312.14391442
  atomic energy  EATOM  =      2640.37581857
  Solvation  Ediel_sol  =         0.00000000
  ---------------------------------------------------
  free energy    TOTEN  =       -13.22779298 eV

  energy without entropy =      -13.22779298  energy(sigma->0) =      -13.22779298


--------------------------------------------------------------------------------------------------------




--------------------------------------- Iteration      1(  11)  ---------------------------------------


    POTLOK:  cpu time    0.0562: real time    0.0570
    SETDIJ:  cpu time    0.0885: real time    0.0885
     EDDAV:  cpu time    2.1347: real time    2.1338
       DOS:  cpu time    0.0010: real time    0.0010
    CHARGE:  cpu time    0.1292: real time    0.1292
    MIXING:  cpu time    0.0247: real time    0.0247
    --------------------------------------------
      LOOP:  cpu time    2.4344: real time    2.4341

 eigenvalue-minimisations  :  8760
 total energy-change (2. order) :-0.4574267E-06  (-0.2118871E-06)
 number of electron      18.0000000 magnetization      -0.0074307      0.0003516      0.0004171
 augmentation part        2.7784426 magnetization       0.0005087     -0.0000206     -0.0000254

 Broyden mixing:
  rms(total) = 0.49041E-04    rms(broyden)= 0.49036E-04
  rms(prec ) = 0.57078E-04
  weight for this iteration     100.00

 eigenvalues of (default mixing * dielectric matrix)
  average eigenvalue GAMMA=   1.3805
  2.5097  2.3888  1.4569  0.6578  0.6578  0.6119

 Free energy of the ion-electron system (eV)
  ---------------------------------------------------
  alpha Z        PSCENC =        65.75019823
  Ewald energy   TEWEN  =     -1740.34414818
  -Hartree energ DENC   =      -673.53103464
  -exchange      EXHF   =         0.00000000
  -V(xc)+E(xc)   XCENC  =       -68.80655380
  PAW double counting   =      2324.59831691    -2249.12735468
  entropy T*S    EENTRO =        -0.00000000
  eigenvalues    EBANDS =      -312.14303585
  atomic energy  EATOM  =      2640.37581857
  Solvation  Ediel_sol  =         0.00000000
  ---------------------------------------------------
  free energy    TOTEN  =       -13.22779344 eV

  energy without entropy =      -13.22779344  energy(sigma->0) =      -13.22779344


--------------------------------------------------------------------------------------------------------




--------------------------------------- Iteration      1(  12)  ---------------------------------------


    POTLOK:  cpu time    0.0558: real time    0.0562
    SETDIJ:  cpu time    0.0871: real time    0.0871
     EDDAV:  cpu time    2.0848: real time    2.0840
       DOS:  cpu time    0.0006: real time    0.0006
    CHARGE:  cpu time    0.1276: real time    0.1275
    MIXING:  cpu time    0.0254: real time    0.0254
    --------------------------------------------
      LOOP:  cpu time    2.3814: real time    2.3809

 eigenvalue-minimisations  :  8512
 total energy-change (2. order) : 0.4689900E-07  (-0.2590179E-06)
 number of electron      18.0000000 magnetization      -0.0074023      0.0003827      0.0004351
 augmentation part        2.7784434 magnetization       0.0004963     -0.0000440     -0.0000447

 Broyden mixing:
  rms(total) = 0.50479E-04    rms(broyden)= 0.50478E-04
  rms(prec ) = 0.54890E-04
  weight for this iteration     100.00

 eigenvalues of (default mixing * dielectric matrix)
  average eigenvalue GAMMA=   1.3163
  2.5504  2.3698  1.4615  0.9297  0.9297  0.6247  0.3479

 Free energy of the ion-electron system (eV)
  ---------------------------------------------------
  alpha Z        PSCENC =        65.75019823
  Ewald energy   TEWEN  =     -1740.34414818
  -Hartree energ DENC   =      -673.53125315
  -exchange      EXHF   =         0.00000000
  -V(xc)+E(xc)   XCENC  =       -68.80654707
  PAW double counting   =      2324.58760852    -2249.11655833
  entropy T*S    EENTRO =        -0.00000000
  eigenvalues    EBANDS =      -312.14291199
  atomic energy  EATOM  =      2640.37581857
  Solvation  Ediel_sol  =         0.00000000
  ---------------------------------------------------
  free energy    TOTEN  =       -13.22779339 eV

  energy without entropy =      -13.22779339  energy(sigma->0) =      -13.22779339


--------------------------------------------------------------------------------------------------------




--------------------------------------- Iteration      1(  13)  ---------------------------------------


    POTLOK:  cpu time    0.0533: real time    0.0534
    SETDIJ:  cpu time    0.0886: real time    0.0885
     EDDAV:  cpu time    2.1285: real time    2.1276
       DOS:  cpu time    0.0007: real time    0.0007
    CHARGE:  cpu time    0.1342: real time    0.1341
    MIXING:  cpu time    0.0190: real time    0.0190
    --------------------------------------------
      LOOP:  cpu time    2.4243: real time    2.4234

 eigenvalue-minimisations  :  8680
 total energy-change (2. order) : 0.1744911E-06  (-0.1454784E-06)
 number of electron      18.0000000 magnetization      -0.0074202      0.0003609      0.0004139
 augmentation part        2.7784440 magnetization       0.0005280      0.0000002     -0.0000079

 Broyden mixing:
  rms(total) = 0.27785E-04    rms(broyden)= 0.27785E-04
  rms(prec ) = 0.31947E-04
  weight for this iteration     100.00

 eigenvalues of (default mixing * dielectric matrix)
  average eigenvalue GAMMA=   1.2112
  2.5708  2.3591  1.4613  0.9931  0.9931  0.6265  0.4005  0.2852

 Free energy of the ion-electron system (eV)
  ---------------------------------------------------
  alpha Z        PSCENC =        65.75019823
  Ewald energy   TEWEN  =     -1740.34414818
  -Hartree energ DENC   =      -673.53138472
  -exchange      EXHF   =         0.00000000
  -V(xc)+E(xc)   XCENC  =       -68.80654794
  PAW double counting   =      2324.57681720    -2249.10568250
  entropy T*S    EENTRO =        -0.00000000
  eigenvalues    EBANDS =      -312.14286389
  atomic energy  EATOM  =      2640.37581857
  Solvation  Ediel_sol  =         0.00000000
  ---------------------------------------------------
  free energy    TOTEN  =       -13.22779322 eV

  energy without entropy =      -13.22779322  energy(sigma->0) =      -13.22779322


--------------------------------------------------------------------------------------------------------




--------------------------------------- Iteration      1(  14)  ---------------------------------------


    POTLOK:  cpu time    0.0539: real time    0.0539
    SETDIJ:  cpu time    0.0890: real time    0.0890
     EDDAV:  cpu time    2.0351: real time    2.0342
       DOS:  cpu time    0.0007: real time    0.0007
    CHARGE:  cpu time    0.1282: real time    0.1281
    MIXING:  cpu time    0.0256: real time    0.0256
    --------------------------------------------
      LOOP:  cpu time    2.3325: real time    2.3316

 eigenvalue-minimisations  :  8144
 total energy-change (2. order) : 0.3950026E-07  (-0.7714638E-07)
 number of electron      18.0000000 magnetization      -0.0074269      0.0003632      0.0004055
 augmentation part        2.7784444 magnetization       0.0004963     -0.0000387     -0.0000404

 Broyden mixing:
  rms(total) = 0.23431E-04    rms(broyden)= 0.23431E-04
  rms(prec ) = 0.26541E-04
  weight for this iteration     100.00

 eigenvalues of (default mixing * dielectric matrix)
  average eigenvalue GAMMA=   1.1473
  2.5841  2.3514  1.4598  1.2377  0.7465  0.7465  0.6155  0.3347  0.2497

 Free energy of the ion-electron system (eV)
  ---------------------------------------------------
  alpha Z        PSCENC =        65.75019823
  Ewald energy   TEWEN  =     -1740.34414818
  -Hartree energ DENC   =      -673.53146803
  -exchange      EXHF   =         0.00000000
  -V(xc)+E(xc)   XCENC  =       -68.80654678
  PAW double counting   =      2324.57154871    -2249.10037511
  entropy T*S    EENTRO =        -0.00000000
  eigenvalues    EBANDS =      -312.14282060
  atomic energy  EATOM  =      2640.37581857
  Solvation  Ediel_sol  =         0.00000000
  ---------------------------------------------------
  free energy    TOTEN  =       -13.22779318 eV

  energy without entropy =      -13.22779318  energy(sigma->0) =      -13.22779318


--------------------------------------------------------------------------------------------------------




--------------------------------------- Iteration      1(  15)  ---------------------------------------


    POTLOK:  cpu time    0.0541: real time    0.0542
    SETDIJ:  cpu time    0.0882: real time    0.0882
     EDDAV:  cpu time    2.0576: real time    2.0568
       DOS:  cpu time    0.0007: real time    0.0007
    CHARGE:  cpu time    0.1290: real time    0.1290
    MIXING:  cpu time    0.0215: real time    0.0215
    --------------------------------------------
      LOOP:  cpu time    2.3513: real time    2.3504

 eigenvalue-minimisations  :  8240
 total energy-change (2. order) : 0.4098229E-07  (-0.6133973E-07)
 number of electron      18.0000000 magnetization      -0.0074208      0.0003625      0.0003941
 augmentation part        2.7784449 magnetization       0.0005020     -0.0000192     -0.0000284

 Broyden mixing:
  rms(total) = 0.19981E-04    rms(broyden)= 0.19981E-04
  rms(prec ) = 0.21344E-04
  weight for this iteration     100.00

 eigenvalues of (default mixing * dielectric matrix)
  average eigenvalue GAMMA=   1.1227
  2.5907  2.3446  1.4831  1.4831  0.8757  0.8757  0.6246  0.4209  0.3107  0.2178

 Free energy of the ion-electron system (eV)
  ---------------------------------------------------
  alpha Z        PSCENC =        65.75019823
  Ewald energy   TEWEN  =     -1740.34414818
  -Hartree energ DENC   =      -673.53159100
  -exchange      EXHF   =         0.00000000
  -V(xc)+E(xc)   XCENC  =       -68.80654480
  PAW double counting   =      2324.56432813    -2249.09310211
  entropy T*S    EENTRO =        -0.00000000
  eigenvalues    EBANDS =      -312.14275198
  atomic energy  EATOM  =      2640.37581857
  Solvation  Ediel_sol  =         0.00000000
  ---------------------------------------------------
  free energy    TOTEN  =       -13.22779314 eV

  energy without entropy =      -13.22779314  energy(sigma->0) =      -13.22779314


--------------------------------------------------------------------------------------------------------




--------------------------------------- Iteration      1(  16)  ---------------------------------------


    POTLOK:  cpu time    0.0546: real time    0.0547
    SETDIJ:  cpu time    0.0861: real time    0.0861
     EDDAV:  cpu time    2.0155: real time    2.0235
       DOS:  cpu time    0.0007: real time    0.0007
    CHARGE:  cpu time    0.1280: real time    0.1279
    MIXING:  cpu time    0.0211: real time    0.0211
    --------------------------------------------
      LOOP:  cpu time    2.3059: real time    2.3139

 eigenvalue-minimisations  :  7944
 total energy-change (2. order) : 0.5770471E-07  (-0.3725327E-07)
 number of electron      18.0000000 magnetization      -0.0074201      0.0003605      0.0003868
 augmentation part        2.7784452 magnetization       0.0005097     -0.0000243     -0.0000280

 Broyden mixing:
  rms(total) = 0.12255E-04    rms(broyden)= 0.12255E-04
  rms(prec ) = 0.12627E-04
  weight for this iteration     100.00

 eigenvalues of (default mixing * dielectric matrix)
  average eigenvalue GAMMA=   1.1250
  2.5976  2.3118  2.0530  1.4642  0.9164  0.9164  0.6309  0.6184  0.3265  0.3265
  0.2138

 Free energy of the ion-electron system (eV)
  ---------------------------------------------------
  alpha Z        PSCENC =        65.75019823
  Ewald energy   TEWEN  =     -1740.34414818
  -Hartree energ DENC   =      -673.53169636
  -exchange      EXHF   =         0.00000000
  -V(xc)+E(xc)   XCENC  =       -68.80654327
  PAW double counting   =      2324.55835960    -2249.08708891
  entropy T*S    EENTRO =        -0.00000000
  eigenvalues    EBANDS =      -312.14269276
  atomic energy  EATOM  =      2640.37581857
  Solvation  Ediel_sol  =         0.00000000
  ---------------------------------------------------
  free energy    TOTEN  =       -13.22779308 eV

  energy without entropy =      -13.22779308  energy(sigma->0) =      -13.22779308


--------------------------------------------------------------------------------------------------------




--------------------------------------- Iteration      1(  17)  ---------------------------------------


    POTLOK:  cpu time    0.0567: real time    0.0568
    SETDIJ:  cpu time    0.0825: real time    0.0825
     EDDAV:  cpu time    2.0530: real time    2.0522
       DOS:  cpu time    0.0007: real time    0.0007
    CHARGE:  cpu time    0.1283: real time    0.1282
    MIXING:  cpu time    0.0300: real time    0.0300
    --------------------------------------------
      LOOP:  cpu time    2.3522: real time    2.3504

 eigenvalue-minimisations  :  8104
 total energy-change (2. order) : 0.1511626E-07  (-0.1880704E-07)
 number of electron      18.0000000 magnetization      -0.0074236      0.0003600      0.0003827
 augmentation part        2.7784453 magnetization       0.0005110     -0.0000259     -0.0000250

 Broyden mixing:
  rms(total) = 0.10109E-04    rms(broyden)= 0.10109E-04
  rms(prec ) = 0.10196E-04
  weight for this iteration     100.00

 eigenvalues of (default mixing * dielectric matrix)
  average eigenvalue GAMMA=   1.1137
  2.6243  2.4057  2.4057  1.4645  0.9687  0.9687  0.7511  0.6245  0.3814  0.3310
  0.2256  0.2127

 Free energy of the ion-electron system (eV)
  ---------------------------------------------------
  alpha Z        PSCENC =        65.75019823
  Ewald energy   TEWEN  =     -1740.34414818
  -Hartree energ DENC   =      -673.53173194
  -exchange      EXHF   =         0.00000000
  -V(xc)+E(xc)   XCENC  =       -68.80654338
  PAW double counting   =      2324.55618251    -2249.08489289
  entropy T*S    EENTRO =        -0.00000000
  eigenvalues    EBANDS =      -312.14267598
  atomic energy  EATOM  =      2640.37581857
  Solvation  Ediel_sol  =         0.00000000
  ---------------------------------------------------
  free energy    TOTEN  =       -13.22779306 eV

  energy without entropy =      -13.22779306  energy(sigma->0) =      -13.22779306


--------------------------------------------------------------------------------------------------------




--------------------------------------- Iteration      1(  18)  ---------------------------------------


    POTLOK:  cpu time    0.0548: real time    0.0549
    SETDIJ:  cpu time    0.0832: real time    0.0831
     EDDAV:  cpu time    2.0219: real time    2.0211
       DOS:  cpu time    0.0007: real time    0.0007
    CHARGE:  cpu time    0.1304: real time    0.1303
    MIXING:  cpu time    0.0197: real time    0.0197
    --------------------------------------------
      LOOP:  cpu time    2.3097: real time    2.3098

 eigenvalue-minimisations  :  7984
 total energy-change (2. order) : 0.5933543E-08  (-0.1201265E-07)
 number of electron      18.0000000 magnetization      -0.0074232      0.0003587      0.0003773
 augmentation part        2.7784454 magnetization       0.0005043     -0.0000221     -0.0000227

 Broyden mixing:
  rms(total) = 0.67435E-05    rms(broyden)= 0.67435E-05
  rms(prec ) = 0.68112E-05
  weight for this iteration     100.00

 eigenvalues of (default mixing * dielectric matrix)
  average eigenvalue GAMMA=   1.1057
  2.7181  2.6633  2.3705  1.4648  1.2140  0.8814  0.8814  0.6250  0.5190  0.3242
  0.3242  0.2114  0.1769

 Free energy of the ion-electron system (eV)
  ---------------------------------------------------
  alpha Z        PSCENC =        65.75019823
  Ewald energy   TEWEN  =     -1740.34414818
  -Hartree energ DENC   =      -673.53173554
  -exchange      EXHF   =         0.00000000
  -V(xc)+E(xc)   XCENC  =       -68.80654329
  PAW double counting   =      2324.55637130    -2249.08508138
  entropy T*S    EENTRO =        -0.00000000
  eigenvalues    EBANDS =      -312.14267277
  atomic energy  EATOM  =      2640.37581857
  Solvation  Ediel_sol  =         0.00000000
  ---------------------------------------------------
  free energy    TOTEN  =       -13.22779306 eV

  energy without entropy =      -13.22779306  energy(sigma->0) =      -13.22779306


--------------------------------------------------------------------------------------------------------




--------------------------------------- Iteration      1(  19)  ---------------------------------------


    POTLOK:  cpu time    0.0545: real time    0.0546
    SETDIJ:  cpu time    0.0871: real time    0.0871
     EDDAV:  cpu time    2.1113: real time    2.1107
       DOS:  cpu time    0.0007: real time    0.0007
    --------------------------------------------
      LOOP:  cpu time    2.2536: real time    2.2531

 eigenvalue-minimisations  :  8648
 total energy-change (2. order) :-0.6693881E-09  (-0.2902657E-08)
 number of electron      18.0000000 magnetization      -0.0074232      0.0003587      0.0003773
 augmentation part        2.7784454 magnetization       0.0005043     -0.0000221     -0.0000227

 Free energy of the ion-electron system (eV)
  ---------------------------------------------------
  alpha Z        PSCENC =        65.75019823
  Ewald energy   TEWEN  =     -1740.34414818
  -Hartree energ DENC   =      -673.53173353
  -exchange      EXHF   =         0.00000000
  -V(xc)+E(xc)   XCENC  =       -68.80654326
  PAW double counting   =      2324.55695346    -2249.08566613
  entropy T*S    EENTRO =        -0.00000000
  eigenvalues    EBANDS =      -312.14267223
  atomic energy  EATOM  =      2640.37581857
  Solvation  Ediel_sol  =         0.00000000
  ---------------------------------------------------
  free energy    TOTEN  =       -13.22779306 eV

  energy without entropy =      -13.22779306  energy(sigma->0) =      -13.22779306


--------------------------------------------------------------------------------------------------------




 average (electrostatic) potential at core
  the test charge radii are     1.2024
  (the norm of the test charge is              1.0000)
       1-109.9638
 
 
 
 E-fermi :   3.9271     XC(G=0):  -8.2171     alpha+bet : -7.5624


 k-point     1 :       0.0000    0.0000    0.0000
  band No.  band energies     occupation 
      1     -30.4704      1.00000
      2     -30.4701      1.00000
      3     -30.4696      1.00000
      4     -30.4693      1.00000
      5     -23.8005      1.00000
      6     -23.7980      1.00000
      7     -23.7970      1.00000
      8     -23.7955      1.00000
      9     -23.7946      1.00000
     10     -23.7931      1.00000
     11     -20.2374      1.00000
     12     -20.2343      1.00000
     13      -6.9363      1.00000
     14      -6.9324      1.00000
     15       3.6984      1.00000
     16       3.6999      1.00000
     17       3.9187      1.00000
     18       3.9188      1.00000
     19       3.9351      0.00000
     20       3.9352      0.00000
     21      10.8610      0.00000
     22      10.8617      0.00000
     23      10.8637      0.00000
     24      10.8644      0.00000
     25      11.0977      0.00000
     26      11.0999      0.00000
     27      11.2852      0.00000
     28      11.2898      0.00000
     29      13.1858      0.00000
     30      13.1966      0.00000
     31      13.4913      0.00000
     32      13.4925      0.00000
     33      13.4950      0.00000
     34      13.4962      0.00000
     35      14.3277      0.00000
     36      14.3324      0.00000
     37      14.3359      0.00000
     38      14.3406      0.00000
     39      16.2270      0.00000
     40      16.2282      0.00000
     41      20.3185      0.00000
     42      20.3198      0.00000
     43      20.3203      0.00000
     44      20.3243      0.00000
     45      20.3248      0.00000
     46      20.3261      0.00000
     47      22.8984      0.00000
     48      22.9017      0.00000
     49      26.1392      0.00000
     50      26.1400      0.00000
     51      26.1463      0.00000
     52      26.1471      0.00000
     53      26.3272      0.00000
     54      26.3300      0.00000
     55      27.6619      0.00000
     56      27.6679      0.00000
     57      29.3635      0.00000
     58      29.3668      0.00000
     59      29.3686      0.00000
     60      29.3719      0.00000
     61      30.1249      0.00000
     62      30.1272      0.00000
     63      30.2905      0.00000
     64      30.2928      0.00000

 k-point     2 :       0.2500   -0.0000    0.0000
  band No.  band energies     occupation 
      1     -30.4697      1.00000
      2     -30.4689      1.00000
      3     -30.4683      1.00000
      4     -30.4677      1.00000
      5     -23.7975      1.00000
      6     -23.7972      1.00000
      7     -23.7944      1.00000
      8     -23.7934      1.00000
      9     -23.7927      1.00000
     10     -23.7893      1.00000
     11     -20.1825      1.00000
     12     -20.1794      1.00000
     13      -7.1171      1.00000
     14      -7.1133      1.00000
     15       1.5386      1.00000
     16       1.5484      1.00000
     17       3.6205      1.00000
     18       3.6337      1.00000
     19       6.0150      0.00000
     20       6.0170      0.00000
     21       9.8968      0.00000
     22       9.9012      0.00000
     23      10.8755      0.00000
     24      10.8768      0.00000
     25      11.2605      0.00000
     26      11.2630      0.00000
     27      11.5762      0.00000
     28      11.5786      0.00000
     29      12.6476      0.00000
     30      12.6512      0.00000
     31      12.8808      0.00000
     32      12.8863      0.00000
     33      15.1709      0.00000
     34      15.1767      0.00000
     35      16.8810      0.00000
     36      16.8875      0.00000
     37      17.0415      0.00000
     38      17.0502      0.00000
     39      19.0781      0.00000
     40      19.0842      0.00000
     41      19.4398      0.00000
     42      19.4463      0.00000
     43      19.5144      0.00000
     44      19.5160      0.00000
     45      20.4564      0.00000
     46      20.4602      0.00000
     47      20.5099      0.00000
     48      20.5146      0.00000
     49      24.1201      0.00000
     50      24.1209      0.00000
     51      25.2751      0.00000
     52      25.2812      0.00000
     53      25.4947      0.00000
     54      25.5001      0.00000
     55      26.7742      0.00000
     56      26.7794      0.00000
     57      27.1566      0.00000
     58      27.1578      0.00000
     59      27.9825      0.00000
     60      27.9849      0.00000
     61      30.2428      0.00000
     62      30.2444      0.00000
     63      30.6061      0.00000
     64      30.6134      0.00000

 k-point     3 :       0.5000   -0.0000    0.0000
  band No.  band energies     occupation 
      1     -30.4692      1.00000
      2     -30.4683      1.00000
      3     -30.4669      1.00000
      4     -30.4663      1.00000
      5     -23.7982      1.00000
      6     -23.7973      1.00000
      7     -23.7917      1.00000
      8     -23.7896      1.00000
      9     -23.7888      1.00000
     10     -23.7854      1.00000
     11     -20.1273      1.00000
     12     -20.1242      1.00000
     13      -7.2995      1.00000
     14      -7.2959      1.00000
     15       0.6946      1.00000
     16       0.7048      1.00000
     17       3.3601      1.00000
     18       3.3724      1.00000
     19       6.1988      0.00000
     20       6.2005      0.00000
     21      10.2990      0.00000
     22      10.3019      0.00000
     23      10.5010      0.00000
     24      10.5034      0.00000
     25      10.7021      0.00000
     26      10.7055      0.00000
     27      12.0725      0.00000
     28      12.0743      0.00000
     29      14.6540      0.00000
     30      14.6544      0.00000
     31      14.7423      0.00000
     32      14.7458      0.00000
     33      16.0787      0.00000
     34      16.0823      0.00000
     35      17.0711      0.00000
     36      17.0719      0.00000
     37      17.2389      0.00000
     38      17.2464      0.00000
     39      18.4770      0.00000
     40      18.4841      0.00000
     41      18.9717      0.00000
     42      18.9816      0.00000
     43      19.0278      0.00000
     44      19.0345      0.00000
     45      20.6010      0.00000
     46      20.6049      0.00000
     47      23.1994      0.00000
     48      23.2037      0.00000
     49      23.9377      0.00000
     50      23.9419      0.00000
     51      25.2446      0.00000
     52      25.2458      0.00000
     53      25.4363      0.00000
     54      25.4394      0.00000
     55      25.4880      0.00000
     56      25.4910      0.00000
     57      26.9670      0.00000
     58      26.9688      0.00000
     59      27.1921      0.00000
     60      27.1958      0.00000
     61      28.2767      0.00000
     62      28.2784      0.00000
     63      29.4063      0.00000
     64      29.4093      0.00000

 k-point     4 :      -0.2500    0.0000   -0.0000
  band No.  band energies     occupation 
      1     -30.4697      1.00000
      2     -30.4689      1.00000
      3     -30.4683      1.00000
      4     -30.4677      1.00000
      5     -23.7975      1.00000
      6     -23.7972      1.00000
      7     -23.7944      1.00000
      8     -23.7934      1.00000
      9     -23.7927      1.00000
     10     -23.7893      1.00000
     11     -20.1825      1.00000
     12     -20.1794      1.00000
     13      -7.1171      1.00000
     14      -7.1133      1.00000
     15       1.5386      1.00000
     16       1.5484      1.00000
     17       3.6205      1.00000
     18       3.6337      1.00000
     19       6.0150      0.00000
     20       6.0170      0.00000
     21       9.8968      0.00000
     22       9.9012      0.00000
     23      10.8755      0.00000
     24      10.8768      0.00000
     25      11.2605      0.00000
     26      11.2630      0.00000
     27      11.5762      0.00000
     28      11.5786      0.00000
     29      12.6476      0.00000
     30      12.6512      0.00000
     31      12.8808      0.00000
     32      12.8863      0.00000
     33      15.1709      0.00000
     34      15.1767      0.00000
     35      16.8810      0.00000
     36      16.8875      0.00000
     37      17.0415      0.00000
     38      17.0502      0.00000
     39      19.0781      0.00000
     40      19.0842      0.00000
     41      19.4398      0.00000
     42      19.4463      0.00000
     43      19.5144      0.00000
     44      19.5160      0.00000
     45      20.4564      0.00000
     46      20.4602      0.00000
     47      20.5099      0.00000
     48      20.5146      0.00000
     49      24.1201      0.00000
     50      24.1209      0.00000
     51      25.2751      0.00000
     52      25.2812      0.00000
     53      25.4947      0.00000
     54      25.5001      0.00000
     55      26.7742      0.00000
[...]
    0.000000  743.751760  743.817945  743.918220   -9.491335  188.222443   -9.164203
    0.734168    2.803081    2.814062    2.818213    0.177055   -3.545769    0.170045
    1.468336    1.506723    1.524470    1.530688    0.023660   -0.498397    0.021691
    2.202505    7.036146    7.627075    7.813471    0.064413   -0.670980    0.036445
    2.936673    8.277613    8.083414    7.919806   -0.009407    0.111486   -0.001111
    3.670841    2.165547    2.164273    2.163330    0.008581   -0.136844    0.009404
    4.405009    3.734842    3.734505    3.734372    0.002617   -0.046015    0.002723
    5.139177   11.629926   11.630160   11.630225    0.002329   -0.037080    0.002476
    5.873346    1.904139    1.903700    1.905157    0.006052   -0.065264    0.007101
    6.607514    4.044440    4.052904    4.056881    0.007984   -0.073659    0.009219
    7.341682    4.354419    4.355764    4.355333   -0.006810    0.083687   -0.008202
    8.075850    3.039661    3.039527    3.039417    0.001112   -0.009252    0.001487
    8.810018    1.083268    1.084515    1.082496    0.000426    0.000146    0.000555
    9.544186    2.517201    2.432222    2.399296   -0.011687    0.061857   -0.007550
   10.278355    0.463633    0.465273    0.465103    0.002344   -0.035211    0.002580
   11.012523    0.941835    0.941982    0.942045   -0.000737    0.013040   -0.000845
   11.746691    0.366007    0.366165    0.366168   -0.000471    0.007660   -0.000524
   12.480859    0.363293    0.362182    0.362192   -0.000247    0.002600   -0.000253
   13.215027    0.650026    0.643987    0.641018   -0.002960    0.010110   -0.002089
   13.949196    0.461659    0.461732    0.461502   -0.000019    0.001033    0.000011
   14.683364    0.932332    0.929581    0.930315   -0.000277    0.000033   -0.000328
   15.417532    0.360483    0.360254    0.360282   -0.000102   -0.002239   -0.000123
   16.151700    1.297847    1.297179    1.294244   -0.002390    0.033708   -0.002094
   16.885868    0.604369    0.602889    0.603510    0.000031   -0.001588    0.000079
   17.620037    1.915325    1.900770    1.900294   -0.001794    0.002854   -0.001571
   18.354205    0.282631    0.282151    0.282850    0.000057   -0.000624   -0.000039
   19.088373    0.576653    0.576655    0.576619   -0.000005    0.000648   -0.000031
   19.822541    0.391479    0.391087    0.391226   -0.000029   -0.000325   -0.000043
   20.556709    0.081350    0.081234    0.081150   -0.000079    0.001218   -0.000098
   21.290878    0.126886    0.126865    0.126883   -0.000059    0.001439   -0.000113
   22.025046    0.337908    0.338433    0.338148   -0.000184    0.002845   -0.000298
   22.759214    0.261252    0.261308    0.261318   -0.000112    0.002347   -0.000168
   23.493382    0.161242    0.161148    0.161118    0.000362   -0.004784    0.000399
   24.227550    0.852166    0.851688    0.851523    0.000610   -0.013128    0.000542
   24.961719    0.430850    0.429103    0.429874    0.000370   -0.004267    0.000090
   25.695887    0.241512    0.240910    0.241394    0.000296   -0.003158    0.000067
   26.430055    0.187301    0.186901    0.186714   -0.001560   -0.002517    0.001082
   27.164223    0.248636    0.250955    0.251368    0.000319   -0.003169    0.000433
   27.898391    0.093593    0.093543    0.093539   -0.000318    0.003737   -0.000168
   28.632559    0.048929    0.048933    0.048935   -0.000116    0.000566   -0.000029
   29.366728    0.104332    0.104090    0.104129   -0.000110    0.000232   -0.000017
   30.100896    0.183274    0.183334    0.183468   -0.000038   -0.000165    0.000001
   30.835064    0.092859    0.093032    0.093038   -0.000054   -0.000212   -0.000003
   31.569232    0.136477    0.136261    0.136179   -0.000059   -0.000226   -0.000010
   32.303400    0.175823    0.175564    0.175409   -0.000081   -0.000358   -0.000003
   33.037569    0.083772    0.083767    0.083775   -0.000049   -0.000433    0.000002
   33.771737    0.214146    0.215146    0.214947    0.000050   -0.000844    0.000136
   34.505905    0.115111    0.115101    0.115096   -0.000071   -0.000469   -0.000026
   35.240073    0.196149    0.196384    0.196426   -0.000079   -0.000344   -0.000034
   35.974241    0.080172    0.079633    0.079650   -0.000219   -0.000191   -0.000145
   36.708410    0.114780    0.115362    0.115453   -0.000367   -0.000587   -0.000265
   37.442578    0.200838    0.200828    0.200874    0.000870    0.000443    0.000591
   38.176746    0.105472    0.104961    0.105006    0.000226   -0.000272    0.000153
   38.910914    0.585162    0.585252    0.584698    0.000000    0.003449    0.000185
   39.645082    0.065130    0.065312    0.065339    0.000064    0.000356    0.000040
   40.379251    0.105989    0.106015    0.105946    0.000047   -0.000131    0.000046
   41.113419    0.450350    0.450375    0.450375    0.000057   -0.000312    0.000045
   41.847587    0.773707    0.774727    0.774350   -0.000630    0.011820   -0.000737
   42.581755    0.464582    0.468099    0.468879    0.000327   -0.003737    0.000292
   43.315923    0.441604    0.440387    0.440083    0.000092   -0.000277    0.000016
   44.050092    0.618938    0.617014    0.616772    0.000018   -0.003794    0.000063
   44.784260    0.185240    0.185294    0.185294    0.000007   -0.000256    0.000005
   45.518428    0.520593    0.521334    0.521412    0.000626   -0.003761    0.000405
   46.252596    0.107385    0.107383    0.107401   -0.000012    0.000584   -0.000016
   46.986764    0.300023    0.300046    0.299972   -0.000117    0.001680   -0.000113
   47.720932    0.274124    0.274126    0.274122   -0.000002    0.000214   -0.000007
   48.455101    0.522499    0.524599    0.526301    0.000229   -0.000680    0.000021
   49.189269    0.687471    0.687474    0.687453    0.000030    0.000603    0.000039
   49.923437    0.291319    0.291319    0.291326    0.000000    0.000295   -0.000004
   50.657605    0.542771    0.542545    0.542549   -0.000151    0.001787   -0.000195
   51.391773    0.225719    0.225507    0.225555   -0.000002    0.001175    0.000056
   52.125942    0.166415    0.168605    0.168709    0.000435   -0.002315    0.000367
   52.860110    0.132557    0.132516    0.132514   -0.000002    0.000072    0.000001
   53.594278    0.163575    0.163677    0.163703    0.000013   -0.000002    0.000011
   54.328446    0.062209    0.062192    0.062064   -0.000023    0.000269   -0.000004
   55.062614    0.150946    0.150141    0.150112    0.000069   -0.005776    0.000058
   55.796783    0.367124    0.367120    0.367121    0.000029   -0.000292    0.000030
   56.530951    0.079375    0.079374    0.079383   -0.000002    0.000075   -0.000000
   57.265119    0.044621    0.044621    0.044620    0.000002    0.000113    0.000004
   57.999287    0.071760    0.071769    0.071841    0.000152   -0.003275    0.000107
   58.733455    0.048038    0.048036    0.048030   -0.000004    0.000133   -0.000004
   59.467624    0.021875    0.021875    0.021875    0.000003    0.000020    0.000004
   60.201792    0.014200    0.014200    0.014201    0.000000    0.000048   -0.000000
   60.935960    0.012767    0.012767    0.012767    0.000006   -0.000021    0.000008
   61.670128    0.002087    0.002087    0.002087    0.000003    0.000010    0.000003
   62.404296    0.001238    0.001238    0.001238    0.000003    0.000006    0.000003
   63.138465    0.000922    0.000922    0.000922    0.000003    0.000004    0.000003
   63.872633    0.000738    0.000738    0.000738    0.000003    0.000003    0.000003
   64.606801    0.000613    0.000613    0.000613    0.000002    0.000003    0.000003
   65.340969    0.000521    0.000521    0.000521    0.000002    0.000002    0.000003
   66.075137    0.000449    0.000449    0.000449    0.000002    0.000002    0.000002
   66.809305    0.000392    0.000392    0.000392    0.000002    0.000001    0.000002
   67.543474    0.000345    0.000345    0.000345    0.000002    0.000001    0.000002
   68.277642    0.000307    0.000307    0.000307    0.000002    0.000001    0.000002
   69.011810    0.000274    0.000274    0.000274    0.000002    0.000000    0.000002
   69.745978    0.000246    0.000246    0.000246    0.000002    0.000000    0.000002
   70.480146    0.000222    0.000222    0.000222    0.000002    0.000000    0.000002
   71.214315    0.000201    0.000201    0.000201    0.000002    0.000000    0.000002
   71.948483    0.000183    0.000183    0.000183    0.000002    0.000000    0.000002
   72.682651    0.000167    0.000167    0.000167    0.000002   -0.000000    0.000002

  frequency dependent      REAL DIELECTRIC FUNCTION (independent particle, no local field effects) current-current (2nd set in vasprun.xml)
     E(ev)        X           Y           Z          XY          YZ          ZX
  --------------------------------------------------------------------------------------------------------------
    0.000000   67.148636   67.176555   67.193255    4.699641  -93.199583    4.534332
    0.734168  -20.851534  -20.816954  -20.807023   -0.171776    3.456278   -0.167093
    1.468336    2.534680    2.597319    2.619246   -0.043005    0.956911   -0.043777
    2.202505   14.490699   14.853145   14.974162    0.022014    0.694940    0.014159
    2.936673   -5.997486   -5.947690   -5.929203    0.015975    0.115285    0.023946
    3.670841    4.887683    4.893550    4.896987   -0.017266    0.302202   -0.018268
    4.405009    6.390036    6.389595    6.389778   -0.005393    0.107365   -0.005194
    5.139177   -8.106225   -8.107660   -8.107684   -0.003884    0.078563   -0.003739
    5.873346   -1.314735   -1.316500   -1.314470   -0.008216    0.118313   -0.010134
    6.607514   -2.520574   -2.520530   -2.517898   -0.001654    0.057667   -0.003074
    7.341682    0.490007    0.490497    0.490663    0.022892   -0.211384    0.029545
    8.075850   -4.093921   -4.095626   -4.096282   -0.001695    0.033162   -0.001472
    8.810018    0.478642    0.475986    0.473538   -0.001663    0.028025   -0.001302
    9.544186   -0.670399   -0.557116   -0.511318    0.015110   -0.019236    0.008843
   10.278355   -0.832754   -0.837567   -0.838204   -0.002868    0.043657   -0.002837
   11.012523    0.366036    0.364121    0.363775    0.000727   -0.009333    0.000884
   11.746691   -0.294766   -0.296170   -0.296408   -0.001057    0.018065   -0.001005
   12.480859    0.256382    0.253644    0.253439   -0.001009    0.014887   -0.000974
   13.215027    0.402135    0.409982    0.414080    0.002911    0.011234    0.001176
   13.949196    0.462988    0.462439    0.462442   -0.000719    0.011724   -0.000656
   14.683364    0.332459    0.332195    0.332105   -0.000192    0.006166   -0.000004
   15.417532    0.625985    0.626257    0.626306   -0.000776    0.011704   -0.000867
   16.151700    0.247903    0.247066    0.243020    0.000394   -0.006979    0.000920
   16.885868    1.057444    1.060864    1.060774    0.000137    0.005405    0.000278
   17.620037   -0.093248   -0.092962   -0.092904   -0.000321    0.006247   -0.000606
   18.354205    0.090016    0.090766    0.089739   -0.000424    0.007677   -0.000299
   19.088373    0.558414    0.558496    0.558407   -0.000317    0.006367   -0.000276
   19.822541    0.130447    0.130704    0.130527   -0.000156    0.004985   -0.000081
   20.556709    0.562750    0.562468    0.562444   -0.000289    0.004991   -0.000235
   21.290878    0.639591    0.639369    0.639362   -0.000266    0.004658   -0.000192
   22.025046    0.763156    0.762735    0.762859   -0.000249    0.005590   -0.000249
   22.759214    0.760610    0.760446    0.760397   -0.000208    0.003593   -0.000112
   23.493382    0.824263    0.824195    0.824115    0.000228   -0.003218    0.000389
   24.227550    0.817313    0.817254    0.817106    0.000610   -0.013853    0.000721
   24.961719    0.656440    0.656193    0.655911   -0.000393    0.006867   -0.000034
   25.695887    0.850743    0.850165    0.849715   -0.000469    0.003213   -0.000015
   26.430055    0.707124    0.707025    0.706775   -0.000557    0.007133   -0.000489
   27.164223    0.896048    0.896000    0.895928   -0.000528    0.006247   -0.001033
   27.898391    0.646020    0.646043    0.646017   -0.000207    0.005797   -0.000349
   28.632559    0.905218    0.905165    0.905139   -0.000089    0.002805   -0.000186
   29.366728    0.831704    0.832001    0.831934   -0.000060    0.002944   -0.000116
   30.100896    0.987634    0.987634    0.987702   -0.000082    0.002558   -0.000154
   30.835064    0.859334    0.859511    0.859582   -0.000063    0.002094   -0.000116
   31.569232    0.889928    0.890150    0.890212   -0.000058    0.001899   -0.000108
   32.303400    1.008294    1.008225    1.008185   -0.000158    0.003250   -0.000219
   33.037569    0.994759    0.994648    0.994629   -0.000055    0.001660   -0.000083
   33.771737    1.008054    1.009358    1.009072   -0.000061    0.002904   -0.000102
   34.505905    0.961545    0.961411    0.961403   -0.000035    0.001371   -0.000067
   35.240073    1.003145    1.002903    1.002887   -0.000117    0.002286   -0.000174
   35.974241    0.961121    0.960669    0.960672    0.000037    0.000295    0.000004
   36.708410    1.071038    1.071509    1.071695    0.000106    0.001539   -0.000003
   37.442578    1.089493    1.089341    1.089229    0.000111    0.001996    0.000110
   38.176746    1.265010    1.264505    1.264483   -0.000159    0.001878   -0.000140
   38.910914    0.729514    0.729398    0.728346    0.000015   -0.000303   -0.000023
   39.645082    0.958103    0.958047    0.958001   -0.000098    0.001444   -0.000082
   40.379251    1.266382    1.266320    1.266383   -0.000098    0.001740   -0.000111
   41.113419    1.539477    1.539549    1.539521   -0.000070    0.001371   -0.000066
   41.847587    1.452290    1.451113    1.451574   -0.000593    0.009239   -0.000706
   42.581755    0.872004    0.874298    0.874475   -0.000088    0.002604   -0.000118
   43.315923    0.684008    0.686198    0.686671   -0.000182    0.000843   -0.000179
   44.050092    0.911675    0.912105    0.912170    0.000289   -0.004271    0.000229
   44.784260    0.616881    0.616751    0.616720   -0.000085    0.000983   -0.000087
   45.518428    0.748590    0.750305    0.749517   -0.000037    0.002356    0.000104
   46.252596    0.731786    0.731727    0.731741   -0.000035    0.000675   -0.000038
   46.986764    0.744038    0.743960    0.744028   -0.000126    0.002309   -0.000148
   47.720932    1.166046    1.165970    1.165965   -0.000065    0.001098   -0.000067
   48.455101    1.073703    1.072988    1.072455   -0.000210   -0.002274   -0.000304
   49.189269    0.419943    0.419884    0.419866   -0.000045    0.000410   -0.000046
   49.923437    0.633292    0.633240    0.633220   -0.000050    0.001106   -0.000047
   50.657605    0.637852    0.637669    0.637660    0.000021    0.000038    0.000044
   51.391773    0.438304    0.437884    0.437944   -0.000123    0.000860   -0.000186
   52.125942    0.563550    0.566526    0.566648    0.000275    0.002245    0.000154
   52.860110    0.610908    0.610726    0.610706   -0.000065    0.000865   -0.000062
   53.594278    0.684937    0.684807    0.684776   -0.000042    0.000656   -0.000038
   54.328446    0.742326    0.742317    0.742303   -0.000028    0.000725   -0.000026
   55.062614    0.777473    0.776347    0.776289   -0.000353    0.004769   -0.000276
   55.796783    0.600410    0.600412    0.600401   -0.000043    0.000905   -0.000046
   56.530951    0.635340    0.635328    0.635319   -0.000043    0.000820   -0.000049
   57.265119    0.764303    0.764288    0.764280   -0.000038    0.000667   -0.000042
   57.999287    0.700512    0.700485    0.700377    0.000018   -0.001594    0.000019
   58.733455    0.668422    0.668410    0.668409   -0.000029    0.000635   -0.000034
   59.467624    0.740629    0.740613    0.740606   -0.000032    0.000640   -0.000034
   60.201792    0.750081    0.750066    0.750058   -0.000029    0.000584   -0.000030
   60.935960    0.744893    0.744878    0.744871   -0.000030    0.000599   -0.000032
   61.670128    0.772391    0.772377    0.772369   -0.000029    0.000580   -0.000031
   62.404296    0.789024    0.789010    0.789003   -0.000028    0.000566   -0.000030
   63.138465    0.801598    0.801584    0.801577   -0.000028    0.000553   -0.000029
   63.872633    0.812101    0.812088    0.812081   -0.000027    0.000540   -0.000029
   64.606801    0.821222    0.821209    0.821202   -0.000027    0.000528   -0.000028
   65.340969    0.829313    0.829301    0.829294   -0.000026    0.000516   -0.000027
   66.075137    0.836593    0.836581    0.836575   -0.000025    0.000505   -0.000027
   66.809305    0.843211    0.843199    0.843193   -0.000025    0.000493   -0.000026
   67.543474    0.849272    0.849261    0.849255   -0.000024    0.000483   -0.000026
   68.277642    0.854860    0.854849    0.854843   -0.000024    0.000472   -0.000025
   69.011810    0.860037    0.860026    0.860020   -0.000023    0.000462   -0.000024
   69.745978    0.864854    0.864844    0.864838   -0.000023    0.000453   -0.000024
   70.480146    0.869354    0.869344    0.869338   -0.000022    0.000443   -0.000023
   71.214315    0.873571    0.873560    0.873555   -0.000022    0.000434   -0.000023
   71.948483    0.877534    0.877523    0.877518   -0.000021    0.000425   -0.000022
   72.682651    0.881267    0.881257    0.881252   -0.000021    0.000417   -0.000022
 
 The outermost node in the dielectric function lies at epsilon=  18.4


--------------------------------------------------------------------------------------------------------


    OPTICS:  cpu time    0.4716: real time    0.5129
    4ORBIT:  cpu time    0.0000: real time    0.0000

 Spin-Orbit-Coupling matrix elements

 Ion:    1  E_soc:    -32.9986774
 l=   1
     0.0000000    -5.0782639    -5.0782602
    -5.0782639     0.0000000    -5.0782650
    -5.0782602    -5.0782650     0.0000000
 l=   2
     0.0000000    -0.0843082     0.0000000    -0.0843082    -0.3372000
    -0.0843082     0.0000000    -0.2529000    -0.0843165    -0.0843083
     0.0000000    -0.2529000     0.0000000    -0.2529000     0.0000000
    -0.0843082    -0.0843165    -0.2529000     0.0000000    -0.0843083
    -0.3372000    -0.0843083     0.0000000    -0.0843083     0.0000000
 l=   3
     0.0000000     0.0000000     0.0000000     0.0000000     0.0000000     0.0000000     0.0000000
     0.0000000     0.0000000     0.0000000     0.0000000     0.0000000     0.0000000     0.0000000
     0.0000000     0.0000000     0.0000000     0.0000000     0.0000000     0.0000000     0.0000000
     0.0000000     0.0000000     0.0000000     0.0000000     0.0000000     0.0000000     0.0000000
     0.0000000     0.0000000     0.0000000     0.0000000     0.0000000     0.0000000     0.0000000
     0.0000000     0.0000000     0.0000000     0.0000000     0.0000000     0.0000000     0.0000000
     0.0000000     0.0000000     0.0000000     0.0000000     0.0000000     0.0000000     0.0000000

 total amount of memory used by VASP MPI-rank0    64367. kBytes
=======================================================================

   base      :      30000. kBytes
   nonl-proj :       2584. kBytes
   fftplans  :       6573. kBytes
   grid      :       5619. kBytes
   one-center:         62. kBytes
   wavefun   :      19529. kBytes
 
  
  
 General timing and accounting informations for this job:
 ========================================================
  
                  Total CPU time used (sec):       55.942
                            User time (sec):       54.897
                          System time (sec):        1.044
                         Elapsed time (sec):       56.321
  
                   Maximum memory used (kb):      165988.
                   Average memory used (kb):           0.
  
                          Minor page faults:       154492
                          Major page faults:            4
                 Voluntary context switches:          815
