<?xml version="1.0" encoding="ISO-8859-1"?>
<modeling>
 <generator>
  <i name="program" type="string">vasp </i>
  <i name="version" type="string">5.4.4.18Apr17-6-g9f103f2a35  </i>
  <i name="subversion" type="string">(build Nov 03 2018 10:20:46) complex            parallel </i>
  <i name="platform" type="string">LinuxIFC </i>
  <i name="date" type="string">2018 11 09 </i>
  <i name="time" type="string">12:57:40 </i>
 </generator>
 <incar>
  <i type="string" name="SYSTEM">   Og_FCC</i>
  <i type="string" name="PREC">accurate</i>
  <i type="string" name="ALGO">   Normal</i>
  <i type="logical" name="ADDGRID"> T  </i>
  <i type="logical" name="LSORBIT"> T  </i>
  <i type="int" name="ISPIN">     1</i>
  <i type="int" name="MAXMIX">    50</i>
  <i type="int" name="NELM">    50</i>
  <i type="int" name="NELMDL">    -5</i>
  <i type="int" name="NELMIN">     2</i>
  <i type="int" name="IBRION">    -1</i>
  <i type="int" name="NFREE">     5</i>
  <i name="EDIFF">      0.00000001</i>
  <i name="EDIFFG">      0.00001000</i>
  <i type="int" name="NSW">     1</i>
  <i type="int" name="ISIF">     3</i>
  <i type="int" name="ISYM">     0</i>
  <i name="SYMPREC">      0.00000010</i>
  <i name="ENCUT">    400.00000000</i>
  <i type="int" name="NBANDS">    64</i>
  <i name="POTIM">      0.10000000</i>
  <i type="logical" name="LREAL"> F  </i>
  <i type="int" name="ISMEAR">     0</i>
  <i name="SIGMA">      0.00100000</i>
  <i type="int" name="NWRITE">     2</i>
  <i type="logical" name="LWAVE"> T  </i>
  <i type="logical" name="LCHARG"> F  </i>
  <i type="logical" name="LVTOT"> F  </i>
  <i type="logical" name="LOPTICS"> T  </i>
  <i type="logical" name="GGA_COMPAT"> F  </i>
  <v type="int" name="KPOINT_BSE">    -1     0     0     0</v>
  <i type="int" name="NELM">    50</i>
  <i type="string" name="GGA"> PE</i>
 </incar>
 <structure name="primitive_cell" >
  <crystal>
   <varray name="basis" >
    <v>       4.34557550       0.00000003      -0.00000002 </v>
    <v>       2.17278775       3.76337898      -0.00000102 </v>
    <v>       2.17278777       1.25445878       3.54814525 </v>
   </varray>
   <i name="volume">     58.02654140 </i>
   <varray name="rec_basis" >
    <v>       0.23011912      -0.13285935      -0.09394582 </v>
    <v>      -0.00000000       0.26571863      -0.09394572 </v>
    <v>       0.00000000       0.00000008       0.28183736 </v>
   </varray>
  </crystal>
  <varray name="positions" >
   <v>       0.00000000       0.00000000       0.00000000 </v>
  </varray>
 </structure>
 <varray name="primitive_index" >
  <v type="int" >        1 </v>
 </varray>
 <kpoints>
  <generation param="Gamma">
   <v type="int" name="divisions">       4        4        4 </v>
   <v name="usershift">      0.00000000       0.00000000       0.00000000 </v>
   <v name="genvec1">      0.25000000       0.00000000       0.00000000 </v>
   <v name="genvec2">     -0.00000000       0.25000000      -0.00000000 </v>
   <v name="genvec3">     -0.00000000      -0.00000000       0.25000000 </v>
   <v name="shift">      0.00000000       0.00000000       0.00000000 </v>
  </generation>
  <varray name="kpointlist" >
   <v>       0.00000000       0.00000000       0.00000000 </v>
   <v>       0.25000000      -0.00000000       0.00000000 </v>
   <v>       0.50000000      -0.00000000       0.00000000 </v>
   <v>      -0.25000000       0.00000000      -0.00000000 </v>
   <v>       0.00000000       0.25000000       0.00000000 </v>
   <v>       0.25000000       0.25000000       0.00000000 </v>
   <v>       0.50000000       0.25000000       0.00000000 </v>
   <v>      -0.25000000       0.25000000      -0.00000000 </v>
   <v>       0.00000000       0.50000000       0.00000000 </v>
   <v>       0.25000000       0.50000000       0.00000000 </v>
   <v>       0.50000000       0.50000000       0.00000000 </v>
   <v>      -0.25000000       0.50000000      -0.00000000 </v>
   <v>      -0.00000000      -0.25000000       0.00000000 </v>
   <v>       0.25000000      -0.25000000       0.00000000 </v>
   <v>       0.50000000      -0.25000000       0.00000000 </v>
   <v>      -0.25000000      -0.25000000      -0.00000000 </v>
   <v>       0.00000000       0.00000000       0.25000000 </v>
   <v>       0.25000000      -0.00000000       0.25000000 </v>
   <v>       0.50000000      -0.00000000       0.25000000 </v>
   <v>      -0.25000000       0.00000000       0.25000000 </v>
   <v>       0.00000000       0.25000000       0.25000000 </v>
   <v>       0.25000000       0.25000000       0.25000000 </v>
   <v>       0.50000000       0.25000000       0.25000000 </v>
   <v>      -0.25000000       0.25000000       0.25000000 </v>
   <v>      -0.00000000       0.50000000       0.25000000 </v>
   <v>       0.25000000       0.50000000       0.25000000 </v>
   <v>       0.50000000       0.50000000       0.25000000 </v>
   <v>      -0.25000000       0.50000000       0.25000000 </v>
   <v>      -0.00000000      -0.25000000       0.25000000 </v>
   <v>       0.25000000      -0.25000000       0.25000000 </v>
   <v>       0.50000000      -0.25000000       0.25000000 </v>
   <v>      -0.25000000      -0.25000000       0.25000000 </v>
   <v>       0.00000000       0.00000000       0.50000000 </v>
   <v>       0.25000000      -0.00000000       0.50000000 </v>
   <v>       0.50000000      -0.00000000       0.50000000 </v>
   <v>      -0.25000000       0.00000000       0.50000000 </v>
   <v>       0.00000000       0.25000000       0.50000000 </v>
   <v>       0.25000000       0.25000000       0.50000000 </v>
   <v>       0.50000000       0.25000000       0.50000000 </v>
   <v>      -0.25000000       0.25000000       0.50000000 </v>
   <v>       0.00000000       0.50000000       0.50000000 </v>
   <v>       0.25000000       0.50000000       0.50000000 </v>
   <v>       0.50000000       0.50000000       0.50000000 </v>
   <v>      -0.25000000       0.50000000       0.50000000 </v>
   <v>       0.00000000      -0.25000000       0.50000000 </v>
   <v>       0.25000000      -0.25000000       0.50000000 </v>
   <v>       0.50000000      -0.25000000       0.50000000 </v>
   <v>      -0.25000000      -0.25000000       0.50000000 </v>
   <v>       0.00000000       0.00000000      -0.25000000 </v>
   <v>       0.25000000      -0.00000000      -0.25000000 </v>
   <v>       0.50000000      -0.00000000      -0.25000000 </v>
   <v>      -0.25000000       0.00000000      -0.25000000 </v>
   <v>       0.00000000       0.25000000      -0.25000000 </v>
   <v>       0.25000000       0.25000000      -0.25000000 </v>
   <v>       0.50000000       0.25000000      -0.25000000 </v>
   <v>      -0.25000000       0.25000000      -0.25000000 </v>
   <v>       0.00000000       0.50000000      -0.25000000 </v>
   <v>       0.25000000       0.50000000      -0.25000000 </v>
   <v>       0.50000000       0.50000000      -0.25000000 </v>
   <v>      -0.25000000       0.50000000      -0.25000000 </v>
   <v>       0.00000000      -0.25000000      -0.25000000 </v>
   <v>       0.25000000      -0.25000000      -0.25000000 </v>
   <v>       0.50000000      -0.25000000      -0.25000000 </v>
   <v>      -0.25000000      -0.25000000      -0.25000000 </v>
  </varray>
  <varray name="weights" >
   <v>       0.01562500 </v>
   <v>       0.01562500 </v>
   <v>       0.01562500 </v>
   <v>       0.01562500 </v>
   <v>       0.01562500 </v>
   <v>       0.01562500 </v>
   <v>       0.01562500 </v>
   <v>       0.01562500 </v>
   <v>       0.01562500 </v>
   <v>       0.01562500 </v>
   <v>       0.01562500 </v>
   <v>       0.01562500 </v>
   <v>       0.01562500 </v>
   <v>       0.01562500 </v>
   <v>       0.01562500 </v>
   <v>       0.01562500 </v>
   <v>       0.01562500 </v>
   <v>       0.01562500 </v>
   <v>       0.01562500 </v>
   <v>       0.01562500 </v>
   <v>       0.01562500 </v>
   <v>       0.01562500 </v>
   <v>       0.01562500 </v>
   <v>       0.01562500 </v>
   <v>       0.01562500 </v>
   <v>       0.01562500 </v>
   <v>       0.01562500 </v>
   <v>       0.01562500 </v>
   <v>       0.01562500 </v>
   <v>       0.01562500 </v>
   <v>       0.01562500 </v>
   <v>       0.01562500 </v>
   <v>       0.01562500 </v>
   <v>       0.01562500 </v>
   <v>       0.01562500 </v>
   <v>       0.01562500 </v>
   <v>       0.01562500 </v>
   <v>       0.01562500 </v>
   <v>       0.01562500 </v>
   <v>       0.01562500 </v>
   <v>       0.01562500 </v>
   <v>       0.01562500 </v>
   <v>       0.01562500 </v>
   <v>       0.01562500 </v>
   <v>       0.01562500 </v>
   <v>       0.01562500 </v>
   <v>       0.01562500 </v>
   <v>       0.01562500 </v>
   <v>       0.01562500 </v>
   <v>       0.01562500 </v>
   <v>       0.01562500 </v>
   <v>       0.01562500 </v>
   <v>       0.01562500 </v>
   <v>       0.01562500 </v>
   <v>       0.01562500 </v>
   <v>       0.01562500 </v>
   <v>       0.01562500 </v>
   <v>       0.01562500 </v>
   <v>       0.01562500 </v>
   <v>       0.01562500 </v>
   <v>       0.01562500 </v>
   <v>       0.01562500 </v>
   <v>       0.01562500 </v>
   <v>       0.01562500 </v>
  </varray>
 </kpoints>
 <parameters>
  <separator name="general" >
   <i type="string" name="SYSTEM">Og_FCC</i>
   <i type="logical" name="LCOMPAT"> F  </i>
  </separator>
  <separator name="electronic" >
   <i type="string" name="PREC">accura</i>
   <i name="ENMAX">    400.00000000</i>
   <i name="ENAUG">    361.02500000</i>
   <i name="EDIFF">      0.00000001</i>
   <i type="int" name="IALGO">    38</i>
   <i type="int" name="IWAVPR">    10</i>
   <i type="int" name="NBANDS">    64</i>
   <i name="NELECT">     18.00000000</i>
   <i type="int" name="TURBO">     0</i>
   <i type="int" name="IRESTART">     0</i>
   <i type="int" name="NREBOOT">     0</i>
   <i type="int" name="NMIN">     0</i>
   <i name="EREF">      0.00000000</i>
   <separator name="electronic smearing" >
    <i type="int" name="ISMEAR">     0</i>
    <i name="SIGMA">      0.00100000</i>
    <i name="KSPACING">      0.50000000</i>
    <i type="logical" name="KGAMMA"> T  </i>
   </separator>
   <separator name="electronic projectors" >
    <i type="logical" name="LREAL"> F  </i>
    <v name="ROPT">      0.00000000</v>
    <i type="int" name="LMAXPAW">  -100</i>
    <i type="int" name="LMAXMIX">     2</i>
    <i type="logical" name="NLSPLINE"> F  </i>
   </separator>
   <separator name="electronic startup" >
    <i type="int" name="ISTART">     1</i>
    <i type="int" name="ICHARG">     0</i>
    <i type="int" name="INIWAV">     1</i>
   </separator>
   <separator name="electronic spin" >
    <i type="int" name="ISPIN">     1</i>
    <i type="logical" name="LNONCOLLINEAR"> T  </i>
    <v name="MAGMOM">      1.00000000      1.00000000      1.00000000</v>
    <i name="NUPDOWN">     -1.00000000</i>
    <i type="logical" name="LSORBIT"> T  </i>
    <v name="SAXIS">      0.00000000      0.00000000      1.00000000</v>
    <i type="logical" name="LSPIRAL"> F  </i>
    <v name="QSPIRAL">      0.00000000      0.00000000      0.00000000</v>
    <i type="logical" name="LZEROZ"> F  </i>
   </separator>
   <separator name="electronic exchange-correlation" >
    <i type="logical" name="LASPH"> F  </i>
    <i type="logical" name="LMETAGGA"> F  </i>
   </separator>
   <separator name="electronic convergence" >
    <i type="int" name="NELM">    50</i>
    <i type="int" name="NELMDL">    -5</i>
    <i type="int" name="NELMIN">     2</i>
    <i name="ENINI">    400.00000000</i>
    <separator name="electronic convergence detail" >
     <i type="logical" name="LDIAG"> T  </i>
     <i type="logical" name="LSUBROT"> F  </i>
     <i name="WEIMIN">      0.00000000</i>
     <i name="EBREAK">      0.00000000</i>
     <i name="DEPER">      0.30000000</i>
     <i type="int" name="NRMM">     4</i>
     <i name="TIME">      0.40000000</i>
    </separator>
   </separator>
   <separator name="electronic mixer" >
    <i name="AMIX">      0.40000000</i>
    <i name="BMIX">      1.00000000</i>
    <i name="AMIN">      0.10000000</i>
    <i name="AMIX_MAG">      1.60000000</i>
    <i name="BMIX_MAG">      1.00000000</i>
    <separator name="electronic mixer details" >
     <i type="int" name="IMIX">     4</i>
     <i type="logical" name="MIXFIRST"> F  </i>
     <i type="int" name="MAXMIX">    50</i>
     <i name="WC">    100.00000000</i>
     <i type="int" name="INIMIX">     1</i>
     <i type="int" name="MIXPRE">     1</i>
     <i type="int" name="MREMOVE">     5</i>
    </separator>
   </separator>
   <separator name="electronic dipolcorrection" >
    <i type="logical" name="LDIPOL"> F  </i>
    <i type="logical" name="LMONO"> F  </i>
    <i type="int" name="IDIPOL">     0</i>
    <i name="EPSILON">      1.00000000</i>
    <v name="DIPOL">   -100.00000000   -100.00000000   -100.00000000</v>
    <i name="EFIELD">      0.00000000</i>
   </separator>
  </separator>
  <separator name="grids" >
   <i type="int" name="NGX">    28</i>
   <i type="int" name="NGY">    28</i>
   <i type="int" name="NGZ">    28</i>
   <i type="int" name="NGXF">    56</i>
   <i type="int" name="NGYF">    56</i>
   <i type="int" name="NGZF">    56</i>
   <i type="logical" name="ADDGRID"> T  </i>
  </separator>
  <separator name="ionic" >
   <i type="int" name="NSW">     1</i>
   <i type="int" name="IBRION">    -1</i>
   <i type="int" name="MDALGO">     0</i>
   <i type="int" name="ISIF">     3</i>
   <i name="PSTRESS">      0.00000000</i>
   <i name="EDIFFG">      0.00001000</i>
   <i type="int" name="NFREE">     5</i>
   <i name="POTIM">      0.10000000</i>
   <i name="SMASS">     -3.00000000</i>
   <i name="SCALEE">      1.00000000</i>
  </separator>
  <separator name="ionic md" >
   <i name="TEBEG">      0.00010000</i>
   <i name="TEEND">      0.00010000</i>
   <i type="int" name="NBLOCK">     1</i>
   <i type="int" name="KBLOCK">     1</i>
   <i type="int" name="NPACO">   256</i>
   <i name="APACO">     16.00000000</i>
  </separator>
  <separator name="symmetry" >
   <i type="int" name="ISYM">     0</i>
   <i name="SYMPREC">      0.00000010</i>
  </separator>
  <separator name="dos" >
   <i type="int" name="LORBIT">     0</i>
   <v name="RWIGS">     -1.00000000</v>
   <i type="int" name="NEDOS">   301</i>
   <i name="EMIN">     10.00000000</i>
   <i name="EMAX">    -10.00000000</i>
   <i name="EFERMI">      0.00000000</i>
  </separator>
  <separator name="writing" >
   <i type="int" name="NWRITE">     2</i>
   <i type="logical" name="LWAVE"> T  </i>
   <i type="logical" name="LDOWNSAMPLE"> F  </i>
   <i type="logical" name="LCHARG"> F  </i>
   <i type="logical" name="LPARD"> F  </i>
   <i type="logical" name="LVTOT"> F  </i>
   <i type="logical" name="LVHAR"> F  </i>
   <i type="logical" name="LELF"> F  </i>
   <i type="logical" name="LOPTICS"> T  </i>
   <v name="STM">      0.00000000      0.00000000      0.00000000      0.00000000      0.00000000      0.00000000      0.00000000</v>
  </separator>
  <separator name="performance" >
   <i type="int" name="NPAR">     2</i>
   <i type="int" name="NSIM">     4</i>
   <i type="int" name="NBLK">    -1</i>
   <i type="logical" name="LPLANE"> T  </i>
   <i type="logical" name="LSCALAPACK"> T  </i>
   <i type="logical" name="LSCAAWARE"> F  </i>
   <i type="logical" name="LSCALU"> F  </i>
   <i type="logical" name="LASYNC"> F  </i>
   <i type="logical" name="LORBITALREAL"> F  </i>
  </separator>
  <separator name="miscellaneous" >
   <i type="int" name="IDIOT">     3</i>
   <i type="int" name="ISPECIAL">     0</i>
   <i type="logical" name="LMUSIC"> F  </i>
   <v name="POMASS">      0.01000000</v>
   <v name="DARWINR">      0.00000000</v>
   <v name="DARWINV">      1.00000000</v>
   <i type="logical" name="LCORR"> T  </i>
  </separator>
  <i type="logical" name="GGA_COMPAT"> F  </i>
  <i type="logical" name="LBERRY"> F  </i>
  <i type="int" name="ICORELEVEL">     0</i>
  <i type="logical" name="LDAU"> F  </i>
  <i type="int" name="I_CONSTRAINED_M">     0</i>
  <separator name="electronic exchange-correlation" >
   <i type="string" name="GGA">PE</i>
   <i type="int" name="VOSKOWN">     0</i>
   <i type="logical" name="LHFCALC"> F  </i>
   <i type="string" name="PRECFOCK"></i>
   <i type="logical" name="LSYMGRAD"> F  </i>
   <i type="logical" name="LHFONE"> F  </i>
   <i type="logical" name="LRHFCALC"> F  </i>
   <i type="logical" name="LTHOMAS"> F  </i>
   <i type="logical" name="LMODELHF"> F  </i>
   <i name="ENCUT4O">     -1.00000000</i>
   <i type="int" name="EXXOEP">     0</i>
   <i type="int" name="FOURORBIT">     0</i>
   <i name="AEXX">      0.00000000</i>
   <i name="HFALPHA">      0.00000000</i>
   <i name="MCALPHA">      0.00000000</i>
   <i name="ALDAX">      1.00000000</i>
   <i name="AGGAX">      1.00000000</i>
   <i name="ALDAC">      1.00000000</i>
   <i name="AGGAC">      1.00000000</i>
   <i type="int" name="NKREDX">     1</i>
   <i type="int" name="NKREDY">     1</i>
   <i type="int" name="NKREDZ">     1</i>
   <i type="logical" name="SHIFTRED"> F  </i>
   <i type="logical" name="ODDONLY"> F  </i>
   <i type="logical" name="EVENONLY"> F  </i>
   <i type="int" name="LMAXFOCK">     0</i>
   <i type="int" name="NMAXFOCKAE">     0</i>
   <i type="logical" name="LFOCKAEDFT"> F  </i>
   <i name="HFSCREEN">      0.00000000</i>
   <i name="HFSCREENC">      0.00000000</i>
   <i type="int" name="NBANDSGWLOW">     0</i>
  </separator>
  <separator name="vdW DFT" >
   <i type="logical" name="LUSE_VDW"> F  </i>
   <i name="Zab_VDW">     -0.84910000</i>
   <i name="PARAM1">      0.12340000</i>
   <i name="PARAM2">      1.00000000</i>
   <i name="PARAM3">      0.00000000</i>
  </separator>
  <separator name="model GW" >
   <i type="int" name="MODEL_GW">     0</i>
   <i name="MODEL_EPS0">     34.81592484</i>
   <i name="MODEL_ALPHA">      1.00000000</i>
  </separator>
  <separator name="linear response parameters" >
   <i type="logical" name="LEPSILON"> F  </i>
   <i type="logical" name="LRPA"> F  </i>
   <i type="logical" name="LNABLA"> F  </i>
   <i type="logical" name="LVEL"> F  </i>
   <i type="int" name="KINTER">     0</i>
   <i name="CSHIFT">      0.10000000</i>
   <i name="OMEGAMAX">     -1.00000000</i>
   <i name="DEG_THRESHOLD">      0.00200000</i>
   <i name="RTIME">     -0.10000000</i>
   <i name="WPLASMAI">      0.00000000</i>
   <v name="DFIELD">      0.00000000      0.00000000      0.00000000</v>
   <v name="WPLASMA">      0.00000000      0.00000000      0.00000000      0.00000000      0.00000000      0.00000000      0.00000000      0.00000000      0.00000000</v>
  </separator>
  <separator name="orbital magnetization" >
   <i type="logical" name="NUCIND"> F  </i>
   <v name="MAGPOS">      0.00000000      0.00000000      0.00000000</v>
   <i type="logical" name="LNICSALL"> T  </i>
   <i type="logical" name="ORBITALMAG"> F  </i>
   <i type="logical" name="LMAGBLOCH"> F  </i>
   <i type="logical" name="LCHIMAG"> F  </i>
   <i type="logical" name="LGAUGE"> T  </i>
   <i type="int" name="MAGATOM">     0</i>
   <v name="MAGDIPOL">      0.00000000      0.00000000      0.00000000</v>
   <v name="AVECCONST">      0.00000000      0.00000000      0.00000000</v>
  </separator>
  <separator name="response functions" >
   <i type="logical" name="LADDER"> F  </i>
   <i type="logical" name="LRPAFORCE"> F  </i>
   <i type="logical" name="LFXC"> F  </i>
   <i type="logical" name="LHARTREE"> T  </i>
   <i type="int" name="IBSE">     0</i>
   <v type="int" name="KPOINT">    -1     0     0     0</v>
   <i type="logical" name="LTCTE"> F  </i>
   <i type="logical" name="LTETE"> F  </i>
   <i type="logical" name="LTRIPLET"> F  </i>
   <i type="logical" name="LFXCEPS"> F  </i>
   <i type="logical" name="LFXHEG"> F  </i>
   <i type="int" name="NATURALO">     2</i>
   <i type="logical" name="L2ORDER"> F  </i>
   <i type="logical" name="LMP2LT"> F  </i>
   <i type="logical" name="LUSEW"> F  </i>
   <i name="ENCUTGW">     -2.00000000</i>
   <i name="ENCUTGWSOFT">     -2.00000000</i>
   <i name="ENCUTLF">     -1.00000000</i>
   <i type="int" name="LMAXMP2">    -1</i>
   <i name="SCISSOR">      0.00000000</i>
   <i type="int" name="NOMEGA">     0</i>
   <i type="int" name="NOMEGAR">     0</i>
   <i type="int" name="NBANDSGW">    -1</i>
   <i type="int" name="NBANDSO">    -1</i>
   <i type="int" name="NBANDSV">    -1</i>
   <i type="int" name="NELM">    50</i>
   <i type="int" name="NELMHF">     1</i>
   <i type="int" name="DIM">     3</i>
   <i type="int" name="ANTIRES">     0</i>
   <i name="OMEGAMAX">    -30.00000000</i>
   <i name="OMEGAMIN">    -30.00000000</i>
   <i name="OMEGATL">   -200.00000000</i>
   <i type="int" name="OMEGAGRID">   140</i>
   <i name="CSHIFT">     -0.10000000</i>
   <i type="logical" name="SELFENERGY"> F  </i>
   <i type="logical" name="LSPECTRAL"> F  </i>
   <i type="logical" name="LSPECTRALGW"> F  </i>
   <i type="logical" name="LSINGLES"> F  </i>
   <i type="logical" name="LFERMIGW"> F  </i>
   <i type="logical" name="ODDONLYGW"> F  </i>
   <i type="logical" name="EVENONLYGW"> F  </i>
   <i type="int" name="NKREDLFX">     1</i>
   <i type="int" name="NKREDLFY">     1</i>
   <i type="int" name="NKREDLFZ">     1</i>
   <i type="int" name="MAXMEM">  2800</i>
   <i type="int" name="TELESCOPE">     0</i>
   <i type="int" name="TAUPAR">     1</i>
   <i type="int" name="OMEGAPAR">    -1</i>
   <i name="LAMBDA">      1.00000000</i>
  </separator>
  <separator name="External order field" >
   <i name="OFIELD_KAPPA">      0.00000000</i>
   <v name="OFIELD_K">      0.00000000      0.00000000      0.00000000</v>
   <i name="OFIELD_Q6_NEAR">      0.00000000</i>
   <i name="OFIELD_Q6_FAR">      0.00000000</i>
   <i name="OFIELD_A">      0.00000000</i>
  </separator>
 </parameters>
 <atominfo>
  <atoms>       1 </atoms>
  <types>       1 </types>
  <array name="atoms" >
   <dimension dim="1">ion</dimension>
   <field type="string">element</field>
   <field type="int">atomtype</field>
   <set>
    <rc><c>Og</c><c>   1</c></rc>
   </set>
  </array>
  <array name="atomtypes" >
   <dimension dim="1">type</dimension>
   <field type="int">atomspertype</field>
   <field type="string">element</field>
   <field>mass</field>
   <field>valence</field>
   <field type="string">pseudopotential</field>
   <set>
    <rc><c>   1</c><c>Og</c><c>      0.01000000</c><c>     18.00000000</c><c>  PAW Og, JanMewes Oct 18               </c></rc>
   </set>
  </array>
 </atominfo>
 <structure name="initialpos" >
  <crystal>
   <varray name="basis" >
    <v>       4.34557550       0.00000003      -0.00000002 </v>
    <v>       2.17278775       3.76337898      -0.00000102 </v>
    <v>       2.17278777       1.25445878       3.54814525 </v>
   </varray>
   <i name="volume">     58.02654140 </i>
   <varray name="rec_basis" >
    <v>       0.23011912      -0.13285935      -0.09394582 </v>
    <v>      -0.00000000       0.26571863      -0.09394572 </v>
    <v>       0.00000000       0.00000008       0.28183736 </v>
   </varray>
  </crystal>
  <varray name="positions" >
   <v>       0.00000000       0.00000000       0.00000000 </v>
  </varray>
  <varray name="velocities" >
   <v>       0.00000000       0.00000000       0.00000000 </v>
  </varray>
 </structure>
 <calculation>
  <scstep>
   <time name="dav">    2.25    2.25</time>
   <time name="total">    2.42    2.42</time>
   <energy>
    <i name="alphaZ">     65.75019823 </i>
    <i name="ewald">  -1740.34414818 </i>
    <i name="hartreedc">   -672.98335547 </i>
    <i name="XCdc">    -68.73293870 </i>
    <i name="pawpsdc">   2336.60632695 </i>
    <i name="pawaedc">  -2261.21909889 </i>
    <i name="eentropy">     -0.00000000 </i>
    <i name="bandstr">   -312.68217164 </i>
    <i name="atom">   2640.37581857 </i>
    <i name="e_fr_energy">    -13.22936912 </i>
    <i name="e_wo_entrp">    -13.22936912 </i>
    <i name="e_0_energy">    -13.22936912 </i>
   </energy>
  </scstep>
  <scstep>
   <time name="dav">    2.98    2.98</time>
   <time name="total">    2.98    2.98</time>
   <energy>
    <i name="e_fr_energy">    -13.23019308 </i>
    <i name="e_wo_entrp">    -13.23019308 </i>
    <i name="e_0_energy">    -13.23019308 </i>
   </energy>
  </scstep>
  <scstep>
   <time name="dav">    2.62    2.62</time>
   <time name="total">    2.63    2.62</time>
   <energy>
    <i name="e_fr_energy">    -13.23019846 </i>
    <i name="e_wo_entrp">    -13.23019846 </i>
    <i name="e_0_energy">    -13.23019846 </i>
   </energy>
  </scstep>
  <scstep>
   <time name="dav">    3.05    3.05</time>
   <time name="total">    3.05    3.05</time>
   <energy>
    <i name="e_fr_energy">    -13.23019858 </i>
    <i name="e_wo_entrp">    -13.23019858 </i>
    <i name="e_0_energy">    -13.23019858 </i>
   </energy>
  </scstep>
  <scstep>
   <time name="dav">    2.44    2.45</time>
   <time name="total">    2.61    2.62</time>
   <energy>
    <i name="e_fr_energy">    -13.23019859 </i>
    <i name="e_wo_entrp">    -13.23019859 </i>
    <i name="e_0_energy">    -13.23019859 </i>
   </energy>
  </scstep>
  <scstep>
   <time name="dav">    2.86    2.86</time>
   <time name="total">    3.25    3.24</time>
   <energy>
    <i name="e_fr_energy">    -13.22807224 </i>
    <i name="e_wo_entrp">    -13.22807224 </i>
    <i name="e_0_energy">    -13.22807224 </i>
   </energy>
  </scstep>
  <scstep>
   <time name="dav">    2.79    2.80</time>
   <time name="total">    3.11    3.11</time>
   <energy>
    <i name="e_fr_energy">    -13.22776772 </i>
    <i name="e_wo_entrp">    -13.22776772 </i>
    <i name="e_0_energy">    -13.22776772 </i>
   </energy>
  </scstep>
  <scstep>
   <time name="dav">    2.49    2.49</time>
   <time name="total">    2.80    2.80</time>
   <energy>
    <i name="e_fr_energy">    -13.22778739 </i>
    <i name="e_wo_entrp">    -13.22778739 </i>
    <i name="e_0_energy">    -13.22778739 </i>
   </energy>
  </scstep>
  <scstep>
   <time name="dav">    2.53    2.53</time>
   <time name="total">    2.88    2.88</time>
   <energy>
    <i name="e_fr_energy">    -13.22779003 </i>
    <i name="e_wo_entrp">    -13.22779003 </i>
    <i name="e_0_energy">    -13.22779003 </i>
   </energy>
  </scstep>
  <scstep>
   <time name="dav">    2.16    2.16</time>
   <time name="total">    2.45    2.45</time>
   <energy>
    <i name="e_fr_energy">    -13.22779298 </i>
    <i name="e_wo_entrp">    -13.22779298 </i>
    <i name="e_0_energy">    -13.22779298 </i>
   </energy>
  </scstep>
  <scstep>
   <time name="dav">    2.13    2.13</time>
   <time name="total">    2.43    2.43</time>
   <energy>
    <i name="e_fr_energy">    -13.22779344 </i>
    <i name="e_wo_entrp">    -13.22779344 </i>
    <i name="e_0_energy">    -13.22779344 </i>
   </energy>
  </scstep>
  <scstep>
   <time name="dav">    2.08    2.08</time>
   <time name="total">    2.38    2.38</time>
   <energy>
    <i name="e_fr_energy">    -13.22779339 </i>
    <i name="e_wo_entrp">    -13.22779339 </i>
    <i name="e_0_energy">    -13.22779339 </i>
   </energy>
  </scstep>
  <scstep>
   <time name="dav">    2.13    2.13</time>
   <time name="total">    2.42    2.42</time>
   <energy>
    <i name="e_fr_energy">    -13.22779322 </i>
    <i name="e_wo_entrp">    -13.22779322 </i>
    <i name="e_0_energy">    -13.22779322 </i>
   </energy>
  </scstep>
  <scstep>
   <time name="dav">    2.04    2.03</time>
   <time name="total">    2.33    2.33</time>
   <energy>
    <i name="e_fr_energy">    -13.22779318 </i>
    <i name="e_wo_entrp">    -13.22779318 </i>
    <i name="e_0_energy">    -13.22779318 </i>
   </energy>
  </scstep>
  <scstep>
   <time name="dav">    2.06    2.06</time>
   <time name="total">    2.35    2.35</time>
   <energy>
    <i name="e_fr_energy">    -13.22779314 </i>
    <i name="e_wo_entrp">    -13.22779314 </i>
    <i name="e_0_energy">    -13.22779314 </i>
   </energy>
  </scstep>
  <scstep>
   <time name="dav">    2.02    2.02</time>
   <time name="total">    2.31    2.31</time>
   <energy>
    <i name="e_fr_energy">    -13.22779308 </i>
    <i name="e_wo_entrp">    -13.22779308 </i>
    <i name="e_0_energy">    -13.22779308 </i>
   </energy>
  </scstep>
  <scstep>
   <time name="dav">    2.05    2.05</time>
   <time name="total">    2.35    2.35</time>
   <energy>
    <i name="e_fr_energy">    -13.22779306 </i>
    <i name="e_wo_entrp">    -13.22779306 </i>
    <i name="e_0_energy">    -13.22779306 </i>
   </energy>
  </scstep>
  <scstep>
   <time name="dav">    2.02    2.02</time>
   <time name="total">    2.31    2.31</time>
   <energy>
    <i name="e_fr_energy">    -13.22779306 </i>
    <i name="e_wo_entrp">    -13.22779306 </i>
    <i name="e_0_energy">    -13.22779306 </i>
   </energy>
  </scstep>
  <scstep>
   <time name="dav">    2.11    2.11</time>
   <time name="total">    2.25    2.25</time>
   <energy>
    <i name="alphaZ">     65.75019823 </i>
    <i name="ewald">  -1740.34414818 </i>
    <i name="hartreedc">   -673.53173353 </i>
    <i name="XCdc">    -68.80654326 </i>
    <i name="pawpsdc">   2324.55695346 </i>
    <i name="pawaedc">  -2249.08566613 </i>
    <i name="eentropy">     -0.00000000 </i>
    <i name="bandstr">   -312.14267223 </i>
    <i name="atom">   2640.37581857 </i>
    <i name="e_fr_energy">    -13.22779306 </i>
    <i name="e_wo_entrp">    -13.22779306 </i>
    <i name="e_0_energy">    -13.22779306 </i>
   </energy>
  </scstep>
  <structure>
   <crystal>
    <varray name="basis" >
     <v>       4.34557550       0.00000003      -0.00000002 </v>
     <v>       2.17278775       3.76337898      -0.00000102 </v>
     <v>       2.17278777       1.25445878       3.54814525 </v>
    </varray>
    <i name="volume">     58.02654140 </i>
    <varray name="rec_basis" >
     <v>       0.23011912      -0.13285935      -0.09394582 </v>
     <v>      -0.00000000       0.26571863      -0.09394572 </v>
     <v>       0.00000000       0.00000008       0.28183736 </v>
    </varray>
   </crystal>
   <varray name="positions" >
    <v>       0.00000000       0.00000000       0.00000000 </v>
   </varray>
  </structure>
  <varray name="forces" >
   <v>      -0.00000035       0.00000232       0.00000084 </v>
  </varray>
  <varray name="stress" >
   <v>      -3.32377222       0.00028320       0.00020099 </v>
   <v>       0.00027830      -3.32114343      -0.00035146 </v>
   <v>       0.00019499      -0.00035134      -3.32131494 </v>
  </varray>
  <energy>
   <i name="e_fr_energy">    -13.66675409 </i>
   <i name="e_wo_entrp">    -13.66675409 </i>
   <i name="e_0_energy">     -0.00000000 </i>
  </energy>
  <time name="totalsc">   52.56   52.69</time>
  <eigenvalues>
   <array>
    <dimension dim="1">band</dimension>
    <dimension dim="2">kpoint</dimension>
    <dimension dim="3">spin</dimension>
    <field>eigene</field>
    <field>occ</field>
    <set>
     <set comment="spin 1">
      <set comment="kpoint 1">
       <r>  -30.4704    1.0000 </r>
       <r>  -30.4701    1.0000 </r>
       <r>  -30.4696    1.0000 </r>
       <r>  -30.4693    1.0000 </r>
       <r>  -23.8005    1.0000 </r>
       <r>  -23.7980    1.0000 </r>
       <r>  -23.7970    1.0000 </r>
       <r>  -23.7955    1.0000 </r>
       <r>  -23.7946    1.0000 </r>
       <r>  -23.7931    1.0000 </r>
       <r>  -20.2374    1.0000 </r>
       <r>  -20.2343    1.0000 </r>
       <r>   -6.9363    1.0000 </r>
       <r>   -6.9324    1.0000 </r>
       <r>    3.6984    1.0000 </r>
       <r>    3.6999    1.0000 </r>
       <r>    3.9187    1.0000 </r>
       <r>    3.9188    1.0000 </r>
       <r>    3.9351    0.0000 </r>
       <r>    3.9352    0.0000 </r>
       <r>   10.8610    0.0000 </r>
       <r>   10.8617    0.0000 </r>
       <r>   10.8637    0.0000 </r>
       <r>   10.8644    0.0000 </r>
       <r>   11.0977    0.0000 </r>
       <r>   11.0999    0.0000 </r>
       <r>   11.2852    0.0000 </r>
       <r>   11.2898    0.0000 </r>
       <r>   13.1858    0.0000 </r>
       <r>   13.1966    0.0000 </r>
       <r>   13.4913    0.0000 </r>
       <r>   13.4925    0.0000 </r>
       <r>   13.4950    0.0000 </r>
       <r>   13.4962    0.0000 </r>
       <r>   14.3277    0.0000 </r>
       <r>   14.3324    0.0000 </r>
       <r>   14.3359    0.0000 </r>
       <r>   14.3406    0.0000 </r>
       <r>   16.2270    0.0000 </r>
       <r>   16.2282    0.0000 </r>
       <r>   20.3185    0.0000 </r>
       <r>   20.3198    0.0000 </r>
       <r>   20.3203    0.0000 </r>
       <r>   20.3243    0.0000 </r>
       <r>   20.3248    0.0000 </r>
       <r>   20.3261    0.0000 </r>
       <r>   22.8984    0.0000 </r>
       <r>   22.9017    0.0000 </r>
       <r>   26.1392    0.0000 </r>
       <r>   26.1400    0.0000 </r>
       <r>   26.1463    0.0000 </r>
       <r>   26.1471    0.0000 </r>
       <r>   26.3272    0.0000 </r>
       <r>   26.3300    0.0000 </r>
       <r>   27.6619    0.0000 </r>
       <r>   27.6679    0.0000 </r>
       <r>   29.3635    0.0000 </r>
       <r>   29.3668    0.0000 </r>
       <r>   29.3686    0.0000 </r>
       <r>   29.3719    0.0000 </r>
       <r>   30.1249    0.0000 </r>
       <r>   30.1272    0.0000 </r>
       <r>   30.2905    0.0000 </r>
       <r>   30.2928    0.0000 </r>
      </set>
      <set comment="kpoint 2">
       <r>  -30.4697    1.0000 </r>
       <r>  -30.4689    1.0000 </r>
       <r>  -30.4683    1.0000 </r>
       <r>  -30.4677    1.0000 </r>
       <r>  -23.7975    1.0000 </r>
       <r>  -23.7972    1.0000 </r>
       <r>  -23.7944    1.0000 </r>
       <r>  -23.7934    1.0000 </r>
       <r>  -23.7927    1.0000 </r>
       <r>  -23.7893    1.0000 </r>
       <r>  -20.1825    1.0000 </r>
       <r>  -20.1794    1.0000 </r>
       <r>   -7.1171    1.0000 </r>
       <r>   -7.1133    1.0000 </r>
       <r>    1.5386    1.0000 </r>
       <r>    1.5484    1.0000 </r>
       <r>    3.6205    1.0000 </r>
       <r>    3.6337    1.0000 </r>
       <r>    6.0150    0.0000 </r>
       <r>    6.0170    0.0000 </r>
       <r>    9.8968    0.0000 </r>
       <r>    9.9012    0.0000 </r>
       <r>   10.8755    0.0000 </r>
       <r>   10.8768    0.0000 </r>
       <r>   11.2605    0.0000 </r>
       <r>   11.2630    0.0000 </r>
       <r>   11.5762    0.0000 </r>
       <r>   11.5786    0.0000 </r>
       <r>   12.6476    0.0000 </r>
       <r>   12.6512    0.0000 </r>
       <r>   12.8808    0.0000 </r>
       <r>   12.8863    0.0000 </r>
       <r>   15.1709    0.0000 </r>
       <r>   15.1767    0.0000 </r>
       <r>   16.8810    0.0000 </r>
       <r>   16.8875    0.0000 </r>
       <r>   17.0415    0.0000 </r>
       <r>   17.0502    0.0000 </r>
       <r>   19.0781    0.0000 </r>
       <r>   19.0842    0.0000 </r>
       <r>   19.4398    0.0000 </r>
       <r>   19.4463    0.0000 </r>
       <r>   19.5144    0.0000 </r>
       <r>   19.5160    0.0000 </r>
       <r>   20.4564    0.0000 </r>
       <r>   20.4602    0.0000 </r>
       <r>   20.5099    0.0000 </r>
       <r>   20.5146    0.0000 </r>
       <r>   24.1201    0.0000 </r>
       <r>   24.1209    0.0000 </r>
       <r>   25.2751    0.0000 </r>
       <r>   25.2812    0.0000 </r>
       <r>   25.4947    0.0000 </r>
       <r>   25.5001    0.0000 </r>
       <r>   26.7742    0.0000 </r>
       <r>   26.7794    0.0000 </r>
       <r>   27.1566    0.0000 </r>
       <r>   27.1578    0.0000 </r>
       <r>   27.9825    0.0000 </r>
       <r>   27.9849    0.0000 </r>
       <r>   30.2428    0.0000 </r>
       <r>   30.2444    0.0000 </r>
       <r>   30.6061    0.0000 </r>
       <r>   30.6134    0.0000 </r>
      </set>
      <set comment="kpoint 3">
       <r>  -30.4692    1.0000 </r>
       <r>  -30.4683    1.0000 </r>
       <r>  -30.4669    1.0000 </r>
       <r>  -30.4663    1.0000 </r>
       <r>  -23.7982    1.0000 </r>
       <r>  -23.7973    1.0000 </r>
       <r>  -23.7917    1.0000 </r>
       <r>  -23.7896    1.0000 </r>
       <r>  -23.7888    1.0000 </r>
       <r>  -23.7854    1.0000 </r>
       <r>  -20.1273    1.0000 </r>
       <r>  -20.1242    1.0000 </r>
       <r>   -7.2995    1.0000 </r>
       <r>   -7.2959    1.0000 </r>
       <r>    0.6946    1.0000 </r>
       <r>    0.7048    1.0000 </r>
       <r>    3.3601    1.0000 </r>
       <r>    3.3724    1.0000 </r>
       <r>    6.1988    0.0000 </r>
       <r>    6.2005    0.0000 </r>
       <r>   10.2990    0.0000 </r>
       <r>   10.3019    0.0000 </r>
       <r>   10.5010    0.0000 </r>
       <r>   10.5034    0.0000 </r>
       <r>   10.7021    0.0000 </r>
       <r>   10.7055    0.0000 </r>
       <r>   12.0725    0.0000 </r>
       <r>   12.0743    0.0000 </r>
       <r>   14.6540    0.0000 </r>
       <r>   14.6544    0.0000 </r>
       <r>   14.7423    0.0000 </r>
       <r>   14.7458    0.0000 </r>
       <r>   16.0787    0.0000 </r>
       <r>   16.0823    0.0000 </r>
       <r>   17.0711    0.0000 </r>
       <r>   17.0719    0.0000 </r>
       <r>   17.2389    0.0000 </r>
       <r>   17.2464    0.0000 </r>
       <r>   18.4770    0.0000 </r>
       <r>   18.4841    0.0000 </r>
       <r>   18.9717    0.0000 </r>
       <r>   18.9816    0.0000 </r>
       <r>   19.0278    0.0000 </r>
       <r>   19.0345    0.0000 </r>
       <r>   20.6010    0.0000 </r>
       <r>   20.6049    0.0000 </r>
       <r>   23.1994    0.0000 </r>
       <r>   23.2037    0.0000 </r>
       <r>   23.9377    0.0000 </r>
       <r>   23.9419    0.0000 </r>
       <r>   25.2446    0.0000 </r>
       <r>   25.2458    0.0000 </r>
       <r>   25.4363    0.0000 </r>
       <r>   25.4394    0.0000 </r>
       <r>   25.4880    0.0000 </r>
       <r>   25.4910    0.0000 </r>
       <r>   26.9670    0.0000 </r>
       <r>   26.9688    0.0000 </r>
       <r>   27.1921    0.0000 </r>
       <r>   27.1958    0.0000 </r>
       <r>   28.2767    0.0000 </r>
       <r>   28.2784    0.0000 </r>
       <r>   29.4063    0.0000 </r>
       <r>   29.4093    0.0000 </r>
      </set>
      <set comment="kpoint 4">
       <r>  -30.4697    1.0000 </r>
       <r>  -30.4689    1.0000 </r>
       <r>  -30.4683    1.0000 </r>
       <r>  -30.4677    1.0000 </r>
       <r>  -23.7975    1.0000 </r>
       <r>  -23.7972    1.0000 </r>
       <r>  -23.7944    1.0000 </r>
       <r>  -23.7934    1.0000 </r>
       <r>  -23.7927    1.0000 </r>
       <r>  -23.7893    1.0000 </r>
       <r>  -20.1825    1.0000 </r>
       <r>  -20.1794    1.0000 </r>
       <r>   -7.1171    1.0000 </r>
       <r>   -7.1133    1.0000 </r>
       <r>    1.5386    1.0000 </r>
       <r>    1.5484    1.0000 </r>
       <r>    3.6205    1.0000 </r>
       <r>    3.6337    1.0000 </r>
       <r>    6.0150    0.0000 </r>
       <r>    6.0170    0.0000 </r>
       <r>    9.8968    0.0000 </r>
       <r>    9.9012    0.0000 </r>
       <r>   10.8755    0.0000 </r>
       <r>   10.8768    0.0000 </r>
       <r>   11.2605    0.0000 </r>
       <r>   11.2630    0.0000 </r>
       <r>   11.5762    0.0000 </r>
       <r>   11.5786    0.0000 </r>
       <r>   12.6476    0.0000 </r>
       <r>   12.6512    0.0000 </r>
       <r>   12.8808    0.0000 </r>
       <r>   12.8863    0.0000 </r>
       <r>   15.1709    0.0000 </r>
       <r>   15.1767    0.0000 </r>
       <r>   16.8810    0.0000 </r>
       <r>   16.8875    0.0000 </r>
       <r>   17.0415    0.0000 </r>
       <r>   17.0502    0.0000 </r>
       <r>   19.0781    0.0000 </r>
       <r>   19.0842    0.0000 </r>
       <r>   19.4398    0.0000 </r>
       <r>   19.4463    0.0000 </r>
       <r>   19.5144    0.0000 </r>
       <r>   19.5160    0.0000 </r>
       <r>   20.4564    0.0000 </r>
       <r>   20.4602    0.0000 </r>
       <r>   20.5099    0.0000 </r>
       <r>   20.5146    0.0000 </r>
       <r>   24.1201    0.0000 </r>
       <r>   24.1209    0.0000 </r>
       <r>   25.2751    0.0000 </r>
       <r>   25.2812    0.0000 </r>
       <r>   25.4947    0.0000 </r>
       <r>   25.5001    0.0000 </r>
       <r>   26.7742    0.0000 </r>
       <r>   26.7794    0.0000 </r>
       <r>   27.1566    0.0000 </r>
       <r>   27.1578    0.0000 </r>
       <r>   27.9825    0.0000 </r>
       <r>   27.9849    0.0000 </r>
       <r>   30.2428    0.0000 </r>
       <r>   30.2444    0.0000 </r>
       <r>   30.6061    0.0000 </r>
       <r>   30.6134    0.0000 </r>
      </set>
      <set comment="kpoint 5">
       <r>  -30.4694    1.0000 </r>
       <r>  -30.4693    1.0000 </r>
       <r>  -30.4682    1.0000 </r>
       <r>  -30.4677    1.0000 </r>
       <r>  -23.7977    1.0000 </r>
       <r>  -23.7976    1.0000 </r>
       <r>  -23.7938    1.0000 </r>
       <r>  -23.7938    1.0000 </r>
       <r>  -23.7910    1.0000 </r>
       <r>  -23.7906    1.0000 </r>
       <r>  -20.1825    1.0000 </r>
       <r>  -20.1794    1.0000 </r>
       <r>   -7.1171    1.0000 </r>
       <r>   -7.1133    1.0000 </r>
       <r>    1.5429    1.0000 </r>
       <r>    1.5442    1.0000 </r>
       <r>    3.6262    1.0000 </r>
       <r>    3.6281    1.0000 </r>
       <r>    6.0149    0.0000 </r>
       <r>    6.0171    0.0000 </r>
       <r>    9.8988    0.0000 </r>
       <r>    9.8992    0.0000 </r>
       <r>   10.8761    0.0000 </r>
       <r>   10.8762    0.0000 </r>
       <r>   11.2595    0.0000 </r>
       <r>   11.2639    0.0000 </r>
       <r>   11.5755    0.0000 </r>
       <r>   11.5793    0.0000 </r>
       <r>   12.6493    0.0000 </r>
       <r>   12.6496    0.0000 </r>
       <r>   12.8833    0.0000 </r>
       <r>   12.8838    0.0000 </r>
       <r>   15.1731    0.0000 </r>
       <r>   15.1745    0.0000 </r>
       <r>   16.8797    0.0000 </r>
       <r>   16.8888    0.0000 </r>
       <r>   17.0455    0.0000 </r>
       <r>   17.0463    0.0000 </r>
       <r>   19.0807    0.0000 </r>
       <r>   19.0816    0.0000 </r>
       <r>   19.4427    0.0000 </r>
       <r>   19.4435    0.0000 </r>
       <r>   19.5138    0.0000 </r>
       <r>   19.5165    0.0000 </r>
       <r>   20.4554    0.0000 </r>
       <r>   20.4613    0.0000 </r>
       <r>   20.5118    0.0000 </r>
       <r>   20.5127    0.0000 </r>
       <r>   24.1191    0.0000 </r>
       <r>   24.1218    0.0000 </r>
       <r>   25.2780    0.0000 </r>
       <r>   25.2782    0.0000 </r>
       <r>   25.4967    0.0000 </r>
       <r>   25.4981    0.0000 </r>
       <r>   26.7747    0.0000 </r>
       <r>   26.7789    0.0000 </r>
       <r>   27.1563    0.0000 </r>
       <r>   27.1582    0.0000 </r>
       <r>   27.9834    0.0000 </r>
       <r>   27.9840    0.0000 </r>
       <r>   30.2426    0.0000 </r>
       <r>   30.2446    0.0000 </r>
       <r>   30.6092    0.0000 </r>
       <r>   30.6104    0.0000 </r>
      </set>
      <set comment="kpoint 6">
       <r>  -30.4692    1.0000 </r>
       <r>  -30.4684    1.0000 </r>
       <r>  -30.4682    1.0000 </r>
       <r>  -30.4677    1.0000 </r>
       <r>  -23.7983    1.0000 </r>
       <r>  -23.7957    1.0000 </r>
       <r>  -23.7943    1.0000 </r>
       <r>  -23.7924    1.0000 </r>
       <r>  -23.7907    1.0000 </r>
       <r>  -23.7886    1.0000 </r>
       <r>  -20.1652    1.0000 </r>
       <r>  -20.1621    1.0000 </r>
       <r>   -7.1682    1.0000 </r>
       <r>   -7.1645    1.0000 </r>
       <r>    1.4568    1.0000 </r>
       <r>    1.4678    1.0000 </r>
       <r>    2.9808    1.0000 </r>
       <r>    2.9952    1.0000 </r>
       <r>    6.8435    0.0000 </r>
       <r>    6.8459    0.0000 </r>
       <r>    8.5573    0.0000 </r>
       <r>    8.5610    0.0000 </r>
       <r>    9.7583    0.0000 </r>
       <r>    9.7639    0.0000 </r>
       <r>   11.9072    0.0000 </r>
       <r>   11.9124    0.0000 </r>
       <r>   12.9290    0.0000 </r>
       <r>   12.9328    0.0000 </r>
       <r>   14.6684    0.0000 </r>
       <r>   14.6745    0.0000 </r>
       <r>   15.0517    0.0000 </r>
       <r>   15.0594    0.0000 </r>
       <r>   15.0822    0.0000 </r>
       <r>   15.0833    0.0000 </r>
       <r>   15.1055    0.0000 </r>
       <r>   15.1094    0.0000 </r>
       <r>   16.3595    0.0000 </r>
       <r>   16.3669    0.0000 </r>
       <r>   19.0548    0.0000 </r>
       <r>   19.0624    0.0000 </r>
       <r>   19.4458    0.0000 </r>
       <r>   19.4473    0.0000 </r>
       <r>   20.0385    0.0000 </r>
       <r>   20.0405    0.0000 </r>
       <r>   20.0646    0.0000 </r>
       <r>   20.0669    0.0000 </r>
       <r>   20.9227    0.0000 </r>
       <r>   20.9273    0.0000 </r>
       <r>   23.9124    0.0000 </r>
       <r>   23.9173    0.0000 </r>
       <r>   25.0430    0.0000 </r>
       <r>   25.0457    0.0000 </r>
       <r>   25.2397    0.0000 </r>
       <r>   25.2472    0.0000 </r>
       <r>   25.4458    0.0000 </r>
       <r>   25.4514    0.0000 </r>
       <r>   25.4847    0.0000 </r>
       <r>   25.4874    0.0000 </r>
       <r>   27.6170    0.0000 </r>
       <r>   27.6215    0.0000 </r>
       <r>   30.2581    0.0000 </r>
       <r>   30.2619    0.0000 </r>
       <r>   30.6470    0.0000 </r>
       <r>   30.6487    0.0000 </r>
      </set>
      <set comment="kpoint 7">
       <r>  -30.4684    1.0000 </r>
       <r>  -30.4675    1.0000 </r>
       <r>  -30.4670    1.0000 </r>
       <r>  -30.4663    1.0000 </r>
       <r>  -23.7963    1.0000 </r>
       <r>  -23.7947    1.0000 </r>
       <r>  -23.7919    1.0000 </r>
       <r>  -23.7904    1.0000 </r>
       <r>  -23.7877    1.0000 </r>
       <r>  -23.7853    1.0000 </r>
       <r>  -20.1095    1.0000 </r>
       <r>  -20.1064    1.0000 </r>
       <r>   -7.3362    1.0000 </r>
       <r>   -7.3326    1.0000 </r>
       <r>    0.8206    1.0000 </r>
       <r>    0.8314    1.0000 </r>
       <r>    2.2976    1.0000 </r>
       <r>    2.3093    1.0000 </r>
       <r>    7.2663    0.0000 </r>
       <r>    7.2703    0.0000 </r>
       <r>    8.7509    0.0000 </r>
       <r>    8.7546    0.0000 </r>
       <r>   10.2079    0.0000 </r>
       <r>   10.2118    0.0000 </r>
       <r>   11.8879    0.0000 </r>
       <r>   11.8919    0.0000 </r>
       <r>   13.4246    0.0000 </r>
       <r>   13.4269    0.0000 </r>
       <r>   14.7127    0.0000 </r>
       <r>   14.7158    0.0000 </r>
       <r>   14.9905    0.0000 </r>
       <r>   14.9932    0.0000 </r>
       <r>   16.8818    0.0000 </r>
       <r>   16.8884    0.0000 </r>
       <r>   17.4130    0.0000 </r>
       <r>   17.4173    0.0000 </r>
       <r>   18.1043    0.0000 </r>
       <r>   18.1101    0.0000 </r>
       <r>   18.4453    0.0000 </r>
       <r>   18.4522    0.0000 </r>
       <r>   18.5433    0.0000 </r>
       <r>   18.5486    0.0000 </r>
       <r>   19.9375    0.0000 </r>
       <r>   19.9400    0.0000 </r>
       <r>   20.3893    0.0000 </r>
       <r>   20.3918    0.0000 </r>
       <r>   21.8835    0.0000 </r>
       <r>   21.8851    0.0000 </r>
       <r>   23.1343    0.0000 </r>
       <r>   23.1381    0.0000 </r>
       <r>   24.1704    0.0000 </r>
       <r>   24.1727    0.0000 </r>
       <r>   24.5575    0.0000 </r>
       <r>   24.5599    0.0000 </r>
       <r>   24.9382    0.0000 </r>
       <r>   24.9397    0.0000 </r>
       <r>   25.2966    0.0000 </r>
       <r>   25.3023    0.0000 </r>
       <r>   27.5673    0.0000 </r>
       <r>   27.5708    0.0000 </r>
       <r>   27.9198    0.0000 </r>
       <r>   27.9223    0.0000 </r>
       <r>   29.0583    0.0000 </r>
       <r>   29.0603    0.0000 </r>
      </set>
      <set comment="kpoint 8">
       <r>  -30.4687    1.0000 </r>
       <r>  -30.4681    1.0000 </r>
       <r>  -30.4671    1.0000 </r>
       <r>  -30.4666    1.0000 </r>
       <r>  -23.7958    1.0000 </r>
       <r>  -23.7944    1.0000 </r>
       <r>  -23.7930    1.0000 </r>
       <r>  -23.7909    1.0000 </r>
       <r>  -23.7893    1.0000 </r>
       <r>  -23.7875    1.0000 </r>
       <r>  -20.1275    1.0000 </r>
       <r>  -20.1244    1.0000 </r>
       <r>   -7.2842    1.0000 </r>
       <r>   -7.2805    1.0000 </r>
       <r>    0.9283    1.0000 </r>
       <r>    0.9365    1.0000 </r>
       <r>    2.5558    1.0000 </r>
       <r>    2.5653    1.0000 </r>
       <r>    7.6506    0.0000 </r>
       <r>    7.6544    0.0000 </r>
       <r>    8.8311    0.0000 </r>
       <r>    8.8333    0.0000 </r>
       <r>   10.2228    0.0000 </r>
       <r>   10.2259    0.0000 </r>
       <r>   11.5101    0.0000 </r>
       <r>   11.5169    0.0000 </r>
       <r>   12.4414    0.0000 </r>
       <r>   12.4439    0.0000 </r>
       <r>   13.7760    0.0000 </r>
       <r>   13.7810    0.0000 </r>
       <r>   14.9648    0.0000 </r>
       <r>   14.9679    0.0000 </r>
       <r>   15.4496    0.0000 </r>
       <r>   15.4529    0.0000 </r>
       <r>   17.7013    0.0000 </r>
       <r>   17.7055    0.0000 </r>
       <r>   17.9890    0.0000 </r>
       <r>   17.9931    0.0000 </r>
       <r>   18.9099    0.0000 </r>
       <r>   18.9173    0.0000 </r>
       <r>   19.2873    0.0000 </r>
       <r>   19.2902    0.0000 </r>
       <r>   20.0722    0.0000 </r>
       <r>   20.0762    0.0000 </r>
       <r>   20.3382    0.0000 </r>
       <r>   20.3421    0.0000 </r>
       <r>   21.8446    0.0000 </r>
       <r>   21.8466    0.0000 </r>
       <r>   22.9384    0.0000 </r>
       <r>   22.9406    0.0000 </r>
       <r>   24.6926    0.0000 </r>
       <r>   24.6974    0.0000 </r>
       <r>   25.1793    0.0000 </r>
       <r>   25.1816    0.0000 </r>
       <r>   25.9547    0.0000 </r>
       <r>   25.9559    0.0000 </r>
       <r>   26.9461    0.0000 </r>
       <r>   26.9493    0.0000 </r>
       <r>   27.0706    0.0000 </r>
       <r>   27.0746    0.0000 </r>
       <r>   27.1865    0.0000 </r>
       <r>   27.1876    0.0000 </r>
       <r>   28.2964    0.0000 </r>
       <r>   28.3002    0.0000 </r>
      </set>
      <set comment="kpoint 9">
       <r>  -30.4688    1.0000 </r>
       <r>  -30.4688    1.0000 </r>
       <r>  -30.4668    1.0000 </r>
       <r>  -30.4663    1.0000 </r>
       <r>  -23.7986    1.0000 </r>
       <r>  -23.7972    1.0000 </r>
       <r>  -23.7912    1.0000 </r>
       <r>  -23.7899    1.0000 </r>
       <r>  -23.7872    1.0000 </r>
       <r>  -23.7868    1.0000 </r>
       <r>  -20.1273    1.0000 </r>
       <r>  -20.1242    1.0000 </r>
       <r>   -7.2996    1.0000 </r>
       <r>   -7.2958    1.0000 </r>
       <r>    0.6988    1.0000 </r>
       <r>    0.7005    1.0000 </r>
       <r>    3.3653    1.0000 </r>
       <r>    3.3671    1.0000 </r>
       <r>    6.1982    0.0000 </r>
       <r>    6.2011    0.0000 </r>
       <r>   10.3004    0.0000 </r>
       <r>   10.3005    0.0000 </r>
       <r>   10.5005    0.0000 </r>
       <r>   10.5038    0.0000 </r>
       <r>   10.7003    0.0000 </r>
       <r>   10.7073    0.0000 </r>
       <r>   12.0729    0.0000 </r>
       <r>   12.0739    0.0000 </r>
       <r>   14.6537    0.0000 </r>
       <r>   14.6548    0.0000 </r>
       <r>   14.7438    0.0000 </r>
       <r>   14.7444    0.0000 </r>
       <r>   16.0793    0.0000 </r>
       <r>   16.0817    0.0000 </r>
       <r>   17.0710    0.0000 </r>
       <r>   17.0718    0.0000 </r>
       <r>   17.2424    0.0000 </r>
       <r>   17.2431    0.0000 </r>
       <r>   18.4792    0.0000 </r>
       <r>   18.4819    0.0000 </r>
       <r>   18.9761    0.0000 </r>
       <r>   18.9770    0.0000 </r>
       <r>   19.0271    0.0000 </r>
       <r>   19.0353    0.0000 </r>
       <r>   20.5999    0.0000 </r>
       <r>   20.6059    0.0000 </r>
       <r>   23.1992    0.0000 </r>
       <r>   23.2039    0.0000 </r>
       <r>   23.9388    0.0000 </r>
       <r>   23.9408    0.0000 </r>
       <r>   25.2451    0.0000 </r>
       <r>   25.2454    0.0000 </r>
       <r>   25.4367    0.0000 </r>
       <r>   25.4389    0.0000 </r>
       <r>   25.4892    0.0000 </r>
       <r>   25.4898    0.0000 </r>
       <r>   26.9665    0.0000 </r>
       <r>   26.9692    0.0000 </r>
       <r>   27.1937    0.0000 </r>
       <r>   27.1941    0.0000 </r>
       <r>   28.2767    0.0000 </r>
       <r>   28.2784    0.0000 </r>
       <r>   29.4064    0.0000 </r>
       <r>   29.4092    0.0000 </r>
      </set>
      <set comment="kpoint 10">
       <r>  -30.4683    1.0000 </r>
       <r>  -30.4678    1.0000 </r>
       <r>  -30.4668    1.0000 </r>
       <r>  -30.4664    1.0000 </r>
       <r>  -23.7967    1.0000 </r>
       <r>  -23.7946    1.0000 </r>
       <r>  -23.7915    1.0000 </r>
       <r>  -23.7905    1.0000 </r>
       <r>  -23.7873    1.0000 </r>
       <r>  -23.7859    1.0000 </r>
       <r>  -20.1095    1.0000 </r>
       <r>  -20.1064    1.0000 </r>
       <r>   -7.3362    1.0000 </r>
       <r>   -7.3325    1.0000 </r>
       <r>    0.8222    1.0000 </r>
       <r>    0.8298    1.0000 </r>
       <r>    2.2993    1.0000 </r>
       <r>    2.3076    1.0000 </r>
       <r>    7.2666    0.0000 </r>
       <r>    7.2699    0.0000 </r>
       <r>    8.7517    0.0000 </r>
       <r>    8.7538    0.0000 </r>
       <r>   10.2094    0.0000 </r>
       <r>   10.2103    0.0000 </r>
       <r>   11.8881    0.0000 </r>
       <r>   11.8917    0.0000 </r>
       <r>   13.4253    0.0000 </r>
       <r>   13.4262    0.0000 </r>
       <r>   14.7129    0.0000 </r>
       <r>   14.7156    0.0000 </r>
       <r>   14.9902    0.0000 </r>
       <r>   14.9935    0.0000 </r>
       <r>   16.8832    0.0000 </r>
       <r>   16.8870    0.0000 </r>
       <r>   17.4123    0.0000 </r>
       <r>   17.4180    0.0000 </r>
       <r>   18.1052    0.0000 </r>
       <r>   18.1092    0.0000 </r>
       <r>   18.4457    0.0000 </r>
       <r>   18.4517    0.0000 </r>
       <r>   18.5429    0.0000 </r>
       <r>   18.5490    0.0000 </r>
       <r>   19.9362    0.0000 </r>
       <r>   19.9414    0.0000 </r>
       <r>   20.3881    0.0000 </r>
       <r>   20.3931    0.0000 </r>
       <r>   21.8833    0.0000 </r>
       <r>   21.8852    0.0000 </r>
       <r>   23.1346    0.0000 </r>
       <r>   23.1378    0.0000 </r>
       <r>   24.1704    0.0000 </r>
       <r>   24.1727    0.0000 </r>
       <r>   24.5568    0.0000 </r>
       <r>   24.5606    0.0000 </r>
       <r>   24.9367    0.0000 </r>
       <r>   24.9412    0.0000 </r>
       <r>   25.2986    0.0000 </r>
       <r>   25.3003    0.0000 </r>
       <r>   27.5673    0.0000 </r>
       <r>   27.5708    0.0000 </r>
       <r>   27.9204    0.0000 </r>
       <r>   27.9217    0.0000 </r>
       <r>   29.0574    0.0000 </r>
       <r>   29.0612    0.0000 </r>
      </set>
      <set comment="kpoint 11">
       <r>  -30.4680    1.0000 </r>
       <r>  -30.4671    1.0000 </r>
       <r>  -30.4664    1.0000 </r>
       <r>  -30.4658    1.0000 </r>
       <r>  -23.7977    1.0000 </r>
       <r>  -23.7951    1.0000 </r>
       <r>  -23.7925    1.0000 </r>
       <r>  -23.7906    1.0000 </r>
       <r>  -23.7839    1.0000 </r>
       <r>  -23.7818    1.0000 </r>
       <r>  -20.0903    1.0000 </r>
       <r>  -20.0872    1.0000 </r>
       <r>   -7.3843    1.0000 </r>
       <r>   -7.3808    1.0000 </r>
       <r>    0.7304    1.0000 </r>
       <r>    0.7427    1.0000 </r>
       <r>    2.2782    1.0000 </r>
       <r>    2.2917    1.0000 </r>
       <r>    6.3119    0.0000 </r>
       <r>    6.3145    0.0000 </r>
       <r>    7.7278    0.0000 </r>
       <r>    7.7314    0.0000 </r>
       <r>   10.8628    0.0000 </r>
       <r>   10.8655    0.0000 </r>
       <r>   15.0088    0.0000 </r>
       <r>   15.0152    0.0000 </r>
       <r>   15.0571    0.0000 </r>
       <r>   15.0637    0.0000 </r>
       <r>   15.3663    0.0000 </r>
       <r>   15.3734    0.0000 </r>
       <r>   15.4693    0.0000 </r>
       <r>   15.4727    0.0000 </r>
       <r>   17.4682    0.0000 </r>
       <r>   17.4799    0.0000 </r>
       <r>   17.8151    0.0000 </r>
       <r>   17.8231    0.0000 </r>
       <r>   17.8600    0.0000 </r>
       <r>   17.8683    0.0000 </r>
       <r>   18.0313    0.0000 </r>
       <r>   18.0337    0.0000 </r>
       <r>   18.3992    0.0000 </r>
       <r>   18.4036    0.0000 </r>
       <r>   18.5924    0.0000 </r>
       <r>   18.6023    0.0000 </r>
       <r>   18.6297    0.0000 </r>
       <r>   18.6346    0.0000 </r>
       <r>   22.0228    0.0000 </r>
       <r>   22.0277    0.0000 </r>
       <r>   22.8429    0.0000 </r>
       <r>   22.8508    0.0000 </r>
       <r>   22.9022    0.0000 </r>
       <r>   22.9088    0.0000 </r>
       <r>   23.0341    0.0000 </r>
       <r>   23.0409    0.0000 </r>
       <r>   23.3417    0.0000 </r>
       <r>   23.3443    0.0000 </r>
       <r>   24.3271    0.0000 </r>
       <r>   24.3329    0.0000 </r>
       <r>   27.0501    0.0000 </r>
       <r>   27.0533    0.0000 </r>
       <r>   29.3922    0.0000 </r>
       <r>   29.3935    0.0000 </r>
       <r>   29.7868    0.0000 </r>
       <r>   29.7904    0.0000 </r>
      </set>
      <set comment="kpoint 12">
       <r>  -30.4683    1.0000 </r>
       <r>  -30.4678    1.0000 </r>
       <r>  -30.4668    1.0000 </r>
       <r>  -30.4664    1.0000 </r>
       <r>  -23.7967    1.0000 </r>
       <r>  -23.7946    1.0000 </r>
       <r>  -23.7915    1.0000 </r>
       <r>  -23.7905    1.0000 </r>
       <r>  -23.7873    1.0000 </r>
       <r>  -23.7859    1.0000 </r>
       <r>  -20.1095    1.0000 </r>
       <r>  -20.1064    1.0000 </r>
       <r>   -7.3362    1.0000 </r>
       <r>   -7.3325    1.0000 </r>
       <r>    0.8222    1.0000 </r>
       <r>    0.8298    1.0000 </r>
       <r>    2.2993    1.0000 </r>
       <r>    2.3076    1.0000 </r>
       <r>    7.2666    0.0000 </r>
       <r>    7.2699    0.0000 </r>
       <r>    8.7517    0.0000 </r>
       <r>    8.7537    0.0000 </r>
       <r>   10.2094    0.0000 </r>
       <r>   10.2103    0.0000 </r>
       <r>   11.8881    0.0000 </r>
       <r>   11.8916    0.0000 </r>
       <r>   13.4253    0.0000 </r>
       <r>   13.4262    0.0000 </r>
       <r>   14.7129    0.0000 </r>
       <r>   14.7156    0.0000 </r>
       <r>   14.9902    0.0000 </r>
       <r>   14.9935    0.0000 </r>
       <r>   16.8832    0.0000 </r>
       <r>   16.8870    0.0000 </r>
       <r>   17.4123    0.0000 </r>
       <r>   17.4180    0.0000 </r>
       <r>   18.1052    0.0000 </r>
       <r>   18.1092    0.0000 </r>
       <r>   18.4457    0.0000 </r>
       <r>   18.4517    0.0000 </r>
       <r>   18.5429    0.0000 </r>
       <r>   18.5490    0.0000 </r>
       <r>   19.9362    0.0000 </r>
       <r>   19.9414    0.0000 </r>
       <r>   20.3881    0.0000 </r>
       <r>   20.3931    0.0000 </r>
       <r>   21.8833    0.0000 </r>
       <r>   21.8852    0.0000 </r>
       <r>   23.1346    0.0000 </r>
       <r>   23.1377    0.0000 </r>
       <r>   24.1704    0.0000 </r>
       <r>   24.1727    0.0000 </r>
       <r>   24.5568    0.0000 </r>
       <r>   24.5606    0.0000 </r>
       <r>   24.9367    0.0000 </r>
       <r>   24.9412    0.0000 </r>
       <r>   25.2986    0.0000 </r>
       <r>   25.3003    0.0000 </r>
       <r>   27.5673    0.0000 </r>
       <r>   27.5708    0.0000 </r>
       <r>   27.9204    0.0000 </r>
       <r>   27.9217    0.0000 </r>
       <r>   29.0574    0.0000 </r>
       <r>   29.0612    0.0000 </r>
      </set>
      <set comment="kpoint 13">
       <r>  -30.4694    1.0000 </r>
       <r>  -30.4693    1.0000 </r>
       <r>  -30.4682    1.0000 </r>
       <r>  -30.4677    1.0000 </r>
       <r>  -23.7977    1.0000 </r>
       <r>  -23.7976    1.0000 </r>
       <r>  -23.7938    1.0000 </r>
       <r>  -23.7938    1.0000 </r>
       <r>  -23.7910    1.0000 </r>
       <r>  -23.7906    1.0000 </r>
       <r>  -20.1825    1.0000 </r>
       <r>  -20.1794    1.0000 </r>
       <r>   -7.1171    1.0000 </r>
       <r>   -7.1133    1.0000 </r>
       <r>    1.5429    1.0000 </r>
       <r>    1.5442    1.0000 </r>
       <r>    3.6262    1.0000 </r>
       <r>    3.6281    1.0000 </r>
       <r>    6.0149    0.0000 </r>
       <r>    6.0171    0.0000 </r>
       <r>    9.8988    0.0000 </r>
       <r>    9.8992    0.0000 </r>
       <r>   10.8761    0.0000 </r>
       <r>   10.8762    0.0000 </r>
       <r>   11.2595    0.0000 </r>
       <r>   11.2639    0.0000 </r>
       <r>   11.5755    0.0000 </r>
       <r>   11.5793    0.0000 </r>
       <r>   12.6493    0.0000 </r>
       <r>   12.6496    0.0000 </r>
       <r>   12.8833    0.0000 </r>
       <r>   12.8838    0.0000 </r>
       <r>   15.1731    0.0000 </r>
       <r>   15.1745    0.0000 </r>
       <r>   16.8797    0.0000 </r>
       <r>   16.8888    0.0000 </r>
       <r>   17.0455    0.0000 </r>
       <r>   17.0463    0.0000 </r>
       <r>   19.0807    0.0000 </r>
       <r>   19.0816    0.0000 </r>
       <r>   19.4427    0.0000 </r>
       <r>   19.4435    0.0000 </r>
       <r>   19.5138    0.0000 </r>
       <r>   19.5165    0.0000 </r>
       <r>   20.4554    0.0000 </r>
       <r>   20.4613    0.0000 </r>
       <r>   20.5118    0.0000 </r>
       <r>   20.5127    0.0000 </r>
       <r>   24.1191    0.0000 </r>
       <r>   24.1218    0.0000 </r>
       <r>   25.2780    0.0000 </r>
       <r>   25.2782    0.0000 </r>
       <r>   25.4967    0.0000 </r>
       <r>   25.4981    0.0000 </r>
       <r>   26.7747    0.0000 </r>
       <r>   26.7789    0.0000 </r>
       <r>   27.1563    0.0000 </r>
       <r>   27.1582    0.0000 </r>
       <r>   27.9834    0.0000 </r>
       <r>   27.9840    0.0000 </r>
       <r>   30.2426    0.0000 </r>
       <r>   30.2446    0.0000 </r>
       <r>   30.6092    0.0000 </r>
       <r>   30.6104    0.0000 </r>
      </set>
      <set comment="kpoint 14">
       <r>  -30.4687    1.0000 </r>
       <r>  -30.4681    1.0000 </r>
       <r>  -30.4671    1.0000 </r>
       <r>  -30.4666    1.0000 </r>
       <r>  -23.7958    1.0000 </r>
       <r>  -23.7944    1.0000 </r>
       <r>  -23.7930    1.0000 </r>
       <r>  -23.7909    1.0000 </r>
       <r>  -23.7893    1.0000 </r>
       <r>  -23.7875    1.0000 </r>
       <r>  -20.1275    1.0000 </r>
       <r>  -20.1244    1.0000 </r>
       <r>   -7.2842    1.0000 </r>
       <r>   -7.2805    1.0000 </r>
       <r>    0.9282    1.0000 </r>
       <r>    0.9365    1.0000 </r>
       <r>    2.5558    1.0000 </r>
       <r>    2.5653    1.0000 </r>
       <r>    7.6506    0.0000 </r>
       <r>    7.6544    0.0000 </r>
       <r>    8.8311    0.0000 </r>
       <r>    8.8333    0.0000 </r>
       <r>   10.2228    0.0000 </r>
       <r>   10.2259    0.0000 </r>
       <r>   11.5101    0.0000 </r>
       <r>   11.5169    0.0000 </r>
       <r>   12.4414    0.0000 </r>
       <r>   12.4440    0.0000 </r>
       <r>   13.7760    0.0000 </r>
       <r>   13.7810    0.0000 </r>
       <r>   14.9648    0.0000 </r>
       <r>   14.9679    0.0000 </r>
       <r>   15.4496    0.0000 </r>
       <r>   15.4529    0.0000 </r>
       <r>   17.7013    0.0000 </r>
       <r>   17.7055    0.0000 </r>
       <r>   17.9890    0.0000 </r>
       <r>   17.9931    0.0000 </r>
       <r>   18.9099    0.0000 </r>
       <r>   18.9173    0.0000 </r>
       <r>   19.2873    0.0000 </r>
       <r>   19.2902    0.0000 </r>
       <r>   20.0722    0.0000 </r>
       <r>   20.0762    0.0000 </r>
       <r>   20.3382    0.0000 </r>
       <r>   20.3421    0.0000 </r>
       <r>   21.8446    0.0000 </r>
       <r>   21.8466    0.0000 </r>
       <r>   22.9384    0.0000 </r>
       <r>   22.9406    0.0000 </r>
       <r>   24.6926    0.0000 </r>
       <r>   24.6973    0.0000 </r>
       <r>   25.1793    0.0000 </r>
       <r>   25.1816    0.0000 </r>
       <r>   25.9547    0.0000 </r>
       <r>   25.9559    0.0000 </r>
       <r>   26.9461    0.0000 </r>
       <r>   26.9493    0.0000 </r>
       <r>   27.0706    0.0000 </r>
       <r>   27.0746    0.0000 </r>
       <r>   27.1865    0.0000 </r>
       <r>   27.1877    0.0000 </r>
       <r>   28.2964    0.0000 </r>
       <r>   28.3002    0.0000 </r>
      </set>
      <set comment="kpoint 15">
       <r>  -30.4684    1.0000 </r>
       <r>  -30.4675    1.0000 </r>
       <r>  -30.4670    1.0000 </r>
       <r>  -30.4663    1.0000 </r>
       <r>  -23.7963    1.0000 </r>
       <r>  -23.7947    1.0000 </r>
       <r>  -23.7919    1.0000 </r>
       <r>  -23.7904    1.0000 </r>
       <r>  -23.7877    1.0000 </r>
       <r>  -23.7853    1.0000 </r>
       <r>  -20.1095    1.0000 </r>
       <r>  -20.1064    1.0000 </r>
       <r>   -7.3362    1.0000 </r>
       <r>   -7.3326    1.0000 </r>
       <r>    0.8206    1.0000 </r>
       <r>    0.8314    1.0000 </r>
       <r>    2.2976    1.0000 </r>
       <r>    2.3093    1.0000 </r>
       <r>    7.2663    0.0000 </r>
       <r>    7.2703    0.0000 </r>
       <r>    8.7509    0.0000 </r>
       <r>    8.7546    0.0000 </r>
       <r>   10.2079    0.0000 </r>
       <r>   10.2118    0.0000 </r>
       <r>   11.8879    0.0000 </r>
       <r>   11.8919    0.0000 </r>
       <r>   13.4246    0.0000 </r>
       <r>   13.4269    0.0000 </r>
       <r>   14.7127    0.0000 </r>
       <r>   14.7158    0.0000 </r>
       <r>   14.9905    0.0000 </r>
       <r>   14.9932    0.0000 </r>
       <r>   16.8818    0.0000 </r>
       <r>   16.8884    0.0000 </r>
       <r>   17.4130    0.0000 </r>
       <r>   17.4173    0.0000 </r>
       <r>   18.1044    0.0000 </r>
       <r>   18.1101    0.0000 </r>
       <r>   18.4453    0.0000 </r>
       <r>   18.4522    0.0000 </r>
       <r>   18.5433    0.0000 </r>
       <r>   18.5486    0.0000 </r>
       <r>   19.9375    0.0000 </r>
       <r>   19.9400    0.0000 </r>
       <r>   20.3893    0.0000 </r>
       <r>   20.3918    0.0000 </r>
       <r>   21.8835    0.0000 </r>
       <r>   21.8851    0.0000 </r>
       <r>   23.1343    0.0000 </r>
       <r>   23.1381    0.0000 </r>
       <r>   24.1704    0.0000 </r>
       <r>   24.1727    0.0000 </r>
       <r>   24.5575    0.0000 </r>
       <r>   24.5599    0.0000 </r>
       <r>   24.9381    0.0000 </r>
       <r>   24.9397    0.0000 </r>
       <r>   25.2966    0.0000 </r>
       <r>   25.3023    0.0000 </r>
       <r>   27.5673    0.0000 </r>
       <r>   27.5708    0.0000 </r>
       <r>   27.9198    0.0000 </r>
       <r>   27.9223    0.0000 </r>
       <r>   29.0583    0.0000 </r>
       <r>   29.0603    0.0000 </r>
      </set>
      <set comment="kpoint 16">
       <r>  -30.4692    1.0000 </r>
       <r>  -30.4684    1.0000 </r>
       <r>  -30.4682    1.0000 </r>
       <r>  -30.4677    1.0000 </r>
       <r>  -23.7983    1.0000 </r>
       <r>  -23.7957    1.0000 </r>
       <r>  -23.7943    1.0000 </r>
       <r>  -23.7924    1.0000 </r>
       <r>  -23.7907    1.0000 </r>
       <r>  -23.7886    1.0000 </r>
       <r>  -20.1652    1.0000 </r>
       <r>  -20.1621    1.0000 </r>
       <r>   -7.1682    1.0000 </r>
       <r>   -7.1645    1.0000 </r>
       <r>    1.4568    1.0000 </r>
       <r>    1.4678    1.0000 </r>
       <r>    2.9808    1.0000 </r>
       <r>    2.9952    1.0000 </r>
       <r>    6.8435    0.0000 </r>
       <r>    6.8459    0.0000 </r>
       <r>    8.5573    0.0000 </r>
       <r>    8.5610    0.0000 </r>
       <r>    9.7583    0.0000 </r>
       <r>    9.7639    0.0000 </r>
       <r>   11.9072    0.0000 </r>
       <r>   11.9124    0.0000 </r>
       <r>   12.9290    0.0000 </r>
       <r>   12.9328    0.0000 </r>
       <r>   14.6684    0.0000 </r>
       <r>   14.6745    0.0000 </r>
       <r>   15.0517    0.0000 </r>
       <r>   15.0594    0.0000 </r>
       <r>   15.0822    0.0000 </r>
       <r>   15.0833    0.0000 </r>
       <r>   15.1055    0.0000 </r>
       <r>   15.1094    0.0000 </r>
       <r>   16.3595    0.0000 </r>
       <r>   16.3669    0.0000 </r>
       <r>   19.0548    0.0000 </r>
       <r>   19.0624    0.0000 </r>
       <r>   19.4458    0.0000 </r>
       <r>   19.4473    0.0000 </r>
       <r>   20.0385    0.0000 </r>
       <r>   20.0405    0.0000 </r>
       <r>   20.0646    0.0000 </r>
       <r>   20.0669    0.0000 </r>
       <r>   20.9227    0.0000 </r>
       <r>   20.9273    0.0000 </r>
       <r>   23.9125    0.0000 </r>
       <r>   23.9173    0.0000 </r>
       <r>   25.0430    0.0000 </r>
       <r>   25.0457    0.0000 </r>
       <r>   25.2397    0.0000 </r>
       <r>   25.2472    0.0000 </r>
       <r>   25.4458    0.0000 </r>
       <r>   25.4514    0.0000 </r>
       <r>   25.4847    0.0000 </r>
       <r>   25.4874    0.0000 </r>
       <r>   27.6170    0.0000 </r>
       <r>   27.6215    0.0000 </r>
       <r>   30.2581    0.0000 </r>
       <r>   30.2619    0.0000 </r>
       <r>   30.6470    0.0000 </r>
       <r>   30.6487    0.0000 </r>
      </set>
      <set comment="kpoint 17">
       <r>  -30.4694    1.0000 </r>
       <r>  -30.4693    1.0000 </r>
       <r>  -30.4682    1.0000 </r>
       <r>  -30.4677    1.0000 </r>
       <r>  -23.7977    1.0000 </r>
       <r>  -23.7976    1.0000 </r>
       <r>  -23.7938    1.0000 </r>
       <r>  -23.7937    1.0000 </r>
       <r>  -23.7911    1.0000 </r>
       <r>  -23.7906    1.0000 </r>
       <r>  -20.1825    1.0000 </r>
       <r>  -20.1794    1.0000 </r>
       <r>   -7.1171    1.0000 </r>
       <r>   -7.1133    1.0000 </r>
       <r>    1.5428    1.0000 </r>
       <r>    1.5442    1.0000 </r>
       <r>    3.6261    1.0000 </r>
       <r>    3.6282    1.0000 </r>
       <r>    6.0149    0.0000 </r>
       <r>    6.0171    0.0000 </r>
       <r>    9.8988    0.0000 </r>
       <r>    9.8992    0.0000 </r>
       <r>   10.8761    0.0000 </r>
       <r>   10.8762    0.0000 </r>
       <r>   11.2595    0.0000 </r>
       <r>   11.2639    0.0000 </r>
       <r>   11.5755    0.0000 </r>
       <r>   11.5793    0.0000 </r>
       <r>   12.6492    0.0000 </r>
       <r>   12.6496    0.0000 </r>
       <r>   12.8833    0.0000 </r>
       <r>   12.8839    0.0000 </r>
       <r>   15.1731    0.0000 </r>
       <r>   15.1745    0.0000 </r>
       <r>   16.8798    0.0000 </r>
       <r>   16.8888    0.0000 </r>
       <r>   17.0454    0.0000 </r>
       <r>   17.0463    0.0000 </r>
       <r>   19.0807    0.0000 </r>
       <r>   19.0816    0.0000 </r>
       <r>   19.4426    0.0000 </r>
       <r>   19.4435    0.0000 </r>
       <r>   19.5138    0.0000 </r>
       <r>   19.5165    0.0000 </r>
       <r>   20.4554    0.0000 </r>
       <r>   20.4613    0.0000 </r>
       <r>   20.5118    0.0000 </r>
       <r>   20.5127    0.0000 </r>
       <r>   24.1192    0.0000 </r>
       <r>   24.1218    0.0000 </r>
       <r>   25.2779    0.0000 </r>
       <r>   25.2783    0.0000 </r>
       <r>   25.4967    0.0000 </r>
       <r>   25.4981    0.0000 </r>
       <r>   26.7747    0.0000 </r>
       <r>   26.7789    0.0000 </r>
       <r>   27.1563    0.0000 </r>
       <r>   27.1582    0.0000 </r>
       <r>   27.9834    0.0000 </r>
       <r>   27.9840    0.0000 </r>
       <r>   30.2426    0.0000 </r>
       <r>   30.2446    0.0000 </r>
       <r>   30.6091    0.0000 </r>
       <r>   30.6104    0.0000 </r>
      </set>
      <set comment="kpoint 18">
       <r>  -30.4692    1.0000 </r>
       <r>  -30.4685    1.0000 </r>
       <r>  -30.4682    1.0000 </r>
       <r>  -30.4677    1.0000 </r>
       <r>  -23.7983    1.0000 </r>
       <r>  -23.7958    1.0000 </r>
       <r>  -23.7944    1.0000 </r>
       <r>  -23.7924    1.0000 </r>
       <r>  -23.7907    1.0000 </r>
       <r>  -23.7886    1.0000 </r>
       <r>  -20.1652    1.0000 </r>
       <r>  -20.1621    1.0000 </r>
       <r>   -7.1683    1.0000 </r>
       <r>   -7.1645    1.0000 </r>
       <r>    1.4568    1.0000 </r>
       <r>    1.4678    1.0000 </r>
       <r>    2.9808    1.0000 </r>
       <r>    2.9953    1.0000 </r>
       <r>    6.8435    0.0000 </r>
       <r>    6.8459    0.0000 </r>
       <r>    8.5574    0.0000 </r>
       <r>    8.5609    0.0000 </r>
       <r>    9.7583    0.0000 </r>
       <r>    9.7639    0.0000 </r>
       <r>   11.9072    0.0000 </r>
       <r>   11.9124    0.0000 </r>
       <r>   12.9290    0.0000 </r>
       <r>   12.9328    0.0000 </r>
       <r>   14.6685    0.0000 </r>
       <r>   14.6745    0.0000 </r>
       <r>   15.0517    0.0000 </r>
       <r>   15.0595    0.0000 </r>
       <r>   15.0822    0.0000 </r>
       <r>   15.0833    0.0000 </r>
       <r>   15.1055    0.0000 </r>
       <r>   15.1094    0.0000 </r>
       <r>   16.3595    0.0000 </r>
       <r>   16.3669    0.0000 </r>
       <r>   19.0549    0.0000 </r>
       <r>   19.0623    0.0000 </r>
       <r>   19.4457    0.0000 </r>
       <r>   19.4473    0.0000 </r>
       <r>   20.0385    0.0000 </r>
       <r>   20.0405    0.0000 </r>
       <r>   20.0647    0.0000 </r>
       <r>   20.0669    0.0000 </r>
       <r>   20.9227    0.0000 </r>
       <r>   20.9272    0.0000 </r>
       <r>   23.9125    0.0000 </r>
       <r>   23.9173    0.0000 </r>
       <r>   25.0430    0.0000 </r>
       <r>   25.0457    0.0000 </r>
       <r>   25.2398    0.0000 </r>
       <r>   25.2471    0.0000 </r>
       <r>   25.4458    0.0000 </r>
       <r>   25.4515    0.0000 </r>
       <r>   25.4847    0.0000 </r>
       <r>   25.4875    0.0000 </r>
       <r>   27.6170    0.0000 </r>
       <r>   27.6215    0.0000 </r>
       <r>   30.2582    0.0000 </r>
       <r>   30.2619    0.0000 </r>
       <r>   30.6469    0.0000 </r>
       <r>   30.6487    0.0000 </r>
      </set>
      <set comment="kpoint 19">
       <r>  -30.4684    1.0000 </r>
       <r>  -30.4675    1.0000 </r>
       <r>  -30.4670    1.0000 </r>
       <r>  -30.4663    1.0000 </r>
       <r>  -23.7963    1.0000 </r>
       <r>  -23.7947    1.0000 </r>
       <r>  -23.7920    1.0000 </r>
       <r>  -23.7904    1.0000 </r>
       <r>  -23.7877    1.0000 </r>
       <r>  -23.7853    1.0000 </r>
       <r>  -20.1095    1.0000 </r>
       <r>  -20.1064    1.0000 </r>
       <r>   -7.3362    1.0000 </r>
       <r>   -7.3326    1.0000 </r>
       <r>    0.8206    1.0000 </r>
       <r>    0.8314    1.0000 </r>
       <r>    2.2976    1.0000 </r>
       <r>    2.3093    1.0000 </r>
       <r>    7.2663    0.0000 </r>
       <r>    7.2703    0.0000 </r>
       <r>    8.7509    0.0000 </r>
       <r>    8.7546    0.0000 </r>
       <r>   10.2079    0.0000 </r>
       <r>   10.2118    0.0000 </r>
       <r>   11.8879    0.0000 </r>
       <r>   11.8919    0.0000 </r>
       <r>   13.4246    0.0000 </r>
       <r>   13.4269    0.0000 </r>
       <r>   14.7127    0.0000 </r>
       <r>   14.7158    0.0000 </r>
       <r>   14.9905    0.0000 </r>
       <r>   14.9932    0.0000 </r>
       <r>   16.8818    0.0000 </r>
       <r>   16.8884    0.0000 </r>
       <r>   17.4130    0.0000 </r>
       <r>   17.4173    0.0000 </r>
       <r>   18.1044    0.0000 </r>
       <r>   18.1101    0.0000 </r>
       <r>   18.4453    0.0000 </r>
       <r>   18.4521    0.0000 </r>
       <r>   18.5432    0.0000 </r>
       <r>   18.5486    0.0000 </r>
       <r>   19.9375    0.0000 </r>
       <r>   19.9401    0.0000 </r>
       <r>   20.3894    0.0000 </r>
       <r>   20.3918    0.0000 </r>
       <r>   21.8835    0.0000 </r>
       <r>   21.8851    0.0000 </r>
       <r>   23.1343    0.0000 </r>
       <r>   23.1381    0.0000 </r>
       <r>   24.1704    0.0000 </r>
       <r>   24.1727    0.0000 </r>
       <r>   24.5575    0.0000 </r>
       <r>   24.5599    0.0000 </r>
       <r>   24.9381    0.0000 </r>
       <r>   24.9398    0.0000 </r>
       <r>   25.2966    0.0000 </r>
       <r>   25.3022    0.0000 </r>
       <r>   27.5673    0.0000 </r>
       <r>   27.5708    0.0000 </r>
       <r>   27.9198    0.0000 </r>
       <r>   27.9223    0.0000 </r>
       <r>   29.0584    0.0000 </r>
       <r>   29.0602    0.0000 </r>
      </set>
      <set comment="kpoint 20">
       <r>  -30.4687    1.0000 </r>
       <r>  -30.4681    1.0000 </r>
       <r>  -30.4671    1.0000 </r>
       <r>  -30.4666    1.0000 </r>
       <r>  -23.7958    1.0000 </r>
       <r>  -23.7944    1.0000 </r>
       <r>  -23.7930    1.0000 </r>
       <r>  -23.7909    1.0000 </r>
       <r>  -23.7893    1.0000 </r>
       <r>  -23.7875    1.0000 </r>
       <r>  -20.1275    1.0000 </r>
       <r>  -20.1244    1.0000 </r>
       <r>   -7.2842    1.0000 </r>
       <r>   -7.2805    1.0000 </r>
       <r>    0.9283    1.0000 </r>
       <r>    0.9364    1.0000 </r>
       <r>    2.5559    1.0000 </r>
       <r>    2.5652    1.0000 </r>
       <r>    7.6506    0.0000 </r>
       <r>    7.6544    0.0000 </r>
       <r>    8.8311    0.0000 </r>
       <r>    8.8333    0.0000 </r>
       <r>   10.2228    0.0000 </r>
       <r>   10.2260    0.0000 </r>
       <r>   11.5102    0.0000 </r>
       <r>   11.5168    0.0000 </r>
       <r>   12.4414    0.0000 </r>
       <r>   12.4440    0.0000 </r>
       <r>   13.7761    0.0000 </r>
       <r>   13.7809    0.0000 </r>
       <r>   14.9648    0.0000 </r>
       <r>   14.9679    0.0000 </r>
       <r>   15.4496    0.0000 </r>
       <r>   15.4529    0.0000 </r>
       <r>   17.7013    0.0000 </r>
       <r>   17.7055    0.0000 </r>
       <r>   17.9890    0.0000 </r>
       <r>   17.9931    0.0000 </r>
       <r>   18.9100    0.0000 </r>
       <r>   18.9172    0.0000 </r>
       <r>   19.2874    0.0000 </r>
       <r>   19.2902    0.0000 </r>
       <r>   20.0722    0.0000 </r>
       <r>   20.0762    0.0000 </r>
       <r>   20.3382    0.0000 </r>
       <r>   20.3421    0.0000 </r>
       <r>   21.8446    0.0000 </r>
       <r>   21.8466    0.0000 </r>
       <r>   22.9384    0.0000 </r>
       <r>   22.9406    0.0000 </r>
       <r>   24.6926    0.0000 </r>
       <r>   24.6974    0.0000 </r>
       <r>   25.1793    0.0000 </r>
       <r>   25.1816    0.0000 </r>
       <r>   25.9547    0.0000 </r>
       <r>   25.9559    0.0000 </r>
       <r>   26.9461    0.0000 </r>
       <r>   26.9493    0.0000 </r>
       <r>   27.0707    0.0000 </r>
       <r>   27.0746    0.0000 </r>
       <r>   27.1865    0.0000 </r>
       <r>   27.1877    0.0000 </r>
       <r>   28.2965    0.0000 </r>
       <r>   28.3002    0.0000 </r>
      </set>
      <set comment="kpoint 21">
       <r>  -30.4690    1.0000 </r>
       <r>  -30.4688    1.0000 </r>
       <r>  -30.4683    1.0000 </r>
       <r>  -30.4675    1.0000 </r>
       <r>  -23.7977    1.0000 </r>
       <r>  -23.7964    1.0000 </r>
       <r>  -23.7946    1.0000 </r>
       <r>  -23.7925    1.0000 </r>
       <r>  -23.7897    1.0000 </r>
       <r>  -23.7892    1.0000 </r>
       <r>  -20.1652    1.0000 </r>
       <r>  -20.1621    1.0000 </r>
       <r>   -7.1683    1.0000 </r>
       <r>   -7.1644    1.0000 </r>
       <r>    1.4567    1.0000 </r>
       <r>    1.4678    1.0000 </r>
       <r>    2.9807    1.0000 </r>
       <r>    2.9954    1.0000 </r>
       <r>    6.8433    0.0000 </r>
       <r>    6.8461    0.0000 </r>
       <r>    8.5588    0.0000 </r>
       <r>    8.5595    0.0000 </r>
       <r>    9.7577    0.0000 </r>
       <r>    9.7644    0.0000 </r>
       <r>   11.9073    0.0000 </r>
       <r>   11.9123    0.0000 </r>
       <r>   12.9292    0.0000 </r>
       <r>   12.9326    0.0000 </r>
       <r>   14.6710    0.0000 </r>
       <r>   14.6720    0.0000 </r>
       <r>   15.0512    0.0000 </r>
       <r>   15.0600    0.0000 </r>
       <r>   15.0825    0.0000 </r>
       <r>   15.0833    0.0000 </r>
       <r>   15.1046    0.0000 </r>
       <r>   15.1101    0.0000 </r>
       <r>   16.3591    0.0000 </r>
       <r>   16.3673    0.0000 </r>
       <r>   19.0578    0.0000 </r>
       <r>   19.0594    0.0000 </r>
       <r>   19.4459    0.0000 </r>
       <r>   19.4471    0.0000 </r>
       <r>   20.0387    0.0000 </r>
       <r>   20.0402    0.0000 </r>
       <r>   20.0652    0.0000 </r>
       <r>   20.0664    0.0000 </r>
       <r>   20.9238    0.0000 </r>
       <r>   20.9262    0.0000 </r>
       <r>   23.9128    0.0000 </r>
       <r>   23.9170    0.0000 </r>
       <r>   25.0429    0.0000 </r>
       <r>   25.0458    0.0000 </r>
       <r>   25.2406    0.0000 </r>
       <r>   25.2462    0.0000 </r>
       <r>   25.4454    0.0000 </r>
       <r>   25.4518    0.0000 </r>
       <r>   25.4845    0.0000 </r>
       <r>   25.4877    0.0000 </r>
       <r>   27.6164    0.0000 </r>
       <r>   27.6222    0.0000 </r>
       <r>   30.2594    0.0000 </r>
       <r>   30.2606    0.0000 </r>
       <r>   30.6466    0.0000 </r>
       <r>   30.6491    0.0000 </r>
[...]
       <r>    14.2079     0.0000     0.0000 </r>
       <r>    14.4321     0.0000     0.0000 </r>
       <r>    14.6562     0.0000     0.0000 </r>
       <r>    14.8803     0.0000     0.0000 </r>
       <r>    15.1044     0.0000     0.0000 </r>
       <r>    15.3285     0.0000     0.0000 </r>
       <r>    15.5526     0.0000     0.0000 </r>
       <r>    15.7767     0.0000     0.0000 </r>
       <r>    16.0008     0.0000     0.0000 </r>
       <r>    16.2249     0.0000     0.0000 </r>
       <r>    16.4490     0.0000     0.0000 </r>
       <r>    16.6731     0.0000     0.0000 </r>
       <r>    16.8972     0.0000     0.0000 </r>
       <r>    17.1213     0.0000     0.0000 </r>
       <r>    17.3454     0.0000     0.0000 </r>
       <r>    17.5695     0.0000     0.0000 </r>
       <r>    17.7936     0.0000     0.0000 </r>
       <r>    18.0177     0.0000     0.0000 </r>
       <r>    18.2418     0.0000     0.0000 </r>
       <r>    18.4659     0.0000     0.0000 </r>
       <r>    18.6900     0.0000     0.0000 </r>
       <r>    18.9141     0.0000     0.0000 </r>
       <r>    19.1383     0.0000     0.0000 </r>
       <r>    19.3624     0.0000     0.0000 </r>
       <r>    19.5865     0.0000     0.0000 </r>
       <r>    19.8106     0.0000     0.0000 </r>
       <r>    20.0347     0.0000     0.0000 </r>
       <r>    20.2588     0.0000     0.0000 </r>
       <r>    20.4829     0.0000     0.0000 </r>
       <r>    20.7070     0.0000     0.0000 </r>
       <r>    20.9311     0.0000     0.0000 </r>
       <r>    21.1552     0.0000     0.0000 </r>
       <r>    21.3793     0.0000     0.0000 </r>
       <r>    21.6034     0.0000     0.0000 </r>
       <r>    21.8275     0.0000     0.0000 </r>
       <r>    22.0516     0.0000     0.0000 </r>
       <r>    22.2757     0.0000     0.0000 </r>
       <r>    22.4998     0.0000     0.0000 </r>
       <r>    22.7239     0.0000     0.0000 </r>
       <r>    22.9480     0.0000     0.0000 </r>
       <r>    23.1721     0.0000     0.0000 </r>
       <r>    23.3962     0.0000     0.0000 </r>
       <r>    23.6203     0.0000     0.0000 </r>
       <r>    23.8445     0.0000     0.0000 </r>
       <r>    24.0686     0.0000     0.0000 </r>
       <r>    24.2927     0.0000     0.0000 </r>
       <r>    24.5168     0.0000     0.0000 </r>
       <r>    24.7409     0.0000     0.0000 </r>
       <r>    24.9650     0.0000     0.0000 </r>
       <r>    25.1891     0.0000     0.0000 </r>
       <r>    25.4132     0.0000     0.0000 </r>
       <r>    25.6373     0.0000     0.0000 </r>
       <r>    25.8614     0.0000     0.0000 </r>
       <r>    26.0855     0.0000     0.0000 </r>
       <r>    26.3096     0.0000     0.0000 </r>
       <r>    26.5337     0.0000     0.0000 </r>
       <r>    26.7578     0.0000     0.0000 </r>
       <r>    26.9819     0.0000     0.0000 </r>
       <r>    27.2060     0.0000     0.0000 </r>
       <r>    27.4301     0.0000     0.0000 </r>
       <r>    27.6542     0.0000     0.0000 </r>
       <r>    27.8783     0.0000     0.0000 </r>
       <r>    28.1024     0.0000     0.0000 </r>
       <r>    28.3266     0.0000     0.0000 </r>
       <r>    28.5507     0.0000     0.0000 </r>
       <r>    28.7748     0.0000     0.0000 </r>
       <r>    28.9989     0.0000     0.0000 </r>
       <r>    29.2230     0.0000     0.0000 </r>
       <r>    29.4471     0.0000     0.0000 </r>
       <r>    29.6712     0.0000     0.0000 </r>
       <r>    29.8953     0.0000     0.0000 </r>
       <r>    30.1194     0.0000     0.0000 </r>
       <r>    30.3435     0.0000     0.0000 </r>
       <r>    30.5676     0.0000     0.0000 </r>
       <r>    30.7917     0.0000     0.0000 </r>
       <r>    31.0158     0.0000     0.0000 </r>
       <r>    31.2399     0.0000     0.0000 </r>
       <r>    31.4640     0.0000     0.0000 </r>
       <r>    31.6881     0.0000     0.0000 </r>
       <r>    31.9122     0.0000     0.0000 </r>
       <r>    32.1363     0.0000     0.0000 </r>
       <r>    32.3604     0.0000     0.0000 </r>
       <r>    32.5845     0.0000     0.0000 </r>
       <r>    32.8086     0.0000     0.0000 </r>
       <r>    33.0328     0.0000     0.0000 </r>
       <r>    33.2569     0.0000     0.0000 </r>
       <r>    33.4810     0.0000     0.0000 </r>
       <r>    33.7051     0.0000     0.0000 </r>
      </set>
      <set comment="spin 4">
       <r>   -33.5264     0.0000     0.0000 </r>
       <r>   -33.3023     0.0000     0.0000 </r>
       <r>   -33.0782     0.0000     0.0000 </r>
       <r>   -32.8541     0.0000     0.0000 </r>
       <r>   -32.6300     0.0000     0.0000 </r>
       <r>   -32.4059     0.0000     0.0000 </r>
       <r>   -32.1818     0.0000     0.0000 </r>
       <r>   -31.9576     0.0000     0.0000 </r>
       <r>   -31.7335     0.0000     0.0000 </r>
       <r>   -31.5094     0.0000     0.0000 </r>
       <r>   -31.2853     0.0000     0.0000 </r>
       <r>   -31.0612     0.0000     0.0000 </r>
       <r>   -30.8371     0.0000     0.0000 </r>
       <r>   -30.6130     0.0000     0.0000 </r>
       <r>   -30.3889     0.0000     0.0000 </r>
       <r>   -30.1648     0.0000     0.0000 </r>
       <r>   -29.9407     0.0000     0.0000 </r>
       <r>   -29.7166     0.0000     0.0000 </r>
       <r>   -29.4925     0.0000     0.0000 </r>
       <r>   -29.2684     0.0000     0.0000 </r>
       <r>   -29.0443     0.0000     0.0000 </r>
       <r>   -28.8202     0.0000     0.0000 </r>
       <r>   -28.5961     0.0000     0.0000 </r>
       <r>   -28.3720     0.0000     0.0000 </r>
       <r>   -28.1479     0.0000     0.0000 </r>
       <r>   -27.9238     0.0000     0.0000 </r>
       <r>   -27.6997     0.0000     0.0000 </r>
       <r>   -27.4756     0.0000     0.0000 </r>
       <r>   -27.2514     0.0000     0.0000 </r>
       <r>   -27.0273     0.0000     0.0000 </r>
       <r>   -26.8032     0.0000     0.0000 </r>
       <r>   -26.5791     0.0000     0.0000 </r>
       <r>   -26.3550     0.0000     0.0000 </r>
       <r>   -26.1309     0.0000     0.0000 </r>
       <r>   -25.9068     0.0000     0.0000 </r>
       <r>   -25.6827     0.0000     0.0000 </r>
       <r>   -25.4586     0.0000     0.0000 </r>
       <r>   -25.2345     0.0000     0.0000 </r>
       <r>   -25.0104     0.0000     0.0000 </r>
       <r>   -24.7863     0.0000     0.0000 </r>
       <r>   -24.5622     0.0000     0.0000 </r>
       <r>   -24.3381     0.0000     0.0000 </r>
       <r>   -24.1140     0.0000     0.0000 </r>
       <r>   -23.8899     0.0000     0.0000 </r>
       <r>   -23.6658     0.0000     0.0000 </r>
       <r>   -23.4417     0.0000     0.0000 </r>
       <r>   -23.2176     0.0000     0.0000 </r>
       <r>   -22.9935     0.0000     0.0000 </r>
       <r>   -22.7694     0.0000     0.0000 </r>
       <r>   -22.5452     0.0000     0.0000 </r>
       <r>   -22.3211     0.0000     0.0000 </r>
       <r>   -22.0970     0.0000     0.0000 </r>
       <r>   -21.8729     0.0000     0.0000 </r>
       <r>   -21.6488     0.0000     0.0000 </r>
       <r>   -21.4247     0.0000     0.0000 </r>
       <r>   -21.2006     0.0000     0.0000 </r>
       <r>   -20.9765     0.0000     0.0000 </r>
       <r>   -20.7524     0.0000     0.0000 </r>
       <r>   -20.5283     0.0000     0.0000 </r>
       <r>   -20.3042     0.0000     0.0000 </r>
       <r>   -20.0801     0.0000     0.0000 </r>
       <r>   -19.8560     0.0000     0.0000 </r>
       <r>   -19.6319     0.0000     0.0000 </r>
       <r>   -19.4078     0.0000     0.0000 </r>
       <r>   -19.1837     0.0000     0.0000 </r>
       <r>   -18.9596     0.0000     0.0000 </r>
       <r>   -18.7355     0.0000     0.0000 </r>
       <r>   -18.5114     0.0000     0.0000 </r>
       <r>   -18.2873     0.0000     0.0000 </r>
       <r>   -18.0631     0.0000     0.0000 </r>
       <r>   -17.8390     0.0000     0.0000 </r>
       <r>   -17.6149     0.0000     0.0000 </r>
       <r>   -17.3908     0.0000     0.0000 </r>
       <r>   -17.1667     0.0000     0.0000 </r>
       <r>   -16.9426     0.0000     0.0000 </r>
       <r>   -16.7185     0.0000     0.0000 </r>
       <r>   -16.4944     0.0000     0.0000 </r>
       <r>   -16.2703     0.0000     0.0000 </r>
       <r>   -16.0462     0.0000     0.0000 </r>
       <r>   -15.8221     0.0000     0.0000 </r>
       <r>   -15.5980     0.0000     0.0000 </r>
       <r>   -15.3739     0.0000     0.0000 </r>
       <r>   -15.1498     0.0000     0.0000 </r>
       <r>   -14.9257     0.0000     0.0000 </r>
       <r>   -14.7016     0.0000     0.0000 </r>
       <r>   -14.4775     0.0000     0.0000 </r>
       <r>   -14.2534     0.0000     0.0000 </r>
       <r>   -14.0293     0.0000     0.0000 </r>
       <r>   -13.8052     0.0000     0.0000 </r>
       <r>   -13.5811     0.0000     0.0000 </r>
       <r>   -13.3569     0.0000     0.0000 </r>
       <r>   -13.1328     0.0000     0.0000 </r>
       <r>   -12.9087     0.0000     0.0000 </r>
       <r>   -12.6846     0.0000     0.0000 </r>
       <r>   -12.4605     0.0000     0.0000 </r>
       <r>   -12.2364     0.0000     0.0000 </r>
       <r>   -12.0123     0.0000     0.0000 </r>
       <r>   -11.7882     0.0000     0.0000 </r>
       <r>   -11.5641     0.0000     0.0000 </r>
       <r>   -11.3400     0.0000     0.0000 </r>
       <r>   -11.1159     0.0000     0.0000 </r>
       <r>   -10.8918     0.0000     0.0000 </r>
       <r>   -10.6677     0.0000     0.0000 </r>
       <r>   -10.4436     0.0000     0.0000 </r>
       <r>   -10.2195     0.0000     0.0000 </r>
       <r>    -9.9954     0.0000     0.0000 </r>
       <r>    -9.7713     0.0000     0.0000 </r>
       <r>    -9.5472     0.0000     0.0000 </r>
       <r>    -9.3231     0.0000     0.0000 </r>
       <r>    -9.0990     0.0000     0.0000 </r>
       <r>    -8.8749     0.0000     0.0000 </r>
       <r>    -8.6507     0.0000     0.0000 </r>
       <r>    -8.4266     0.0000     0.0000 </r>
       <r>    -8.2025     0.0000     0.0000 </r>
       <r>    -7.9784     0.0000     0.0000 </r>
       <r>    -7.7543     0.0000     0.0000 </r>
       <r>    -7.5302     0.0000     0.0000 </r>
       <r>    -7.3061     0.0000     0.0000 </r>
       <r>    -7.0820     0.0000     0.0000 </r>
       <r>    -6.8579     0.0000     0.0000 </r>
       <r>    -6.6338     0.0000     0.0000 </r>
       <r>    -6.4097     0.0000     0.0000 </r>
       <r>    -6.1856     0.0000     0.0000 </r>
       <r>    -5.9615     0.0000     0.0000 </r>
       <r>    -5.7374     0.0000     0.0000 </r>
       <r>    -5.5133     0.0000     0.0000 </r>
       <r>    -5.2892     0.0000     0.0000 </r>
       <r>    -5.0651     0.0000     0.0000 </r>
       <r>    -4.8410     0.0000     0.0000 </r>
       <r>    -4.6169     0.0000     0.0000 </r>
       <r>    -4.3928     0.0000     0.0000 </r>
       <r>    -4.1686     0.0000     0.0000 </r>
       <r>    -3.9445     0.0000     0.0000 </r>
       <r>    -3.7204     0.0000     0.0000 </r>
       <r>    -3.4963     0.0000     0.0000 </r>
       <r>    -3.2722     0.0000     0.0000 </r>
       <r>    -3.0481     0.0000     0.0000 </r>
       <r>    -2.8240     0.0000     0.0000 </r>
       <r>    -2.5999     0.0000     0.0000 </r>
       <r>    -2.3758     0.0000     0.0000 </r>
       <r>    -2.1517     0.0000     0.0000 </r>
       <r>    -1.9276     0.0000     0.0000 </r>
       <r>    -1.7035     0.0000     0.0000 </r>
       <r>    -1.4794     0.0000     0.0000 </r>
       <r>    -1.2553     0.0000     0.0000 </r>
       <r>    -1.0312     0.0000     0.0000 </r>
       <r>    -0.8071     0.0000     0.0000 </r>
       <r>    -0.5830     0.0000     0.0000 </r>
       <r>    -0.3589     0.0000     0.0000 </r>
       <r>    -0.1348     0.0000     0.0000 </r>
       <r>     0.0893     0.0000     0.0000 </r>
       <r>     0.3134     0.0000     0.0000 </r>
       <r>     0.5376     0.0000     0.0000 </r>
       <r>     0.7617     0.0000     0.0000 </r>
       <r>     0.9858     0.0000     0.0000 </r>
       <r>     1.2099     0.0000     0.0000 </r>
       <r>     1.4340     0.0000     0.0000 </r>
       <r>     1.6581     0.0000     0.0000 </r>
       <r>     1.8822     0.0000     0.0000 </r>
       <r>     2.1063     0.0000     0.0000 </r>
       <r>     2.3304     0.0000     0.0000 </r>
       <r>     2.5545     0.0000     0.0000 </r>
       <r>     2.7786     0.0000     0.0000 </r>
       <r>     3.0027     0.0000     0.0000 </r>
       <r>     3.2268     0.0000     0.0000 </r>
       <r>     3.4509     0.0000     0.0000 </r>
       <r>     3.6750     0.0000     0.0000 </r>
       <r>     3.8991     0.0000     0.0000 </r>
       <r>     4.1232     0.0000     0.0000 </r>
       <r>     4.3473     0.0000     0.0000 </r>
       <r>     4.5714     0.0000     0.0000 </r>
       <r>     4.7955     0.0000     0.0000 </r>
       <r>     5.0196     0.0000     0.0000 </r>
       <r>     5.2438     0.0000     0.0000 </r>
       <r>     5.4679     0.0000     0.0000 </r>
       <r>     5.6920     0.0000     0.0000 </r>
       <r>     5.9161     0.0000     0.0000 </r>
       <r>     6.1402     0.0000     0.0000 </r>
       <r>     6.3643     0.0000     0.0000 </r>
       <r>     6.5884     0.0000     0.0000 </r>
       <r>     6.8125     0.0000     0.0000 </r>
       <r>     7.0366     0.0000     0.0000 </r>
       <r>     7.2607     0.0000     0.0000 </r>
       <r>     7.4848     0.0000     0.0000 </r>
       <r>     7.7089     0.0000     0.0000 </r>
       <r>     7.9330     0.0000     0.0000 </r>
       <r>     8.1571     0.0000     0.0000 </r>
       <r>     8.3812     0.0000     0.0000 </r>
       <r>     8.6053     0.0000     0.0000 </r>
       <r>     8.8294     0.0000     0.0000 </r>
       <r>     9.0535     0.0000     0.0000 </r>
       <r>     9.2776     0.0000     0.0000 </r>
       <r>     9.5017     0.0000     0.0000 </r>
       <r>     9.7259     0.0000     0.0000 </r>
       <r>     9.9500     0.0000     0.0000 </r>
       <r>    10.1741     0.0000     0.0000 </r>
       <r>    10.3982     0.0000     0.0000 </r>
       <r>    10.6223     0.0000     0.0000 </r>
       <r>    10.8464     0.0000     0.0000 </r>
       <r>    11.0705     0.0000     0.0000 </r>
       <r>    11.2946     0.0000     0.0000 </r>
       <r>    11.5187     0.0000     0.0000 </r>
       <r>    11.7428     0.0000     0.0000 </r>
       <r>    11.9669     0.0000     0.0000 </r>
       <r>    12.1910     0.0000     0.0000 </r>
       <r>    12.4151     0.0000     0.0000 </r>
       <r>    12.6392     0.0000     0.0000 </r>
       <r>    12.8633     0.0000     0.0000 </r>
       <r>    13.0874     0.0000     0.0000 </r>
       <r>    13.3115     0.0000     0.0000 </r>
       <r>    13.5356     0.0000     0.0000 </r>
       <r>    13.7597     0.0000     0.0000 </r>
       <r>    13.9838     0.0000     0.0000 </r>
       <r>    14.2079     0.0000     0.0000 </r>
       <r>    14.4321     0.0000     0.0000 </r>
       <r>    14.6562     0.0000     0.0000 </r>
       <r>    14.8803     0.0000     0.0000 </r>
       <r>    15.1044     0.0000     0.0000 </r>
       <r>    15.3285     0.0000     0.0000 </r>
       <r>    15.5526     0.0000     0.0000 </r>
       <r>    15.7767     0.0000     0.0000 </r>
       <r>    16.0008     0.0000     0.0000 </r>
       <r>    16.2249     0.0000     0.0000 </r>
       <r>    16.4490     0.0000     0.0000 </r>
       <r>    16.6731     0.0000     0.0000 </r>
       <r>    16.8972     0.0000     0.0000 </r>
       <r>    17.1213     0.0000     0.0000 </r>
       <r>    17.3454     0.0000     0.0000 </r>
       <r>    17.5695     0.0000     0.0000 </r>
       <r>    17.7936     0.0000     0.0000 </r>
       <r>    18.0177     0.0000     0.0000 </r>
       <r>    18.2418     0.0000     0.0000 </r>
       <r>    18.4659     0.0000     0.0000 </r>
       <r>    18.6900     0.0000     0.0000 </r>
       <r>    18.9141     0.0000     0.0000 </r>
       <r>    19.1383     0.0000     0.0000 </r>
       <r>    19.3624     0.0000     0.0000 </r>
       <r>    19.5865     0.0000     0.0000 </r>
       <r>    19.8106     0.0000     0.0000 </r>
       <r>    20.0347     0.0000     0.0000 </r>
       <r>    20.2588     0.0000     0.0000 </r>
       <r>    20.4829     0.0000     0.0000 </r>
       <r>    20.7070     0.0000     0.0000 </r>
       <r>    20.9311     0.0000     0.0000 </r>
       <r>    21.1552     0.0000     0.0000 </r>
       <r>    21.3793     0.0000     0.0000 </r>
       <r>    21.6034     0.0000     0.0000 </r>
       <r>    21.8275     0.0000     0.0000 </r>
       <r>    22.0516     0.0000     0.0000 </r>
       <r>    22.2757     0.0000     0.0000 </r>
       <r>    22.4998     0.0000     0.0000 </r>
       <r>    22.7239     0.0000     0.0000 </r>
       <r>    22.9480     0.0000     0.0000 </r>
       <r>    23.1721     0.0000     0.0000 </r>
       <r>    23.3962     0.0000     0.0000 </r>
       <r>    23.6203     0.0000     0.0000 </r>
       <r>    23.8445     0.0000     0.0000 </r>
       <r>    24.0686     0.0000     0.0000 </r>
       <r>    24.2927     0.0000     0.0000 </r>
       <r>    24.5168     0.0000     0.0000 </r>
       <r>    24.7409     0.0000     0.0000 </r>
       <r>    24.9650     0.0000     0.0000 </r>
       <r>    25.1891     0.0000     0.0000 </r>
       <r>    25.4132     0.0000     0.0000 </r>
       <r>    25.6373     0.0000     0.0000 </r>
       <r>    25.8614     0.0000     0.0000 </r>
       <r>    26.0855     0.0000     0.0000 </r>
       <r>    26.3096     0.0000     0.0000 </r>
       <r>    26.5337     0.0000     0.0000 </r>
       <r>    26.7578     0.0000     0.0000 </r>
       <r>    26.9819     0.0000     0.0000 </r>
       <r>    27.2060     0.0000     0.0000 </r>
       <r>    27.4301     0.0000     0.0000 </r>
       <r>    27.6542     0.0000     0.0000 </r>
       <r>    27.8783     0.0000     0.0000 </r>
       <r>    28.1024     0.0000     0.0000 </r>
       <r>    28.3266     0.0000     0.0000 </r>
       <r>    28.5507     0.0000     0.0000 </r>
       <r>    28.7748     0.0000     0.0000 </r>
       <r>    28.9989     0.0000     0.0000 </r>
       <r>    29.2230     0.0000     0.0000 </r>
       <r>    29.4471     0.0000     0.0000 </r>
       <r>    29.6712     0.0000     0.0000 </r>
       <r>    29.8953     0.0000     0.0000 </r>
       <r>    30.1194     0.0000     0.0000 </r>
       <r>    30.3435     0.0000     0.0000 </r>
       <r>    30.5676     0.0000     0.0000 </r>
       <r>    30.7917     0.0000     0.0000 </r>
       <r>    31.0158     0.0000     0.0000 </r>
       <r>    31.2399     0.0000     0.0000 </r>
       <r>    31.4640     0.0000     0.0000 </r>
       <r>    31.6881     0.0000     0.0000 </r>
       <r>    31.9122     0.0000     0.0000 </r>
       <r>    32.1363     0.0000     0.0000 </r>
       <r>    32.3604     0.0000     0.0000 </r>
       <r>    32.5845     0.0000     0.0000 </r>
       <r>    32.8086     0.0000     0.0000 </r>
       <r>    33.0328     0.0000     0.0000 </r>
       <r>    33.2569     0.0000     0.0000 </r>
       <r>    33.4810     0.0000     0.0000 </r>
       <r>    33.7051     0.0000     0.0000 </r>
      </set>
     </set>
    </array>
   </total>
  </dos>
 </calculation>
 <structure name="finalpos" >
  <crystal>
   <varray name="basis" >
    <v>       4.34557550       0.00000003      -0.00000002 </v>
    <v>       2.17278775       3.76337898      -0.00000102 </v>
    <v>       2.17278777       1.25445878       3.54814525 </v>
   </varray>
   <i name="volume">     58.02654140 </i>
   <varray name="rec_basis" >
    <v>       0.23011912      -0.13285935      -0.09394582 </v>
    <v>      -0.00000000       0.26571863      -0.09394572 </v>
    <v>       0.00000000       0.00000008       0.28183736 </v>
   </varray>
  </crystal>
  <varray name="positions" >
   <v>       0.00000000       0.00000000       0.00000000 </v>
  </varray>
  <varray name="velocities" >
   <v>       0.00000000       0.00000000       0.00000000 </v>
  </varray>
 </structure>
</modeling>
