Og_FCC                                  
           1
     4.345575    0.000000   -0.000000
     2.172788    3.763379   -0.000001
     2.172788    1.254459    3.548145
   Og
   1
Direct configuration=     1
   0.00000000  0.00000000  0.00000000
