    2    2  999    1
  0.4105291E+02  0.3888063E-09  0.3922519E-09  0.6210220E-09  0.1000000E-15
  1.000000000000000E-004
  CAR 
 Cn_HCP                                  
     28    304     40
 
  0.0000000E+00  0.0000000E+00  0.0000000E+00  0.1666667E-02
    1       -9.850244   1.000000
    2       -9.850244   1.000000
    3       -9.842531   1.000000
    4       -9.842531   1.000000
    5       -9.827225   1.000000
    6       -9.827225   1.000000
    7       -9.783478   1.000000
    8       -9.783478   1.000000
    9       -8.394411   1.000000
   10       -8.394410   1.000000
   11       -6.758427   1.000000
   12       -6.758426   1.000000
   13       -5.800426   1.000000
   14       -5.800426   1.000000
   15       -5.776803   1.000000
   16       -5.776803   1.000000
   17       -5.758190   1.000000
   18       -5.758190   1.000000
   19       -5.729623   1.000000
   20       -5.729623   1.000000
   21       -5.501149   1.000000
   22       -5.501149   1.000000
   23       -5.398741   1.000000
   24       -5.398740   1.000000
   25        0.452241   1.000000
   26        0.452242   1.000000
   27        4.570410  -0.000000
   28        4.570411  -0.000000
   29        6.346086  -0.000000
   30        6.346087  -0.000000
   31       10.445022   0.000000
   32       10.445025   0.000000
   33       10.571373   0.000000
   34       10.571373   0.000000
   35       11.458725   0.000000
   36       11.458727   0.000000
   37       12.230343   0.000000
   38       12.230344   0.000000
   39       12.947345   0.000000
   40       12.947345   0.000000
 
  0.1000000E+00  0.4714109E-17  0.0000000E+00  0.3333333E-02
    1       -9.848058   1.000000
    2       -9.848058   1.000000
    3       -9.837171   1.000000
    4       -9.837171   1.000000
    5       -9.822859   1.000000
    6       -9.822859   1.000000
    7       -9.780805   1.000000
    8       -9.780805   1.000000
    9       -8.289919   1.000000
   10       -8.289918   1.000000
   11       -6.690306   1.000000
   12       -6.690305   1.000000
   13       -5.801719   1.000000
   14       -5.801719   1.000000
   15       -5.756464   1.000000
   16       -5.756464   1.000000
   17       -5.748502   1.000000
   18       -5.748502   1.000000
   19       -5.730307   1.000000
   20       -5.730307   1.000000
   21       -5.517364   1.000000
   22       -5.517364   1.000000
   23       -5.416501   1.000000
   24       -5.416501   1.000000
   25        0.571605   1.000000
   26        0.571606   1.000000
   27        4.283459  -0.003302
   28        4.283459  -0.003302
   29        5.959613  -0.000000
   30        5.959614  -0.000000
   31        9.450597   0.000000
   32        9.450597   0.000000
   33        9.595438   0.000000
   34        9.595440   0.000000
   35       12.329583   0.000000
   36       12.329583   0.000000
   37       12.603294   0.000000
   38       12.603295   0.000000
   39       13.120578   0.000000
   40       13.120580   0.000000
 
  0.2000000E+00  0.9424512E-17 -0.2168404E-18  0.3333333E-02
    1       -9.843531   1.000000
    2       -9.843531   1.000000
    3       -9.823191   1.000000
    4       -9.823190   1.000000
    5       -9.813607   1.000000
    6       -9.813607   1.000000
    7       -9.775121   1.000000
    8       -9.775121   1.000000
    9       -7.991594   1.000000
   10       -7.991593   1.000000
   11       -6.508004   1.000000
   12       -6.508004   1.000000
   13       -5.792948   1.000000
   14       -5.792948   1.000000
   15       -5.738415   1.000000
   16       -5.738415   1.000000
   17       -5.724865   1.000000
   18       -5.724865   1.000000
   19       -5.704661   1.000000
   20       -5.704660   1.000000
   21       -5.558870   1.000000
   22       -5.558870   1.000000
   23       -5.450264   1.000000
   24       -5.450264   1.000000
   25        0.859564   1.000000
   26        0.859565   1.000000
   27        3.484485   1.000000
   28        3.484485   1.000000
   29        5.118087  -0.000000
   30        5.118088  -0.000000
   31        8.199288   0.000000
   32        8.199288   0.000000
   33        8.455302   0.000000
   34        8.455303   0.000000
   35       11.662876   0.000000
   36       11.662877   0.000000
   37       11.933962   0.000000
   38       11.933964   0.000000
   39       13.330562   0.000000
   40       13.330564   0.000000
 
  0.3000000E+00  0.2608861E-18  0.0000000E+00  0.3333333E-02
    1       -9.837589   1.000000
    2       -9.837588   1.000000
    3       -9.808365   1.000000
    4       -9.808365   1.000000
    5       -9.804533   1.000000
    6       -9.804533   1.000000
    7       -9.771617   1.000000
    8       -9.771617   1.000000
    9       -7.555807   1.000000
   10       -7.555806   1.000000
   11       -6.295895   1.000000
   12       -6.295894   1.000000
   13       -5.795517   1.000000
   14       -5.795517   1.000000
   15       -5.731400   1.000000
   16       -5.731400   1.000000
   17       -5.681803   1.000000
   18       -5.681803   1.000000
   19       -5.671390   1.000000
   20       -5.671390   1.000000
   21       -5.578643   1.000000
   22       -5.578643   1.000000
   23       -5.459269   1.000000
   24       -5.459269   1.000000
   25        1.084781   1.000000
   26        1.084782   1.000000
   27        2.427752   1.000000
   28        2.427753   1.000000
   29        4.512821  -0.000000
   30        4.512822  -0.000000
   31        7.063781   0.000000
   32        7.063782   0.000000
   33        7.612698   0.000000
   34        7.612698   0.000000
   35       10.370160   0.000000
   36       10.370162   0.000000
   37       11.269608   0.000000
   38       11.269611   0.000000
   39       12.697064   0.000000
   40       12.697066   0.000000
 
  0.4000000E+00  0.1884902E-16 -0.4336809E-18  0.3333333E-02
    1       -9.831599   1.000000
    2       -9.831599   1.000000
    3       -9.803424   1.000000
    4       -9.803424   1.000000
    5       -9.792455   1.000000
    6       -9.792455   1.000000
    7       -9.773442   1.000000
    8       -9.773442   1.000000
    9       -7.109025   1.000000
   10       -7.109024   1.000000
   11       -6.192933   1.000000
   12       -6.192932   1.000000
   13       -5.796904   1.000000
   14       -5.796904   1.000000
   15       -5.764238   1.000000
   16       -5.764237   1.000000
   17       -5.685383   1.000000
   18       -5.685383   1.000000
   19       -5.610379   1.000000
   20       -5.610379   1.000000
   21       -5.514674   1.000000
   22       -5.514674   1.000000
   23       -5.424115   1.000000
   24       -5.424115   1.000000
   25        1.017729   1.000000
   26        1.017729   1.000000
   27        1.555171   1.000000
   28        1.555172   1.000000
   29        4.572513  -0.000000
   30        4.572514  -0.000000
   31        6.209157  -0.000000
   32        6.209158  -0.000000
   33        6.956668   0.000000
   34        6.956669   0.000000
   35        9.366486   0.000000
   36        9.366488   0.000000
   37       10.888505   0.000000
   38       10.888508   0.000000
   39       12.207913   0.000000
   40       12.207916   0.000000
 
  0.5000000E+00  0.6519655E-16  0.4336809E-18  0.1666667E-02
    1       -9.828762   1.000000
    2       -9.828762   1.000000
    3       -9.802833   1.000000
    4       -9.802832   1.000000
    5       -9.785037   1.000000
    6       -9.785037   1.000000
    7       -9.777412   1.000000
    8       -9.777412   1.000000
    9       -6.890905   1.000000
   10       -6.890905   1.000000
   11       -6.200863   1.000000
   12       -6.200862   1.000000
   13       -5.785395   1.000000
   14       -5.785395   1.000000
   15       -5.784974   1.000000
   16       -5.784973   1.000000
   17       -5.696551   1.000000
   18       -5.696551   1.000000
   19       -5.593232   1.000000
   20       -5.593232   1.000000
   21       -5.462260   1.000000
   22       -5.462260   1.000000
   23       -5.395687   1.000000
   24       -5.395687   1.000000
   25        0.915040   1.000000
   26        0.915041   1.000000
   27        1.212937   1.000000
   28        1.212938   1.000000
   29        4.902979  -0.000000
   30        4.902980  -0.000000
   31        5.742384  -0.000000
   32        5.742385  -0.000000
   33        6.667260  -0.000000
   34        6.667261  -0.000000
   35        8.998296   0.000000
   36        8.998298   0.000000
   37       10.765857   0.000000
   38       10.765859   0.000000
   39       12.042757   0.000000
   40       12.042760   0.000000
 
  0.1376429E-19  0.1000000E+00  0.0000000E+00  0.3333333E-02
    1       -9.848445   1.000000
    2       -9.848445   1.000000
    3       -9.837168   1.000000
    4       -9.837168   1.000000
    5       -9.823414   1.000000
    6       -9.823414   1.000000
    7       -9.780685   1.000000
    8       -9.780685   1.000000
    9       -8.292743   1.000000
   10       -8.292742   1.000000
   11       -6.693529   1.000000
   12       -6.693528   1.000000
   13       -5.801308   1.000000
   14       -5.801307   1.000000
   15       -5.760608   1.000000
   16       -5.760608   1.000000
   17       -5.749148   1.000000
   18       -5.749148   1.000000
   19       -5.726218   1.000000
   20       -5.726218   1.000000
   21       -5.516850   1.000000
   22       -5.516850   1.000000
   23       -5.415774   1.000000
   24       -5.415774   1.000000
   25        0.568825   1.000000
   26        0.568827   1.000000
   27        4.280758  -0.003663
   28        4.280758  -0.003663
   29        5.948219  -0.000000
   30        5.948220  -0.000000
   31        9.455619   0.000000
   32        9.455620   0.000000
   33        9.619017   0.000000
   34        9.619019   0.000000
   35       12.349568   0.000000
   36       12.349569   0.000000
   37       12.652087   0.000000
   38       12.652087   0.000000
   39       13.125527   0.000000
   40       13.125529   0.000000
 
  0.1000000E+00  0.1000000E+00  0.0000000E+00  0.3333333E-02
    1       -9.845056   1.000000
    2       -9.845056   1.000000
    3       -9.827674   1.000000
    4       -9.827673   1.000000
    5       -9.816708   1.000000
    6       -9.816708   1.000000
    7       -9.776712   1.000000
    8       -9.776712   1.000000
    9       -8.093455   1.000000
   10       -8.093454   1.000000
   11       -6.570139   1.000000
   12       -6.570139   1.000000
   13       -5.792198   1.000000
   14       -5.792198   1.000000
   15       -5.754991   1.000000
   16       -5.754991   1.000000
   17       -5.730444   1.000000
   18       -5.730443   1.000000
   19       -5.708686   1.000000
   20       -5.708686   1.000000
   21       -5.545214   1.000000
   22       -5.545214   1.000000
   23       -5.441560   1.000000
   24       -5.441559   1.000000
   25        0.772154   1.000000
   26        0.772155   1.000000
   27        3.750138   1.000058
   28        3.750138   1.000058
   29        5.340946  -0.000000
   30        5.340946  -0.000000
   31        8.354899   0.000000
   32        8.354900   0.000000
   33        8.872158   0.000000
   34        8.872160   0.000000
   35       11.819278   0.000000
   36       11.819279   0.000000
   37       12.685821   0.000000
   38       12.685824   0.000000
   39       13.231260   0.000000
   40       13.231261   0.000000
 
  0.2000000E+00  0.1000000E+00 -0.2168404E-18  0.3333333E-02
    1       -9.839101   1.000000
    2       -9.839101   1.000000
    3       -9.813061   1.000000
    4       -9.813061   1.000000
    5       -9.806955   1.000000
    6       -9.806955   1.000000
    7       -9.773159   1.000000
    8       -9.773159   1.000000
    9       -7.725168   1.000000
   10       -7.725167   1.000000
   11       -6.367084   1.000000
   12       -6.367083   1.000000
   13       -5.782201   1.000000
   14       -5.782201   1.000000
   15       -5.743457   1.000000
   16       -5.743457   1.000000
   17       -5.714597   1.000000
   18       -5.714597   1.000000
   19       -5.677270   1.000000
   20       -5.677270   1.000000
   21       -5.572551   1.000000
   22       -5.572551   1.000000
   23       -5.465581   1.000000
   24       -5.465581   1.000000
   25        1.038962   1.000000
   26        1.038963   1.000000
   27        2.859786   1.000000
   28        2.859787   1.000000
   29        4.672845  -0.000000
   30        4.672846  -0.000000
   31        7.228276   0.000000
   32        7.228277   0.000000
   33        7.843042   0.000000
   34        7.843043   0.000000
   35       10.620682   0.000000
   36       10.620683   0.000000
   37       12.169302   0.000000
   38       12.169306   0.000000
   39       12.455068   0.000000
   40       12.455072   0.000000
 
  0.3000000E+00  0.1000000E+00  0.8673617E-18  0.3333333E-02
    1       -9.832044   1.000000
    2       -9.832044   1.000000
    3       -9.801863   1.000000
    4       -9.801863   1.000000
    5       -9.796718   1.000000
    6       -9.796718   1.000000
    7       -9.773458   1.000000
    8       -9.773458   1.000000
    9       -7.270721   1.000000
   10       -7.270720   1.000000
   11       -6.199044   1.000000
   12       -6.199043   1.000000
   13       -5.790754   1.000000
   14       -5.790753   1.000000
   15       -5.761465   1.000000
   16       -5.761465   1.000000
   17       -5.682352   1.000000
   18       -5.682352   1.000000
   19       -5.648776   1.000000
   20       -5.648776   1.000000
   21       -5.548285   1.000000
   22       -5.548285   1.000000
   23       -5.453508   1.000000
   24       -5.453508   1.000000
   25        1.116858   1.000000
   26        1.116859   1.000000
   27        1.923390   1.000000
   28        1.923391   1.000000
   29        4.510911  -0.000000
   30        4.510912  -0.000000
   31        6.303540  -0.000000
   32        6.303541  -0.000000
   33        6.974856   0.000000
   34        6.974857   0.000000
   35        9.401611   0.000000
   36        9.401613   0.000000
   37       11.648782   0.000000
   38       11.648786   0.000000
   39       11.837299   0.000000
   40       11.837302   0.000000
 
  0.4000000E+00  0.1000000E+00 -0.4336809E-18  0.3333333E-02
    1       -9.826318   1.000000
    2       -9.826318   1.000000
    3       -9.799598   1.000000
    4       -9.799598   1.000000
    5       -9.786346   1.000000
    6       -9.786346   1.000000
    7       -9.777045   1.000000
    8       -9.777045   1.000000
    9       -6.898703   1.000000
   10       -6.898703   1.000000
   11       -6.176721   1.000000
   12       -6.176720   1.000000
   13       -5.792538   1.000000
   14       -5.792538   1.000000
   15       -5.777716   1.000000
   16       -5.777716   1.000000
   17       -5.705280   1.000000
   18       -5.705280   1.000000
   19       -5.593222   1.000000
   20       -5.593222   1.000000
   21       -5.495417   1.000000
   22       -5.495417   1.000000
   23       -5.417909   1.000000
   24       -5.417909   1.000000
   25        0.991778   1.000000
   26        0.991780   1.000000
   27        1.341670   1.000000
   28        1.341671   1.000000
   29        4.872410  -0.000000
   30        4.872411  -0.000000
   31        5.716925  -0.000000
   32        5.716925  -0.000000
   33        6.370618  -0.000000
   34        6.370619  -0.000000
   35        8.620235   0.000000
   36        8.620237   0.000000
   37       11.361217   0.000000
   38       11.361220   0.000000
   39       11.568787   0.000000
   40       11.568789   0.000000
 
  0.5000000E+00  0.1000000E+00  0.1301043E-17  0.3333333E-02
    1       -9.826318   1.000000
    2       -9.826318   1.000000
    3       -9.799670   1.000000
    4       -9.799670   1.000000
    5       -9.786208   1.000000
    6       -9.786208   1.000000
    7       -9.776987   1.000000
    8       -9.776987   1.000000
    9       -6.894296   1.000000
   10       -6.894295   1.000000
   11       -6.176615   1.000000
   12       -6.176614   1.000000
   13       -5.792084   1.000000
   14       -5.792084   1.000000
   15       -5.779638   1.000000
   16       -5.779638   1.000000
   17       -5.703205   1.000000
   18       -5.703204   1.000000
   19       -5.595983   1.000000
   20       -5.595983   1.000000
   21       -5.489414   1.000000
   22       -5.489414   1.000000
   23       -5.415670   1.000000
   24       -5.415670   1.000000
   25        0.988499   1.000000
   26        0.988500   1.000000
   27        1.330341   1.000000
   28        1.330341   1.000000
   29        4.877555  -0.000000
   30        4.877556  -0.000000
   31        5.716673  -0.000000
   32        5.716674  -0.000000
   33        6.376214  -0.000000
   34        6.376215  -0.000000
   35        8.623551   0.000000
   36        8.623552   0.000000
   37       11.370867   0.000000
   38       11.370870   0.000000
   39       11.554119   0.000000
   40       11.554121   0.000000
 
 -0.4000000E+00  0.1000000E+00  0.0000000E+00  0.3333333E-02
    1       -9.832037   1.000000
    2       -9.832037   1.000000
    3       -9.801874   1.000000
    4       -9.801874   1.000000
    5       -9.796438   1.000000
    6       -9.796438   1.000000
    7       -9.773253   1.000000
    8       -9.773253   1.000000
    9       -7.260942   1.000000
   10       -7.260942   1.000000
   11       -6.195388   1.000000
   12       -6.195388   1.000000
   13       -5.790176   1.000000
   14       -5.790176   1.000000
   15       -5.763186   1.000000
   16       -5.763186   1.000000
   17       -5.680140   1.000000
   18       -5.680140   1.000000
   19       -5.648911   1.000000
   20       -5.648911   1.000000
   21       -5.542854   1.000000
   22       -5.542854   1.000000
   23       -5.449911   1.000000
   24       -5.449911   1.000000
   25        1.111689   1.000000
   26        1.111690   1.000000
   27        1.902702   1.000000
   28        1.902703   1.000000
   29        4.508085  -0.000000
   30        4.508086  -0.000000
   31        6.320280  -0.000000
   32        6.320281  -0.000000
   33        6.985257   0.000000
   34        6.985257   0.000000
   35        9.408525   0.000000
   36        9.408527   0.000000
   37       11.661567   0.000000
   38       11.661569   0.000000
   39       11.808448   0.000000
   40       11.808450   0.000000
 
 -0.3000000E+00  0.1000000E+00  0.8673617E-18  0.3333333E-02
    1       -9.838984   1.000000
    2       -9.838984   1.000000
    3       -9.812619   1.000000
    4       -9.812619   1.000000
    5       -9.806462   1.000000
    6       -9.806462   1.000000
    7       -9.772968   1.000000
    8       -9.772968   1.000000
    9       -7.714901   1.000000
   10       -7.714900   1.000000
   11       -6.358605   1.000000
   12       -6.358604   1.000000
   13       -5.781896   1.000000
   14       -5.781896   1.000000
   15       -5.742691   1.000000
   16       -5.742691   1.000000
   17       -5.712499   1.000000
   18       -5.712499   1.000000
   19       -5.676342   1.000000
   20       -5.676342   1.000000
   21       -5.573848   1.000000
   22       -5.573847   1.000000
   23       -5.464701   1.000000
   24       -5.464701   1.000000
   25        1.042133   1.000000
   26        1.042134   1.000000
   27        2.844751   1.000000
   28        2.844752   1.000000
   29        4.666979  -0.000000
   30        4.666980  -0.000000
   31        7.254158   0.000000
   32        7.254159   0.000000
   33        7.844496   0.000000
   34        7.844496   0.000000
   35       10.632299   0.000000
   36       10.632300   0.000000
   37       12.131854   0.000000
   38       12.131856   0.000000
   39       12.459939   0.000000
   40       12.459942   0.000000
 
 -0.2000000E+00  0.1000000E+00 -0.2168404E-18  0.3333333E-02
    1       -9.844652   1.000000
    2       -9.844652   1.000000
    3       -9.827341   1.000000
    4       -9.827341   1.000000
    5       -9.815786   1.000000
    6       -9.815786   1.000000
    7       -9.776781   1.000000
    8       -9.776781   1.000000
    9       -8.086225   1.000000
   10       -8.086224   1.000000
   11       -6.562510   1.000000
   12       -6.562509   1.000000
   13       -5.792378   1.000000
   14       -5.792378   1.000000
   15       -5.750226   1.000000
   16       -5.750226   1.000000
   17       -5.729286   1.000000
   18       -5.729286   1.000000
   19       -5.712688   1.000000
   20       -5.712688   1.000000
   21       -5.546802   1.000000
   22       -5.546802   1.000000
   23       -5.442547   1.000000
   24       -5.442547   1.000000
   25        0.777953   1.000000
   26        0.777954   1.000000
   27        3.748750   1.000053
   28        3.748750   1.000053
   29        5.347681  -0.000000
   30        5.347682  -0.000000
   31        8.372895   0.000000
   32        8.372896   0.000000
   33        8.849563   0.000000
   34        8.849563   0.000000
   35       11.813408   0.000000
   36       11.813408   0.000000
   37       12.629975   0.000000
   38       12.629977   0.000000
   39       13.159623   0.000000
   40       13.159624   0.000000
 
 -0.1000000E+00  0.1000000E+00 -0.2168404E-18  0.3333333E-02
    1       -9.848087   1.000000
    2       -9.848087   1.000000
    3       -9.837177   1.000000
    4       -9.837177   1.000000
    5       -9.822920   1.000000
    6       -9.822920   1.000000
    7       -9.780799   1.000000
    8       -9.780799   1.000000
    9       -8.290219   1.000000
   10       -8.290218   1.000000
   11       -6.690678   1.000000
   12       -6.690677   1.000000
   13       -5.801667   1.000000
   14       -5.801667   1.000000
   15       -5.757165   1.000000
   16       -5.757165   1.000000
   17       -5.748374   1.000000
   18       -5.748374   1.000000
   19       -5.729835   1.000000
   20       -5.729835   1.000000
   21       -5.517292   1.000000
   22       -5.517292   1.000000
   23       -5.416462   1.000000
   24       -5.416462   1.000000
   25        0.571323   1.000000
   26        0.571325   1.000000
   27        4.283396  -0.003310
   28        4.283396  -0.003310
   29        5.958128  -0.000000
   30        5.958129  -0.000000
   31        9.451819   0.000000
   32        9.451820   0.000000
   33        9.597768   0.000000
   34        9.597770   0.000000
   35       12.329459   0.000000
   36       12.329461   0.000000
   37       12.608418   0.000000
   38       12.608419   0.000000
   39       13.123041   0.000000
   40       13.123043   0.000000
 
  0.7432714E-19  0.2000000E+00  0.0000000E+00  0.3333333E-02
    1       -9.844320   1.000000
    2       -9.844320   1.000000
    3       -9.823602   1.000000
    4       -9.823602   1.000000
    5       -9.815372   1.000000
    6       -9.815372   1.000000
    7       -9.774716   1.000000
    8       -9.774716   1.000000
    9       -8.002712   1.000000
   10       -8.002711   1.000000
   11       -6.521035   1.000000
   12       -6.521034   1.000000
   13       -5.794827   1.000000
   14       -5.794827   1.000000
   15       -5.739955   1.000000
   16       -5.739955   1.000000
   17       -5.726675   1.000000
   18       -5.726675   1.000000
   19       -5.699892   1.000000
   20       -5.699892   1.000000
   21       -5.557586   1.000000
   22       -5.557586   1.000000
   23       -5.448022   1.000000
   24       -5.448022   1.000000
   25        0.850548   1.000000
   26        0.850549   1.000000
   27        3.474930   1.000000
   28        3.474930   1.000000
   29        5.096493  -0.000000
   30        5.096494  -0.000000
   31        8.268301   0.000000
   32        8.268301   0.000000
   33        8.463828   0.000000
   34        8.463829   0.000000
   35       11.652216   0.000000
   36       11.652217   0.000000
   37       11.975037   0.000000
   38       11.975039   0.000000
   39       13.395887   0.000000
   40       13.395889   0.000000
 
  0.1000000E+00  0.2000000E+00 -0.4336809E-18  0.3333333E-02
    1       -9.839656   1.000000
    2       -9.839656   1.000000
    3       -9.813453   1.000000
    4       -9.813453   1.000000
    5       -9.808273   1.000000
    6       -9.808273   1.000000
    7       -9.772767   1.000000
    8       -9.772767   1.000000
    9       -7.733805   1.000000
   10       -7.733804   1.000000
   11       -6.378033   1.000000
   12       -6.378032   1.000000
   13       -5.784351   1.000000
   14       -5.784351   1.000000
   15       -5.742388   1.000000
   16       -5.742388   1.000000
   17       -5.713600   1.000000
   18       -5.713600   1.000000
   19       -5.675412   1.000000
   20       -5.675411   1.000000
   21       -5.572814   1.000000
   22       -5.572814   1.000000
   23       -5.463827   1.000000
   24       -5.463827   1.000000
   25        1.032870   1.000000
   26        1.032871   1.000000
   27        2.850121   1.000000
   28        2.850122   1.000000
   29        4.658006  -0.000000
   30        4.658006  -0.000000
   31        7.271725   0.000000
   32        7.271725   0.000000
   33        7.862209   0.000000
   34        7.862210   0.000000
   35       10.610037   0.000000
   36       10.610038   0.000000
   37       12.251678   0.000000
   38       12.251683   0.000000
   39       12.502050   0.000000
   40       12.502054   0.000000
 
  0.2000000E+00  0.2000000E+00 -0.8673617E-18  0.3333333E-02
    1       -9.831569   1.000000
    2       -9.831569   1.000000
    3       -9.801211   1.000000
    4       -9.801211   1.000000
    5       -9.797433   1.000000
    6       -9.797433   1.000000
    7       -9.774683   1.000000
    8       -9.774683   1.000000
    9       -7.338564   1.000000
   10       -7.338563   1.000000
   11       -6.206895   1.000000
   12       -6.206894   1.000000
   13       -5.774602   1.000000
   14       -5.774602   1.000000
   15       -5.768789   1.000000
   16       -5.768789   1.000000
   17       -5.703511   1.000000
   18       -5.703511   1.000000
   19       -5.667530   1.000000
   20       -5.667529   1.000000
   21       -5.547024   1.000000
   22       -5.547024   1.000000
   23       -5.469917   1.000000
   24       -5.469916   1.000000
   25        1.160326   1.000000
   26        1.160327   1.000000
   27        2.123425   1.000000
   28        2.123426   1.000000
   29        4.517614  -0.000000
   30        4.517615  -0.000000
   31        6.227755  -0.000000
   32        6.227755  -0.000000
   33        6.909235   0.000000
   34        6.909236   0.000000
   35        9.374306   0.000000
   36        9.374307   0.000000
   37       11.303655   0.000000
   38       11.303659   0.000000
   39       13.400262   0.000000
   40       13.400264   0.000000
 
  0.3000000E+00  0.2000000E+00 -0.4336809E-18  0.3333333E-02
    1       -9.822479   1.000000
    2       -9.822479   1.000000
    3       -9.794401   1.000000
    4       -9.794401   1.000000
    5       -9.787181   1.000000
    6       -9.787181   1.000000
    7       -9.778058   1.000000
    8       -9.778058   1.000000
    9       -6.915930   1.000000
   10       -6.915929   1.000000
   11       -6.136616   1.000000
   12       -6.136616   1.000000
   13       -5.800848   1.000000
   14       -5.800848   1.000000
   15       -5.773603   1.000000
   16       -5.773603   1.000000
   17       -5.699771   1.000000
   18       -5.699771   1.000000
   19       -5.631469   1.000000
   20       -5.631469   1.000000
   21       -5.523723   1.000000
   22       -5.523723   1.000000
   23       -5.460117   1.000000
   24       -5.460116   1.000000
   25        1.136898   1.000000
   26        1.136898   1.000000
   27        1.551519   1.000000
   28        1.551520   1.000000
   29        4.849221  -0.000000
   30        4.849222  -0.000000
   31        5.433275  -0.000000
   32        5.433275  -0.000000
   33        6.169927  -0.000000
   34        6.169928  -0.000000
   35        8.248509   0.000000
   36        8.248510   0.000000
   37       10.631848   0.000000
   38       10.631851   0.000000
   39       13.291164   0.000000
   40       13.291166   0.000000
 
  0.4000000E+00  0.2000000E+00 -0.8673617E-18  0.3333333E-02
    1       -9.817373   1.000000
    2       -9.817373   1.000000
    3       -9.795444   1.000000
    4       -9.795444   1.000000
    5       -9.782327   1.000000
    6       -9.782327   1.000000
    7       -9.778451   1.000000
    8       -9.778451   1.000000
    9       -6.678376   1.000000
   10       -6.678376   1.000000
   11       -6.190014   1.000000
   12       -6.190014   1.000000
   13       -5.791166   1.000000
   14       -5.791165   1.000000
   15       -5.769987   1.000000
   16       -5.769987   1.000000
   17       -5.722073   1.000000
   18       -5.722073   1.000000
   19       -5.568809   1.000000
   20       -5.568809   1.000000
   21       -5.541706   1.000000
   22       -5.541706   1.000000
   23       -5.447420   1.000000
   24       -5.447420   1.000000
   25        1.042542   1.000000
   26        1.042543   1.000000
   27        1.379888   1.000000
   28        1.379889   1.000000
   29        5.091217  -0.000000
   30        5.091218  -0.000000
   31        5.208816  -0.000000
   32        5.208816  -0.000000
   33        5.894881  -0.000000
   34        5.894882  -0.000000
   35        7.689353   0.000000
   36        7.689354   0.000000
   37       10.422721   0.000000
   38       10.422725   0.000000
   39       13.177857   0.000000
   40       13.177859   0.000000
 
  0.5000000E+00  0.2000000E+00  0.0000000E+00  0.3333333E-02
    1       -9.822380   1.000000
    2       -9.822380   1.000000
    3       -9.794660   1.000000
    4       -9.794660   1.000000
    5       -9.786750   1.000000
    6       -9.786750   1.000000
    7       -9.777658   1.000000
    8       -9.777658   1.000000
    9       -6.900046   1.000000
   10       -6.900045   1.000000
   11       -6.133884   1.000000
   12       -6.133884   1.000000
   13       -5.803037   1.000000
   14       -5.803037   1.000000
   15       -5.772234   1.000000
   16       -5.772234   1.000000
   17       -5.698583   1.000000
   18       -5.698583   1.000000
   19       -5.632018   1.000000
   20       -5.632018   1.000000
   21       -5.514363   1.000000