    2    2  999    1
  0.3832805E+02  0.3810319E-09  0.3844191E-09  0.6031292E-09  0.1000000E-15
  1.000000000000000E-004
  CAR 
 Cn_HCP                                  
     28    304     40
 
  0.0000000E+00  0.0000000E+00  0.0000000E+00  0.1666667E-02
    1       -9.638628   1.000000
    2       -9.638628   1.000000
    3       -9.628927   1.000000
    4       -9.628927   1.000000
    5       -9.611936   1.000000
    6       -9.611936   1.000000
    7       -9.568088   1.000000
    8       -9.568088   1.000000
    9       -8.410586   1.000000
   10       -8.410586   1.000000
   11       -6.568128   1.000000
   12       -6.568128   1.000000
   13       -5.599358   1.000000
   14       -5.599358   1.000000
   15       -5.570204   1.000000
   16       -5.570204   1.000000
   17       -5.548734   1.000000
   18       -5.548734   1.000000
   19       -5.518456   1.000000
   20       -5.518456   1.000000
   21       -5.252099   1.000000
   22       -5.252099   1.000000
   23       -5.105834   1.000000
   24       -5.105834   1.000000
   25        0.459072   1.000000
   26        0.459073   1.000000
   27        5.028958  -0.000000
   28        5.028958  -0.000000
   29        6.707974  -0.000000
   30        6.707974  -0.000000
   31       10.970804   0.000000
   32       10.970804   0.000000
   33       11.073900   0.000000
   34       11.073901   0.000000
   35       11.880270   0.000000
   36       11.880271   0.000000
   37       12.809571   0.000000
   38       12.809571   0.000000
   39       13.644343   0.000000
   40       13.644343   0.000000
 
  0.1000000E+00 -0.1338497E-16  0.1084202E-18  0.3333333E-02
    1       -9.636259   1.000000
    2       -9.636259   1.000000
    3       -9.623045   1.000000
    4       -9.623045   1.000000
    5       -9.607094   1.000000
    6       -9.607094   1.000000
    7       -9.564122   1.000000
    8       -9.564122   1.000000
    9       -8.295644   1.000000
   10       -8.295644   1.000000
   11       -6.493980   1.000000
   12       -6.493980   1.000000
   13       -5.601187   1.000000
   14       -5.601187   1.000000
   15       -5.546776   1.000000
   16       -5.546776   1.000000
   17       -5.537991   1.000000
   18       -5.537991   1.000000
   19       -5.519455   1.000000
   20       -5.519455   1.000000
   21       -5.272013   1.000000
   22       -5.272013   1.000000
   23       -5.127127   1.000000
   24       -5.127127   1.000000
   25        0.596114   1.000000
   26        0.596114   1.000000
   27        4.713243  -0.000049
   28        4.713243  -0.000049
   29        6.279768  -0.000000
   30        6.279768  -0.000000
   31        9.868307   0.000000
   32        9.868307   0.000000
   33       10.117130   0.000000
   34       10.117130   0.000000
   35       12.809935   0.000000
   36       12.809935   0.000000
   37       13.212363   0.000000
   38       13.212363   0.000000
   39       13.457877   0.000000
   40       13.457878   0.000000
 
  0.2000000E+00 -0.1289491E-16  0.2168404E-18  0.3333333E-02
    1       -9.631196   1.000000
    2       -9.631196   1.000000
    3       -9.608164   1.000000
    4       -9.608164   1.000000
    5       -9.597135   1.000000
    6       -9.597135   1.000000
    7       -9.555500   1.000000
    8       -9.555500   1.000000
    9       -7.965576   1.000000
   10       -7.965576   1.000000
   11       -6.293045   1.000000
   12       -6.293045   1.000000
   13       -5.590793   1.000000
   14       -5.590793   1.000000
   15       -5.528583   1.000000
   16       -5.528583   1.000000
   17       -5.512363   1.000000
   18       -5.512362   1.000000
   19       -5.487115   1.000000
   20       -5.487115   1.000000
   21       -5.319954   1.000000
   22       -5.319954   1.000000
   23       -5.170669   1.000000
   24       -5.170669   1.000000
   25        0.930763   1.000000
   26        0.930764   1.000000
   27        3.830986   1.000000
   28        3.830987   1.000000
   29        5.351635  -0.000000
   30        5.351635  -0.000000
   31        8.568714   0.000000
   32        8.568714   0.000000
   33        8.925225   0.000000
   34        8.925226   0.000000
   35       12.183148   0.000000
   36       12.183148   0.000000
   37       12.255680   0.000000
   38       12.255681   0.000000
   39       13.829907   0.000000
   40       13.829948   0.000000
 
  0.3000000E+00 -0.3321894E-16  0.2168404E-18  0.3333333E-02
    1       -9.624487   1.000000
    2       -9.624487   1.000000
    3       -9.593294   1.000000
    4       -9.593294   1.000000
    5       -9.587427   1.000000
    6       -9.587427   1.000000
    7       -9.550327   1.000000
    8       -9.550327   1.000000
    9       -7.479260   1.000000
   10       -7.479260   1.000000
   11       -6.055475   1.000000
   12       -6.055475   1.000000
   13       -5.593845   1.000000
   14       -5.593845   1.000000
   15       -5.522593   1.000000
   16       -5.522593   1.000000
   17       -5.459084   1.000000
   18       -5.459084   1.000000
   19       -5.448731   1.000000
   20       -5.448731   1.000000
   21       -5.334997   1.000000
   22       -5.334997   1.000000
   23       -5.193532   1.000000
   24       -5.193532   1.000000
   25        1.203147   1.000000
   26        1.203147   1.000000
   27        2.666230   1.000000
   28        2.666231   1.000000
   29        4.676498  -0.000359
   30        4.676499  -0.000359
   31        7.387555   0.000000
   32        7.387555   0.000000
   33        7.996862   0.000000
   34        7.996862   0.000000
   35       10.797196   0.000000
   36       10.797197   0.000000
   37       11.562856   0.000000
   38       11.562857   0.000000
   39       13.014496   0.000000
   40       13.014497   0.000000
 
  0.4000000E+00 -0.2578982E-16  0.4336809E-18  0.3333333E-02
    1       -9.617643   1.000000
    2       -9.617643   1.000000
    3       -9.587592   1.000000
    4       -9.587592   1.000000
    5       -9.575733   1.000000
    6       -9.575733   1.000000
    7       -9.552835   1.000000
    8       -9.552835   1.000000
    9       -6.975338   1.000000
   10       -6.975338   1.000000
   11       -5.938298   1.000000
   12       -5.938298   1.000000
   13       -5.596381   1.000000
   14       -5.596381   1.000000
   15       -5.563203   1.000000
   16       -5.563203   1.000000
   17       -5.452113   1.000000
   18       -5.452113   1.000000
   19       -5.381198   1.000000
   20       -5.381198   1.000000
   21       -5.253669   1.000000
   22       -5.253669   1.000000
   23       -5.162631   1.000000
   24       -5.162631   1.000000
   25        1.124218   1.000000
   26        1.124218   1.000000
   27        1.719684   1.000000
   28        1.719684   1.000000
   29        4.725760  -0.000023
   30        4.725760  -0.000023
   31        6.502647  -0.000000
   32        6.502647  -0.000000
   33        7.238707   0.000000
   34        7.238707   0.000000
   35        9.753455   0.000000
   36        9.753455   0.000000
   37       11.181131   0.000000
   38       11.181132   0.000000
   39       12.495102   0.000000
   40       12.495103   0.000000
 
  0.5000000E+00 -0.1835838E-16  0.2168404E-18  0.1666667E-02
    1       -9.614375   1.000000
    2       -9.614375   1.000000
    3       -9.586777   1.000000
    4       -9.586777   1.000000
    5       -9.568331   1.000000
    6       -9.568331   1.000000
    7       -9.557728   1.000000
    8       -9.557728   1.000000
    9       -6.727509   1.000000
   10       -6.727509   1.000000
   11       -5.946652   1.000000
   12       -5.946651   1.000000
   13       -5.586623   1.000000
   14       -5.586623   1.000000
   15       -5.582444   1.000000
   16       -5.582444   1.000000
   17       -5.464936   1.000000
   18       -5.464936   1.000000
   19       -5.360285   1.000000
   20       -5.360285   1.000000
   21       -5.194295   1.000000
   22       -5.194295   1.000000
   23       -5.128514   1.000000
   24       -5.128514   1.000000
   25        0.995843   1.000000
   26        0.995843   1.000000
   27        1.352366   1.000000
   28        1.352366   1.000000
   29        5.075151  -0.000000
   30        5.075151  -0.000000
   31        6.030857  -0.000000
   32        6.030858  -0.000000
   33        6.890069  -0.000000
   34        6.890069  -0.000000
   35        9.377604   0.000000
   36        9.377604   0.000000
   37       11.059499   0.000000
   38       11.059500   0.000000
   39       12.319349   0.000000
   40       12.319350   0.000000
 
  0.8470329E-21  0.1000000E+00  0.5421011E-19  0.3333333E-02
    1       -9.636680   1.000000
    2       -9.636680   1.000000
    3       -9.623108   1.000000
    4       -9.623108   1.000000
    5       -9.607907   1.000000
    6       -9.607907   1.000000
    7       -9.563912   1.000000
    8       -9.563912   1.000000
    9       -8.298800   1.000000
   10       -8.298800   1.000000
   11       -6.497658   1.000000
   12       -6.497658   1.000000
   13       -5.600566   1.000000
   14       -5.600566   1.000000
   15       -5.552093   1.000000
   16       -5.552093   1.000000
   17       -5.539033   1.000000
   18       -5.539033   1.000000
   19       -5.513948   1.000000
   20       -5.513948   1.000000
   21       -5.271247   1.000000
   22       -5.271247   1.000000
   23       -5.126411   1.000000
   24       -5.126411   1.000000
   25        0.592802   1.000000
   26        0.592803   1.000000
   27        4.709345  -0.000061
   28        4.709345  -0.000061
   29        6.265962  -0.000000
   30        6.265962  -0.000000
   31        9.883376   0.000000
   32        9.883376   0.000000
   33       10.138211   0.000000
   34       10.138212   0.000000
   35       12.812852   0.000000
   36       12.812852   0.000000
   37       13.256872   0.000000
   38       13.256872   0.000000
   39       13.501865   0.000000
   40       13.501866   0.000000
 
  0.1000000E+00  0.1000000E+00  0.1084202E-18  0.3333333E-02
    1       -9.632920   1.000000
    2       -9.632920   1.000000
    3       -9.612795   1.000000
    4       -9.612794   1.000000
    5       -9.600555   1.000000
    6       -9.600555   1.000000
    7       -9.557805   1.000000
    8       -9.557805   1.000000
    9       -8.078118   1.000000
   10       -8.078118   1.000000
   11       -6.361603   1.000000
   12       -6.361603   1.000000
   13       -5.590552   1.000000
   14       -5.590552   1.000000
   15       -5.546417   1.000000
   16       -5.546417   1.000000
   17       -5.516950   1.000000
   18       -5.516950   1.000000
   19       -5.493270   1.000000
   20       -5.493270   1.000000
   21       -5.305305   1.000000
   22       -5.305305   1.000000
   23       -5.158629   1.000000
   24       -5.158629   1.000000
   25        0.828579   1.000000
   26        0.828579   1.000000
   27        4.125633   1.000331
   28        4.125633   1.000331
   29        5.590994  -0.000000
   30        5.590995  -0.000000
   31        8.744372   0.000000
   32        8.744372   0.000000
   33        9.361304   0.000000
   34        9.361305   0.000000
   35       12.401487   0.000000
   36       12.401488   0.000000
   37       12.999934   0.000000
   38       12.999934   0.000000
   39       13.602456   0.000000
   40       13.602457   0.000000
 
  0.2000000E+00  0.1000000E+00  0.2168404E-18  0.3333333E-02
    1       -9.626370   1.000000
    2       -9.626370   1.000000
    3       -9.597269   1.000000
    4       -9.597268   1.000000
    5       -9.590098   1.000000
    6       -9.590098   1.000000
    7       -9.552294   1.000000
    8       -9.552294   1.000000
    9       -7.668556   1.000000
   10       -7.668556   1.000000
   11       -6.135471   1.000000
   12       -6.135471   1.000000
   13       -5.578875   1.000000
   14       -5.578875   1.000000
   15       -5.535946   1.000000
   16       -5.535946   1.000000
   17       -5.494656   1.000000
   18       -5.494656   1.000000
   19       -5.455207   1.000000
   20       -5.455207   1.000000
   21       -5.336622   1.000000
   22       -5.336622   1.000000
   23       -5.193689   1.000000
   24       -5.193689   1.000000
   25        1.144493   1.000000
   26        1.144493   1.000000
   27        3.144716   1.000000
   28        3.144717   1.000000
   29        4.843797  -0.000000
   30        4.843797  -0.000000
   31        7.553975   0.000000
   32        7.553975   0.000000
   33        8.269337   0.000000
   34        8.269337   0.000000
   35       11.097200   0.000000
   36       11.097200   0.000000
   37       12.477626   0.000000
   38       12.477627   0.000000
   39       12.748387   0.000000
   40       12.748388   0.000000
 
  0.3000000E+00  0.1000000E+00  0.0000000E+00  0.3333333E-02
    1       -9.618387   1.000000
    2       -9.618387   1.000000
    3       -9.585551   1.000000
    4       -9.585551   1.000000
    5       -9.579307   1.000000
    6       -9.579307   1.000000
    7       -9.552459   1.000000
    8       -9.552459   1.000000
    9       -7.158801   1.000000
   10       -7.158800   1.000000
   11       -5.944350   1.000000
   12       -5.944349   1.000000
   13       -5.589822   1.000000
   14       -5.589822   1.000000
   15       -5.557034   1.000000
   16       -5.557034   1.000000
   17       -5.451834   1.000000
   18       -5.451834   1.000000
   19       -5.424425   1.000000
   20       -5.424425   1.000000
   21       -5.300284   1.000000
   22       -5.300284   1.000000
   23       -5.191712   1.000000
   24       -5.191712   1.000000
   25        1.241899   1.000000
   26        1.241899   1.000000
   27        2.116550   1.000000
   28        2.116551   1.000000
   29        4.655811  -0.000969
   30        4.655811  -0.000969
   31        6.570221  -0.000000
   32        6.570221  -0.000000
   33        7.318732   0.000000
   34        7.318732   0.000000
   35        9.794371   0.000000
   36        9.794371   0.000000
   37       11.938918   0.000000
   38       11.938919   0.000000
   39       12.146262   0.000000
   40       12.146263   0.000000
 
  0.4000000E+00  0.1000000E+00  0.4336809E-18  0.3333333E-02
    1       -9.611792   1.000000
    2       -9.611792   1.000000
    3       -9.582837   1.000000
    4       -9.582837   1.000000
    5       -9.568925   1.000000
    6       -9.568925   1.000000
    7       -9.557127   1.000000
    8       -9.557127   1.000000
    9       -6.738098   1.000000
   10       -6.738098   1.000000
   11       -5.916687   1.000000
   12       -5.916687   1.000000
   13       -5.592531   1.000000
   14       -5.592531   1.000000
   15       -5.576497   1.000000
   16       -5.576497   1.000000
   17       -5.480349   1.000000
   18       -5.480348   1.000000
   19       -5.360358   1.000000
   20       -5.360358   1.000000
   21       -5.232103   1.000000
   22       -5.232103   1.000000
   23       -5.154130   1.000000
   24       -5.154129   1.000000
   25        1.085484   1.000000
   26        1.085484   1.000000
   27        1.492386   1.000000
   28        1.492387   1.000000
   29        5.046533  -0.000000
   30        5.046533  -0.000000
   31        5.973201  -0.000000
   32        5.973201  -0.000000
   33        6.612605  -0.000000
   34        6.612605  -0.000000
   35        8.978420   0.000000
   36        8.978421   0.000000
   37       11.638628   0.000000
   38       11.638629   0.000000
   39       11.885912   0.000000
   40       11.885913   0.000000
 
  0.5000000E+00  0.1000000E+00 -0.4336809E-18  0.3333333E-02
    1       -9.611791   1.000000
    2       -9.611791   1.000000
    3       -9.582889   1.000000
    4       -9.582889   1.000000
    5       -9.568868   1.000000
    6       -9.568868   1.000000
    7       -9.557093   1.000000
    8       -9.557093   1.000000
    9       -6.734234   1.000000
   10       -6.734233   1.000000
   11       -5.916890   1.000000
   12       -5.916890   1.000000
   13       -5.592408   1.000000
   14       -5.592408   1.000000
   15       -5.577911   1.000000
   16       -5.577911   1.000000
   17       -5.478210   1.000000
   18       -5.478210   1.000000
   19       -5.362605   1.000000
   20       -5.362605   1.000000
   21       -5.226668   1.000000
   22       -5.226668   1.000000
   23       -5.151906   1.000000
   24       -5.151906   1.000000
   25        1.082238   1.000000
   26        1.082238   1.000000
   27        1.482277   1.000000
   28        1.482277   1.000000
   29        5.050666  -0.000000
   30        5.050666  -0.000000
   31        5.974358  -0.000000
   32        5.974358  -0.000000
   33        6.616369  -0.000000
   34        6.616369  -0.000000
   35        8.981216   0.000000
   36        8.981217   0.000000
   37       11.647004   0.000000
   38       11.647005   0.000000
   39       11.873332   0.000000
   40       11.873333   0.000000
 
 -0.4000000E+00  0.1000000E+00  0.1084202E-18  0.3333333E-02
    1       -9.618358   1.000000
    2       -9.618358   1.000000
    3       -9.585482   1.000000
    4       -9.585482   1.000000
    5       -9.579179   1.000000
    6       -9.579179   1.000000
    7       -9.552291   1.000000
    8       -9.552291   1.000000
    9       -7.150184   1.000000
   10       -7.150184   1.000000
   11       -5.941643   1.000000
   12       -5.941643   1.000000
   13       -5.589258   1.000000
   14       -5.589258   1.000000
   15       -5.558622   1.000000
   16       -5.558622   1.000000
   17       -5.448984   1.000000
   18       -5.448984   1.000000
   19       -5.424446   1.000000
   20       -5.424446   1.000000
   21       -5.295441   1.000000
   22       -5.295441   1.000000
   23       -5.188083   1.000000
   24       -5.188083   1.000000
   25        1.237074   1.000000
   26        1.237074   1.000000
   27        2.098299   1.000000
   28        2.098299   1.000000
   29        4.653122  -0.001095
   30        4.653122  -0.001095
   31        6.586640  -0.000000
   32        6.586641  -0.000000
   33        7.326195   0.000000
   34        7.326196   0.000000
   35        9.799464   0.000000
   36        9.799464   0.000000
   37       11.955003   0.000000
   38       11.955004   0.000000
   39       12.117184   0.000000
   40       12.117185   0.000000
 
 -0.3000000E+00  0.1000000E+00  0.0000000E+00  0.3333333E-02
    1       -9.626248   1.000000
    2       -9.626248   1.000000
    3       -9.596882   1.000000
    4       -9.596882   1.000000
    5       -9.589624   1.000000
    6       -9.589624   1.000000
    7       -9.552157   1.000000
    8       -9.552157   1.000000
    9       -7.659545   1.000000
   10       -7.659545   1.000000
   11       -6.128111   1.000000
   12       -6.128110   1.000000
   13       -5.578560   1.000000
   14       -5.578560   1.000000
   15       -5.535257   1.000000
   16       -5.535257   1.000000
   17       -5.492438   1.000000
   18       -5.492438   1.000000
   19       -5.454550   1.000000
   20       -5.454550   1.000000
   21       -5.337818   1.000000
   22       -5.337818   1.000000
   23       -5.192725   1.000000
   24       -5.192725   1.000000
   25        1.147566   1.000000
   26        1.147566   1.000000
   27        3.131538   1.000000
   28        3.131538   1.000000
   29        4.839197  -0.000000
   30        4.839197  -0.000000
   31        7.577769   0.000000
   32        7.577769   0.000000
   33        8.270034   0.000000
   34        8.270035   0.000000
   35       11.105345   0.000000
   36       11.105345   0.000000
   37       12.450226   0.000000
   38       12.450227   0.000000
   39       12.750250   0.000000
   40       12.750251   0.000000
 
 -0.2000000E+00  0.1000000E+00  0.5421011E-19  0.3333333E-02
    1       -9.632600   1.000000
    2       -9.632600   1.000000
    3       -9.612484   1.000000
    4       -9.612484   1.000000
    5       -9.599617   1.000000
    6       -9.599617   1.000000
    7       -9.557958   1.000000
    8       -9.557958   1.000000
    9       -8.071940   1.000000
   10       -8.071940   1.000000
   11       -6.354943   1.000000
   12       -6.354943   1.000000
   13       -5.590800   1.000000
   14       -5.590800   1.000000
   15       -5.541947   1.000000
   16       -5.541947   1.000000
   17       -5.515936   1.000000
   18       -5.515936   1.000000
   19       -5.497198   1.000000
   20       -5.497198   1.000000
   21       -5.306902   1.000000
   22       -5.306902   1.000000
   23       -5.159281   1.000000
   24       -5.159281   1.000000
   25        0.833827   1.000000
   26        0.833827   1.000000
   27        4.125113   1.000323
   28        4.125113   1.000323
   29        5.597924  -0.000000
   30        5.597925  -0.000000
   31        8.760156   0.000000
   32        8.760156   0.000000
   33        9.341018   0.000000
   34        9.341018   0.000000
   35       12.399277   0.000000
   36       12.399277   0.000000
   37       12.948414   0.000000
   38       12.948415   0.000000
   39       13.548738   0.000000
   40       13.548739   0.000000
 
 -0.1000000E+00  0.1000000E+00 -0.6776264E-20  0.3333333E-02
    1       -9.636395   1.000000
    2       -9.636395   1.000000
    3       -9.623080   1.000000
    4       -9.623080   1.000000
    5       -9.607343   1.000000
    6       -9.607343   1.000000
    7       -9.564069   1.000000
    8       -9.564069   1.000000
    9       -8.296690   1.000000
   10       -8.296690   1.000000
   11       -6.495160   1.000000
   12       -6.495160   1.000000
   13       -5.600971   1.000000
   14       -5.600971   1.000000
   15       -5.548766   1.000000
   16       -5.548766   1.000000
   17       -5.538308   1.000000
   18       -5.538308   1.000000
   19       -5.517486   1.000000
   20       -5.517486   1.000000
   21       -5.271763   1.000000
   22       -5.271763   1.000000
   23       -5.126902   1.000000
   24       -5.126902   1.000000
   25        0.595032   1.000000
   26        0.595033   1.000000
   27        4.712238  -0.000052
   28        4.712238  -0.000052
   29        6.275442  -0.000000
   30        6.275442  -0.000000
   31        9.873821   0.000000
   32        9.873821   0.000000
   33       10.123053   0.000000
   34       10.123054   0.000000
   35       12.808443   0.000000
   36       12.808444   0.000000
   37       13.223700   0.000000
   38       13.223700   0.000000
   39       13.479102   0.000000
   40       13.479103   0.000000
 
 -0.2721093E-19  0.2000000E+00  0.0000000E+00  0.3333333E-02
    1       -9.632090   1.000000
    2       -9.632090   1.000000
    3       -9.608875   1.000000
    4       -9.608875   1.000000
    5       -9.599528   1.000000
    6       -9.599528   1.000000
    7       -9.554851   1.000000
    8       -9.554851   1.000000
    9       -7.978214   1.000000
   10       -7.978214   1.000000
   11       -6.308056   1.000000
   12       -6.308056   1.000000
   13       -5.592861   1.000000
   14       -5.592861   1.000000
   15       -5.530725   1.000000
   16       -5.530725   1.000000
   17       -5.514400   1.000000
   18       -5.514400   1.000000
   19       -5.481125   1.000000
   20       -5.481125   1.000000
   21       -5.317925   1.000000
   22       -5.317925   1.000000
   23       -5.168499   1.000000
   24       -5.168499   1.000000
   25        0.919913   1.000000
   26        0.919913   1.000000
   27        3.816737   1.000000
   28        3.816737   1.000000
   29        5.328032  -0.000000
   30        5.328032  -0.000000
   31        8.652470   0.000000
   32        8.652470   0.000000
   33        8.931556   0.000000
   34        8.931556   0.000000
   35       12.162209   0.000000
   36       12.162209   0.000000
   37       12.288206   0.000000
   38       12.288207   0.000000
   39       13.911968   0.000000
   40       13.912000   0.000000
 
  0.1000000E+00  0.2000000E+00 -0.2168404E-18  0.3333333E-02
    1       -9.626968   1.000000
    2       -9.626968   1.000000
    3       -9.597867   1.000000
    4       -9.597867   1.000000
    5       -9.591823   1.000000
    6       -9.591823   1.000000
    7       -9.551702   1.000000
    8       -9.551702   1.000000
    9       -7.678341   1.000000
   10       -7.678341   1.000000
   11       -6.148302   1.000000
   12       -6.148302   1.000000
   13       -5.581416   1.000000
   14       -5.581416   1.000000
   15       -5.534871   1.000000
   16       -5.534871   1.000000
   17       -5.493301   1.000000
   18       -5.493301   1.000000
   19       -5.452721   1.000000
   20       -5.452721   1.000000
   21       -5.336575   1.000000
   22       -5.336575   1.000000
   23       -5.191895   1.000000
   24       -5.191895   1.000000
   25        1.137098   1.000000
   26        1.137098   1.000000
   27        3.131180   1.000000
   28        3.131181   1.000000
   29        4.828738  -0.000000
   30        4.828738  -0.000000
   31        7.605518   0.000000
   32        7.605518   0.000000
   33        8.288856   0.000000
   34        8.288856   0.000000
   35       11.076371   0.000000
   36       11.076371   0.000000
   37       12.574484   0.000000
   38       12.574485   0.000000
   39       12.808817   0.000000
   40       12.808818   0.000000
 
  0.2000000E+00  0.2000000E+00 -0.2168404E-18  0.3333333E-02
    1       -9.618155   1.000000
    2       -9.618155   1.000000
    3       -9.583679   1.000000
    4       -9.583679   1.000000
    5       -9.580180   1.000000
    6       -9.580180   1.000000
    7       -9.553632   1.000000
    8       -9.553632   1.000000
    9       -7.236377   1.000000
   10       -7.236377   1.000000
   11       -5.953305   1.000000
   12       -5.953305   1.000000
   13       -5.573675   1.000000
   14       -5.573675   1.000000
   15       -5.562832   1.000000
   16       -5.562832   1.000000
   17       -5.473705   1.000000
   18       -5.473705   1.000000
   19       -5.446047   1.000000
   20       -5.446047   1.000000
   21       -5.308267   1.000000
   22       -5.308267   1.000000
   23       -5.204830   1.000000
   24       -5.204830   1.000000
   25        1.291092   1.000000
   26        1.291093   1.000000
   27        2.336143   1.000000
   28        2.336144   1.000000
   29        4.649767  -0.001271
   30        4.649767  -0.001271
   31        6.494296  -0.000000
   32        6.494296  -0.000000
   33        7.264832   0.000000
   34        7.264833   0.000000
   35        9.786274   0.000000
   36        9.786274   0.000000
   37       11.556227   0.000000
   38       11.556228   0.000000
   39       13.775240   0.000000
   40       13.775241   0.000000
 
  0.3000000E+00  0.2000000E+00  0.4336809E-18  0.3333333E-02
    1       -9.608000   1.000000
    2       -9.608000   1.000000
    3       -9.576230   1.000000
    4       -9.576230   1.000000
    5       -9.568827   1.000000
    6       -9.568827   1.000000
    7       -9.557550   1.000000
    8       -9.557550   1.000000
    9       -6.760603   1.000000
   10       -6.760603   1.000000
   11       -5.864369   1.000000
   12       -5.864369   1.000000
   13       -5.606464   1.000000
   14       -5.606464   1.000000
   15       -5.570773   1.000000
   16       -5.570773   1.000000
   17       -5.481475   1.000000
   18       -5.481475   1.000000
   19       -5.398037   1.000000
   20       -5.398037   1.000000
   21       -5.274239   1.000000
   22       -5.274239   1.000000
   23       -5.199596   1.000000
   24       -5.199596   1.000000
   25        1.257688   1.000000
   26        1.257688   1.000000
   27        1.716389   1.000000
   28        1.716390   1.000000
   29        5.014991  -0.000000
   30        5.014991  -0.000000
   31        5.640172  -0.000000
   32        5.640172  -0.000000
   33        6.452216  -0.000000
   34        6.452216  -0.000000
   35        8.594531   0.000000
   36        8.594532   0.000000
   37       10.872647   0.000000
   38       10.872648   0.000000
   39       13.665583   0.000000
   40       13.665584   0.000000
 
  0.4000000E+00  0.2000000E+00  0.0000000E+00  0.3333333E-02
    1       -9.602078   1.000000
    2       -9.602078   1.000000
    3       -9.577887   1.000000
    4       -9.577887   1.000000
    5       -9.563573   1.000000
    6       -9.563573   1.000000
    7       -9.557837   1.000000
    8       -9.557837   1.000000
    9       -6.493004   1.000000
   10       -6.493004   1.000000
   11       -5.927998   1.000000
   12       -5.927998   1.000000
   13       -5.589364   1.000000
   14       -5.589364   1.000000
   15       -5.567968   1.000000
   16       -5.567968   1.000000
   17       -5.510041   1.000000
   18       -5.510041   1.000000
   19       -5.330052   1.000000
   20       -5.330052   1.000000
   21       -5.289942   1.000000
   22       -5.289941   1.000000
   23       -5.185946   1.000000
   24       -5.185946   1.000000
   25        1.138078   1.000000
   26        1.138079   1.000000
   27        1.546819   1.000000
   28        1.546819   1.000000
   29        5.266064  -0.000000
   30        5.266064  -0.000000
   31        5.438377  -0.000000
   32        5.438377  -0.000000
   33        6.114553  -0.000000
   34        6.114553  -0.000000
   35        8.004404   0.000000
   36        8.004405   0.000000
   37       10.662176   0.000000
   38       10.662177   0.000000
   39       13.553017   0.000000
   40       13.553018   0.000000
 
  0.5000000E+00  0.2000000E+00 -0.4336809E-18  0.3333333E-02
    1       -9.607873   1.000000
    2       -9.607873   1.000000
    3       -9.576374   1.000000
    4       -9.576374   1.000000
    5       -9.568580   1.000000
    6       -9.568580   1.000000
    7       -9.557235   1.000000
    8       -9.557235   1.000000
    9       -6.746683   1.000000
   10       -6.746683   1.000000
   11       -5.862797   1.000000
   12       -5.862797   1.000000
   13       -5.608259   1.000000
   14       -5.608259   1.000000
   15       -5.569628   1.000000
   16       -5.569628   1.000000
   17       -5.479640   1.000000
   18       -5.479640   1.000000
   19       -5.398303   1.000000
   20       -5.398303   1.000000
   21       -5.265210   1.000000