    2    2  999    1
  0.3820645E+02  0.3804021E-09  0.3842084E-09  0.6030445E-09  0.1000000E-15
  1.000000000000000E-004
  CAR 
 Cn_HCP                                  
     28    304     38
 
  0.0000000E+00  0.0000000E+00  0.0000000E+00  0.1666667E-02
    1       -9.668803   1.000000
    2       -9.668803   1.000000
    3       -9.657603   1.000000
    4       -9.657603   1.000000
    5       -9.639902   1.000000
    6       -9.639902   1.000000
    7       -9.596337   1.000000
    8       -9.596337   1.000000
    9       -8.424372   1.000000
   10       -8.424372   1.000000
   11       -6.564609   1.000000
   12       -6.564609   1.000000
   13       -5.625870   1.000000
   14       -5.625870   1.000000
   15       -5.596460   1.000000
   16       -5.596460   1.000000
   17       -5.574486   1.000000
   18       -5.574485   1.000000
   19       -5.553592   1.000000
   20       -5.553592   1.000000
   21       -5.282109   1.000000
   22       -5.282109   1.000000
   23       -5.135644   1.000000
   24       -5.135644   1.000000
   25        0.446102   1.000000
   26        0.446103   1.000000
   27        4.977186  -0.000000
   28        4.977186  -0.000000
   29        6.628205  -0.000000
   30        6.628205  -0.000000
   31       10.877240   0.000000
   32       10.877240   0.000000
   33       10.948460   0.000000
   34       10.948461   0.000000
   35       11.767414   0.000000
   36       11.767414   0.000000
   37       12.685625   0.000000
   38       12.685625   0.000000
 
  0.1000000E+00 -0.3196808E-17  0.5421011E-19  0.3333333E-02
    1       -9.666592   1.000000
    2       -9.666592   1.000000
    3       -9.651914   1.000000
    4       -9.651914   1.000000
    5       -9.635500   1.000000
    6       -9.635500   1.000000
    7       -9.592645   1.000000
    8       -9.592645   1.000000
    9       -8.312162   1.000000
   10       -8.312162   1.000000
   11       -6.494011   1.000000
   12       -6.494010   1.000000
   13       -5.627936   1.000000
   14       -5.627936   1.000000
   15       -5.574982   1.000000
   16       -5.574982   1.000000
   17       -5.565789   1.000000
   18       -5.565789   1.000000
   19       -5.551045   1.000000
   20       -5.551045   1.000000
   21       -5.301239   1.000000
   22       -5.301239   1.000000
   23       -5.156560   1.000000
   24       -5.156560   1.000000
   25        0.579310   1.000000
   26        0.579311   1.000000
   27        4.660324  -0.000093
   28        4.660324  -0.000093
   29        6.204392  -0.000000
   30        6.204393  -0.000000
   31        9.768479   0.000000
   32        9.768479   0.000000
   33       10.038576   0.000000
   34       10.038576   0.000000
   35       12.705743   0.000000
   36       12.705744   0.000000
   37       13.152825   0.000000
   38       13.152826   0.000000
 
  0.2000000E+00 -0.6398275E-17 -0.1084202E-18  0.3333333E-02
    1       -9.661606   1.000000
    2       -9.661606   1.000000
    3       -9.637742   1.000000
    4       -9.637742   1.000000
    5       -9.626329   1.000000
    6       -9.626329   1.000000
    7       -9.584694   1.000000
    8       -9.584694   1.000000
    9       -7.990322   1.000000
   10       -7.990322   1.000000
   11       -6.303928   1.000000
   12       -6.303928   1.000000
   13       -5.619774   1.000000
   14       -5.619774   1.000000
   15       -5.558318   1.000000
   16       -5.558318   1.000000
   17       -5.542134   1.000000
   18       -5.542134   1.000000
   19       -5.515263   1.000000
   20       -5.515263   1.000000
   21       -5.347627   1.000000
   22       -5.347627   1.000000
   23       -5.199568   1.000000
   24       -5.199568   1.000000
   25        0.904199   1.000000
   26        0.904199   1.000000
   27        3.778940   1.000000
   28        3.778940   1.000000
   29        5.296193  -0.000000
   30        5.296193  -0.000000
   31        8.508708   0.000000
   32        8.508709   0.000000
   33        8.859522   0.000000
   34        8.859522   0.000000
   35       12.107118   0.000000
   36       12.107119   0.000000
   37       12.193583   0.000000
   38       12.193583   0.000000
 
  0.3000000E+00  0.1816102E-16 -0.2168404E-18  0.3333333E-02
    1       -9.654930   1.000000
    2       -9.654930   1.000000
    3       -9.623322   1.000000
    4       -9.623322   1.000000
    5       -9.617342   1.000000
    6       -9.617342   1.000000
    7       -9.580143   1.000000
    8       -9.580143   1.000000
    9       -7.516460   1.000000
   10       -7.516460   1.000000
   11       -6.082313   1.000000
   12       -6.082313   1.000000
   13       -5.623618   1.000000
   14       -5.623618   1.000000
   15       -5.551950   1.000000
   16       -5.551951   1.000000
   17       -5.488074   1.000000
   18       -5.488074   1.000000
   19       -5.480030   1.000000
   20       -5.480030   1.000000
   21       -5.364690   1.000000
   22       -5.364690   1.000000
   23       -5.222846   1.000000
   24       -5.222846   1.000000
   25        1.169559   1.000000
   26        1.169559   1.000000
   27        2.628015   1.000000
   28        2.628015   1.000000
   29        4.644294  -0.000222
   30        4.644294  -0.000222
   31        7.346806   0.000000
   32        7.346806   0.000000
   33        7.950110   0.000000
   34        7.950110   0.000000
   35       10.741048   0.000000
   36       10.741048   0.000000
   37       11.520431   0.000000
   38       11.520432   0.000000
 
  0.4000000E+00 -0.1279655E-16 -0.2168404E-18  0.3333333E-02
    1       -9.648134   1.000000
    2       -9.648134   1.000000
    3       -9.617516   1.000000
    4       -9.617516   1.000000
    5       -9.606158   1.000000
    6       -9.606158   1.000000
    7       -9.582925   1.000000
    8       -9.582925   1.000000
    9       -7.025060   1.000000
   10       -7.025060   1.000000
   11       -5.975769   1.000000
   12       -5.975769   1.000000
   13       -5.625687   1.000000
   14       -5.625687   1.000000
   15       -5.592905   1.000000
   16       -5.592905   1.000000
   17       -5.484833   1.000000
   18       -5.484833   1.000000
   19       -5.412714   1.000000
   20       -5.412714   1.000000
   21       -5.290743   1.000000
   22       -5.290743   1.000000
   23       -5.195932   1.000000
   24       -5.195932   1.000000
   25        1.103329   1.000000
   26        1.103329   1.000000
   27        1.699623   1.000000
   28        1.699623   1.000000
   29        4.696911  -0.000010
   30        4.696911  -0.000010
   31        6.468786  -0.000000
   32        6.468786  -0.000000
   33        7.203677   0.000000
   34        7.203677   0.000000
   35        9.728941   0.000000
   36        9.728942   0.000000
   37       11.146880   0.000000
   38       11.146881   0.000000
 
  0.5000000E+00 -0.7150398E-16 -0.2168404E-18  0.1666667E-02
    1       -9.644941   1.000000
    2       -9.644941   1.000000
    3       -9.616621   1.000000
    4       -9.616621   1.000000
    5       -9.598905   1.000000
    6       -9.598905   1.000000
    7       -9.587802   1.000000
    8       -9.587802   1.000000
    9       -6.783058   1.000000
   10       -6.783058   1.000000
   11       -5.986104   1.000000
   12       -5.986104   1.000000
   13       -5.617269   1.000000
   14       -5.617269   1.000000
   15       -5.611996   1.000000
   16       -5.611996   1.000000
   17       -5.498062   1.000000
   18       -5.498062   1.000000
   19       -5.392937   1.000000
   20       -5.392937   1.000000
   21       -5.235406   1.000000
   22       -5.235405   1.000000
   23       -5.165699   1.000000
   24       -5.165699   1.000000
   25        0.988688   1.000000
   26        0.988688   1.000000
   27        1.338449   1.000000
   28        1.338449   1.000000
   29        5.041673  -0.000000
   30        5.041674  -0.000000
   31        5.993409  -0.000000
   32        5.993409  -0.000000
   33        6.864000  -0.000000
   34        6.864000  -0.000000
   35        9.367643   0.000000
   36        9.367644   0.000000
   37       11.027651   0.000000
   38       11.027652   0.000000
 
  0.9767349E-20  0.1000000E+00  0.0000000E+00  0.3333333E-02
    1       -9.666749   1.000000
    2       -9.666749   1.000000
    3       -9.651967   1.000000
    4       -9.651967   1.000000
    5       -9.635851   1.000000
    6       -9.635851   1.000000
    7       -9.592538   1.000000
    8       -9.592538   1.000000
    9       -8.313625   1.000000
   10       -8.313625   1.000000
   11       -6.495753   1.000000
   12       -6.495752   1.000000
   13       -5.627629   1.000000
   14       -5.627629   1.000000
   15       -5.577632   1.000000
   16       -5.577632   1.000000
   17       -5.566701   1.000000
   18       -5.566701   1.000000
   19       -5.547892   1.000000
   20       -5.547892   1.000000
   21       -5.300856   1.000000
   22       -5.300856   1.000000
   23       -5.156312   1.000000
   24       -5.156312   1.000000
   25        0.577836   1.000000
   26        0.577836   1.000000
   27        4.658764  -0.000102
   28        4.658764  -0.000102
   29        6.197350  -0.000000
   30        6.197351  -0.000000
   31        9.777330   0.000000
   32        9.777331   0.000000
   33       10.048290   0.000000
   34       10.048291   0.000000
   35       12.706843   0.000000
   36       12.706843   0.000000
   37       13.176486   0.000000
   38       13.176487   0.000000
 
  0.1000000E+00  0.1000000E+00 -0.1084202E-18  0.3333333E-02
    1       -9.663125   1.000000
    2       -9.663125   1.000000
    3       -9.642072   1.000000
    4       -9.642072   1.000000
    5       -9.629085   1.000000
    6       -9.629085   1.000000
    7       -9.586958   1.000000
    8       -9.586958   1.000000
    9       -8.098312   1.000000
   10       -8.098312   1.000000
   11       -6.366597   1.000000
   12       -6.366596   1.000000
   13       -5.618243   1.000000
   14       -5.618243   1.000000
   15       -5.576188   1.000000
   16       -5.576188   1.000000
   17       -5.545840   1.000000
   18       -5.545840   1.000000
   19       -5.523008   1.000000
   20       -5.523008   1.000000
   21       -5.333543   1.000000
   22       -5.333543   1.000000
   23       -5.188255   1.000000
   24       -5.188255   1.000000
   25        0.806837   1.000000
   26        0.806838   1.000000
   27        4.077458   1.000236
   28        4.077458   1.000236
   29        5.533614  -0.000000
   30        5.533614  -0.000000
   31        8.657026   0.000000
   32        8.657026   0.000000
   33        9.287433   0.000000
   34        9.287433   0.000000
   35       12.338375   0.000000
   36       12.338375   0.000000
   37       12.929942   0.000000
   38       12.929943   0.000000
 
  0.2000000E+00  0.1000000E+00  0.2168404E-18  0.3333333E-02
    1       -9.656704   1.000000
    2       -9.656704   1.000000
    3       -9.627145   1.000000
    4       -9.627145   1.000000
    5       -9.619418   1.000000
    6       -9.619418   1.000000
    7       -9.581978   1.000000
    8       -9.581978   1.000000
    9       -7.698956   1.000000
   10       -7.698956   1.000000
   11       -6.153866   1.000000
   12       -6.153866   1.000000
   13       -5.609310   1.000000
   14       -5.609310   1.000000
   15       -5.564219   1.000000
   16       -5.564219   1.000000
   17       -5.523174   1.000000
   18       -5.523174   1.000000
   19       -5.486722   1.000000
   20       -5.486722   1.000000
   21       -5.364830   1.000000
   22       -5.364830   1.000000
   23       -5.223261   1.000000
   24       -5.223261   1.000000
   25        1.113537   1.000000
   26        1.113537   1.000000
   27        3.103158   1.000000
   28        3.103158   1.000000
   29        4.806604  -0.000000
   30        4.806604  -0.000000
   31        7.497872   0.000000
   32        7.497872   0.000000
   33        8.215114   0.000000
   34        8.215115   0.000000
   35       11.033581   0.000000
   36       11.033581   0.000000
   37       12.436548   0.000000
   38       12.436549   0.000000
 
  0.3000000E+00  0.1000000E+00  0.0000000E+00  0.3333333E-02
    1       -9.648813   1.000000
    2       -9.648813   1.000000
    3       -9.615529   1.000000
    4       -9.615529   1.000000
    5       -9.609465   1.000000
    6       -9.609465   1.000000
    7       -9.582465   1.000000
    8       -9.582465   1.000000
    9       -7.201893   1.000000
   10       -7.201893   1.000000
   11       -5.977504   1.000000
   12       -5.977504   1.000000
   13       -5.619271   1.000000
   14       -5.619271   1.000000
   15       -5.586184   1.000000
   16       -5.586184   1.000000
   17       -5.484655   1.000000
   18       -5.484655   1.000000
   19       -5.453445   1.000000
   20       -5.453444   1.000000
   21       -5.333503   1.000000
   22       -5.333503   1.000000
   23       -5.223226   1.000000
   24       -5.223226   1.000000
   25        1.212494   1.000000
   26        1.212494   1.000000
   27        2.090446   1.000000
   28        2.090446   1.000000
   29        4.628542  -0.000493
   30        4.628542  -0.000493
   31        6.534865  -0.000000
   32        6.534865  -0.000000
   33        7.279282   0.000000
   34        7.279282   0.000000
   35        9.752121   0.000000
   36        9.752122   0.000000
   37       11.923863   0.000000
   38       11.923864   0.000000
 
  0.4000000E+00  0.1000000E+00  0.4336809E-18  0.3333333E-02
    1       -9.642354   1.000000
    2       -9.642354   1.000000
    3       -9.612702   1.000000
    4       -9.612702   1.000000
    5       -9.599445   1.000000
    6       -9.599445   1.000000
    7       -9.587260   1.000000
    8       -9.587259   1.000000
    9       -6.791297   1.000000
   10       -6.791296   1.000000
   11       -5.956024   1.000000
   12       -5.956024   1.000000
   13       -5.623089   1.000000
   14       -5.623089   1.000000
   15       -5.606290   1.000000
   16       -5.606290   1.000000
   17       -5.512470   1.000000
   18       -5.512469   1.000000
   19       -5.391905   1.000000
   20       -5.391905   1.000000
   21       -5.271341   1.000000
   22       -5.271341   1.000000
   23       -5.189378   1.000000
   24       -5.189378   1.000000
   25        1.071658   1.000000
   26        1.071658   1.000000
   27        1.477052   1.000000
   28        1.477051   1.000000
   29        5.015320  -0.000000
   30        5.015320  -0.000000
   31        5.943126  -0.000000
   32        5.943126  -0.000000
   33        6.578992  -0.000000
   34        6.578992  -0.000000
   35        8.961795   0.000000
   36        8.961795   0.000000
   37       11.633495   0.000000
   38       11.633496   0.000000
 
  0.5000000E+00  0.1000000E+00 -0.4336809E-18  0.3333333E-02
    1       -9.642354   1.000000
    2       -9.642354   1.000000
    3       -9.612749   1.000000
    4       -9.612749   1.000000
    5       -9.599382   1.000000
    6       -9.599382   1.000000
    7       -9.587218   1.000000
    8       -9.587218   1.000000
    9       -6.787581   1.000000
   10       -6.787581   1.000000
   11       -5.956127   1.000000
   12       -5.956127   1.000000
   13       -5.623005   1.000000
   14       -5.623005   1.000000
   15       -5.607467   1.000000
   16       -5.607467   1.000000
   17       -5.510510   1.000000
   18       -5.510510   1.000000
   19       -5.394077   1.000000
   20       -5.394077   1.000000
   21       -5.266194   1.000000
   22       -5.266194   1.000000
   23       -5.187361   1.000000
   24       -5.187361   1.000000
   25        1.068675   1.000000
   26        1.068676   1.000000
   27        1.467132   1.000000
   28        1.467133   1.000000
   29        5.019273  -0.000000
   30        5.019273  -0.000000
   31        5.943296  -0.000000
   32        5.943296  -0.000000
   33        6.583934  -0.000000
   34        6.583934  -0.000000
   35        8.964376   0.000000
   36        8.964376   0.000000
   37       11.641867   0.000000
   38       11.641868   0.000000
 
 -0.4000000E+00  0.1000000E+00  0.2168404E-18  0.3333333E-02
    1       -9.648814   1.000000
    2       -9.648814   1.000000
    3       -9.615462   1.000000
    4       -9.615462   1.000000
    5       -9.609356   1.000000
    6       -9.609356   1.000000
    7       -9.582285   1.000000
    8       -9.582285   1.000000
    9       -7.193647   1.000000
   10       -7.193647   1.000000
   11       -5.974841   1.000000
   12       -5.974841   1.000000
   13       -5.618643   1.000000
   14       -5.618643   1.000000
   15       -5.587761   1.000000
   16       -5.587761   1.000000
   17       -5.481905   1.000000
   18       -5.481905   1.000000
   19       -5.453381   1.000000
   20       -5.453381   1.000000
   21       -5.328955   1.000000
   22       -5.328955   1.000000
   23       -5.219810   1.000000
   24       -5.219810   1.000000
   25        1.207854   1.000000
   26        1.207854   1.000000
   27        2.072326   1.000000
   28        2.072325   1.000000
   29        4.625711  -0.000565
   30        4.625711  -0.000565
   31        6.550739  -0.000000
   32        6.550739  -0.000000
   33        7.287564   0.000000
   34        7.287564   0.000000
   35        9.756666   0.000000
   36        9.756666   0.000000
   37       11.938122   0.000000
   38       11.938123   0.000000
 
 -0.3000000E+00  0.1000000E+00  0.0000000E+00  0.3333333E-02
    1       -9.656607   1.000000
    2       -9.656607   1.000000
    3       -9.626760   1.000000
    4       -9.626760   1.000000
    5       -9.618983   1.000000
    6       -9.618983   1.000000
    7       -9.581832   1.000000
    8       -9.581832   1.000000
    9       -7.690293   1.000000
   10       -7.690293   1.000000
   11       -6.146844   1.000000
   12       -6.146844   1.000000
   13       -5.609020   1.000000
   14       -5.609020   1.000000
   15       -5.563634   1.000000
   16       -5.563634   1.000000
   17       -5.521052   1.000000
   18       -5.521052   1.000000
   19       -5.485857   1.000000
   20       -5.485857   1.000000
   21       -5.365942   1.000000
   22       -5.365942   1.000000
   23       -5.222179   1.000000
   24       -5.222179   1.000000
   25        1.116267   1.000000
   26        1.116267   1.000000
   27        3.089435   1.000000
   28        3.089435   1.000000
   29        4.802018  -0.000000
   30        4.802018  -0.000000
   31        7.522108   0.000000
   32        7.522108   0.000000
   33        8.215649   0.000000
   34        8.215650   0.000000
   35       11.040144   0.000000
   36       11.040144   0.000000
   37       12.407498   0.000000
   38       12.407499   0.000000
 
 -0.2000000E+00  0.1000000E+00  0.2710505E-19  0.3333333E-02
    1       -9.662875   1.000000
    2       -9.662875   1.000000
    3       -9.641737   1.000000
    4       -9.641737   1.000000
    5       -9.628232   1.000000
    6       -9.628232   1.000000
    7       -9.587055   1.000000
    8       -9.587055   1.000000
    9       -8.092341   1.000000
   10       -8.092341   1.000000
   11       -6.360168   1.000000
   12       -6.360168   1.000000
   13       -5.618600   1.000000
   14       -5.618600   1.000000
   15       -5.571950   1.000000
   16       -5.571950   1.000000
   17       -5.545158   1.000000
   18       -5.545158   1.000000
   19       -5.526182   1.000000
   20       -5.526182   1.000000
   21       -5.335076   1.000000
   22       -5.335076   1.000000
   23       -5.188683   1.000000
   24       -5.188683   1.000000
   25        0.811731   1.000000
   26        0.811732   1.000000
   27        4.075841   1.000217
   28        4.075841   1.000217
   29        5.540188  -0.000000
   30        5.540188  -0.000000
   31        8.672985   0.000000
   32        8.672985   0.000000
   33        9.266882   0.000000
   34        9.266883   0.000000
   35       12.333073   0.000000
   36       12.333074   0.000000
   37       12.882691   0.000000
   38       12.882692   0.000000
 
 -0.1000000E+00  0.1000000E+00 -0.5421011E-19  0.3333333E-02
    1       -9.666534   1.000000
    2       -9.666534   1.000000
    3       -9.651896   1.000000
    4       -9.651896   1.000000
    5       -9.635368   1.000000
    6       -9.635368   1.000000
    7       -9.592678   1.000000
    8       -9.592678   1.000000
    9       -8.311575   1.000000
   10       -8.311575   1.000000
   11       -6.493357   1.000000
   12       -6.493357   1.000000
   13       -5.628058   1.000000
   14       -5.628058   1.000000
   15       -5.574117   1.000000
   16       -5.574117   1.000000
   17       -5.564928   1.000000
   18       -5.564928   1.000000
   19       -5.552600   1.000000
   20       -5.552600   1.000000
   21       -5.301378   1.000000
   22       -5.301377   1.000000
   23       -5.156703   1.000000
   24       -5.156702   1.000000
   25        0.579931   1.000000
   26        0.579932   1.000000
   27        4.661117  -0.000089
   28        4.661117  -0.000089
   29        6.206472  -0.000000
   30        6.206473  -0.000000
   31        9.765124   0.000000
   32        9.765124   0.000000
   33       10.035793   0.000000
   34       10.035793   0.000000
   35       12.706100   0.000000
   36       12.706101   0.000000
   37       13.142991   0.000000
   38       13.142991   0.000000
 
 -0.3610478E-19  0.2000000E+00  0.0000000E+00  0.3333333E-02
    1       -9.661949   1.000000
    2       -9.661949   1.000000
    3       -9.638093   1.000000
    4       -9.638093   1.000000
    5       -9.627425   1.000000
    6       -9.627425   1.000000
    7       -9.584390   1.000000
    8       -9.584390   1.000000
    9       -7.996142   1.000000
   10       -7.996142   1.000000
   11       -6.311115   1.000000
   12       -6.311115   1.000000
   13       -5.620705   1.000000
   14       -5.620705   1.000000
   15       -5.559043   1.000000
   16       -5.559043   1.000000
   17       -5.543536   1.000000
   18       -5.543536   1.000000
   19       -5.512366   1.000000
   20       -5.512366   1.000000
   21       -5.346616   1.000000
   22       -5.346616   1.000000
   23       -5.198849   1.000000
   24       -5.198849   1.000000
   25        0.899408   1.000000
   26        0.899408   1.000000
   27        3.773488   1.000000
   28        3.773488   1.000000
   29        5.283576  -0.000000
   30        5.283577  -0.000000
   31        8.548030   0.000000
   32        8.548030   0.000000
   33        8.864226   0.000000
   34        8.864226   0.000000
   35       12.097268   0.000000
   36       12.097268   0.000000
   37       12.205766   0.000000
   38       12.205767   0.000000
 
  0.1000000E+00  0.2000000E+00  0.2168404E-18  0.3333333E-02
    1       -9.656926   1.000000
    2       -9.656926   1.000000
    3       -9.627426   1.000000
    4       -9.627426   1.000000
    5       -9.620211   1.000000
    6       -9.620211   1.000000
    7       -9.581707   1.000000
    8       -9.581707   1.000000
    9       -7.703428   1.000000
   10       -7.703428   1.000000
   11       -6.160013   1.000000
   12       -6.160013   1.000000
   13       -5.610374   1.000000
   14       -5.610374   1.000000
   15       -5.563926   1.000000
   16       -5.563925   1.000000
   17       -5.522719   1.000000
   18       -5.522719   1.000000
   19       -5.485386   1.000000
   20       -5.485386   1.000000
   21       -5.364739   1.000000
   22       -5.364739   1.000000
   23       -5.222626   1.000000
   24       -5.222626   1.000000
   25        1.110279   1.000000
   26        1.110280   1.000000
   27        3.097896   1.000000
   28        3.097896   1.000000
   29        4.798404  -0.000000
   30        4.798404  -0.000000
   31        7.521787   0.000000
   32        7.521787   0.000000
   33        8.225380   0.000000
   34        8.225381   0.000000
   35       11.022414   0.000000
   36       11.022414   0.000000
   37       12.482069   0.000000
   38       12.482070   0.000000
 
  0.2000000E+00  0.2000000E+00  0.4336809E-18  0.3333333E-02
    1       -9.648359   1.000000
    2       -9.648359   1.000000
    3       -9.613683   1.000000
    4       -9.613683   1.000000
    5       -9.609413   1.000000
    6       -9.609413   1.000000
    7       -9.583784   1.000000
    8       -9.583784   1.000000
    9       -7.271776   1.000000
   10       -7.271776   1.000000
   11       -5.978064   1.000000
   12       -5.978064   1.000000
   13       -5.602753   1.000000
   14       -5.602753   1.000000
   15       -5.592980   1.000000
   16       -5.592980   1.000000
   17       -5.501717   1.000000
   18       -5.501717   1.000000
   19       -5.479356   1.000000
   20       -5.479356   1.000000
   21       -5.339770   1.000000
   22       -5.339770   1.000000
   23       -5.237122   1.000000
   24       -5.237122   1.000000
   25        1.262000   1.000000
   26        1.262000   1.000000
   27        2.311581   1.000000
   28        2.311581   1.000000
   29        4.625577  -0.000569
   30        4.625577  -0.000569
   31        6.440671  -0.000000
   32        6.440671  -0.000000
   33        7.221832   0.000000
   34        7.221832   0.000000
   35        9.737780   0.000000
   36        9.737780   0.000000
   37       11.515221   0.000000
   38       11.515222   0.000000
 
  0.3000000E+00  0.2000000E+00  0.0000000E+00  0.3333333E-02
    1       -9.638439   1.000000
    2       -9.638439   1.000000
    3       -9.606247   1.000000
    4       -9.606247   1.000000
    5       -9.599013   1.000000
    6       -9.599013   1.000000
    7       -9.587675   1.000000
    8       -9.587674   1.000000
    9       -6.806843   1.000000
   10       -6.806842   1.000000
   11       -5.902286   1.000000
   12       -5.902286   1.000000
   13       -5.635019   1.000000
   14       -5.635019   1.000000
   15       -5.601069   1.000000
   16       -5.601069   1.000000
   17       -5.513633   1.000000
   18       -5.513632   1.000000
   19       -5.426843   1.000000
   20       -5.426843   1.000000
   21       -5.309459   1.000000
   22       -5.309459   1.000000
   23       -5.233280   1.000000
   24       -5.233279   1.000000
   25        1.233009   1.000000
   26        1.233009   1.000000
   27        1.700526   1.000000
   28        1.700526   1.000000
   29        4.985269  -0.000000
   30        4.985269  -0.000000
   31        5.609269  -0.000000
   32        5.609269  -0.000000
   33        6.422508  -0.000000
   34        6.422508  -0.000000
   35        8.559785   0.000000
   36        8.559785   0.000000
   37       10.856408   0.000000
   38       10.856409   0.000000
 
  0.4000000E+00  0.2000000E+00 -0.4336809E-18  0.3333333E-02
    1       -9.632742   1.000000
    2       -9.632742   1.000000
    3       -9.607697   1.000000
    4       -9.607697   1.000000
    5       -9.594002   1.000000
    6       -9.594001   1.000000
    7       -9.588097   1.000000
    8       -9.588097   1.000000
    9       -6.546003   1.000000
   10       -6.546003   1.000000
   11       -5.967613   1.000000
   12       -5.967613   1.000000
   13       -5.620936   1.000000
   14       -5.620936   1.000000
   15       -5.597792   1.000000
   16       -5.597792   1.000000
   17       -5.540351   1.000000
   18       -5.540351   1.000000
   19       -5.360280   1.000000
   20       -5.360280   1.000000
   21       -5.327124   1.000000
   22       -5.327124   1.000000
   23       -5.219950   1.000000
   24       -5.219950   1.000000
   25        1.119638   1.000000
   26        1.119638   1.000000
   27        1.531650   1.000000
   28        1.531650   1.000000
   29        5.248047  -0.000000
   30        5.248047  -0.000000
   31        5.406697  -0.000000
   32        5.406697  -0.000000
   33        6.074284  -0.000000
   34        6.074284  -0.000000
   35        7.986723   0.000000
   36        7.986724   0.000000
   37       10.653097   0.000000
   38       10.653098   0.000000
 
  0.5000000E+00  0.2000000E+00 -0.4336809E-18  0.3333333E-02
    1       -9.638358   1.000000
    2       -9.638358   1.000000
    3       -9.606363   1.000000
    4       -9.606363   1.000000
    5       -9.598788   1.000000
    6       -9.598788   1.000000
    7       -9.587343   1.000000
    8       -9.587343   1.000000
    9       -6.793570   1.000000
   10       -6.793569   1.000000
   11       -5.900420   1.000000
   12       -5.900420   1.000000
   13       -5.636625   1.000000
   14       -5.636625   1.000000
   15       -5.599906   1.000000
   16       -5.599906   1.000000
   17       -5.511936   1.000000
   18       -5.511935   1.000000
   19       -5.427022   1.000000
   20       -5.427022   1.000000
   21       -5.301136   1.000000
   22       -5.301136   1.000000
   23       -5.226851   1.000000
   24       -5.226850   1.000000
   25        1.223750   1.000000
   26        1.223750   1.000000
   27        1.675298   1.000000
   28        1.675298   1.000000
   29        4.992204  -0.000000
   30        4.992204  -0.000000
   31        5.618655  -0.000000
   32        5.618655  -0.000000
   33        6.425759  -0.000000
   34        6.425759  -0.000000
   35        8.554925   0.000000
   36        8.554926   0.000000
   37       10.862968   0.000000
   38       10.862969   0.000000
 
 -0.4000000E+00  0.2000000E+00  0.1084202E-18  0.3333333E-02
    1       -9.648171   1.000000
    2       -9.648171   1.000000
    3       -9.613129   1.000000
    4       -9.613129   1.000000
    5       -9.608759   1.000000
    6       -9.608759   1.000000
    7       -9.583657   1.000000
    8       -9.583657   1.000000
    9       -7.254175   1.000000
   10       -7.254175   1.000000
   11       -5.966413   1.000000
   12       -5.966413   1.000000
   13       -5.601931   1.000000
   14       -5.601931   1.000000
   15       -5.594570   1.000000
   16       -5.594569   1.000000
   17       -5.498893   1.000000
   18       -5.498893   1.000000
   19       -5.477592   1.000000
   20       -5.477592   1.000000
   21       -5.336557   1.000000
   22       -5.336557   1.000000
   23       -5.232531   1.000000