Cn_HCP                                  
           1
     3.806556   -0.005209   -0.008257
    -1.907889    3.345829   -0.003208
    -0.013357   -0.012106    6.029853
   Fl
   2
Direct configuration=     1
   0.16634730  0.33301504  0.24994045
   0.83365273  0.66698493  0.75005955
Cn_HCP                                  
           1
     3.806822   -0.005128   -0.008140
    -1.907952    3.345444   -0.003468
    -0.013174   -0.012469    6.029707
   Fl
   2
Direct configuration=     2
   0.16634542  0.33301221  0.24994169
   0.83365461  0.66698776  0.75005831
Cn_HCP                                  
           1
     3.806740   -0.005080   -0.008185
    -1.907869    3.345398   -0.003410
    -0.013245   -0.012404    6.029803
   Fl
   2
Direct configuration=     3
   0.16634551  0.33301241  0.24994162
   0.83365452  0.66698756  0.75005838
Cn_HCP                                  
           1
     3.806708   -0.005136   -0.008212
    -1.907901    3.345415   -0.003211
    -0.013286   -0.012069    6.029658
   Fl
   2
Direct configuration=     4
   0.16634479  0.33301038  0.24994237
   0.83365524  0.66698959  0.75005763
Cn_HCP                                  
           1
     3.806717   -0.005132   -0.008219
    -1.907902    3.345412   -0.003210
    -0.013297   -0.012075    6.029650
   Fl
   2
Direct configuration=     5
   0.16634478  0.33301035  0.24994237
   0.83365525  0.66698962  0.75005763
Cn_HCP                                  
           1
     3.806822   -0.005083   -0.008206
    -1.907912    3.345477   -0.003205
    -0.013278   -0.012054    6.029761
   Fl
   2
Direct configuration=     6
   0.16634469  0.33301014  0.24994240
   0.83365534  0.66698983  0.75005760
Cn_HCP                                  
           1
     3.806714   -0.005256   -0.008253
    -1.908009    3.345574   -0.003234
    -0.013351   -0.012148    6.029885
   Fl
   2
Direct configuration=     7
   0.16634530  0.33301149  0.24994201
   0.83365473  0.66698848  0.75005799
Cn_HCP                                  
           1
     3.807462   -0.004742   -0.008075
    -1.907934    3.344894   -0.003501
    -0.013076   -0.012470    6.029163
   Fl
   2
Direct configuration=     8
   0.16634152  0.33300353  0.24994404
   0.83365851  0.66699644  0.75005596
Cn_HCP                                  
           1
     3.805231   -0.006174   -0.008586
    -1.908070    3.346885   -0.002780
    -0.013868   -0.011626    6.031189
   Fl
   2
Direct configuration=     9
   0.16635252  0.33302917  0.24993920
   0.83364751  0.66697080  0.75006080
Cn_HCP                                  
           1
     3.804635   -0.006624   -0.008763
    -1.908166    3.347565   -0.002598
    -0.014142   -0.011457    6.031754
   Fl
   2
Direct configuration=    10
   0.16635633  0.33303822  0.24993739
   0.83364370  0.66696175  0.75006261
Cn_HCP                                  
           1
     3.806411   -0.005331   -0.008362
    -1.907923    3.346055   -0.003151
    -0.013521   -0.012097    6.030070
   Fl
   2
Direct configuration=    11
   0.16634733  0.33301670  0.24994114
   0.83365270  0.66698327  0.75005886
Cn_HCP                                  
           1
     3.806307   -0.005803   -0.008313
    -1.908286    3.345669   -0.003132
    -0.013441   -0.012014    6.030419
   Fl
   2
Direct configuration=    12
   0.16634751  0.33301417  0.24994282
   0.83365252  0.66698580  0.75005718
Cn_HCP                                  
           1
     3.805758   -0.006255   -0.008427
    -1.908407    3.346342   -0.002796
    -0.013617   -0.011510    6.031064
   Fl
   2
Direct configuration=    13
   0.16634981  0.33301966  0.24994227
   0.83365022  0.66698031  0.75005773
Cn_HCP                                  
           1
     3.805400   -0.006380   -0.008505
    -1.908337    3.346372   -0.002779
    -0.013739   -0.011549    6.031091
   Fl
   2
Direct configuration=    14
   0.16634904  0.33301806  0.24994286
   0.83365099  0.66698191  0.75005714
Cn_HCP                                  
           1
     3.805624   -0.006319   -0.008433
    -1.908396    3.346076   -0.002811
    -0.013625   -0.011540    6.030958
   Fl
   2
Direct configuration=    15
   0.16634667  0.33301210  0.24994440
   0.83365336  0.66698787  0.75005560
Cn_HCP                                  
           1
     3.806269   -0.006090   -0.008331
    -1.908518    3.345767   -0.002896
    -0.013467   -0.011603    6.030753
   Fl
   2
Direct configuration=    16
   0.16634388  0.33300515  0.24994613
   0.83365615  0.66699482  0.75005387
Cn_HCP                                  
           1
     3.805522   -0.006688   -0.008494
    -1.908668    3.346495   -0.002624
    -0.013718   -0.011257    6.031563
   Fl
   2
Direct configuration=    17
   0.16634670  0.33301195  0.24994520
   0.83365333  0.66698802  0.75005480
Cn_HCP                                  
           1
     3.806277   -0.005865   -0.008368
    -1.908324    3.345888   -0.002980
    -0.013527   -0.011791    6.030526
   Fl
   2
Direct configuration=    18
   0.16634597  0.33301062  0.24994440
   0.83365406  0.66698935  0.75005560
Cn_HCP                                  
           1
     3.806115   -0.005839   -0.008360
    -1.908221    3.345881   -0.002999
    -0.013514   -0.011818    6.030497
   Fl
   2
Direct configuration=    19
   0.16634614  0.33301101  0.24994434
   0.83365389  0.66698896  0.75005566
Cn_HCP                                  
           1
     3.806501   -0.005452   -0.008313
    -1.908074    3.345723   -0.003105
    -0.013442   -0.011968    6.030304
   Fl
   2
Direct configuration=    20
   0.16634507  0.33300840  0.24994497
   0.83365496  0.66699157  0.75005503
Cn_HCP                                  
           1
     3.806196   -0.005822   -0.008304
    -1.908247    3.345202   -0.003127
    -0.013426   -0.011996    6.030383
   Fl
   2
Direct configuration=    21
   0.16634264  0.33301198  0.24993922
   0.83365739  0.66698799  0.75006078
Cn_HCP                                  
           1
     3.806815   -0.005325   -0.008177
    -1.908121    3.345212   -0.003378
    -0.013230   -0.012337    6.030024
   Fl
   2
Direct configuration=    22
   0.16634530  0.33300114  0.24995049
   0.83365473  0.66699883  0.75004951
Cn_HCP                                  
           1
     3.806633   -0.005803   -0.008661
    -1.908449    3.345692   -0.003022
    -0.013996   -0.012132    6.029824
   Fl
   2
Direct configuration=    23
   0.16634548  0.33300511  0.24994861
   0.83365455  0.66699486  0.75005139
Cn_HCP                                  
           1
     3.806017   -0.006190   -0.009328
    -1.908477    3.347168   -0.002506
    -0.015050   -0.011807    6.029690
   Fl
   2
Direct configuration=    24
   0.16634509  0.33300198  0.24995254
   0.83365494  0.66699799  0.75004746
Cn_HCP                                  
           1
     3.806011   -0.006069   -0.009561
    -1.908366    3.347718   -0.002355
    -0.015420   -0.011749    6.029574
   Fl
   2
Direct configuration=    25
   0.16634218  0.33299789  0.24995250
   0.83365785  0.66700208  0.75004750
Cn_HCP                                  
           1
     3.805893   -0.006220   -0.009824
    -1.908438    3.348357   -0.002158
    -0.015836   -0.011632    6.029437
   Fl
   2
Direct configuration=    26
   0.16634416  0.33299704  0.24995558
   0.83365587  0.66700293  0.75004442
Cn_HCP                                  
           1
     3.805626   -0.006519   -0.010310
    -1.908565    3.349284   -0.001781
    -0.016607   -0.011393    6.029183
   Fl
   2
Direct configuration=    27
   0.16634637  0.33299574  0.24995971
   0.83365366  0.66700423  0.75004029
Cn_HCP                                  
           1
     3.804816   -0.007269   -0.012115
    -1.908811    3.352536   -0.000568
    -0.019466   -0.010847    6.028504
   Fl
   2
Direct configuration=    28
   0.16635024  0.33299591  0.24996483
   0.83364979  0.66700406  0.75003517
Cn_HCP                                  
           1
     3.806662   -0.005444   -0.008067
    -1.908150    3.344968   -0.003450
    -0.013052   -0.012365    6.030215
   Fl
   2
Direct configuration=    29
   0.16633847  0.33298974  0.24994898
   0.83366156  0.66701023  0.75005102
Cn_HCP                                  
           1
     3.806854   -0.005315   -0.007353
    -1.908136    3.343877   -0.003898
    -0.011919   -0.012523    6.030472
   Fl
   2
Direct configuration=    30
   0.16633560  0.33299206  0.24994409
   0.83366443  0.66700791  0.75005591
Cn_HCP                                  
           1
     3.808072   -0.004544   -0.004902
    -1.908078    3.340439   -0.005593
    -0.008036   -0.013357    6.030904
   Fl
   2
Direct configuration=    31
   0.16632642  0.33297588  0.24993733
   0.83367361  0.66702409  0.75006267
Cn_HCP                                  
           1
     3.808721   -0.003046   -0.002122
    -1.907101    3.334163   -0.007473
    -0.003624   -0.014215    6.032824
   Fl
   2
Direct configuration=    32
   0.16631297  0.33296417  0.24992559
   0.83368706  0.66703580  0.75007441
Cn_HCP                                  
           1
     3.810958   -0.000152    0.004030
    -1.905706    3.322138   -0.011477
     0.006135   -0.015837    6.036023
   Fl
   2
Direct configuration=    33
   0.16628554  0.33293923  0.24990051
   0.83371449  0.66706074  0.75009949
Cn_HCP                                  
           1
     3.802953   -0.011460   -0.020134
    -1.911526    3.370675    0.004390
    -0.032207   -0.009215    6.022655
   Fl
   2
Direct configuration=    34
   0.16639486  0.33303853  0.24999524
   0.83360517  0.66696144  0.75000476
Cn_HCP                                  
           1
     3.805096   -0.008538   -0.014189
    -1.910059    3.358673    0.000462
    -0.022775   -0.010889    6.025979
   Fl
   2
Direct configuration=    35
   0.16636714  0.33301282  0.24997180
   0.83363289  0.66698715  0.75002820
Cn_HCP                                  
           1
     3.811389    0.001305    0.007286
    -1.904660    3.314762   -0.013791
     0.011315   -0.017036    6.038307
   Fl
   2
Direct configuration=    36
   0.16627594  0.33293663  0.24988947
   0.83372409  0.66706334  0.75011053
Cn_HCP                                  
           1
     3.810697    0.000592    0.006071
    -1.904933    3.316843   -0.012885
     0.009385   -0.016508    6.037918
   Fl
   2
Direct configuration=    37
   0.16627777  0.33293918  0.24989184
   0.83372226  0.66706079  0.75010816
Cn_HCP                                  
           1
     3.810745    0.000662    0.006269
    -1.904897    3.316461   -0.013029
     0.009700   -0.016588    6.037993
   Fl
   2
Direct configuration=    38
   0.16627774  0.33293887  0.24989192
   0.83372229  0.66706110  0.75010808
Cn_HCP                                  
           1
     3.807732   -0.004942   -0.006195
    -1.908260    3.342267   -0.004473
    -0.010100   -0.012511    6.030603
   Fl
   2
Direct configuration=    39
   0.16632315  0.33297660  0.24993036
   0.83367688  0.66702337  0.75006964
Cn_HCP                                  
           1
     3.807743   -0.004767   -0.005530
    -1.908123    3.340653   -0.004714
    -0.009057   -0.012338    6.031052
   Fl
   2
Direct configuration=    40
   0.16630387  0.33296781  0.24991695
   0.83369616  0.66703216  0.75008305
Cn_HCP                                  
           1
     3.808160   -0.003612   -0.002838
    -1.907362    3.335091   -0.006247
    -0.004820   -0.012634    6.032163
   Fl
   2
Direct configuration=    41
   0.16627325  0.33296365  0.24987292
   0.83372678  0.66703632  0.75012708
Cn_HCP                                  
           1
     3.808715   -0.003244   -0.002370
    -1.907302    3.334142   -0.006693
    -0.004059   -0.013021    6.032573
   Fl
   2
Direct configuration=    42
   0.16628432  0.33296028  0.24989154
   0.83371571  0.66703969  0.75010846
Cn_HCP                                  
           1
     3.808398   -0.003696   -0.003603
    -1.907526    3.336904   -0.005944
    -0.006011   -0.012802    6.031816
   Fl
   2
Direct configuration=    43
   0.16628644  0.33296013  0.24989613
   0.83371359  0.66703984  0.75010387
