Cn_HCP                                  
           1
     3.888043   -0.006318   -0.010819
    -1.949630    3.403687   -0.003779
    -0.017348   -0.015324    6.210177
   Fl
   2
Direct configuration=     1
   0.16643598  0.33306042  0.24994210
   0.83356405  0.66693955  0.75005790
Cn_HCP                                  
           1
     3.887034   -0.006244   -0.010264
    -1.949064    3.402672   -0.004465
    -0.016465   -0.016070    6.207875
   Fl
   2
Direct configuration=     2
   0.16643342  0.33305754  0.24994237
   0.83356661  0.66694243  0.75005763
Cn_HCP                                  
           1
     3.887538   -0.006441   -0.010301
    -1.949488    3.403363   -0.004502
    -0.016521   -0.016169    6.209830
   Fl
   2
Direct configuration=     3
   0.16643552  0.33305929  0.24994185
   0.83356451  0.66694068  0.75005815
Cn_HCP                                  
           1
     3.889530   -0.006716   -0.010593
    -1.950726    3.403872   -0.004463
    -0.016987   -0.016356    6.213040
   Fl
   2
Direct configuration=     4
   0.16644027  0.33306135  0.24993941
   0.83355976  0.66693862  0.75006059
Cn_HCP                                  
           1
     3.889963   -0.006777   -0.010594
    -1.950997    3.404061   -0.004450
    -0.016986   -0.016331    6.214048
   Fl
   2
Direct configuration=     5
   0.16644230  0.33306253  0.24993856
   0.83355773  0.66693744  0.75006144
Cn_HCP                                  
           1
     3.890015   -0.006776   -0.010599
    -1.951021    3.404131   -0.004441
    -0.016995   -0.016319    6.214140
   Fl
   2
Direct configuration=     6
   0.16644258  0.33306272  0.24993847
   0.83355745  0.66693725  0.75006153
Cn_HCP                                  
           1
     3.897406   -0.007789   -0.011670
    -1.955606    3.409015   -0.004420
    -0.018687   -0.017227    6.232017
   Fl
   2
Direct configuration=     7
   0.16647308  0.33307913  0.24992475
   0.83352695  0.66692084  0.75007525
Cn_HCP                                  
           1
     3.895921   -0.007543   -0.011315
    -1.954650    3.407110   -0.004713
    -0.018127   -0.017443    6.227883
   Fl
   2
Direct configuration=     8
   0.16646316  0.33307201  0.24992795
   0.83353687  0.66692796  0.75007205
Cn_HCP                                  
           1
     3.877199   -0.004901   -0.009080
    -1.942963    3.397609   -0.003964
    -0.014595   -0.014120    6.184817
   Fl
   2
Direct configuration=     9
   0.16639498  0.33303960  0.24996233
   0.83360505  0.66696037  0.75003767
Cn_HCP                                  
           1
     3.872383   -0.004469   -0.008404
    -1.940173    3.395154   -0.003864
    -0.013525   -0.013343    6.173737
   Fl
   2
Direct configuration=    10
   0.16638084  0.33303273  0.24997069
   0.83361919  0.66696724  0.75002931
Cn_HCP                                  
           1
     3.871776   -0.004517   -0.008392
    -1.939911    3.394854   -0.003841
    -0.013506   -0.013291    6.172505
   Fl
   2
Direct configuration=    11
   0.16638013  0.33303249  0.24997157
   0.83361990  0.66696748  0.75002843
Cn_HCP                                  
           1
     3.868347   -0.003872   -0.007905
    -1.937630    3.393207   -0.003844
    -0.012740   -0.012874    6.163812
   Fl
   2
Direct configuration=    12
   0.16636641  0.33302528  0.24997838
   0.83363362  0.66697469  0.75002162
Cn_HCP                                  
           1
     3.866066   -0.003423   -0.007678
    -1.936093    3.392044   -0.003563
    -0.012381   -0.012164    6.158411
   Fl
   2
Direct configuration=    13
   0.16635562  0.33301819  0.24998377
   0.83364441  0.66698178  0.75001623
Cn_HCP                                  
           1
     3.866755   -0.003598   -0.007733
    -1.936593    3.392331   -0.003774
    -0.012466   -0.012593    6.160456
   Fl
   2
Direct configuration=    14
   0.16635825  0.33302013  0.24998224
   0.83364178  0.66697984  0.75001776
Cn_HCP                                  
           1
     3.869473   -0.003974   -0.008118
    -1.938283    3.393397   -0.003837
    -0.013077   -0.013048    6.166115
   Fl
   2
Direct configuration=    15
   0.16636405  0.33301998  0.24997736
   0.83363598  0.66697999  0.75002264
Cn_HCP                                  
           1
     3.868594   -0.003849   -0.007986
    -1.937733    3.392883   -0.003784
    -0.012870   -0.012837    6.163662
   Fl
   2
Direct configuration=    16
   0.16636082  0.33301812  0.24997907
   0.83363921  0.66698185  0.75002093
Cn_HCP                                  
           1
     3.864642   -0.003159   -0.007479
    -1.935151    3.390769   -0.003708
    -0.012071   -0.012258    6.153362
   Fl
   2
Direct configuration=    17
   0.16634584  0.33300961  0.24999095
   0.83365419  0.66699036  0.75000905
Cn_HCP                                  
           1
     3.867148   -0.003419   -0.007783
    -1.936634    3.392122   -0.003899
    -0.012551   -0.012871    6.159471
   Fl
   2
Direct configuration=    18
   0.16635369  0.33301033  0.24998451
   0.83364634  0.66698964  0.75001549
Cn_HCP                                  
           1
     3.866950   -0.003357   -0.007784
    -1.936480    3.391837   -0.003907
    -0.012554   -0.012888    6.158659
   Fl
   2
Direct configuration=    19
   0.16635201  0.33300673  0.24998469
   0.83364802  0.66699324  0.75001531
Cn_HCP                                  
           1
     3.866677   -0.003433   -0.007745
    -1.936408    3.391963   -0.003745
    -0.012491   -0.012556    6.158804
   Fl
   2
Direct configuration=    20
   0.16635966  0.33301773  0.24998428
   0.83364037  0.66698224  0.75001572
Cn_HCP                                  
           1
     3.866331   -0.003524   -0.007714
    -1.936315    3.391824   -0.003605
    -0.012439   -0.012273    6.158235
   Fl
   2
Direct configuration=    21
   0.16636081  0.33302184  0.24998473
   0.83363922  0.66697813  0.75001527
Cn_HCP                                  
           1
     3.866193   -0.003537   -0.007674
    -1.936258    3.391864   -0.003588
    -0.012376   -0.012208    6.157739
   Fl
   2
Direct configuration=    22
   0.16636203  0.33302376  0.24998537
   0.83363800  0.66697621  0.75001463
Cn_HCP                                  
           1
     3.865324   -0.003061   -0.007416
    -1.935404    3.391286   -0.003516
    -0.011970   -0.011850    6.154608
   Fl
   2
Direct configuration=    23
   0.16635139  0.33301357  0.24998811
   0.83364864  0.66698640  0.75001189
Cn_HCP                                  
           1
     3.868797   -0.003693   -0.008023
    -1.937699    3.392916   -0.003985
    -0.012931   -0.013239    6.163508
   Fl
   2
Direct configuration=    24
   0.16637203  0.33301195  0.24997664
   0.83362800  0.66698802  0.75002336
Cn_HCP                                  
           1
     3.867080   -0.003465   -0.007879
    -1.936637    3.392006   -0.003342
    -0.012703   -0.011944    6.158895
   Fl
   2
Direct configuration=    25
   0.16636676  0.33302230  0.24997829
   0.83363327  0.66697767  0.75002171
Cn_HCP                                  
           1
     3.866868   -0.003014   -0.007641
    -1.936136    3.391671   -0.003378
    -0.012328   -0.011799    6.157435
   Fl
   2
Direct configuration=    26
   0.16635925  0.33301603  0.24998320
   0.83364078  0.66698394  0.75001680
Cn_HCP                                  
           1
     3.867082   -0.003133   -0.007634
    -1.936348    3.391583   -0.003436
    -0.012317   -0.011896    6.157794
   Fl
   2
Direct configuration=    27
   0.16635972  0.33301606  0.24998276
   0.83364031  0.66698391  0.75001724
Cn_HCP                                  
           1
     3.867526   -0.003008   -0.007591
    -1.936461    3.391582   -0.003642
    -0.012249   -0.012231    6.158245
   Fl
   2
Direct configuration=    28
   0.16635485  0.33300823  0.24998190
   0.83364518  0.66699174  0.75001810
Cn_HCP                                  
           1
     3.867211   -0.002753   -0.007491
    -1.936079    3.390874   -0.003343
    -0.012093   -0.011599    6.155950
   Fl
   2
Direct configuration=    29
   0.16635444  0.33302070  0.24998488
   0.83364559  0.66697927  0.75001512
Cn_HCP                                  
           1
     3.867059   -0.002655   -0.007485
    -1.935916    3.390538   -0.003134
    -0.012085   -0.011214    6.154939
   Fl
   2
Direct configuration=    30
   0.16635489  0.33302491  0.24998583
   0.83364514  0.66697506  0.75001417
Cn_HCP                                  
           1
     3.867384   -0.002743   -0.007283
    -1.936156    3.390422   -0.003088
    -0.011763   -0.010945    6.155178
   Fl
   2
Direct configuration=    31
   0.16635045  0.33301835  0.24998603
   0.83364958  0.66698162  0.75001397
Cn_HCP                                  
           1
     3.867334   -0.002550   -0.007119
    -1.935962    3.389877   -0.002841
    -0.011505   -0.010351    6.153101
   Fl
   2
Direct configuration=    32
   0.16634390  0.33301811  0.24999004
   0.83365613  0.66698186  0.75000996
Cn_HCP                                  
           1
     3.867200   -0.002279   -0.007030
    -1.935656    3.389226   -0.002631
    -0.011367   -0.009888    6.151356
   Fl
   2
Direct configuration=    33
   0.16633889  0.33302056  0.24999344
   0.83366114  0.66697941  0.75000656
Cn_HCP                                  
           1
     3.867300   -0.002571   -0.007162
    -1.935963    3.390024   -0.002879
    -0.011573   -0.010457    6.153466
   Fl
   2
Direct configuration=    34
   0.16634584  0.33301924  0.24999020
   0.83365419  0.66698073  0.75000980
Cn_HCP                                  
           1
     3.867256   -0.002799   -0.007423
    -1.936142    3.390681   -0.003221
    -0.011985   -0.011315    6.155577
   Fl
   2
Direct configuration=    35
   0.16635470  0.33302186  0.24998630
   0.83364533  0.66697811  0.75001370
Cn_HCP                                  
           1
     3.867367   -0.002638   -0.007207
    -1.936056    3.390430   -0.003028
    -0.011645   -0.010770    6.154218
   Fl
   2
Direct configuration=    36
   0.16634903  0.33301962  0.24998954
   0.83365100  0.66698035  0.75001046
Cn_HCP                                  
           1
     3.867334   -0.002646   -0.007231
    -1.936046    3.390489   -0.003082
    -0.011683   -0.010891    6.154453
   Fl
   2
Direct configuration=    37
   0.16635025  0.33302050  0.24998916
   0.83364978  0.66697947  0.75001084
Cn_HCP                                  
           1
     3.867397   -0.002686   -0.007255
    -1.936113    3.390542   -0.003050
    -0.011719   -0.010853    6.154672
   Fl
   2
Direct configuration=    38
   0.16635309  0.33302242  0.24998833
   0.83364694  0.66697755  0.75001167
Cn_HCP                                  
           1
     3.867760   -0.002987   -0.007473
    -1.936562    3.392635   -0.003690
    -0.012062   -0.012216    6.158879
   Fl
   2
Direct configuration=    39
   0.16637464  0.33303854  0.24998901
   0.83362539  0.66696143  0.75001099
Cn_HCP                                  
           1
     3.867241   -0.002362   -0.007126
    -1.935749    3.389614   -0.002757
    -0.011518   -0.010205    6.152109
   Fl
   2
Direct configuration=    40
   0.16634155  0.33300894  0.24998535
   0.83365848  0.66699103  0.75001465
