Cn_HCP                                  
           1
     3.808398   -0.003696   -0.003603
    -1.907526    3.336904   -0.005944
    -0.006011   -0.012802    6.031816
   Fl
   2
Direct configuration=     1
   0.16628644  0.33296013  0.24989613
   0.83371359  0.66703984  0.75010387
Cn_HCP                                  
           1
     3.809252   -0.003263   -0.003038
    -1.907575    3.336910   -0.005805
    -0.005119   -0.012042    6.031127
   Fl
   2
Direct configuration=     2
   0.16628515  0.33295797  0.24989790
   0.83371488  0.66704200  0.75010210
Cn_HCP                                  
           1
     3.809718   -0.003193   -0.003149
    -1.907747    3.336849   -0.005507
    -0.005295   -0.011605    6.030969
   Fl
   2
Direct configuration=     3
   0.16628485  0.33295731  0.24989839
   0.83371518  0.66704266  0.75010161
Cn_HCP                                  
           1
     3.809766   -0.003219   -0.003135
    -1.907794    3.336882   -0.005501
    -0.005273   -0.011581    6.030865
   Fl
   2
Direct configuration=     4
   0.16628481  0.33295721  0.24989846
   0.83371522  0.66704276  0.75010154
Cn_HCP                                  
           1
     3.810374   -0.003075   -0.003174
    -1.907972    3.337079   -0.005661
    -0.005335   -0.011907    6.031015
   Fl
   2
Direct configuration=     5
   0.16628375  0.33295544  0.24989998
   0.83371628  0.66704453  0.75010002
Cn_HCP                                  
           1
     3.810316   -0.003193   -0.003311
    -1.908046    3.337235   -0.005694
    -0.005553   -0.012090    6.031277
   Fl
   2
Direct configuration=     6
   0.16628349  0.33295516  0.24990038
   0.83371654  0.66704481  0.75009962
