Cn_HCP                                  
           1
     3.804014   -0.007123   -0.001789
    -1.908343    3.334628   -0.009861
    -0.003123   -0.018221    6.030416
   Fl
   2
Direct configuration=     1
   0.16632000  0.33296041  0.24983309
   0.83368003  0.66703956  0.75016691
Cn_HCP                                  
           1
     3.804494   -0.007267   -0.001923
    -1.908708    3.334964   -0.009837
    -0.003336   -0.018303    6.029767
   Fl
   2
Direct configuration=     2
   0.16631870  0.33295844  0.24983610
   0.83368133  0.66704153  0.75016390
Cn_HCP                                  
           1
     3.804127   -0.007188   -0.002033
    -1.908455    3.334798   -0.009809
    -0.003510   -0.018351    6.029986
   Fl
   2
Direct configuration=     3
   0.16631889  0.33295896  0.24983531
   0.83368114  0.66704101  0.75016469
Cn_HCP                                  
           1
     3.804209   -0.007075   -0.002070
    -1.908397    3.334854   -0.009784
    -0.003569   -0.018340    6.030137
   Fl
   2
Direct configuration=     4
   0.16631881  0.33295892  0.24983534
   0.83368122  0.66704105  0.75016466
Cn_HCP                                  
           1
     3.804080   -0.007057   -0.002007
    -1.908316    3.334823   -0.009697
    -0.003468   -0.018124    6.030178
   Fl
   2
Direct configuration=     5
   0.16631890  0.33295922  0.24983497
   0.83368113  0.66704075  0.75016503
Cn_HCP                                  
           1
     3.804107   -0.007100   -0.001995
    -1.908368    3.334745   -0.009703
    -0.003449   -0.018123    6.030201
   Fl
   2
Direct configuration=     6
   0.16631898  0.33295928  0.24983492
   0.83368105  0.66704069  0.75016508
Cn_HCP                                  
           1
     3.803568   -0.007230   -0.001106
    -1.908216    3.333824   -0.010418
    -0.002040   -0.018603    6.031011
   Fl
   2
Direct configuration=     7
   0.16631957  0.33295968  0.24983338
   0.83368046  0.66704029  0.75016662
Cn_HCP                                  
           1
     3.803342   -0.007194   -0.001437
    -1.908069    3.334456   -0.009956
    -0.002562   -0.018069    6.031445
   Fl
   2
Direct configuration=     8
   0.16631921  0.33296076  0.24983322
   0.83368082  0.66703921  0.75016678
Cn_HCP                                  
           1
     3.804479   -0.007404   -0.001804
    -1.908822    3.334814   -0.009876
    -0.003146   -0.018264    6.030072
   Fl
   2
Direct configuration=     9
   0.16631973  0.33295980  0.24983488
   0.83368030  0.66704017  0.75016512
Cn_HCP                                  
           1
     3.804377   -0.006674   -0.001985
    -1.908131    3.334541   -0.009667
    -0.003436   -0.018049    6.030318
   Fl
   2
Direct configuration=    10
   0.16631819  0.33295409  0.24983539
   0.83368184  0.66704588  0.75016461
Cn_HCP                                  
           1
     3.804199   -0.006880   -0.002153
    -1.908222    3.334714   -0.009638
    -0.003702   -0.018151    6.029986
   Fl
   2
Direct configuration=    11
   0.16631939  0.33295784  0.24983455
   0.83368064  0.66704213  0.75016545
Cn_HCP                                  
           1
     3.804399   -0.007158   -0.001828
    -1.908567    3.334280   -0.009858
    -0.003185   -0.018250    6.030375
   Fl
   2
Direct configuration=    12
   0.16631845  0.33295824  0.24983625
   0.83368158  0.66704173  0.75016375
Cn_HCP                                  
           1
     3.803670   -0.007128   -0.001400
    -1.908176    3.334447   -0.010057
    -0.002505   -0.018219    6.031169
   Fl
   2
Direct configuration=    13
   0.16631511  0.33295820  0.24983688
   0.83368492  0.66704177  0.75016312
Cn_HCP                                  
           1
     3.802100   -0.008218   -0.001067
    -1.908343    3.335232   -0.009929
    -0.001969   -0.017684    6.031998
   Fl
   2
Direct configuration=    14
   0.16631916  0.33296866  0.24983071
   0.83368087  0.66703131  0.75016929
Cn_HCP                                  
           1
     3.809346   -0.003865   -0.003339
    -1.908159    3.332855   -0.009727
    -0.005607   -0.019400    6.027126
   Fl
   2
Direct configuration=    15
   0.16631694  0.33292586  0.24985459
   0.83368309  0.66707411  0.75014541
Cn_HCP                                  
           1
     3.806026   -0.005905   -0.002164
    -1.908286    3.332995   -0.009812
    -0.003725   -0.018471    6.029406
   Fl
   2
Direct configuration=    16
   0.16631424  0.33293896  0.24984701
   0.83368579  0.66706101  0.75015299
Cn_HCP                                  
           1
     3.822294    0.003196   -0.006492
    -1.908460    3.330352   -0.009880
    -0.010677   -0.022583    6.019425
   Fl
   2
Direct configuration=    17
   0.16634329  0.33286916  0.24988449
   0.83365674  0.66713081  0.75011551
Cn_HCP                                  
           1
     3.809757   -0.004234   -0.002986
    -1.908690    3.333240   -0.010103
    -0.005049   -0.019764    6.026819
   Fl
   2
Direct configuration=    18
   0.16632152  0.33292944  0.24985530
   0.83367851  0.66707053  0.75014470
Cn_HCP                                  
           1
     3.821639    0.002007   -0.005784
    -1.909173    3.331429   -0.010393
    -0.009551   -0.022871    6.019224
   Fl
   2
Direct configuration=    19
   0.16634254  0.33287546  0.24988717
   0.83365749  0.66712451  0.75011283
Cn_HCP                                  
           1
     3.805668   -0.006038   -0.002475
    -1.908220    3.333295   -0.009714
    -0.004205   -0.018571    6.029755
   Fl
   2
Direct configuration=    20
   0.16630934  0.33294317  0.24984699
   0.83369069  0.66705680  0.75015301
Cn_HCP                                  
           1
     3.807427   -0.005322   -0.002755
    -1.908474    3.333929   -0.009798
    -0.004662   -0.018990    6.028526
   Fl
   2
Direct configuration=    21
   0.16631720  0.33293948  0.24985326
   0.83368283  0.66706049  0.75014674
Cn_HCP                                  
           1
     3.815544   -0.001089   -0.004496
    -1.908832    3.332650   -0.010271
    -0.007476   -0.021461    6.023233
   Fl
   2
Direct configuration=    22
   0.16633359  0.33290368  0.24986860
   0.83366644  0.66709629  0.75013140
Cn_HCP                                  
           1
     3.787021   -0.016366    0.002370
    -1.907929    3.337727   -0.009811
     0.003581   -0.014287    6.041476
   Fl
   2
Direct configuration=    23
   0.16627747  0.33302712  0.24980453
   0.83372256  0.66697285  0.75019547
Cn_HCP                                  
           1
     3.753388   -0.033960    0.010346
    -1.906498    3.342185   -0.009038
     0.016418   -0.005518    6.062839
   Fl
   2
Direct configuration=    24
   0.16621402  0.33317459  0.24971664
   0.83378601  0.66682538  0.75028336
Cn_HCP                                  
           1
     3.806330   -0.005725   -0.002669
    -1.908277    3.333976   -0.009722
    -0.004512   -0.018765    6.029411
   Fl
   2
Direct configuration=    25
   0.16631116  0.33293837  0.24985874
   0.83368887  0.66706160  0.75014126
Cn_HCP                                  
           1
     3.810250   -0.003656   -0.003453
    -1.908428    3.333422   -0.009902
    -0.005781   -0.019820    6.026806
   Fl
   2
Direct configuration=    26
   0.16631886  0.33292160  0.24986762
   0.83368117  0.66707837  0.75013238
Cn_HCP                                  
           1
     3.808913   -0.004176   -0.003432
    -1.908210    3.334351   -0.009577
    -0.005720   -0.019198    6.027977
   Fl
   2
Direct configuration=    27
   0.16631035  0.33292164  0.24988950
   0.83368968  0.66707833  0.75011050
Cn_HCP                                  
           1
     3.807446   -0.005010   -0.003069
    -1.908206    3.334736   -0.009681
    -0.005137   -0.019053    6.028856
   Fl
   2
Direct configuration=    28
   0.16630771  0.33292687  0.24988684
   0.83369232  0.66707310  0.75011316
Cn_HCP                                  
           1
     3.819598    0.001725   -0.006215
    -1.908389    3.333332   -0.009621
    -0.010184   -0.021840    6.021356
   Fl
   2
Direct configuration=    29
   0.16632585  0.33287450  0.24992646
   0.83367418  0.66712547  0.75007354
Cn_HCP                                  
           1
     3.823647    0.003828   -0.007280
    -1.908572    3.332705   -0.009599
    -0.011895   -0.022779    6.018871
   Fl
   2
Direct configuration=    30
   0.16633231  0.33285654  0.24994076
   0.83366772  0.66714343  0.75005924
Cn_HCP                                  
           1
     3.816145   -0.000180   -0.005413
    -1.908327    3.333448   -0.009522
    -0.008899   -0.020921    6.023579
   Fl
   2
Direct configuration=    31
   0.16632234  0.33289055  0.24991171
   0.83367769  0.66710942  0.75008829
Cn_HCP                                  
           1
     3.811835   -0.002352   -0.004457
    -1.908071    3.335017   -0.009444
    -0.007340   -0.019890    6.026500
   Fl
   2
Direct configuration=    32
   0.16631160  0.33290828  0.24991509
   0.83368843  0.66709169  0.75008491
Cn_HCP                                  
           1
     3.804098   -0.006862   -0.001921
    -1.908156    3.334525   -0.009792
    -0.003311   -0.018205    6.030781
   Fl
   2
Direct configuration=    33
   0.16631150  0.33294762  0.24985479
   0.83368853  0.66705235  0.75014521
Cn_HCP                                  
           1
     3.817213    0.000303   -0.004527
    -1.908449    3.331421   -0.010130
    -0.007543   -0.021243    6.022158
   Fl
   2
Direct configuration=    34
   0.16635463  0.33289304  0.24986875
   0.83364540  0.66710693  0.75013125
Cn_HCP                                  
           1
     3.830424    0.007741   -0.008033
    -1.908542    3.330253   -0.009944
    -0.013165   -0.024131    6.014196
   Fl
   2
Direct configuration=    35
   0.16637466  0.33283225  0.24992796
   0.83362537  0.66716772  0.75007204
Cn_HCP                                  
           1
     3.825460    0.004879   -0.006524
    -1.908568    3.330391   -0.010150
    -0.010756   -0.023121    6.017114
   Fl
   2
Direct configuration=    36
   0.16637091  0.33285681  0.24989991
   0.83362912  0.66714316  0.75010009
Cn_HCP                                  
           1
     3.813034   -0.001992   -0.003380
    -1.908365    3.332145   -0.010061
    -0.005706   -0.020064    6.024639
   Fl
   2
Direct configuration=    37
   0.16633705  0.33291292  0.24984944
   0.83366298  0.66708705  0.75015056
Cn_HCP                                  
           1
     3.824072    0.004068   -0.005985
    -1.908583    3.330312   -0.010146
    -0.009907   -0.022629    6.017676
   Fl
   2
Direct configuration=    38
   0.16636878  0.33286467  0.24988385
   0.83363125  0.66713530  0.75011615
Cn_HCP                                  
           1
     3.819029    0.001350   -0.005108
    -1.908436    3.331722   -0.009932
    -0.008470   -0.021418    6.020994
   Fl
   2
Direct configuration=    39
   0.16634330  0.33288416  0.24987933
   0.83365673  0.66711581  0.75012067
Cn_HCP                                  
           1
     3.820222    0.002005   -0.005356
    -1.908461    3.331470   -0.009996
    -0.008873   -0.021764    6.020220
   Fl
   2
Direct configuration=    40
   0.16634852  0.33287917  0.24988223
   0.83365151  0.66712080  0.75011777
Cn_HCP                                  
           1
     3.817738    0.000567   -0.004508
    -1.908476    3.331780   -0.009984
    -0.007525   -0.020970    6.021477
   Fl
   2
Direct configuration=    41
   0.16633750  0.33289375  0.24985679
   0.83366253  0.66710622  0.75014321
Cn_HCP                                  
           1
     3.816160   -0.000098   -0.003972
    -1.908272    3.331764   -0.009991
    -0.006678   -0.020500    6.022243
   Fl
   2
Direct configuration=    42
   0.16633624  0.33290240  0.24984058
   0.83366379  0.66709757  0.75015942
Cn_HCP                                  
           1
     3.814765   -0.000791   -0.002942
    -1.908186    3.331230   -0.010122
    -0.005072   -0.019816    6.022486
   Fl
   2
Direct configuration=    43
   0.16634208  0.33291378  0.24980066
   0.83365795  0.66708619  0.75019934
Cn_HCP                                  
           1
     3.814997   -0.000577   -0.002822
    -1.908116    3.330969   -0.010106
    -0.004891   -0.019685    6.022195
   Fl
   2
Direct configuration=    44
   0.16634060  0.33291449  0.24979082
   0.83365943  0.66708548  0.75020918
Cn_HCP                                  
           1
     3.806525   -0.005108    0.000484
    -1.907852    3.331248   -0.010267
     0.000336   -0.016985    6.025938
   Fl
   2
Direct configuration=    45
   0.16632467  0.33296231  0.24969170
   0.83367536  0.66703766  0.75030830
Cn_HCP                                  
           1
     3.817068    0.000761   -0.003473
    -1.907981    3.330930   -0.010075
    -0.005926   -0.020222    6.021219
   Fl
   2
Direct configuration=    46
   0.16634409  0.33290592  0.24980450
   0.83365594  0.66709405  0.75019550
Cn_HCP                                  
           1
     3.816239    0.000458   -0.002961
    -1.907835    3.330832   -0.010118
    -0.005129   -0.019848    6.020810
   Fl
   2
Direct configuration=    47
   0.16634953  0.33291149  0.24978708
   0.83365050  0.66708848  0.75021292
Cn_HCP                                  
           1
     3.818314    0.001550   -0.003932
    -1.907914    3.330772   -0.010024
    -0.006659   -0.020551    6.019918
   Fl
   2
Direct configuration=    48
   0.16635106  0.33289947  0.24981564
   0.83364897  0.66710050  0.75018436
Cn_HCP                                  
           1
     3.820735    0.002681   -0.004830
    -1.908132    3.330715   -0.009935
    -0.008072   -0.021200    6.018829
   Fl
   2
Direct configuration=    49
   0.16635354  0.33288658  0.24984816
   0.83364649  0.66711339  0.75015184
Cn_HCP                                  
           1
     3.830941    0.007689   -0.008860
    -1.908840    3.330548   -0.009803
    -0.014428   -0.024597    6.014515
   Fl
   2
Direct configuration=    50
   0.16636675  0.33283063  0.24997458
   0.83363328  0.66716934  0.75002542
Cn_HCP                                  
           1
     3.830402    0.007862   -0.008739
    -1.908422    3.330382   -0.009509
    -0.014237   -0.023957    6.014485
   Fl
   2
Direct configuration=    51
   0.16636976  0.33283400  0.24997337
   0.83363027  0.66716597  0.75002663
Cn_HCP                                  
           1
     3.827928    0.006678   -0.007565
    -1.908225    3.330395   -0.009565
    -0.012398   -0.023006    6.015542
   Fl
   2
Direct configuration=    52
   0.16636867  0.33284961  0.24993390
   0.83363136  0.66715036  0.75006610
Cn_HCP                                  
           1
     3.829048    0.007269   -0.007993
    -1.908266    3.330498   -0.009569
    -0.013075   -0.023401    6.015017
   Fl
   2
Direct configuration=    53
   0.16636942  0.33284379  0.24994641
   0.83363061  0.66715618  0.75005359
Cn_HCP                                  
           1
     3.823651    0.004291   -0.005931
    -1.908179    3.330515   -0.009609
    -0.009813   -0.021606    6.017353
   Fl
   2
Direct configuration=    54
   0.16636229  0.33287169  0.24988899
   0.83363774  0.66712828  0.75011101
Cn_HCP                                  
           1
     3.822279    0.003694   -0.005501
    -1.908017    3.330578   -0.009810
    -0.009134   -0.021581    6.018086
   Fl
   2
Direct configuration=    55
   0.16636101  0.33287773  0.24987538
   0.83363902  0.66712224  0.75012462
Cn_HCP                                  
           1
     3.832305    0.008291   -0.009222
    -1.908994    3.330091   -0.009403
    -0.015005   -0.024202    6.013678
   Fl
   2
Direct configuration=    56
   0.16637344  0.33282782  0.24998373
   0.83362659  0.66717215  0.75001627
Cn_HCP                                  
           1
     3.826786    0.005898   -0.007091
    -1.908337    3.330304   -0.009487
    -0.011646   -0.022432    6.015976
   Fl
   2
Direct configuration=    57
   0.16636626  0.33285645  0.24992069
   0.83363377  0.66714352  0.75007931
Cn_HCP                                  
           1
     3.831352    0.007959   -0.008722
    -1.908810    3.330227   -0.009446
    -0.014226   -0.023835    6.014024
   Fl
   2
Direct configuration=    58
   0.16637425  0.33283474  0.24996709
   0.83362578  0.66716523  0.75003291
Cn_HCP                                  
           1
     3.825443    0.005486   -0.006444
    -1.908029    3.330799   -0.009609
    -0.010641   -0.022084    6.016358
   Fl
   2
Direct configuration=    59
   0.16637280  0.33286667  0.24989739
   0.83362723  0.66713330  0.75010261
Cn_HCP                                  
           1
     3.814426    0.000197   -0.002300
    -1.907164    3.331523   -0.009910
    -0.004099   -0.018891    6.020731
   Fl
   2
Direct configuration=    60
   0.16635926  0.33292362  0.24977402
   0.83364077  0.66707635  0.75022598
Cn_HCP                                  
           1
     3.821642    0.003381   -0.004939
    -1.907977    3.331880   -0.009636
    -0.008272   -0.020790    6.016598
   Fl
   2
Direct configuration=    61
   0.16637023  0.33288974  0.24984540
   0.83362980  0.66711023  0.75015460
Cn_HCP                                  
           1
     3.835596    0.009189   -0.010246
    -1.909849    3.331619   -0.009202
    -0.016643   -0.024791    6.009756
   Fl
   2
Direct configuration=    62
   0.16638637  0.33282017  0.24999588
   0.83361366  0.66717980  0.75000412
Cn_HCP                                  
           1
     3.853608    0.016754   -0.017201
    -1.912209    3.332308   -0.008552
    -0.027611   -0.029896    5.999775
   Fl
   2
Direct configuration=    63
   0.16642116  0.33272560  0.25020698
   0.83357887  0.66727437  0.74979302
Cn_HCP                                  
           1
     3.852131    0.015596   -0.016305
    -1.912486    3.334459   -0.008526
    -0.026226   -0.029079    5.997435
   Fl
   2
Direct configuration=    64
   0.16643066  0.33274324  0.25016013
   0.83356937  0.66725673  0.74983987
Cn_HCP                                  
           1
     3.834226    0.010565   -0.010534
    -1.907964    3.326519   -0.009405
    -0.017022   -0.025316    6.018289
   Fl
   2
Direct configuration=    65
   0.16635867  0.33280481  0.25004627
   0.83364136  0.66719516  0.74995373
Cn_HCP                                  
           1
     3.836725    0.009214   -0.010679
    -1.910389    3.333713   -0.009028
    -0.017342   -0.024899    6.006505
   Fl
   2
Direct configuration=    66
   0.16640092  0.33281774  0.24999957
   0.83359911  0.66718223  0.75000043
Cn_HCP                                  
           1
     3.831018    0.005909   -0.008122
    -1.910436    3.336110   -0.009136
    -0.013342   -0.022835    6.005713
   Fl
   2
Direct configuration=    67
   0.16640882  0.33285873  0.24991100
   0.83359121  0.66714124  0.75008900
Cn_HCP                                  
           1
     3.829181    0.006422   -0.007920
    -1.909072    3.331752   -0.009383
    -0.012969   -0.023017    6.012998
   Fl
   2
Direct configuration=    68
   0.16638334  0.33285305  0.24993153
   0.83361669  0.66714692  0.75006847
Cn_HCP                                  
           1
     3.819219    0.002603   -0.004272
    -1.907448    3.330151   -0.009771
    -0.007193   -0.020397    6.020257
   Fl
   2
Direct configuration=    69
   0.16636344  0.33290215  0.24984230
   0.83363659  0.66709782  0.75015770
Cn_HCP                                  
           1
     3.818940    0.002604   -0.004246
    -1.907308    3.329714   -0.009793
    -0.007146   -0.020405    6.021004
   Fl
   2
Direct configuration=    70
   0.16636080  0.33290200  0.24984374
   0.83363923  0.66709797  0.75015626
Cn_HCP                                  
           1
     3.824204    0.003569   -0.005478
    -1.909088    3.334003   -0.009473
    -0.009150   -0.021026    6.011825
   Fl
   2
Direct configuration=    71
   0.16639591  0.33289208  0.24986293
   0.83360412  0.66710789  0.75013707
Cn_HCP                                  
           1
     3.826170    0.004008   -0.006370
    -1.909682    3.334421   -0.009345
    -0.010556   -0.021599    6.010174
   Fl
   2
Direct configuration=    72
   0.16639122  0.33287814  0.24986646
   0.83360881  0.66712183  0.75013354
Cn_HCP                                  
           1
     3.823964    0.001836   -0.005104
    -1.910483    3.338227   -0.009276
    -0.008605   -0.020400    6.005628
   Fl
   2
Direct configuration=    73
   0.16640481  0.33290217  0.24979662
   0.83359522  0.66709780  0.75020338
Cn_HCP                                  
           1
     3.827304    0.004065   -0.006493
    -1.910198    3.336527   -0.009266
    -0.010775   -0.021608    6.006796
   Fl
   2
Direct configuration=    74
   0.16640394  0.33287921  0.24986527
   0.83359609  0.66712076  0.75013473
Cn_HCP                                  
           1
     3.817955    0.000991   -0.003454
    -1.908228    3.332891   -0.009688
    -0.005937   -0.019558    6.016439
   Fl
   2
Direct configuration=    75
   0.16637879  0.33291706  0.24978844
   0.83362124  0.66708291  0.75021156
Cn_HCP                                  
           1
     3.818570    0.000940   -0.003553
    -1.908580    3.333964   -0.009627
    -0.006106   -0.019557    6.014599
   Fl
   2
Direct configuration=    76
   0.16638440  0.33291758  0.24978335
   0.83361563  0.66708239  0.75021665
Cn_HCP                                  
           1
     3.820289    0.001042   -0.003839
    -1.909348    3.336366   -0.009497
    -0.006589   -0.019627    6.010270
   Fl
   2
Direct configuration=    77
   0.16639974  0.33291818  0.24978053
   0.83360029  0.66708179  0.75021947
Cn_HCP                                  
           1
     3.827974    0.004872   -0.006805
    -1.909828    3.336403   -0.009252
    -0.011268   -0.021862    6.007348
   Fl
   2
Direct configuration=    78
   0.16640629  0.33287630  0.24989130
   0.83359374  0.66712367  0.75010870
Cn_HCP                                  
           1
     3.827931    0.004648   -0.006750
    -1.910003    3.337674   -0.009204
    -0.011191   -0.021744    6.005919
   Fl
   2
Direct configuration=    79
   0.16641145  0.33288002  0.24988220
   0.83358858  0.66711995  0.75011780
Cn_HCP                                  
           1
     3.827890    0.004570   -0.006811
    -1.910051    3.337795   -0.009204
    -0.011289   -0.021803    6.005535
   Fl
   2
Direct configuration=    80
   0.16641312  0.33288065  0.24988299
   0.83358691  0.66711932  0.75011701
Cn_HCP                                  
           1
     3.833402    0.006685   -0.008336
    -1.910948    3.339808   -0.008959
    -0.013727   -0.022779    6.000734
   Fl
   2
Direct configuration=    81
   0.16644127  0.33286057  0.24993295
   0.83355876  0.66713940  0.75006705
Cn_HCP                                  
           1
     3.821344    0.001397   -0.004108
    -1.909564    3.337511   -0.009421
    -0.007029   -0.019751    6.008512
   Fl
   2
Direct configuration=    82
   0.16640902  0.33291423  0.24978863
   0.83359101  0.66708574  0.75021137
Cn_HCP                                  
           1
     3.829164    0.005140   -0.007060
    -1.910187    3.337519   -0.009184
    -0.011685   -0.021991    6.005445
   Fl
   2
Direct configuration=    83
   0.16642291  0.33287309  0.24989333
   0.83357712  0.66712688  0.75010667
Cn_HCP                                  
           1
     3.823168    0.002892   -0.005306
    -1.909165    3.335964   -0.009426
    -0.008885   -0.020806    6.010351
   Fl
   2
Direct configuration=    84
   0.16638593  0.33290125  0.24984911
   0.83361410  0.66709872  0.75015089
Cn_HCP                                  
           1
     3.827025    0.004820   -0.006884
    -1.909400    3.336061   -0.009296
    -0.011370   -0.021996    6.008910
   Fl
   2
Direct configuration=    85
   0.16638838  0.33287716  0.24990096
   0.83361165  0.66712281  0.75009904
Cn_HCP                                  
           1
     3.825077    0.003682   -0.005963
    -1.909425    3.336602   -0.009375
    -0.009932   -0.021322    6.008507
   Fl
   2
Direct configuration=    86
   0.16639275  0.33289359  0.24986439
   0.83360728  0.66710638  0.75013561
Cn_HCP                                  
           1
     3.827950    0.005762   -0.007570
    -1.909036    3.334588   -0.009386
    -0.012432   -0.022752    6.010382
   Fl
   2
Direct configuration=    87
   0.16637754  0.33286607  0.24993519
   0.83362249  0.66713390  0.75006481
Cn_HCP                                  
           1
     3.827774    0.005263   -0.007152
    -1.909386    3.335888   -0.009335
    -0.011796   -0.022309    6.008548
   Fl
   2
Direct configuration=    88
   0.16639167  0.33287432  0.24991089
   0.83360836  0.66712565  0.75008911
Cn_HCP                                  
           1
     3.827578    0.005169   -0.007121
    -1.909370    3.335762   -0.009303
    -0.011743   -0.022219    6.008880
   Fl
   2
Direct configuration=    89
   0.16638630  0.33287392  0.24991061
   0.83361373  0.66712605  0.75008939
Cn_HCP                                  
           1
     3.827672    0.005279   -0.007210
    -1.909321    3.335597   -0.009308
    -0.011880   -0.022306    6.009112
   Fl
   2
Direct configuration=    90
   0.16638437  0.33287274  0.24991440
   0.83361566  0.66712723  0.75008560
Cn_HCP                                  
           1
     3.827272    0.005092   -0.007041
    -1.909286    3.335645   -0.009311
    -0.011615   -0.022158    6.009247
   Fl
   2
Direct configuration=    91
   0.16638384  0.33287504  0.24990864
   0.83361619  0.66712493  0.75009136
Cn_HCP                                  
           1
     3.825462    0.003734   -0.006043
    -1.909572    3.337133   -0.009295
    -0.010063   -0.021257    6.007657
   Fl
   2
Direct configuration=    92
   0.16639777  0.33289181  0.24987659
   0.83360226  0.66710816  0.75012341
Cn_HCP                                  
           1
     3.826710    0.004461   -0.006674
    -1.909558    3.336666   -0.009294
    -0.011047   -0.021812    6.008264
   Fl
   2
Direct configuration=    93
   0.16639178  0.33288169  0.24989671
   0.83360825  0.66711828  0.75010329
Cn_HCP                                  
           1
     3.827248    0.004914   -0.007012
    -1.909429    3.336005   -0.009352
    -0.011571   -0.022210    6.008851
   Fl
   2
Direct configuration=    94
   0.16638538  0.33287567  0.24990800
   0.83361465  0.66712430  0.75009200
Cn_HCP                                  
           1
     3.826851    0.004649   -0.006792
    -1.909463    3.336314   -0.009319
    -0.011229   -0.021959    6.008567
   Fl
   2
Direct configuration=    95
   0.16639169  0.33288060  0.24990081
   0.83360834  0.66711937  0.75009919
Cn_HCP                                  
           1
     3.826678    0.004305   -0.006752
    -1.909677    3.336413   -0.009253
    -0.011167   -0.021806    6.008463
   Fl
   2
Direct configuration=    96
   0.16639082  0.33288129  0.24989870
   0.83360921  0.66711868  0.75010130
Cn_HCP                                  
           1
     3.826644    0.004618   -0.006720
    -1.909387    3.336026   -0.009253
    -0.011114   -0.021772    6.008872
   Fl
   2
Direct configuration=    97
   0.16638809  0.33287927  0.24990577
   0.83361194  0.66712070  0.75009423
Cn_HCP                                  
           1
     3.826076    0.004177   -0.006396
    -1.909490    3.336384   -0.009192
    -0.010609   -0.021376    6.008523
   Fl
   2
Direct configuration=    98
   0.16640041  0.33288496  0.24990440
   0.83359962  0.66711501  0.75009560
Cn_HCP                                  
           1
     3.826385    0.004459   -0.006550
    -1.909397    3.336010   -0.009169
    -0.010845   -0.021466    6.008948
   Fl
   2
Direct configuration=    99
   0.16640550  0.33288290  0.24991770
   0.83359453  0.66711707  0.75008230
Cn_HCP                                  
           1
     3.825757    0.004168   -0.006197
    -1.909338    3.336134   -0.009090
    -0.010292   -0.021009    6.008870
   Fl
   2
Direct configuration=   100
   0.16642074  0.33288770  0.24992646
   0.83357929  0.66711227  0.75007354
Cn_HCP                                  
           1
     3.825942    0.004272   -0.006298
    -1.909340    3.336149   -0.009139
    -0.010452   -0.021188    6.008830
   Fl
   2
Direct configuration=   101
   0.16641566  0.33288606  0.24992276
   0.83358437  0.66711391  0.75007724
Cn_HCP                                  
           1
     3.825943    0.004291   -0.006305
    -1.909324    3.336135   -0.009140
    -0.010461   -0.021195    6.008854
   Fl
   2
Direct configuration=   102
   0.16641579  0.33288602  0.24992339
   0.83358424  0.66711395  0.75007661
Cn_HCP                                  
           1
     3.825795    0.004204   -0.006206
    -1.909326    3.336273   -0.009082
    -0.010308   -0.021004    6.008766
   Fl
   2
Direct configuration=   103
   0.16641791  0.33288669  0.24992132
   0.83358212  0.66711328  0.75007868
