Cn_HCP                                  
           1
     3.804464   -0.007201   -0.001881
    -1.908636    3.334869   -0.010072
    -0.003270   -0.018689    6.030240
   Fl
   2
Direct configuration=     1
   0.16631766  0.33295667  0.24983682
   0.83368237  0.66704330  0.75016318
Cn_HCP                                  
           1
     3.805153   -0.007152   -0.002065
    -1.908938    3.335000   -0.010181
    -0.003563   -0.019054    6.030433
   Fl
   2
Direct configuration=     2
   0.16631622  0.33295462  0.24983996
   0.83368381  0.66704535  0.75016004
Cn_HCP                                  
           1
     3.805213   -0.007150   -0.002063
    -1.908966    3.335018   -0.010168
    -0.003559   -0.019029    6.030340
   Fl
   2
Direct configuration=     3
   0.16631617  0.33295456  0.24984005
   0.83368386  0.66704541  0.75015995
Cn_HCP                                  
           1
     3.805094   -0.007216   -0.001987
    -1.908965    3.335076   -0.010350
    -0.003440   -0.019290    6.030162
   Fl
   2
Direct configuration=     4
   0.16631582  0.33295407  0.24984067
   0.83368421  0.66704590  0.75015933
Cn_HCP                                  
           1
     3.804151   -0.007000   -0.001849
    -1.908304    3.334460   -0.009958
    -0.003219   -0.018452    6.030294
   Fl
   2
Direct configuration=     5
   0.16631940  0.33295957  0.24983371
   0.83368063  0.66704040  0.75016629
Cn_HCP                                  
           1
     3.803795   -0.007015   -0.001771
    -1.908138    3.334592   -0.009792
    -0.003094   -0.018081    6.030399
   Fl
   2
Direct configuration=     6
   0.16632001  0.33296070  0.24983275
   0.83368002  0.66703927  0.75016725
Cn_HCP                                  
           1
     3.804014   -0.007123   -0.001789
    -1.908343    3.334628   -0.009861
    -0.003123   -0.018221    6.030416
   Fl
   2
Direct configuration=     7
   0.16632000  0.33296041  0.24983309
   0.83368003  0.66703956  0.75016691
