Cn_HCP                                  
           1
     4.023849   -0.001577   -0.013781
    -2.013356    3.517985    0.004955
    -0.022191   -0.002150    6.396976
   Fl
   2
Direct configuration=     1
   0.16644914  0.33306303  0.24996230
   0.83355089  0.66693694  0.75003770
Cn_HCP                                  
           1
     4.023935   -0.001050   -0.014135
    -2.012939    3.518262    0.004966
    -0.022750   -0.002456    6.398010
   Fl
   2
Direct configuration=     2
   0.16645076  0.33306420  0.24996261
   0.83354927  0.66693577  0.75003739
Cn_HCP                                  
           1
     4.023890   -0.001059   -0.014131
    -2.012924    3.518255    0.005001
    -0.022745   -0.002388    6.397956
   Fl
   2
Direct configuration=     3
   0.16645073  0.33306420  0.24996260
   0.83354930  0.66693577  0.75003740
Cn_HCP                                  
           1
     4.023946   -0.000845   -0.014113
    -2.012765    3.518179    0.004922
    -0.022717   -0.002518    6.397744
   Fl
   2
Direct configuration=     4
   0.16645039  0.33306380  0.24996257
   0.83354964  0.66693617  0.75003743
Cn_HCP                                  
           1
     4.023768   -0.000737   -0.014029
    -2.012581    3.517634    0.004856
    -0.022581   -0.002560    6.398082
   Fl
   2
Direct configuration=     5
   0.16644460  0.33306118  0.24996172
   0.83355543  0.66693879  0.75003828
Cn_HCP                                  
           1
     4.023553   -0.000653   -0.014170
    -2.012401    3.517205    0.004793
    -0.022804   -0.002804    6.398110
   Fl
   2
Direct configuration=     6
   0.16644327  0.33306153  0.24996143
   0.83355676  0.66693844  0.75003857
Cn_HCP                                  
           1
     4.023768   -0.000470   -0.014147
    -2.012348    3.517150    0.004841
    -0.022768   -0.002696    6.398255
   Fl
   2
Direct configuration=     7
   0.16644282  0.33306163  0.24996139
   0.83355721  0.66693834  0.75003861
Cn_HCP                                  
           1
     4.023643   -0.000450   -0.014078
    -2.012269    3.517084    0.004772
    -0.022658   -0.002760    6.398274
   Fl
   2
Direct configuration=     8
   0.16644127  0.33306249  0.24996131
   0.83355876  0.66693748  0.75003869
Cn_HCP                                  
           1
     4.023659   -0.000531   -0.014101
    -2.012347    3.517113    0.004819
    -0.022695   -0.002695    6.398225
   Fl
   2
Direct configuration=     9
   0.16644207  0.33306234  0.24996137
   0.83355796  0.66693763  0.75003863
Cn_HCP                                  
           1
     4.024177   -0.000478   -0.014141
    -2.012560    3.517621    0.004801
    -0.022760   -0.002764    6.398370
   Fl
   2
Direct configuration=    10
   0.16644444  0.33306167  0.24996168
   0.83355559  0.66693830  0.75003832
Cn_HCP                                  
           1
     4.024186   -0.000323   -0.014040
    -2.012430    3.517377    0.004709
    -0.022600   -0.002841    6.398545
   Fl
   2
Direct configuration=    11
   0.16644434  0.33306268  0.24996183
   0.83355569  0.66693729  0.75003817
Cn_HCP                                  
           1
     4.024361   -0.000117   -0.013960
    -2.012338    3.517358    0.004618
    -0.022472   -0.002934    6.398809
   Fl
   2
Direct configuration=    12
   0.16644339  0.33306289  0.24996189
   0.83355664  0.66693708  0.75003811
Cn_HCP                                  
           1
     4.024358   -0.000121   -0.013965
    -2.012339    3.517350    0.004621
    -0.022480   -0.002933    6.398806
   Fl
   2
Direct configuration=    13
   0.16644338  0.33306289  0.24996189
   0.83355665  0.66693708  0.75003811
Cn_HCP                                  
           1
     4.024079   -0.000044   -0.014089
    -2.012133    3.517337    0.004782
    -0.022676   -0.002752    6.398807
   Fl
   2
Direct configuration=    14
   0.16644344  0.33306266  0.24996187
   0.83355659  0.66693731  0.75003813
Cn_HCP                                  
           1
     4.024142   -0.000107   -0.014201
    -2.012219    3.517573    0.004824
    -0.022854   -0.002778    6.398760
   Fl
   2
Direct configuration=    15
   0.16644506  0.33305980  0.24996216
   0.83355497  0.66694017  0.75003784
Cn_HCP                                  
           1
     4.024200   -0.000031   -0.014169
    -2.012182    3.517657    0.004812
    -0.022804   -0.002773    6.398725
   Fl
   2
Direct configuration=    16
   0.16644517  0.33305978  0.24996220
   0.83355486  0.66694019  0.75003780
Cn_HCP                                  
           1
     4.024215    0.000120   -0.014192
    -2.012057    3.517317    0.004836
    -0.022838   -0.002750    6.399733
   Fl
   2
Direct configuration=    17
   0.16644712  0.33306395  0.24996259
   0.83355291  0.66693602  0.75003741
Cn_HCP                                  
           1
     4.024445   -0.000395   -0.013965
    -2.012622    3.517143    0.004710
    -0.022478   -0.002769    6.399849
   Fl
   2
Direct configuration=    18
   0.16644525  0.33306708  0.24996261
   0.83355478  0.66693289  0.75003739
Cn_HCP                                  
           1
     4.024132    0.000800   -0.014308
    -2.011422    3.518076    0.004834
    -0.023029   -0.002865    6.397451
   Fl
   2
Direct configuration=    19
   0.16644378  0.33305366  0.24996221
   0.83355625  0.66694631  0.75003779
Cn_HCP                                  
           1
     4.024932    0.000159   -0.014134
    -2.012382    3.517216    0.004666
    -0.022750   -0.003006    6.399667
   Fl
   2
Direct configuration=    20
   0.16644461  0.33306258  0.24996256
   0.83355542  0.66693739  0.75003744
Cn_HCP                                  
           1
     4.025361    0.000375   -0.014085
    -2.012407    3.516997    0.004652
    -0.022672   -0.002987    6.400193
   Fl
   2
Direct configuration=    21
   0.16644555  0.33306467  0.24996273
   0.83355448  0.66693530  0.75003727
