Cn_HCP                                  
           1
     3.810316   -0.003193   -0.003311
    -1.908046    3.337235   -0.005694
    -0.005553   -0.012090    6.031277
   Fl
   2
Direct configuration=     1
   0.16628349  0.33295516  0.24990038
   0.83371654  0.66704481  0.75009962
Cn_HCP                                  
           1
     3.810278   -0.003377   -0.003321
    -1.908187    3.337146   -0.005341
    -0.005566   -0.011460    6.031324
   Fl
   2
Direct configuration=     2
   0.16628230  0.33295312  0.24990221
   0.83371773  0.66704685  0.75009779
Cn_HCP                                  
           1
     3.810411   -0.003432   -0.003278
    -1.908302    3.337264   -0.005389
    -0.005499   -0.011508    6.031145
   Fl
   2
Direct configuration=     3
   0.16628218  0.33295292  0.24990237
   0.83371785  0.66704705  0.75009763
Cn_HCP                                  
           1
     3.810425   -0.003448   -0.003341
    -1.908323    3.337351   -0.005357
    -0.005599   -0.011509    6.031167
   Fl
   2
Direct configuration=     4
   0.16628219  0.33295281  0.24990243
   0.83371784  0.66704716  0.75009757
Cn_HCP                                  
           1
     3.810464   -0.003445   -0.003313
    -1.908340    3.337405   -0.005348
    -0.005555   -0.011466    6.031243
   Fl
   2
Direct configuration=     5
   0.16628214  0.33295270  0.24990251
   0.83371789  0.66704727  0.75009749
Cn_HCP                                  
           1
     3.810539   -0.003238   -0.003334
    -1.908197    3.337350   -0.005369
    -0.005588   -0.011524    6.031165
   Fl
   2
Direct configuration=     6
   0.16628171  0.33295209  0.24990302
   0.83371832  0.66704788  0.75009698
Cn_HCP                                  
           1
     3.810411   -0.003244   -0.003311
    -1.908138    3.337353   -0.005499
    -0.005552   -0.011738    6.031188
   Fl
   2
Direct configuration=     7
   0.16628158  0.33295222  0.24990320
   0.83371845  0.66704775  0.75009680
Cn_HCP                                  
           1
     3.810571   -0.003210   -0.003319
    -1.908188    3.337520   -0.005390
    -0.005565   -0.011549    6.031210
   Fl
   2
Direct configuration=     8
   0.16628140  0.33295177  0.24990350
   0.83371863  0.66704820  0.75009650
Cn_HCP                                  
           1
     3.810700   -0.003132   -0.003327
    -1.908184    3.337577   -0.005282
    -0.005578   -0.011361    6.031060
   Fl
   2
Direct configuration=     9
   0.16627998  0.33295162  0.24990566
   0.83372005  0.66704835  0.75009434
Cn_HCP                                  
           1
     3.810306   -0.003880   -0.003194
    -1.908643    3.337514   -0.005531
    -0.005365   -0.011690    6.030992
   Fl
   2
Direct configuration=    10
   0.16628460  0.33295123  0.24989831
   0.83371543  0.66704874  0.75010169
Cn_HCP                                  
           1
     3.810813   -0.003271   -0.003187
    -1.908363    3.337437   -0.005588
    -0.005356   -0.011787    6.030761
   Fl
   2
Direct configuration=    11
   0.16628223  0.33295078  0.24990132
   0.83371780  0.66704919  0.75009868
Cn_HCP                                  
           1
     3.810106   -0.003603   -0.003365
    -1.908299    3.337421   -0.005476
    -0.005635   -0.011743    6.031409
   Fl
   2
Direct configuration=    12
   0.16628440  0.33295235  0.24989955
   0.83371563  0.66704762  0.75010045
Cn_HCP                                  
           1
     3.811745   -0.002342   -0.003598
    -1.908014    3.337473   -0.004563
    -0.006010   -0.010308    6.031325
   Fl
   2
Direct configuration=    13
   0.16627209  0.33295014  0.24992117
   0.83372794  0.66704983  0.75007883
Cn_HCP                                  
           1
     3.811058   -0.003360   -0.003415
    -1.908563    3.337537   -0.005198
    -0.005716   -0.011287    6.031221
   Fl
   2
Direct configuration=    14
   0.16628186  0.33295028  0.24990282
   0.83371817  0.66704969  0.75009718
Cn_HCP                                  
           1
     3.809943   -0.003461   -0.003305
    -1.908094    3.337028   -0.005571
    -0.005541   -0.011860    6.031142
   Fl
   2
Direct configuration=    15
   0.16628264  0.33295251  0.24990138
   0.83371739  0.66704746  0.75009862
Cn_HCP                                  
           1
     3.804585   -0.006259   -0.002897
    -1.907865    3.336365   -0.007769
    -0.004881   -0.015454    6.031849
   Fl
   2
Direct configuration=    16
   0.16630876  0.33295778  0.24986091
   0.83369127  0.66704219  0.75013909
Cn_HCP                                  
           1
     3.806401   -0.005574   -0.002878
    -1.908174    3.336417   -0.007228
    -0.004855   -0.014460    6.031278
   Fl
   2
Direct configuration=    17
   0.16629835  0.33295602  0.24987248
   0.83370168  0.66704395  0.75012752
Cn_HCP                                  
           1
     3.808787   -0.004158   -0.002952
    -1.908127    3.336422   -0.006581
    -0.004980   -0.013363    6.030776
   Fl
   2
Direct configuration=    18
   0.16628825  0.33295313  0.24988633
   0.83371178  0.66704684  0.75011367
Cn_HCP                                  
           1
     3.808684   -0.004816   -0.003004
    -1.908653    3.336997   -0.006721
    -0.005059   -0.013663    6.031239
   Fl
   2
Direct configuration=    19
   0.16629580  0.33295133  0.24987705
   0.83370423  0.66704864  0.75012295
Cn_HCP                                  
           1
     3.807036   -0.005740   -0.002598
    -1.908639    3.336183   -0.007883
    -0.004411   -0.015390    6.030819
   Fl
   2
Direct configuration=    20
   0.16630229  0.33295402  0.24985986
   0.83369774  0.66704595  0.75014014
Cn_HCP                                  
           1
     3.806732   -0.005847   -0.002533
    -1.908581    3.336056   -0.008062
    -0.004307   -0.015653    6.030754
   Fl
   2
Direct configuration=    21
   0.16630296  0.33295457  0.24985820
   0.83369707  0.66704540  0.75014180
Cn_HCP                                  
           1
     3.806911   -0.005638   -0.002421
    -1.908488    3.335693   -0.008270
    -0.004132   -0.015927    6.030609
   Fl
   2
Direct configuration=    22
   0.16630219  0.33295437  0.24986274
   0.83369784  0.66704560  0.75013726
Cn_HCP                                  
           1
     3.804759   -0.007029   -0.001944
    -1.908633    3.334951   -0.009873
    -0.003370   -0.018387    6.030266
   Fl
   2
Direct configuration=    23
   0.16631591  0.33295639  0.24983966
   0.83368412  0.66704358  0.75016034
Cn_HCP                                  
           1
     3.804464   -0.007201   -0.001881
    -1.908636    3.334869   -0.010072
    -0.003270   -0.018689    6.030240
   Fl
   2
Direct configuration=    24
   0.16631766  0.33295667  0.24983682
   0.83368237  0.66704330  0.75016318
