Cn_HCP                                  
           1
     4.025361    0.000375   -0.014085
    -2.012407    3.516997    0.004652
    -0.022672   -0.002987    6.400193
   Fl
   2
Direct configuration=     1
   0.16644555  0.33306467  0.24996273
   0.83355448  0.66693530  0.75003727
Cn_HCP                                  
           1
     4.014744   -0.000045   -0.014231
    -2.007465    3.507590    0.004925
    -0.022902   -0.002624    6.383539
   Fl
   2
Direct configuration=     2
   0.16644562  0.33306453  0.24996310
   0.83355441  0.66693544  0.75003690
Cn_HCP                                  
           1
     3.973343   -0.001049   -0.013808
    -1.987653    3.474644    0.001239
    -0.022195   -0.008952    6.326852
   Fl
   2
Direct configuration=     3
   0.16644110  0.33306963  0.24995189
   0.83355893  0.66693034  0.75004811
Cn_HCP                                  
           1
     3.906614   -0.005497   -0.010899
    -1.958196    3.422259   -0.004583
    -0.017503   -0.016889    6.234528
   Fl
   2
Direct configuration=     4
   0.16643516  0.33307381  0.24993750
   0.83356487  0.66692616  0.75006250
Cn_HCP                                  
           1
     3.888494   -0.006175   -0.011153
    -1.949730    3.407026   -0.005367
    -0.017893   -0.018543    6.210389
   Fl
   2
Direct configuration=     5
   0.16643276  0.33307318  0.24993432
   0.83356727  0.66692679  0.75006568
Cn_HCP                                  
           1
     3.889487   -0.005941   -0.011350
    -1.950020    3.407560   -0.004482
    -0.018204   -0.017106    6.212005
   Fl
   2
Direct configuration=     6
   0.16643033  0.33307030  0.24993513
   0.83356970  0.66692967  0.75006487
Cn_HCP                                  
           1
     3.886144   -0.006044   -0.011258
    -1.948440    3.404617   -0.004586
    -0.018054   -0.017209    6.207649
   Fl
   2
Direct configuration=     7
   0.16642786  0.33306835  0.24993522
   0.83357217  0.66693162  0.75006478
Cn_HCP                                  
           1
     3.848832   -0.007876   -0.010115
    -1.931393    3.374890   -0.007051
    -0.016199   -0.020648    6.156251
   Fl
   2
Direct configuration=     8
   0.16641164  0.33306025  0.24992965
   0.83358839  0.66693972  0.75007035
Cn_HCP                                  
           1
     3.854206   -0.007935   -0.009906
    -1.934131    3.380299   -0.007139
    -0.015869   -0.020623    6.163663
   Fl
   2
Direct configuration=     9
   0.16640981  0.33305875  0.24993016
   0.83359022  0.66694122  0.75006984
Cn_HCP                                  
           1
     3.896227   -0.006178   -0.010883
    -1.953601    3.413274   -0.005181
    -0.017464   -0.017956    6.221030
   Fl
   2
Direct configuration=    10
   0.16643441  0.33307146  0.24993641
   0.83356562  0.66692851  0.75006359
Cn_HCP                                  
           1
     3.885863   -0.006813   -0.010806
    -1.948973    3.405175   -0.005299
    -0.017330   -0.018094    6.207424
   Fl
   2
Direct configuration=    11
   0.16642182  0.33306374  0.24993540
   0.83357821  0.66693623  0.75006460
Cn_HCP                                  
           1
     3.890593   -0.006853   -0.010661
    -1.951374    3.409465   -0.005515
    -0.017101   -0.018357    6.214090
   Fl
   2
Direct configuration=    12
   0.16642452  0.33306550  0.24993524
   0.83357551  0.66693447  0.75006476
Cn_HCP                                  
           1
     3.889580   -0.006370   -0.010870
    -1.950445    3.408039   -0.005254
    -0.017438   -0.018075    6.211974
   Fl
   2
Direct configuration=    13
   0.16643129  0.33306828  0.24993659
   0.83356874  0.66693169  0.75006341
Cn_HCP                                  
           1
     3.890139   -0.006289   -0.010892
    -1.950653    3.408304   -0.005206
    -0.017473   -0.018008    6.212612
   Fl
   2
Direct configuration=    14
   0.16643235  0.33306875  0.24993680
   0.83356768  0.66693122  0.75006320
Cn_HCP                                  
           1
     3.893386   -0.005905   -0.011181
    -1.951941    3.410213   -0.004845
    -0.017939   -0.017614    6.216794
   Fl
   2
Direct configuration=    15
   0.16643847  0.33307079  0.24993819
   0.83356156  0.66692918  0.75006181
Cn_HCP                                  
           1
     3.892511   -0.005807   -0.011177
    -1.951417    3.409203   -0.004704
    -0.017934   -0.017354    6.215174
   Fl
   2
Direct configuration=    16
   0.16643890  0.33307519  0.24993831
   0.83356113  0.66692478  0.75006169
Cn_HCP                                  
           1
     3.882916   -0.006148   -0.011100
    -1.946917    3.401546   -0.004740
    -0.017800   -0.017345    6.202226
   Fl
   2
Direct configuration=    17
   0.16644945  0.33306961  0.24993875
   0.83355058  0.66693036  0.75006125
Cn_HCP                                  
           1
     3.891380   -0.006397   -0.011022
    -1.951367    3.408857   -0.004783
    -0.017679   -0.017350    6.215213
   Fl
   2
Direct configuration=    18
   0.16642934  0.33307042  0.24993662
   0.83357069  0.66692955  0.75006338
Cn_HCP                                  
           1
     3.886320   -0.005494   -0.011566
    -1.948046    3.402364   -0.003588
    -0.018547   -0.015670    6.206638
   Fl
   2
Direct configuration=    19
   0.16647547  0.33307537  0.24994331
   0.83352456  0.66692460  0.75005669
Cn_HCP                                  
           1
     3.889722   -0.005873   -0.011315
    -1.950080    3.405990   -0.004226
    -0.018149   -0.016603    6.211815
   Fl
   2
Direct configuration=    20
   0.16644875  0.33306757  0.24993938
   0.83355128  0.66693240  0.75006062
Cn_HCP                                  
           1
     3.890356   -0.005555   -0.011056
    -1.950120    3.406110   -0.004391
    -0.017735   -0.016667    6.213192
   Fl
   2
Direct configuration=    21
   0.16644676  0.33306844  0.24993913
   0.83355327  0.66693153  0.75006087
Cn_HCP                                  
           1
     3.890897   -0.005588   -0.011215
    -1.950419    3.405966   -0.003934
    -0.017986   -0.015973    6.214377
   Fl
   2
Direct configuration=    22
   0.16644106  0.33306234  0.24993982
   0.83355897  0.66693763  0.75006018
Cn_HCP                                  
           1
     3.886377   -0.005552   -0.011282
    -1.948125    3.403383   -0.003970
    -0.018095   -0.016109    6.206681
   Fl
   2
Direct configuration=    23
   0.16646804  0.33307723  0.24993882
   0.83353199  0.66692274  0.75006118
Cn_HCP                                  
           1
     3.885286   -0.005387   -0.011387
    -1.947436    3.402474   -0.003944
    -0.018264   -0.016161    6.204624
   Fl
   2
Direct configuration=    24
   0.16647458  0.33308102  0.24993684
   0.83352545  0.66691895  0.75006316
Cn_HCP                                  
           1
     3.884987   -0.005401   -0.011374
    -1.947298    3.402289   -0.003934
    -0.018242   -0.016131    6.204190
   Fl
   2
Direct configuration=    25
   0.16647756  0.33308258  0.24993600
   0.83352247  0.66691739  0.75006400
Cn_HCP                                  
           1
     3.886712   -0.005412   -0.011264
    -1.948170    3.403436   -0.004020
    -0.018067   -0.016184    6.207035
   Fl
   2
Direct configuration=    26
   0.16646746  0.33307837  0.24993614
   0.83353257  0.66692160  0.75006386
Cn_HCP                                  
           1
     3.886695   -0.005479   -0.011239
    -1.948220    3.403609   -0.004013
    -0.018027   -0.016149    6.206888
   Fl
   2
Direct configuration=    27
   0.16646776  0.33307909  0.24993585
   0.83353227  0.66692088  0.75006415
Cn_HCP                                  
           1
     3.888307   -0.005637   -0.011158
    -1.949165    3.404810   -0.004032
    -0.017895   -0.016106    6.209964
   Fl
   2
Direct configuration=    28
   0.16645226  0.33307348  0.24993615
   0.83354777  0.66692649  0.75006385
Cn_HCP                                  
           1
     3.886734   -0.005571   -0.011247
    -1.948321    3.403685   -0.003992
    -0.018038   -0.016117    6.207254
   Fl
   2
Direct configuration=    29
   0.16646439  0.33307832  0.24993568
   0.83353564  0.66692165  0.75006432
Cn_HCP                                  
           1
     3.885478   -0.005292   -0.011307
    -1.947449    3.402337   -0.003999
    -0.018136   -0.016187    6.205373
   Fl
   2
Direct configuration=    30
   0.16648245  0.33308000  0.24993674
   0.83351758  0.66691997  0.75006326
Cn_HCP                                  
           1
     3.886841   -0.005447   -0.011109
    -1.948265    3.403401   -0.003789
    -0.017819   -0.015621    6.207156
   Fl
   2
Direct configuration=    31
   0.16645856  0.33307348  0.24993901
   0.83354147  0.66692649  0.75006099
Cn_HCP                                  
           1
     3.888508   -0.005818   -0.011119
    -1.949424    3.404728   -0.003721
    -0.017832   -0.015502    6.210346
   Fl
   2
Direct configuration=    32
   0.16644741  0.33306833  0.24993972
   0.83355262  0.66693164  0.75006028
Cn_HCP                                  
           1
     3.888225   -0.005814   -0.010945
    -1.949278    3.404181   -0.003407
    -0.017554   -0.014768    6.209721
   Fl
   2
Direct configuration=    33
   0.16643622  0.33306229  0.24994275
   0.83356381  0.66693768  0.75005725
Cn_HCP                                  
           1
     3.888185   -0.006101   -0.010870
    -1.949509    3.405081   -0.003616
    -0.017429   -0.015080    6.210992
   Fl
   2
Direct configuration=    34
   0.16643442  0.33306255  0.24994105
   0.83356561  0.66693742  0.75005895
Cn_HCP                                  
           1
     3.888912   -0.006241   -0.010724
    -1.949996    3.405097   -0.003402
    -0.017196   -0.014552    6.211607
   Fl
   2
Direct configuration=    35
   0.16641493  0.33305197  0.24994551
   0.83358510  0.66694800  0.75005449
Cn_HCP                                  
           1
     3.888255   -0.005835   -0.010979
    -1.949312    3.404980   -0.003682
    -0.017607   -0.015304    6.210211
   Fl
   2
Direct configuration=    36
   0.16643046  0.33306112  0.24994200
   0.83356957  0.66693885  0.75005800
Cn_HCP                                  
           1
     3.888581   -0.005941   -0.010938
    -1.949566    3.405514   -0.003507
    -0.017540   -0.014946    6.211477
   Fl
   2
Direct configuration=    37
   0.16640814  0.33305097  0.24994417
   0.83359189  0.66694900  0.75005583
Cn_HCP                                  
           1
     3.887696   -0.005986   -0.011002
    -1.949165    3.404437   -0.003801
    -0.017642   -0.015538    6.209675
   Fl
   2
Direct configuration=    38
   0.16644269  0.33306558  0.24994059
   0.83355734  0.66693439  0.75005941
Cn_HCP                                  
           1
     3.887792   -0.005816   -0.011012
    -1.949063    3.404679   -0.003738
    -0.017660   -0.015436    6.209679
   Fl
   2
Direct configuration=    39
   0.16643656  0.33306331  0.24994106
   0.83356347  0.66693666  0.75005894
Cn_HCP                                  
           1
     3.887814   -0.005887   -0.010963
    -1.949137    3.404336   -0.003747
    -0.017580   -0.015405    6.209622
   Fl
   2
Direct configuration=    40
   0.16643921  0.33306411  0.24994077
   0.83356082  0.66693586  0.75005923
Cn_HCP                                  
           1
     3.888014   -0.006204   -0.010975
    -1.949514    3.404504   -0.003586
    -0.017599   -0.015120    6.210084
   Fl
   2
Direct configuration=    41
   0.16642978  0.33305880  0.24994323
   0.83357025  0.66694117  0.75005677
Cn_HCP                                  
           1
     3.888360   -0.005972   -0.010955
    -1.949484    3.404953   -0.003563
    -0.017567   -0.015062    6.210587
   Fl
   2
Direct configuration=    42
   0.16642192  0.33305510  0.24994379
   0.83357811  0.66694487  0.75005621
Cn_HCP                                  
           1
     3.888346   -0.005994   -0.010917
    -1.949497    3.404828   -0.003552
    -0.017507   -0.015007    6.210689
   Fl
   2
Direct configuration=    43
   0.16642304  0.33305515  0.24994463
   0.83357699  0.66694482  0.75005537
Cn_HCP                                  
           1
     3.887974   -0.006234   -0.010708
    -1.949522    3.404363   -0.003738
    -0.017171   -0.015152    6.210001
   Fl
   2
Direct configuration=    44
   0.16643777  0.33306136  0.24994393
   0.83356226  0.66693861  0.75005607
Cn_HCP                                  
           1
     3.887739   -0.006030   -0.010843
    -1.949225    3.404423   -0.003823
    -0.017389   -0.015434    6.209616
   Fl
   2
Direct configuration=    45
   0.16644121  0.33306433  0.24994200
   0.83355882  0.66693564  0.75005800
Cn_HCP                                  
           1
     3.887499   -0.005893   -0.011115
    -1.948984    3.404322   -0.003712
    -0.017823   -0.015480    6.209249
   Fl
   2
Direct configuration=    46
   0.16644516  0.33306670  0.24994122
   0.83355487  0.66693327  0.75005878
Cn_HCP                                  
           1
     3.888442   -0.005950   -0.010837
    -1.949508    3.404029   -0.003687
    -0.017381   -0.015178    6.210170
   Fl
   2
Direct configuration=    47
   0.16643253  0.33305824  0.24994331
   0.83356750  0.66694173  0.75005669
Cn_HCP                                  
           1
     3.888534   -0.005839   -0.010962
    -1.949457    3.404068   -0.003616
    -0.017580   -0.015163    6.210317
   Fl
   2
Direct configuration=    48
   0.16643347  0.33305892  0.24994235
   0.83356656  0.66694105  0.75005765
Cn_HCP                                  
           1
     3.888043   -0.006318   -0.010819
    -1.949630    3.403687   -0.003779
    -0.017348   -0.015324    6.210177
   Fl
   2
Direct configuration=    49
   0.16643598  0.33306042  0.24994210
   0.83356405  0.66693955  0.75005790
