   1   1   0   0
  0.5764366E+02  0.4335996E-09  0.4335996E-09  0.4335996E-09  0.1000000E-15
  1.000000000000000E-004
  CAR 
 Og_FCC                                  
     98.05643155    -21.56831967  301     -3.52491970      1.00000000
    -21.568  0.0000E+00  0.0000E+00
    -21.170  0.0000E+00  0.0000E+00
    -20.771  0.0000E+00  0.0000E+00
    -20.372  0.0000E+00  0.0000E+00
    -19.973  0.0000E+00  0.0000E+00
    -19.575  0.0000E+00  0.0000E+00
    -19.176  0.0000E+00  0.0000E+00
    -18.777  0.0000E+00  0.0000E+00
    -18.378  0.0000E+00  0.0000E+00
    -17.980  0.0000E+00  0.0000E+00
    -17.581  0.0000E+00  0.0000E+00
    -17.182  0.0000E+00  0.0000E+00
    -16.783  0.0000E+00  0.0000E+00
    -16.385  0.0000E+00  0.0000E+00
    -15.986  0.1170E+00  0.3440E+00
    -15.587  0.0000E+00  0.2000E+01
    -15.188  0.0000E+00  0.2000E+01
    -14.790  0.0000E+00  0.2000E+01
    -14.391  0.0000E+00  0.2000E+01
    -13.992  0.0000E+00  0.2000E+01
    -13.593  0.0000E+00  0.2000E+01
    -13.195  0.0000E+00  0.2000E+01
    -12.796  0.0000E+00  0.2000E+01
    -12.397  0.0000E+00  0.2000E+01
    -11.998  0.0000E+00  0.2000E+01
    -11.600  0.0000E+00  0.2000E+01
    -11.201  0.0000E+00  0.2000E+01
    -10.802  0.0000E+00  0.2000E+01
    -10.403  0.0000E+00  0.2000E+01
    -10.005  0.0000E+00  0.2000E+01
     -9.606  0.0000E+00  0.2000E+01
     -9.207  0.0000E+00  0.2000E+01
     -8.808  0.0000E+00  0.2000E+01
     -8.410  0.0000E+00  0.2000E+01
     -8.011  0.0000E+00  0.2000E+01
     -7.612  0.0000E+00  0.2000E+01
     -7.213  0.0000E+00  0.2000E+01
     -6.815  0.0000E+00  0.2000E+01
     -6.416  0.0000E+00  0.2000E+01
     -6.017  0.0000E+00  0.2000E+01
     -5.618  0.0000E+00  0.2000E+01
     -5.220  0.0000E+00  0.2187E+01
     -4.821  0.0000E+00  0.3621E+01
     -4.422  0.0000E+00  0.4752E+01
     -4.023  0.0000E+00  0.6583E+01
     -3.625  0.0000E+00  0.8000E+01
     -3.226  0.0000E+00  0.8000E+01
     -2.827  0.0000E+00  0.8000E+01
     -2.428  0.0000E+00  0.8000E+01
     -2.030  0.0000E+00  0.8000E+01
     -1.631  0.0000E+00  0.8000E+01
     -1.232  0.0000E+00  0.8000E+01
     -0.833  0.0000E+00  0.8000E+01
     -0.435  0.0000E+00  0.8000E+01
     -0.036  0.0000E+00  0.8000E+01
      0.363  0.0000E+00  0.8000E+01
      0.762  0.0000E+00  0.8000E+01
      1.160  0.0000E+00  0.8000E+01
      1.559  0.0000E+00  0.8000E+01
      1.958  0.0000E+00  0.8000E+01
      2.357  0.0000E+00  0.8000E+01
      2.755  0.0000E+00  0.8006E+01
      3.154  0.0000E+00  0.8052E+01
      3.553  0.0000E+00  0.8087E+01
      3.952  0.0000E+00  0.8309E+01
      4.350  0.0000E+00  0.8810E+01
      4.749  0.3458E+00  0.9543E+01
      5.148  0.0000E+00  0.1028E+02
      5.547  0.0000E+00  0.1070E+02
      5.945  0.0000E+00  0.1147E+02
      6.344  0.0000E+00  0.1199E+02
      6.743  0.0000E+00  0.1286E+02
      7.142  0.0000E+00  0.1373E+02
      7.540  0.0000E+00  0.1450E+02
      7.939  0.0000E+00  0.1530E+02
      8.338  0.0000E+00  0.1565E+02
      8.737  0.0000E+00  0.1617E+02
      9.135  0.0000E+00  0.1655E+02
      9.534  0.4138E-10  0.1676E+02
      9.933  0.0000E+00  0.1756E+02
     10.332  0.0000E+00  0.1787E+02
     10.730  0.0000E+00  0.1878E+02
     11.129  0.0000E+00  0.1966E+02
     11.528  0.0000E+00  0.2065E+02
     11.927  0.0000E+00  0.2094E+02
     12.325  0.0000E+00  0.2122E+02
     12.724  0.0000E+00  0.2182E+02
     13.123  0.0000E+00  0.2324E+02
     13.522  0.0000E+00  0.2424E+02
     13.920  0.0000E+00  0.2518E+02
     14.319  0.0000E+00  0.2574E+02
     14.718  0.0000E+00  0.2641E+02
     15.117  0.2107E+00  0.2676E+02
     15.515  0.3112E+00  0.2792E+02
     15.914  0.0000E+00  0.2846E+02
     16.313  0.0000E+00  0.2993E+02
     16.712  0.3509E+00  0.3125E+02
     17.110  0.0000E+00  0.3216E+02
     17.509  0.0000E+00  0.3362E+02
     17.908  0.0000E+00  0.3459E+02
     18.307  0.0000E+00  0.3532E+02
     18.705  0.0000E+00  0.3634E+02
     19.104  0.0000E+00  0.3648E+02
     19.503  0.0000E+00  0.3762E+02
     19.902  0.0000E+00  0.3889E+02
     20.300  0.0000E+00  0.3978E+02
     20.699  0.5262E+00  0.4090E+02
     21.098  0.9780E-10  0.4216E+02
     21.497  0.0000E+00  0.4323E+02
     21.895  0.0000E+00  0.4409E+02
     22.294  0.0000E+00  0.4592E+02
     22.693  0.0000E+00  0.4659E+02
     23.092  0.0000E+00  0.4755E+02
     23.490  0.0000E+00  0.4793E+02
     23.889  0.0000E+00  0.4920E+02
     24.288  0.0000E+00  0.4957E+02
     24.687  0.0000E+00  0.5119E+02
     25.085  0.0000E+00  0.5191E+02
     25.484  0.0000E+00  0.5230E+02
     25.883  0.0000E+00  0.5354E+02
     26.282  0.0000E+00  0.5469E+02
     26.680  0.3510E+00  0.5654E+02
     27.079  0.0000E+00  0.5813E+02
     27.478  0.0000E+00  0.5889E+02
     27.877  0.0000E+00  0.5937E+02
     28.275  0.0000E+00  0.5965E+02
     28.674  0.0000E+00  0.6127E+02
     29.073  0.0000E+00  0.6156E+02
     29.472  0.0000E+00  0.6273E+02
     29.870  0.0000E+00  0.6343E+02
     30.269  0.0000E+00  0.6448E+02
     30.668  0.0000E+00  0.6597E+02
     31.067  0.0000E+00  0.6678E+02
     31.465  0.0000E+00  0.6755E+02
     31.864  0.0000E+00  0.6925E+02
     32.263  0.0000E+00  0.7021E+02
     32.662  0.0000E+00  0.7136E+02
     33.060  0.0000E+00  0.7232E+02
     33.459  0.0000E+00  0.7286E+02
     33.858  0.0000E+00  0.7480E+02
     34.257  0.0000E+00  0.7515E+02
     34.655  0.1893E-02  0.7665E+02
     35.054  0.8765E-01  0.7740E+02
     35.453  0.0000E+00  0.7830E+02
     35.852  0.0000E+00  0.7875E+02
     36.250  0.0000E+00  0.7962E+02
     36.649  0.0000E+00  0.8010E+02
     37.048  0.0000E+00  0.8154E+02
     37.447  0.1171E-02  0.8277E+02
     37.845  0.0000E+00  0.8423E+02
     38.244  0.0000E+00  0.8546E+02
     38.643  0.3510E+00  0.8698E+02
     39.042  0.3433E-03  0.8790E+02
     39.440  0.9831E-01  0.8885E+02
     39.839  0.1755E+00  0.9065E+02
     40.238  0.0000E+00  0.9114E+02
     40.637  0.0000E+00  0.9209E+02
     41.035  0.0000E+00  0.9285E+02
     41.434  0.1467E-04  0.9390E+02
     41.833  0.0000E+00  0.9493E+02
     42.232  0.0000E+00  0.9665E+02
     42.630  0.0000E+00  0.9784E+02
     43.029  0.0000E+00  0.9884E+02
     43.428  0.0000E+00  0.9998E+02
     43.827  0.0000E+00  0.1011E+03
     44.225  0.0000E+00  0.1024E+03
     44.624  0.0000E+00  0.1033E+03
     45.023  0.7427E-11  0.1044E+03
     45.422  0.5826E-02  0.1053E+03
     45.820  0.0000E+00  0.1067E+03
     46.219  0.0000E+00  0.1075E+03
     46.618  0.7798E-10  0.1082E+03
     47.017  0.0000E+00  0.1092E+03
     47.415  0.0000E+00  0.1098E+03
     47.814  0.0000E+00  0.1110E+03
     48.213  0.1169E-15  0.1127E+03
     48.612  0.3510E+00  0.1139E+03
     49.010  0.4002E+00  0.1160E+03
     49.409  0.0000E+00  0.1166E+03
     49.808  0.0000E+00  0.1174E+03
     50.207  0.0000E+00  0.1188E+03
     50.605  0.0000E+00  0.1205E+03
     51.004  0.0000E+00  0.1216E+03
     51.403  0.0000E+00  0.1225E+03
     51.802  0.0000E+00  0.1236E+03
     52.200  0.6633E+00  0.1254E+03
     52.599  0.2338E-15  0.1264E+03
     52.998  0.0000E+00  0.1274E+03
     53.397  0.0000E+00  0.1283E+03
     53.795  0.0000E+00  0.1292E+03
     54.194  0.0000E+00  0.1305E+03
     54.593  0.0000E+00  0.1319E+03
     54.992  0.1049E+00  0.1327E+03
     55.390  0.0000E+00  0.1342E+03
     55.789  0.3641E+00  0.1360E+03
     56.188  0.0000E+00  0.1371E+03
     56.587  0.3516E+00  0.1385E+03
     56.985  0.3499E-04  0.1396E+03
     57.384  0.0000E+00  0.1414E+03
     57.783  0.0000E+00  0.1421E+03
     58.182  0.0000E+00  0.1432E+03
     58.580  0.3510E+00  0.1439E+03
     58.979  0.0000E+00  0.1447E+03
     59.378  0.1755E+00  0.1466E+03
     59.777  0.1831E+00  0.1482E+03
     60.175  0.1095E+00  0.1499E+03
     60.574  0.1026E-03  0.1513E+03
     60.973  0.0000E+00  0.1528E+03
     61.372  0.0000E+00  0.1537E+03
     61.770  0.6633E-05  0.1558E+03
     62.169  0.0000E+00  0.1575E+03
     62.568  0.4088E-10  0.1583E+03
     62.967  0.6472E+00  0.1601E+03
     63.365  0.0000E+00  0.1610E+03
     63.764  0.0000E+00  0.1615E+03
     64.163  0.0000E+00  0.1625E+03
     64.562  0.0000E+00  0.1637E+03
     64.960  0.0000E+00  0.1648E+03
     65.359  0.9562E-02  0.1662E+03
     65.758  0.5762E+00  0.1678E+03
     66.156  0.0000E+00  0.1698E+03
     66.555  0.0000E+00  0.1709E+03
     66.954  0.0000E+00  0.1720E+03
     67.353  0.0000E+00  0.1727E+03
     67.751  0.1201E-03  0.1739E+03
     68.150  0.0000E+00  0.1755E+03
     68.549  0.1053E+00  0.1771E+03
     68.948  0.5331E-04  0.1787E+03
     69.346  0.5650E-01  0.1800E+03
     69.745  0.1284E-07  0.1816E+03
     70.144  0.3162E+00  0.1829E+03
     70.543  0.0000E+00  0.1837E+03
     70.941  0.0000E+00  0.1848E+03
     71.340  0.0000E+00  0.1860E+03
     71.739  0.8774E-01  0.1876E+03
     72.138  0.3510E+00  0.1891E+03
     72.536  0.0000E+00  0.1904E+03
     72.935  0.7019E+00  0.1918E+03
     73.334  0.5537E-03  0.1933E+03
     73.733  0.0000E+00  0.1950E+03
     74.131  0.3386E-03  0.1965E+03
     74.530  0.0000E+00  0.1983E+03
     74.929  0.0000E+00  0.1997E+03
     75.328  0.3581E+00  0.2008E+03
     75.726  0.1152E-01  0.2032E+03
     76.125  0.3511E+00  0.2043E+03
     76.524  0.5676E+00  0.2054E+03
     76.923  0.0000E+00  0.2070E+03
     77.321  0.1322E+00  0.2079E+03
     77.720  0.0000E+00  0.2095E+03
     78.119  0.2340E+00  0.2103E+03
     78.518  0.0000E+00  0.2117E+03
     78.916  0.0000E+00  0.2131E+03
     79.315  0.3510E+00  0.2146E+03
     79.714  0.0000E+00  0.2162E+03
     80.113  0.0000E+00  0.2170E+03
     80.511  0.2340E+00  0.2189E+03
     80.910  0.1604E+00  0.2209E+03
     81.309  0.0000E+00  0.2220E+03
     81.708  0.3510E+00  0.2235E+03
     82.106  0.0000E+00  0.2250E+03
     82.505  0.0000E+00  0.2264E+03
     82.904  0.0000E+00  0.2278E+03
     83.303  0.0000E+00  0.2293E+03
     83.701  0.3340E+00  0.2315E+03
     84.100  0.0000E+00  0.2330E+03
     84.499  0.0000E+00  0.2345E+03
     84.898  0.0000E+00  0.2356E+03
     85.296  0.0000E+00  0.2372E+03
     85.695  0.0000E+00  0.2381E+03
     86.094  0.3510E+00  0.2394E+03
     86.493  0.0000E+00  0.2410E+03
     86.891  0.1755E+00  0.2423E+03
     87.290  0.8774E-01  0.2445E+03
     87.689  0.1627E-03  0.2462E+03
     88.088  0.3510E+00  0.2487E+03
     88.486  0.0000E+00  0.2498E+03
     88.885  0.0000E+00  0.2508E+03
     89.284  0.0000E+00  0.2519E+03
     89.683  0.0000E+00  0.2530E+03
     90.081  0.0000E+00  0.2541E+03
     90.480  0.1748E+00  0.2549E+03
     90.879  0.0000E+00  0.2550E+03
     91.278  0.0000E+00  0.2554E+03
     91.676  0.0000E+00  0.2559E+03
     92.075  0.0000E+00  0.2559E+03
     92.474  0.0000E+00  0.2559E+03
     92.873  0.0000E+00  0.2560E+03
     93.271  0.0000E+00  0.2560E+03
     93.670  0.0000E+00  0.2560E+03
     94.069  0.0000E+00  0.2560E+03
     94.468  0.0000E+00  0.2560E+03
     94.866  0.0000E+00  0.2560E+03
     95.265  0.0000E+00  0.2560E+03
     95.664  0.0000E+00  0.2560E+03
     96.063  0.0000E+00  0.2560E+03
     96.461  0.0000E+00  0.2560E+03
     96.860  0.0000E+00  0.2560E+03
     97.259  0.0000E+00  0.2560E+03
     97.658  0.0000E+00  0.2560E+03
     98.056  0.0000E+00  0.2560E+03
