       N       E                     dE             d eps       ncg     rms          rms(c)
DIA:   1     0.131423666470E-01    0.13142E-01    0.00000E+00     0   0.000E+00
DIA:   2     0.131423666355E-01   -0.11482E-10    0.00000E+00     0   0.000E+00
DIA:   3     0.131423666406E-01    0.51159E-11    0.00000E+00     0   0.000E+00
DIA:   4     0.131423666265E-01   -0.14097E-10    0.00000E+00     0   0.000E+00
DIA:   5     0.131423666465E-01    0.20009E-10    0.00000E+00     0   0.000E+00    0.420E-06
DIA:   6     0.131423669521E-01    0.30559E-09    0.00000E+00     0   0.000E+00
   1 F= -.17219179E+00 E0= -.17219179E+00  d E =0.000000E+00
 imaginary and real dielectric function
