   1   1   0   0
  0.6156630E+02  0.4432200E-09  0.4432200E-09  0.4432200E-09  0.1000000E-15
  1.000000000000000E-004
  CAR 
 Og_FCC                                  
     58.70246143    -25.57739152  301     -8.30002167      1.00000000
    -25.577  0.0000E+00  0.0000E+00
    -25.296  0.0000E+00  0.0000E+00
    -25.016  0.0000E+00  0.0000E+00
    -24.735  0.0000E+00  0.0000E+00
    -24.454  0.0000E+00  0.0000E+00
    -24.173  0.0000E+00  0.0000E+00
    -23.892  0.0000E+00  0.0000E+00
    -23.611  0.0000E+00  0.0000E+00
    -23.330  0.0000E+00  0.0000E+00
    -23.049  0.0000E+00  0.0000E+00
    -22.768  0.0000E+00  0.0000E+00
    -22.487  0.0000E+00  0.0000E+00
    -22.206  0.0000E+00  0.0000E+00
    -21.925  0.0000E+00  0.0000E+00
    -21.644  0.0000E+00  0.2500E+00
    -21.363  0.0000E+00  0.2000E+01
    -21.082  0.0000E+00  0.2000E+01
    -20.802  0.0000E+00  0.2000E+01
    -20.521  0.0000E+00  0.2000E+01
    -20.240  0.0000E+00  0.2000E+01
    -19.959  0.0000E+00  0.2000E+01
    -19.678  0.0000E+00  0.2000E+01
    -19.397  0.0000E+00  0.2000E+01
    -19.116  0.0000E+00  0.2000E+01
    -18.835  0.0000E+00  0.2000E+01
    -18.554  0.0000E+00  0.2000E+01
    -18.273  0.0000E+00  0.2000E+01
    -17.992  0.0000E+00  0.2000E+01
    -17.711  0.0000E+00  0.2000E+01
    -17.430  0.0000E+00  0.2000E+01
    -17.149  0.0000E+00  0.2000E+01
    -16.868  0.0000E+00  0.2000E+01
    -16.588  0.0000E+00  0.2000E+01
    -16.307  0.0000E+00  0.2000E+01
    -16.026  0.0000E+00  0.2000E+01
    -15.745  0.0000E+00  0.2000E+01
    -15.464  0.0000E+00  0.2000E+01
    -15.183  0.0000E+00  0.2000E+01
    -14.902  0.0000E+00  0.2000E+01
    -14.621  0.0000E+00  0.2000E+01
    -14.340  0.0000E+00  0.2000E+01
    -14.059  0.0000E+00  0.2000E+01
    -13.778  0.0000E+00  0.2000E+01
    -13.497  0.0000E+00  0.2000E+01
    -13.216  0.0000E+00  0.2000E+01
    -12.935  0.0000E+00  0.2000E+01
    -12.654  0.0000E+00  0.2000E+01
    -12.374  0.0000E+00  0.2000E+01
    -12.093  0.0000E+00  0.2000E+01
    -11.812  0.0000E+00  0.2000E+01
    -11.531  0.0000E+00  0.2000E+01
    -11.250  0.0000E+00  0.2000E+01
    -10.969  0.0000E+00  0.2000E+01
    -10.688  0.0000E+00  0.3398E+01
    -10.407  0.0000E+00  0.3861E+01
    -10.126  0.0000E+00  0.4000E+01
     -9.845  0.0000E+00  0.4000E+01
     -9.564  0.0000E+00  0.4000E+01
     -9.283  0.1505E-01  0.5365E+01
     -9.002  0.0000E+00  0.5861E+01
     -8.721  0.9118E-14  0.7333E+01
     -8.440  0.0000E+00  0.7981E+01
     -8.160  0.0000E+00  0.8000E+01
     -7.879  0.0000E+00  0.8000E+01
     -7.598  0.0000E+00  0.8000E+01
     -7.317  0.0000E+00  0.8000E+01
     -7.036  0.0000E+00  0.8000E+01
     -6.755  0.0000E+00  0.8000E+01
     -6.474  0.0000E+00  0.8000E+01
     -6.193  0.0000E+00  0.8000E+01
     -5.912  0.0000E+00  0.8000E+01
     -5.631  0.0000E+00  0.8000E+01
     -5.350  0.0000E+00  0.8000E+01
     -5.069  0.0000E+00  0.8000E+01
     -4.788  0.0000E+00  0.8000E+01
     -4.507  0.0000E+00  0.8000E+01
     -4.226  0.0000E+00  0.8000E+01
     -3.946  0.0000E+00  0.8000E+01
     -3.665  0.0000E+00  0.8000E+01
     -3.384  0.0000E+00  0.8000E+01
     -3.103  0.0000E+00  0.8000E+01
     -2.822  0.0000E+00  0.8000E+01
     -2.541  0.0000E+00  0.8000E+01
     -2.260  0.0000E+00  0.8000E+01
     -1.979  0.0000E+00  0.8000E+01
     -1.698  0.0000E+00  0.8000E+01
     -1.417  0.0000E+00  0.8000E+01
     -1.136  0.0000E+00  0.8000E+01
     -0.855  0.0000E+00  0.8000E+01
     -0.574  0.0000E+00  0.8000E+01
     -0.293  0.0000E+00  0.8000E+01
     -0.013  0.0000E+00  0.8000E+01
      0.268  0.0000E+00  0.8000E+01
      0.549  0.0000E+00  0.8000E+01
      0.830  0.0000E+00  0.8000E+01
      1.111  0.0000E+00  0.8000E+01
      1.392  0.0000E+00  0.8000E+01
      1.673  0.0000E+00  0.8000E+01
      1.954  0.0000E+00  0.8000E+01
      2.235  0.0000E+00  0.8000E+01
      2.516  0.0000E+00  0.8000E+01
      2.797  0.0000E+00  0.8000E+01
      3.078  0.0000E+00  0.8009E+01
      3.359  0.0000E+00  0.8009E+01
      3.640  0.0000E+00  0.8009E+01
      3.921  0.0000E+00  0.8139E+01
      4.201  0.0000E+00  0.8139E+01
      4.482  0.0000E+00  0.8167E+01
      4.763  0.1978E+00  0.8407E+01
      5.044  0.0000E+00  0.8889E+01
      5.325  0.0000E+00  0.9000E+01
      5.606  0.0000E+00  0.9806E+01
      5.887  0.1977E+00  0.1008E+02
      6.168  0.0000E+00  0.1031E+02
      6.449  0.3174E+00  0.1106E+02
      6.730  0.0000E+00  0.1164E+02
      7.011  0.0000E+00  0.1203E+02
      7.292  0.0000E+00  0.1232E+02
      7.573  0.0000E+00  0.1299E+02
      7.854  0.2666E+00  0.1370E+02
      8.135  0.0000E+00  0.1413E+02
      8.415  0.0000E+00  0.1472E+02
      8.696  0.0000E+00  0.1483E+02
      8.977  0.0000E+00  0.1579E+02
      9.258  0.1176E-10  0.1653E+02
      9.539  0.0000E+00  0.1675E+02
      9.820  0.0000E+00  0.1719E+02
     10.101  0.0000E+00  0.1791E+02
     10.382  0.0000E+00  0.1857E+02
     10.663  0.0000E+00  0.1870E+02
     10.944  0.0000E+00  0.1870E+02
     11.225  0.0000E+00  0.1925E+02
     11.506  0.0000E+00  0.2028E+02
     11.787  0.0000E+00  0.2113E+02
     12.068  0.0000E+00  0.2163E+02
     12.349  0.0000E+00  0.2207E+02
     12.629  0.1978E+00  0.2274E+02
     12.910  0.0000E+00  0.2280E+02
     13.191  0.0000E+00  0.2335E+02
     13.472  0.0000E+00  0.2394E+02
     13.753  0.0000E+00  0.2428E+02
     14.034  0.0000E+00  0.2504E+02
     14.315  0.0000E+00  0.2515E+02
     14.596  0.0000E+00  0.2544E+02
     14.877  0.3955E+00  0.2672E+02
     15.158  0.0000E+00  0.2694E+02
     15.439  0.0000E+00  0.2786E+02
     15.720  0.0000E+00  0.2875E+02
     16.001  0.0000E+00  0.2944E+02
     16.282  0.0000E+00  0.3000E+02
     16.563  0.0000E+00  0.3044E+02
     16.843  0.0000E+00  0.3106E+02
     17.124  0.0000E+00  0.3219E+02
     17.405  0.0000E+00  0.3258E+02
     17.686  0.0000E+00  0.3306E+02
     17.967  0.0000E+00  0.3343E+02
     18.248  0.1191E-06  0.3457E+02
     18.529  0.0000E+00  0.3493E+02
     18.810  0.0000E+00  0.3604E+02
     19.091  0.0000E+00  0.3656E+02
     19.372  0.0000E+00  0.3778E+02
     19.653  0.9754E-01  0.3861E+02
     19.934  0.1318E+00  0.3969E+02
     20.215  0.0000E+00  0.4002E+02
     20.496  0.0000E+00  0.4007E+02
     20.777  0.0000E+00  0.4081E+02
     21.057  0.0000E+00  0.4184E+02
     21.338  0.0000E+00  0.4257E+02
     21.619  0.0000E+00  0.4357E+02
     21.900  0.0000E+00  0.4404E+02
     22.181  0.0000E+00  0.4527E+02
     22.462  0.0000E+00  0.4588E+02
     22.743  0.1258E-01  0.4690E+02
     23.024  0.0000E+00  0.4764E+02
     23.305  0.0000E+00  0.4810E+02
     23.586  0.0000E+00  0.4819E+02
     23.867  0.1978E+00  0.4895E+02
     24.148  0.0000E+00  0.4988E+02
     24.429  0.2956E-02  0.5046E+02
     24.710  0.0000E+00  0.5141E+02
     24.991  0.0000E+00  0.5174E+02
     25.271  0.0000E+00  0.5268E+02
     25.552  0.0000E+00  0.5336E+02
     25.833  0.0000E+00  0.5399E+02
     26.114  0.0000E+00  0.5452E+02
     26.395  0.0000E+00  0.5536E+02
     26.676  0.0000E+00  0.5662E+02
     26.957  0.0000E+00  0.5776E+02
     27.238  0.0000E+00  0.5798E+02
     27.519  0.0000E+00  0.5861E+02
     27.800  0.0000E+00  0.5948E+02
     28.081  0.7906E+00  0.6049E+02
     28.362  0.0000E+00  0.6079E+02
     28.643  0.0000E+00  0.6130E+02
     28.924  0.0000E+00  0.6174E+02
     29.205  0.1978E+00  0.6224E+02
     29.485  0.0000E+00  0.6263E+02
     29.766  0.0000E+00  0.6341E+02
     30.047  0.2871E-08  0.6435E+02
     30.328  0.0000E+00  0.6531E+02
     30.609  0.3955E+00  0.6613E+02
     30.890  0.0000E+00  0.6635E+02
     31.171  0.7910E+00  0.6765E+02
     31.452  0.7318E-17  0.6797E+02
     31.733  0.0000E+00  0.6866E+02
     32.014  0.0000E+00  0.6960E+02
     32.295  0.0000E+00  0.7029E+02
     32.576  0.0000E+00  0.7127E+02
     32.857  0.0000E+00  0.7184E+02
     33.138  0.0000E+00  0.7236E+02
     33.419  0.0000E+00  0.7332E+02
     33.699  0.0000E+00  0.7407E+02
     33.980  0.1902E-03  0.7485E+02
     34.261  0.0000E+00  0.7537E+02
     34.542  0.0000E+00  0.7657E+02
     34.823  0.1318E+00  0.7709E+02
     35.104  0.1748E+00  0.7783E+02
     35.385  0.3955E+00  0.7846E+02
     35.666  0.0000E+00  0.7882E+02
     35.947  0.0000E+00  0.7942E+02
     36.228  0.0000E+00  0.7969E+02
     36.509  0.0000E+00  0.8023E+02
     36.790  0.0000E+00  0.8095E+02
     37.071  0.0000E+00  0.8150E+02
     37.352  0.0000E+00  0.8294E+02
     37.632  0.0000E+00  0.8375E+02
     37.913  0.2637E+00  0.8455E+02
     38.194  0.0000E+00  0.8534E+02
     38.475  0.0000E+00  0.8590E+02
     38.756  0.7910E+00  0.8708E+02
     39.037  0.9888E-01  0.8800E+02
     39.318  0.0000E+00  0.8831E+02
     39.599  0.0000E+00  0.8993E+02
     39.880  0.0000E+00  0.9050E+02
     40.161  0.2637E+00  0.9143E+02
     40.442  0.1978E+00  0.9198E+02
     40.723  0.0000E+00  0.9335E+02
     41.004  0.0000E+00  0.9383E+02
     41.285  0.3263E+00  0.9498E+02
     41.566  0.0000E+00  0.9533E+02
     41.846  0.0000E+00  0.9557E+02
     42.127  0.0000E+00  0.9624E+02
     42.408  0.0000E+00  0.9735E+02
     42.689  0.0000E+00  0.9780E+02
     42.970  0.0000E+00  0.9892E+02
     43.251  0.0000E+00  0.9914E+02
     43.532  0.0000E+00  0.9992E+02
     43.813  0.4381E-10  0.1006E+03
     44.094  0.0000E+00  0.1018E+03
     44.375  0.0000E+00  0.1026E+03
     44.656  0.0000E+00  0.1037E+03
     44.937  0.0000E+00  0.1047E+03
     45.218  0.0000E+00  0.1057E+03
     45.499  0.0000E+00  0.1066E+03
     45.780  0.0000E+00  0.1074E+03
     46.060  0.1999E+00  0.1078E+03
     46.341  0.0000E+00  0.1083E+03
     46.622  0.0000E+00  0.1093E+03
     46.903  0.3955E+00  0.1098E+03
     47.184  0.0000E+00  0.1105E+03
     47.465  0.1995E+00  0.1110E+03
     47.746  0.7910E+00  0.1126E+03
     48.027  0.0000E+00  0.1131E+03
     48.308  0.0000E+00  0.1143E+03
     48.589  0.0000E+00  0.1148E+03
     48.870  0.0000E+00  0.1151E+03
     49.151  0.3280E+00  0.1161E+03
     49.432  0.2277E+00  0.1166E+03
     49.713  0.2337E-11  0.1179E+03
     49.994  0.0000E+00  0.1182E+03
     50.274  0.4402E-01  0.1186E+03
     50.555  0.0000E+00  0.1206E+03
     50.836  0.0000E+00  0.1212E+03
     51.117  0.0000E+00  0.1216E+03
     51.398  0.0000E+00  0.1229E+03
     51.679  0.0000E+00  0.1242E+03
     51.960  0.0000E+00  0.1248E+03
     52.241  0.0000E+00  0.1253E+03
     52.522  0.0000E+00  0.1257E+03
     52.803  0.3661E-06  0.1263E+03
     53.084  0.0000E+00  0.1270E+03
     53.365  0.0000E+00  0.1275E+03
     53.646  0.0000E+00  0.1279E+03
     53.927  0.0000E+00  0.1279E+03
     54.208  0.0000E+00  0.1279E+03
     54.488  0.0000E+00  0.1279E+03
     54.769  0.0000E+00  0.1279E+03
     55.050  0.0000E+00  0.1280E+03
     55.331  0.0000E+00  0.1280E+03
     55.612  0.0000E+00  0.1280E+03
     55.893  0.0000E+00  0.1280E+03
     56.174  0.0000E+00  0.1280E+03
     56.455  0.0000E+00  0.1280E+03
     56.736  0.0000E+00  0.1280E+03
     57.017  0.0000E+00  0.1280E+03
     57.298  0.0000E+00  0.1280E+03
     57.579  0.0000E+00  0.1280E+03
     57.860  0.0000E+00  0.1280E+03
     58.141  0.0000E+00  0.1280E+03
     58.422  0.0000E+00  0.1280E+03
     58.702  0.0000E+00  0.1280E+03
