   1   1   0   0
  0.5789729E+02  0.4342346E-09  0.4342346E-09  0.4342346E-09  0.1000000E-15
  1.000000000000000E-004
  CAR 
 Og_FCC                                  
     58.56110613    -45.14458433  301      2.73287610      1.00000000
    -45.145  0.0000E+00  0.0000E+00
    -44.799  0.0000E+00  0.0000E+00
    -44.453  0.0000E+00  0.0000E+00
    -44.108  0.0000E+00  0.0000E+00
    -43.762  0.0000E+00  0.0000E+00
    -43.416  0.0000E+00  0.0000E+00
    -43.070  0.0000E+00  0.0000E+00
    -42.725  0.0000E+00  0.0000E+00
    -42.379  0.0000E+00  0.0000E+00
    -42.033  0.0000E+00  0.0000E+00
    -41.688  0.0000E+00  0.0000E+00
    -41.342  0.0000E+00  0.0000E+00
    -40.996  0.0000E+00  0.0000E+00
    -40.651  0.0000E+00  0.0000E+00
    -40.305  0.0000E+00  0.4000E+01
    -39.959  0.0000E+00  0.4000E+01
    -39.614  0.0000E+00  0.4000E+01
    -39.268  0.0000E+00  0.4000E+01
    -38.922  0.0000E+00  0.4000E+01
    -38.577  0.0000E+00  0.4000E+01
    -38.231  0.0000E+00  0.4000E+01
    -37.885  0.0000E+00  0.4000E+01
    -37.540  0.0000E+00  0.4000E+01
    -37.194  0.0000E+00  0.4000E+01
    -36.848  0.0000E+00  0.4000E+01
    -36.502  0.0000E+00  0.4000E+01
    -36.157  0.0000E+00  0.4000E+01
    -35.811  0.0000E+00  0.4000E+01
    -35.465  0.0000E+00  0.4000E+01
    -35.120  0.0000E+00  0.4000E+01
    -34.774  0.0000E+00  0.4000E+01
    -34.428  0.0000E+00  0.4000E+01
    -34.083  0.0000E+00  0.4000E+01
    -33.737  0.0000E+00  0.4000E+01
    -33.391  0.0000E+00  0.4000E+01
    -33.046  0.0000E+00  0.4000E+01
    -32.700  0.0000E+00  0.1000E+02
    -32.354  0.0000E+00  0.1000E+02
    -32.009  0.0000E+00  0.1000E+02
    -31.663  0.0000E+00  0.1000E+02
    -31.317  0.0000E+00  0.1000E+02
    -30.971  0.0000E+00  0.1000E+02
    -30.626  0.0000E+00  0.1000E+02
    -30.280  0.0000E+00  0.1000E+02
    -29.934  0.0000E+00  0.1000E+02
    -29.589  0.0000E+00  0.1000E+02
    -29.243  0.0000E+00  0.1000E+02
    -28.897  0.0000E+00  0.1000E+02
    -28.552  0.0000E+00  0.1000E+02
    -28.206  0.0000E+00  0.1000E+02
    -27.860  0.0000E+00  0.1000E+02
    -27.515  0.0000E+00  0.1000E+02
    -27.169  0.0000E+00  0.1000E+02
    -26.823  0.0000E+00  0.1000E+02
    -26.478  0.0000E+00  0.1000E+02
    -26.132  0.0000E+00  0.1000E+02
    -25.786  0.0000E+00  0.1000E+02
    -25.441  0.0000E+00  0.1000E+02
    -25.095  0.0000E+00  0.1014E+02
    -24.749  0.0000E+00  0.1200E+02
    -24.403  0.0000E+00  0.1200E+02
    -24.058  0.0000E+00  0.1200E+02
    -23.712  0.0000E+00  0.1200E+02
    -23.366  0.0000E+00  0.1200E+02
    -23.021  0.0000E+00  0.1200E+02
    -22.675  0.0000E+00  0.1200E+02
    -22.329  0.0000E+00  0.1200E+02
    -21.984  0.0000E+00  0.1200E+02
    -21.638  0.0000E+00  0.1200E+02
    -21.292  0.0000E+00  0.1200E+02
    -20.947  0.0000E+00  0.1200E+02
    -20.601  0.0000E+00  0.1200E+02
    -20.255  0.0000E+00  0.1200E+02
    -19.910  0.0000E+00  0.1200E+02
    -19.564  0.0000E+00  0.1200E+02
    -19.218  0.0000E+00  0.1200E+02
    -18.872  0.0000E+00  0.1200E+02
    -18.527  0.0000E+00  0.1200E+02
    -18.181  0.0000E+00  0.1200E+02
    -17.835  0.0000E+00  0.1200E+02
    -17.490  0.0000E+00  0.1200E+02
    -17.144  0.0000E+00  0.1200E+02
    -16.798  0.0000E+00  0.1200E+02
    -16.453  0.0000E+00  0.1200E+02
    -16.107  0.0000E+00  0.1200E+02
    -15.761  0.0000E+00  0.1200E+02
    -15.416  0.0000E+00  0.1200E+02
    -15.070  0.0000E+00  0.1200E+02
    -14.724  0.0000E+00  0.1200E+02
    -14.379  0.0000E+00  0.1200E+02
    -14.033  0.0000E+00  0.1200E+02
    -13.687  0.0000E+00  0.1200E+02
    -13.342  0.0000E+00  0.1200E+02
    -12.996  0.0000E+00  0.1200E+02
    -12.650  0.0000E+00  0.1200E+02
    -12.304  0.0000E+00  0.1200E+02
    -11.959  0.0000E+00  0.1200E+02
    -11.613  0.0000E+00  0.1200E+02
    -11.267  0.0000E+00  0.1200E+02
    -10.922  0.0000E+00  0.1200E+02
    -10.576  0.0000E+00  0.1200E+02
    -10.230  0.0000E+00  0.1200E+02
     -9.885  0.0000E+00  0.1386E+02
     -9.539  0.0000E+00  0.1400E+02
     -9.193  0.0000E+00  0.1400E+02
     -8.848  0.0000E+00  0.1400E+02
     -8.502  0.0000E+00  0.1400E+02
     -8.156  0.0000E+00  0.1400E+02
     -7.811  0.0000E+00  0.1400E+02
     -7.465  0.0000E+00  0.1400E+02
     -7.119  0.0000E+00  0.1400E+02
     -6.773  0.0000E+00  0.1400E+02
     -6.428  0.0000E+00  0.1400E+02
     -6.082  0.0000E+00  0.1400E+02
     -5.736  0.0000E+00  0.1400E+02
     -5.391  0.0000E+00  0.1400E+02
     -5.045  0.0000E+00  0.1400E+02
     -4.699  0.0000E+00  0.1400E+02
     -4.354  0.0000E+00  0.1400E+02
     -4.008  0.0000E+00  0.1400E+02
     -3.662  0.0000E+00  0.1400E+02
     -3.317  0.0000E+00  0.1400E+02
     -2.971  0.0000E+00  0.1400E+02
     -2.625  0.0000E+00  0.1400E+02
     -2.280  0.0000E+00  0.1400E+02
     -1.934  0.0000E+00  0.1400E+02
     -1.588  0.0000E+00  0.1400E+02
     -1.243  0.0000E+00  0.1400E+02
     -0.897  0.6428E+00  0.1429E+02
     -0.551  0.0000E+00  0.1545E+02
     -0.205  0.0000E+00  0.1575E+02
      0.140  0.0000E+00  0.1586E+02
      0.486  0.3214E+00  0.1631E+02
      0.832  0.1270E-08  0.1669E+02
      1.177  0.0000E+00  0.1696E+02
      1.523  0.0000E+00  0.1741E+02
      1.869  0.0000E+00  0.1774E+02
      2.214  0.0000E+00  0.1791E+02
      2.560  0.0000E+00  0.1798E+02
      2.906  0.0000E+00  0.1800E+02
      3.251  0.0000E+00  0.1800E+02
      3.597  0.0000E+00  0.1801E+02
      3.943  0.0000E+00  0.1801E+02
      4.288  0.0000E+00  0.1801E+02
      4.634  0.0000E+00  0.1801E+02
      4.980  0.0000E+00  0.1801E+02
      5.326  0.0000E+00  0.1808E+02
      5.671  0.0000E+00  0.1808E+02
      6.017  0.0000E+00  0.1814E+02
      6.363  0.0000E+00  0.1825E+02
      6.708  0.0000E+00  0.1839E+02
      7.054  0.0000E+00  0.1889E+02
      7.400  0.0000E+00  0.1944E+02
      7.745  0.0000E+00  0.1978E+02
      8.091  0.0000E+00  0.2003E+02
      8.437  0.0000E+00  0.2008E+02
      8.782  0.0000E+00  0.2031E+02
      9.128  0.0000E+00  0.2075E+02
      9.474  0.6428E+00  0.2164E+02
      9.819  0.8252E-07  0.2169E+02
     10.165  0.0000E+00  0.2225E+02
     10.511  0.0000E+00  0.2238E+02
     10.856  0.5224E-07  0.2294E+02
     11.202  0.0000E+00  0.2381E+02
     11.548  0.0000E+00  0.2393E+02
     11.894  0.6428E+00  0.2469E+02
     12.239  0.3214E+00  0.2556E+02
     12.585  0.7890E-03  0.2572E+02
     12.931  0.0000E+00  0.2606E+02
     13.276  0.0000E+00  0.2624E+02
     13.622  0.0000E+00  0.2704E+02
     13.968  0.0000E+00  0.2748E+02
     14.313  0.0000E+00  0.2812E+02
     14.659  0.2132E+00  0.2895E+02
     15.005  0.0000E+00  0.2942E+02
     15.350  0.0000E+00  0.2997E+02
     15.696  0.0000E+00  0.3047E+02
     16.042  0.0000E+00  0.3054E+02
     16.387  0.0000E+00  0.3107E+02
     16.733  0.0000E+00  0.3134E+02
     17.079  0.0000E+00  0.3219E+02
     17.425  0.0000E+00  0.3285E+02
     17.770  0.1071E+00  0.3333E+02
     18.116  0.0000E+00  0.3456E+02
     18.462  0.7792E-01  0.3522E+02
     18.807  0.0000E+00  0.3643E+02
     19.153  0.0000E+00  0.3727E+02
     19.499  0.0000E+00  0.3868E+02
     19.844  0.0000E+00  0.4023E+02
     20.190  0.0000E+00  0.4179E+02
     20.536  0.0000E+00  0.4430E+02
     20.881  0.0000E+00  0.4530E+02
     21.227  0.0000E+00  0.4596E+02
     21.573  0.0000E+00  0.4635E+02
     21.918  0.0000E+00  0.4670E+02
     22.264  0.6406E+00  0.4740E+02
     22.610  0.0000E+00  0.4795E+02
     22.955  0.4075E-03  0.4834E+02
     23.301  0.0000E+00  0.4908E+02
     23.647  0.2715E+00  0.4943E+02
     23.993  0.0000E+00  0.5050E+02
     24.338  0.0000E+00  0.5111E+02
     24.684  0.0000E+00  0.5214E+02
     25.030  0.1270E-12  0.5347E+02
     25.375  0.0000E+00  0.5473E+02
     25.721  0.0000E+00  0.5599E+02
     26.067  0.0000E+00  0.5651E+02
     26.412  0.0000E+00  0.5749E+02
     26.758  0.0000E+00  0.5767E+02
     27.104  0.0000E+00  0.5811E+02
     27.449  0.0000E+00  0.5942E+02
     27.795  0.2070E-07  0.5978E+02
     28.141  0.0000E+00  0.6035E+02
     28.486  0.0000E+00  0.6117E+02
     28.832  0.0000E+00  0.6191E+02
     29.178  0.0000E+00  0.6224E+02
     29.524  0.0000E+00  0.6266E+02
     29.869  0.0000E+00  0.6418E+02
     30.215  0.1602E+00  0.6473E+02
     30.561  0.0000E+00  0.6510E+02
     30.906  0.4878E-01  0.6587E+02
     31.252  0.0000E+00  0.6671E+02
     31.598  0.3173E+00  0.6734E+02
     31.943  0.6425E+00  0.6906E+02
     32.289  0.0000E+00  0.6993E+02
     32.635  0.0000E+00  0.7052E+02
     32.980  0.0000E+00  0.7182E+02
     33.326  0.0000E+00  0.7286E+02
     33.672  0.6404E+00  0.7347E+02
     34.017  0.0000E+00  0.7427E+02
     34.363  0.0000E+00  0.7444E+02
     34.709  0.0000E+00  0.7567E+02
     35.054  0.0000E+00  0.7652E+02
     35.400  0.0000E+00  0.7787E+02
     35.746  0.0000E+00  0.7869E+02
     36.092  0.0000E+00  0.7996E+02
     36.437  0.0000E+00  0.8069E+02
     36.783  0.0000E+00  0.8142E+02
     37.129  0.0000E+00  0.8330E+02
     37.474  0.0000E+00  0.8330E+02
     37.820  0.0000E+00  0.8424E+02
     38.166  0.0000E+00  0.8505E+02
     38.511  0.6359E+00  0.8601E+02
     38.857  0.0000E+00  0.8619E+02
     39.203  0.0000E+00  0.8693E+02
     39.548  0.8812E+00  0.8848E+02
     39.894  0.3214E+00  0.8916E+02
     40.240  0.1246E-02  0.8965E+02
     40.585  0.0000E+00  0.9070E+02
     40.931  0.0000E+00  0.9141E+02
     41.277  0.0000E+00  0.9270E+02
     41.623  0.0000E+00  0.9364E+02
     41.968  0.0000E+00  0.9495E+02
     42.314  0.0000E+00  0.9573E+02
     42.660  0.0000E+00  0.9627E+02
     43.005  0.9293E-02  0.9736E+02
     43.351  0.6423E+00  0.9856E+02
     43.697  0.0000E+00  0.9906E+02
     44.042  0.0000E+00  0.1000E+03
     44.388  0.0000E+00  0.1008E+03
     44.734  0.0000E+00  0.1018E+03
     45.079  0.3836E+00  0.1027E+03
     45.425  0.0000E+00  0.1037E+03
     45.771  0.0000E+00  0.1049E+03
     46.116  0.0000E+00  0.1058E+03
     46.462  0.2143E+00  0.1069E+03
     46.808  0.0000E+00  0.1079E+03
     47.153  0.6429E+00  0.1090E+03
     47.499  0.0000E+00  0.1101E+03
     47.845  0.0000E+00  0.1111E+03
     48.191  0.0000E+00  0.1116E+03
     48.536  0.0000E+00  0.1128E+03
     48.882  0.3214E+00  0.1138E+03
     49.228  0.5501E-01  0.1146E+03
     49.573  0.0000E+00  0.1158E+03
     49.919  0.0000E+00  0.1167E+03
     50.265  0.0000E+00  0.1175E+03
     50.610  0.0000E+00  0.1189E+03
     50.956  0.9375E-01  0.1194E+03
     51.302  0.9069E-02  0.1207E+03
     51.647  0.6428E+00  0.1221E+03
     51.993  0.0000E+00  0.1234E+03
     52.339  0.0000E+00  0.1248E+03
     52.684  0.5411E-11  0.1257E+03
     53.030  0.0000E+00  0.1262E+03
     53.376  0.2067E-03  0.1270E+03
     53.722  0.0000E+00  0.1273E+03
     54.067  0.0000E+00  0.1280E+03
     54.413  0.0000E+00  0.1280E+03
     54.759  0.0000E+00  0.1280E+03
     55.104  0.0000E+00  0.1280E+03
     55.450  0.0000E+00  0.1280E+03
     55.796  0.0000E+00  0.1280E+03
     56.141  0.0000E+00  0.1280E+03
     56.487  0.0000E+00  0.1280E+03
     56.833  0.0000E+00  0.1280E+03
     57.178  0.0000E+00  0.1280E+03
     57.524  0.0000E+00  0.1280E+03
     57.870  0.0000E+00  0.1280E+03
     58.215  0.0000E+00  0.1280E+03
     58.561  0.0000E+00  0.1280E+03
