 vasp.5.4.4.18Apr17-6-g9f103f2a35 (build Nov 03 2018 10:20:46) complex          
  
 executed on             LinuxIFC date 2018.11.15  15:23:42
 running on  112 total cores
 distrk:  each k-point on    4 cores,   28 groups
 distr:  one band on NCORES_PER_BAND=   1 cores,    4 groups


--------------------------------------------------------------------------------------------------------


 INCAR:
 POTCAR:    PAW Og, JanMewes Oct 18               

 ----------------------------------------------------------------------------- 
|                                                                             |
|           W    W    AA    RRRRR   N    N  II  N    N   GGGG   !!!           |
|           W    W   A  A   R    R  NN   N  II  NN   N  G    G  !!!           |
|           W    W  A    A  R    R  N N  N  II  N N  N  G       !!!           |
|           W WW W  AAAAAA  RRRRR   N  N N  II  N  N N  G  GGG   !            |
|           WW  WW  A    A  R   R   N   NN  II  N   NN  G    G                |
|           W    W  A    A  R    R  N    N  II  N    N   GGGG   !!!           |
|                                                                             |
|      For optimal performance we recommend to set                            |
|        NCORE= 4 - approx SQRT( number of cores)                             |
|      NCORE specifies how many cores store one orbital (NPAR=cpu/NCORE).     |
|      This setting can  greatly improve the performance of VASP for DFT.     |
|      The default,   NCORE=1            might be grossly inefficient         |
|      on modern multi-core architectures or massively parallel machines.     |
|      Do your own testing !!!!                                               |
|      Unfortunately you need to use the default for GW and RPA calculations. |
|      (for HF NCORE is supported but not extensively tested yet)             |
|                                                                             |
 ----------------------------------------------------------------------------- 


 ----------------------------------------------------------------------------- 
|                                                                             |
|           W    W    AA    RRRRR   N    N  II  N    N   GGGG   !!!           |
|           W    W   A  A   R    R  NN   N  II  NN   N  G    G  !!!           |
|           W    W  A    A  R    R  N N  N  II  N N  N  G       !!!           |
|           W WW W  AAAAAA  RRRRR   N  N N  II  N  N N  G  GGG   !            |
|           WW  WW  A    A  R   R   N   NN  II  N   NN  G    G                |
|           W    W  A    A  R    R  N    N  II  N    N   GGGG   !!!           |
|                                                                             |
|      You have enabled k-point parallelism (KPAR>1).                         |
|      This developmental code was originally  written by Paul Kent at ORNL,  |
|      and carefully double checked in Vienna.                                |
|      GW as well as linear response parallelism added by Martijn Marsman     |
|      and Georg Kresse.                                                      |
|      Carefully verify results versus KPAR=1.                                |
|      Report problems to Paul Kent and Vienna.                               |
|                                                                             |
 ----------------------------------------------------------------------------- 

 POTCAR:    PAW Og, JanMewes Oct 18               
  local pseudopotential read in
  partial core-charges read in
  partial kinetic energy density read in
  kinetic energy density of atom read in
  atomic valenz-charges read in
  non local Contribution for L=           2  read in
    real space projection operators read in
  non local Contribution for L=           2  read in
    real space projection operators read in
  non local Contribution for L=           0  read in
    real space projection operators read in
  non local Contribution for L=           0  read in
    real space projection operators read in
  non local Contribution for L=           1  read in
    real space projection operators read in
  non local Contribution for L=           1  read in
    real space projection operators read in
    PAW grid and wavefunctions read in
 
   number of l-projection  operators is LMAX  =           6
   number of lm-projection operators is LMMAX =          18
 
  PAW Og, JanMewes Oct 18               :
 energy of atom  1       EATOM=-2640.5573
 kinetic energy error for atom=    0.6524 (will be added to EATOM!!)
 
 
 POSCAR: Og_FCC                                  
  positions in direct lattice
  velocities in cartesian coordinates
 exchange correlation table for  LEXCH =        8
   RHO(1)=    0.500       N(1)  =     2000
   RHO(2)=  100.500       N(2)  =     4000
 


--------------------------------------------------------------------------------------------------------


 ion  position               nearest neighbor table
   1  0.000  0.000  0.000-
 

IMPORTANT INFORMATION: All symmetrisations will be switched off!
NOSYMM: (Re-)initialisation of all symmetry stuff for point group C_1.

 
 
 KPOINTS: k-points                                

Automatic generation of k-mesh.
Space group operators:
 irot       det(A)        alpha          n_x          n_y          n_z        tau_x        tau_y        tau_z
    1     1.000000     0.000000     1.000000     0.000000     0.000000     0.000000     0.000000     0.000000
 
 Subroutine IBZKPT returns following result:
 ===========================================
 
 Found    216 irreducible k-points:
 
 Following reciprocal coordinates:
            Coordinates               Weight
  0.000000  0.000000  0.000000      1.000000
  0.166667  0.000000  0.000000      1.000000
  0.333333  0.000000  0.000000      1.000000
  0.500000  0.000000  0.000000      1.000000
 -0.333333 -0.000000  0.000000      1.000000
 -0.166667 -0.000000 -0.000000      1.000000
 -0.000000  0.166667 -0.000000      1.000000
  0.166667  0.166667  0.000000      1.000000
  0.333333  0.166667 -0.000000      1.000000
  0.500000  0.166667  0.000000      1.000000
 -0.333333  0.166667 -0.000000      1.000000
 -0.166667  0.166667 -0.000000      1.000000
  0.000000  0.333333 -0.000000      1.000000
  0.166667  0.333333  0.000000      1.000000
  0.333333  0.333333  0.000000      1.000000
  0.500000  0.333333  0.000000      1.000000
 -0.333333  0.333333 -0.000000      1.000000
 -0.166667  0.333333 -0.000000      1.000000
  0.000000  0.500000 -0.000000      1.000000
  0.166667  0.500000  0.000000      1.000000
  0.333333  0.500000  0.000000      1.000000
  0.500000  0.500000  0.000000      1.000000
 -0.333333  0.500000 -0.000000      1.000000
 -0.166667  0.500000 -0.000000      1.000000
 -0.000000 -0.333333  0.000000      1.000000
  0.166667 -0.333333  0.000000      1.000000
  0.333333 -0.333333  0.000000      1.000000
  0.500000 -0.333333  0.000000      1.000000
 -0.333333 -0.333333 -0.000000      1.000000
 -0.166667 -0.333333  0.000000      1.000000
  0.000000 -0.166667  0.000000      1.000000
  0.166667 -0.166667  0.000000      1.000000
  0.333333 -0.166667  0.000000      1.000000
  0.500000 -0.166667  0.000000      1.000000
 -0.333333 -0.166667  0.000000      1.000000
 -0.166667 -0.166667  0.000000      1.000000
  0.000000  0.000000  0.166667      1.000000
  0.166667  0.000000  0.166667      1.000000
  0.333333 -0.000000  0.166667      1.000000
  0.500000 -0.000000  0.166667      1.000000
 -0.333333 -0.000000  0.166667      1.000000
 -0.166667  0.000000  0.166667      1.000000
 -0.000000  0.166667  0.166667      1.000000
  0.166667  0.166667  0.166667      1.000000
  0.333333  0.166667  0.166667      1.000000
  0.500000  0.166667  0.166667      1.000000
 -0.333333  0.166667  0.166667      1.000000
 -0.166667  0.166667  0.166667      1.000000
 -0.000000  0.333333  0.166667      1.000000
  0.166667  0.333333  0.166667      1.000000
  0.333333  0.333333  0.166667      1.000000
  0.500000  0.333333  0.166667      1.000000
 -0.333333  0.333333  0.166667      1.000000
 -0.166667  0.333333  0.166667      1.000000
 -0.000000  0.500000  0.166667      1.000000
  0.166667  0.500000  0.166667      1.000000
  0.333333  0.500000  0.166667      1.000000
  0.500000  0.500000  0.166667      1.000000
 -0.333333  0.500000  0.166667      1.000000
 -0.166667  0.500000  0.166667      1.000000
 -0.000000 -0.333333  0.166667      1.000000
  0.166667 -0.333333  0.166667      1.000000
  0.333333 -0.333333  0.166667      1.000000
  0.500000 -0.333333  0.166667      1.000000
 -0.333333 -0.333333  0.166667      1.000000
 -0.166667 -0.333333  0.166667      1.000000
  0.000000 -0.166667  0.166667      1.000000
  0.166667 -0.166667  0.166667      1.000000
  0.333333 -0.166667  0.166667      1.000000
  0.500000 -0.166667  0.166667      1.000000
 -0.333333 -0.166667  0.166667      1.000000
 -0.166667 -0.166667  0.166667      1.000000
  0.000000  0.000000  0.333333      1.000000
  0.166667  0.000000  0.333333      1.000000
  0.333333  0.000000  0.333333      1.000000
  0.500000 -0.000000  0.333333      1.000000
 -0.333333  0.000000  0.333333      1.000000
 -0.166667  0.000000  0.333333      1.000000
 -0.000000  0.166667  0.333333      1.000000
  0.166667  0.166667  0.333333      1.000000
  0.333333  0.166667  0.333333      1.000000
  0.500000  0.166667  0.333333      1.000000
 -0.333333  0.166667  0.333333      1.000000
 -0.166667  0.166667  0.333333      1.000000
 -0.000000  0.333333  0.333333      1.000000
  0.166667  0.333333  0.333333      1.000000
  0.333333  0.333333  0.333333      1.000000
  0.500000  0.333333  0.333333      1.000000
 -0.333333  0.333333  0.333333      1.000000
 -0.166667  0.333333  0.333333      1.000000
  0.000000  0.500000  0.333333      1.000000
  0.166667  0.500000  0.333333      1.000000
  0.333333  0.500000  0.333333      1.000000
  0.500000  0.500000  0.333333      1.000000
 -0.333333  0.500000  0.333333      1.000000
 -0.166667  0.500000  0.333333      1.000000
  0.000000 -0.333333  0.333333      1.000000
  0.166667 -0.333333  0.333333      1.000000
  0.333333 -0.333333  0.333333      1.000000
  0.500000 -0.333333  0.333333      1.000000
 -0.333333 -0.333333  0.333333      1.000000
 -0.166667 -0.333333  0.333333      1.000000
  0.000000 -0.166667  0.333333      1.000000
  0.166667 -0.166667  0.333333      1.000000
  0.333333 -0.166667  0.333333      1.000000
  0.500000 -0.166667  0.333333      1.000000
 -0.333333 -0.166667  0.333333      1.000000
 -0.166667 -0.166667  0.333333      1.000000
  0.000000  0.000000  0.500000      1.000000
  0.166667  0.000000  0.500000      1.000000
  0.333333  0.000000  0.500000      1.000000
  0.500000 -0.000000  0.500000      1.000000
 -0.333333  0.000000  0.500000      1.000000
 -0.166667  0.000000  0.500000      1.000000
 -0.000000  0.166667  0.500000      1.000000
  0.166667  0.166667  0.500000      1.000000
  0.333333  0.166667  0.500000      1.000000
  0.500000  0.166667  0.500000      1.000000
 -0.333333  0.166667  0.500000      1.000000
 -0.166667  0.166667  0.500000      1.000000
  0.000000  0.333333  0.500000      1.000000
  0.166667  0.333333  0.500000      1.000000
  0.333333  0.333333  0.500000      1.000000
  0.500000  0.333333  0.500000      1.000000
 -0.333333  0.333333  0.500000      1.000000
 -0.166667  0.333333  0.500000      1.000000
 -0.000000  0.500000  0.500000      1.000000
  0.166667  0.500000  0.500000      1.000000
  0.333333  0.500000  0.500000      1.000000
  0.500000  0.500000  0.500000      1.000000
 -0.333333  0.500000  0.500000      1.000000
 -0.166667  0.500000  0.500000      1.000000
  0.000000 -0.333333  0.500000      1.000000
  0.166667 -0.333333  0.500000      1.000000
  0.333333 -0.333333  0.500000      1.000000
  0.500000 -0.333333  0.500000      1.000000
 -0.333333 -0.333333  0.500000      1.000000
 -0.166667 -0.333333  0.500000      1.000000
  0.000000 -0.166667  0.500000      1.000000
  0.166667 -0.166667  0.500000      1.000000
  0.333333 -0.166667  0.500000      1.000000
  0.500000 -0.166667  0.500000      1.000000
 -0.333333 -0.166667  0.500000      1.000000
 -0.166667 -0.166667  0.500000      1.000000
  0.000000  0.000000 -0.333333      1.000000
  0.166667 -0.000000 -0.333333      1.000000
  0.333333 -0.000000 -0.333333      1.000000
  0.500000  0.000000 -0.333333      1.000000
 -0.333333 -0.000000 -0.333333      1.000000
 -0.166667 -0.000000 -0.333333      1.000000
 -0.000000  0.166667 -0.333333      1.000000
  0.166667  0.166667 -0.333333      1.000000
  0.333333  0.166667 -0.333333      1.000000
  0.500000  0.166667 -0.333333      1.000000
 -0.333333  0.166667 -0.333333      1.000000
 -0.166667  0.166667 -0.333333      1.000000
  0.000000  0.333333 -0.333333      1.000000
  0.166667  0.333333 -0.333333      1.000000
  0.333333  0.333333 -0.333333      1.000000
  0.500000  0.333333 -0.333333      1.000000
 -0.333333  0.333333 -0.333333      1.000000
 -0.166667  0.333333 -0.333333      1.000000
 -0.000000  0.500000 -0.333333      1.000000
  0.166667  0.500000 -0.333333      1.000000
  0.333333  0.500000 -0.333333      1.000000
  0.500000  0.500000 -0.333333      1.000000
 -0.333333  0.500000 -0.333333      1.000000
 -0.166667  0.500000 -0.333333      1.000000
  0.000000 -0.333333 -0.333333      1.000000
  0.166667 -0.333333 -0.333333      1.000000
  0.333333 -0.333333 -0.333333      1.000000
  0.500000 -0.333333 -0.333333      1.000000
 -0.333333 -0.333333 -0.333333      1.000000
 -0.166667 -0.333333 -0.333333      1.000000
  0.000000 -0.166667 -0.333333      1.000000
  0.166667 -0.166667 -0.333333      1.000000
  0.333333 -0.166667 -0.333333      1.000000
  0.500000 -0.166667 -0.333333      1.000000
 -0.333333 -0.166667 -0.333333      1.000000
 -0.166667 -0.166667 -0.333333      1.000000
 -0.000000 -0.000000 -0.166667      1.000000
  0.166667 -0.000000 -0.166667      1.000000
  0.333333  0.000000 -0.166667      1.000000
  0.500000  0.000000 -0.166667      1.000000
 -0.333333  0.000000 -0.166667      1.000000
 -0.166667 -0.000000 -0.166667      1.000000
 -0.000000  0.166667 -0.166667      1.000000
  0.166667  0.166667 -0.166667      1.000000
  0.333333  0.166667 -0.166667      1.000000
  0.500000  0.166667 -0.166667      1.000000
 -0.333333  0.166667 -0.166667      1.000000
 -0.166667  0.166667 -0.166667      1.000000
  0.000000  0.333333 -0.166667      1.000000
  0.166667  0.333333 -0.166667      1.000000
  0.333333  0.333333 -0.166667      1.000000
  0.500000  0.333333 -0.166667      1.000000
 -0.333333  0.333333 -0.166667      1.000000
 -0.166667  0.333333 -0.166667      1.000000
 -0.000000  0.500000 -0.166667      1.000000
  0.166667  0.500000 -0.166667      1.000000
  0.333333  0.500000 -0.166667      1.000000
  0.500000  0.500000 -0.166667      1.000000
 -0.333333  0.500000 -0.166667      1.000000
 -0.166667  0.500000 -0.166667      1.000000
  0.000000 -0.333333 -0.166667      1.000000
  0.166667 -0.333333 -0.166667      1.000000
  0.333333 -0.333333 -0.166667      1.000000
  0.500000 -0.333333 -0.166667      1.000000
 -0.333333 -0.333333 -0.166667      1.000000
 -0.166667 -0.333333 -0.166667      1.000000
  0.000000 -0.166667 -0.166667      1.000000
  0.166667 -0.166667 -0.166667      1.000000
  0.333333 -0.166667 -0.166667      1.000000
  0.500000 -0.166667 -0.166667      1.000000
 -0.333333 -0.166667 -0.166667      1.000000
 -0.166667 -0.166667 -0.166667      1.000000
 
 Following cartesian coordinates:
            Coordinates               Weight
  0.000000  0.000000  0.000000      1.000000
  0.038382 -0.022160 -0.015669      1.000000
  0.076763 -0.044319 -0.031339      1.000000
  0.115145 -0.066479 -0.047008      1.000000
 -0.076763  0.044319  0.031339      1.000000
 -0.038382  0.022160  0.015669      1.000000
  0.000000  0.044319 -0.015669      1.000000
  0.038382  0.022160 -0.031339      1.000000
  0.076763  0.000000 -0.047008      1.000000
  0.115145 -0.022160 -0.062677      1.000000
 -0.076763  0.088639  0.015669      1.000000
 -0.038382  0.066479 -0.000000      1.000000
  0.000000  0.088639 -0.031339      1.000000
  0.038382  0.066479 -0.047008      1.000000
  0.076763  0.044319 -0.062677      1.000000
  0.115145  0.022160 -0.078346      1.000000
 -0.076763  0.132958  0.000000      1.000000
 -0.038382  0.110798 -0.015669      1.000000
  0.000000  0.132958 -0.047008      1.000000
  0.038382  0.110798 -0.062677      1.000000
  0.076763  0.088639 -0.078346      1.000000
  0.115145  0.066479 -0.094016      1.000000
 -0.076763  0.177278 -0.015669      1.000000
 -0.038382  0.155118 -0.031339      1.000000
 -0.000000 -0.088639  0.031339      1.000000
  0.038382 -0.110798  0.015669      1.000000
  0.076763 -0.132958 -0.000000      1.000000
  0.115145 -0.155118 -0.015669      1.000000
 -0.076763 -0.044319  0.062677      1.000000
 -0.038382 -0.066479  0.047008      1.000000
 -0.000000 -0.044319  0.015669      1.000000
  0.038382 -0.066479 -0.000000      1.000000
  0.076763 -0.088639 -0.015669      1.000000
  0.115145 -0.110798 -0.031339      1.000000
 -0.076763  0.000000  0.047008      1.000000
 -0.038382 -0.022160  0.031339      1.000000
 -0.000000  0.000000  0.047008      1.000000
  0.038382 -0.022160  0.031339      1.000000
  0.076763 -0.044319  0.015669      1.000000
  0.115145 -0.066479  0.000000      1.000000
 -0.076763  0.044319  0.078346      1.000000
 -0.038382  0.022160  0.062677      1.000000
 -0.000000  0.044319  0.031339      1.000000
  0.038382  0.022160  0.015669      1.000000
  0.076763  0.000000  0.000000      1.000000
  0.115145 -0.022160 -0.015669      1.000000
 -0.076763  0.088639  0.062677      1.000000
 -0.038382  0.066479  0.047008      1.000000
 -0.000000  0.088639  0.015669      1.000000
  0.038382  0.066479  0.000000      1.000000
  0.076763  0.044319 -0.015669      1.000000
  0.115145  0.022160 -0.031339      1.000000
 -0.076763  0.132958  0.047008      1.000000
 -0.038382  0.110798  0.031339      1.000000
 -0.000000  0.132958  0.000000      1.000000
  0.038382  0.110798 -0.015669      1.000000
  0.076763  0.088639 -0.031339      1.000000
  0.115145  0.066479 -0.047008      1.000000
 -0.076763  0.177278  0.031339      1.000000
 -0.038382  0.155118  0.015669      1.000000
 -0.000000 -0.088639  0.078346      1.000000
  0.038382 -0.110798  0.062677      1.000000
  0.076763 -0.132958  0.047008      1.000000
  0.115145 -0.155118  0.031339      1.000000
 -0.076763 -0.044319  0.109685      1.000000
 -0.038382 -0.066479  0.094016      1.000000
 -0.000000 -0.044319  0.062677      1.000000
  0.038382 -0.066479  0.047008      1.000000
  0.076763 -0.088639  0.031339      1.000000
  0.115145 -0.110798  0.015669      1.000000
 -0.076763  0.000000  0.094016      1.000000
 -0.038382 -0.022160  0.078346      1.000000
 -0.000000  0.000000  0.094016      1.000000
  0.038382 -0.022160  0.078346      1.000000
  0.076763 -0.044319  0.062677      1.000000
  0.115145 -0.066479  0.047008      1.000000
 -0.076763  0.044319  0.125354      1.000000
 -0.038382  0.022160  0.109685      1.000000
 -0.000000  0.044319  0.078346      1.000000
  0.038382  0.022160  0.062677      1.000000
  0.076763  0.000000  0.047008      1.000000
  0.115145 -0.022160  0.031339      1.000000
 -0.076763  0.088639  0.109685      1.000000
 -0.038382  0.066479  0.094016      1.000000
 -0.000000  0.088639  0.062677      1.000000
  0.038382  0.066479  0.047008      1.000000
  0.076763  0.044319  0.031339      1.000000
  0.115145  0.022160  0.015669      1.000000
 -0.076763  0.132958  0.094016      1.000000
 -0.038382  0.110798  0.078346      1.000000
 -0.000000  0.132958  0.047008      1.000000
  0.038382  0.110798  0.031339      1.000000
  0.076763  0.088639  0.015669      1.000000
  0.115145  0.066479 -0.000000      1.000000
 -0.076763  0.177278  0.078346      1.000000
 -0.038382  0.155118  0.062677      1.000000
 -0.000000 -0.088639  0.125354      1.000000
  0.038382 -0.110798  0.109685      1.000000
  0.076763 -0.132958  0.094016      1.000000
  0.115145 -0.155118  0.078346      1.000000
 -0.076763 -0.044319  0.156693      1.000000
 -0.038382 -0.066479  0.141023      1.000000
 -0.000000 -0.044319  0.109685      1.000000
  0.038382 -0.066479  0.094016      1.000000
  0.076763 -0.088639  0.078346      1.000000
  0.115145 -0.110798  0.062677      1.000000
 -0.076763  0.000000  0.141023      1.000000
 -0.038382 -0.022160  0.125354      1.000000
 -0.000000  0.000000  0.141023      1.000000
  0.038382 -0.022160  0.125354      1.000000
  0.076763 -0.044319  0.109685      1.000000
  0.115145 -0.066479  0.094016      1.000000
 -0.076763  0.044319  0.172362      1.000000
 -0.038382  0.022160  0.156693      1.000000
 -0.000000  0.044319  0.125354      1.000000
  0.038382  0.022160  0.109685      1.000000
  0.076763  0.000000  0.094016      1.000000
  0.115145 -0.022160  0.078346      1.000000
 -0.076763  0.088639  0.156693      1.000000
 -0.038382  0.066479  0.141023      1.000000
 -0.000000  0.088639  0.109685      1.000000
  0.038382  0.066479  0.094016      1.000000
  0.076763  0.044319  0.078346      1.000000
  0.115145  0.022160  0.062677      1.000000
 -0.076763  0.132958  0.141023      1.000000
 -0.038382  0.110798  0.125354      1.000000
 -0.000000  0.132958  0.094016      1.000000
  0.038382  0.110798  0.078346      1.000000
  0.076763  0.088639  0.062677      1.000000
  0.115145  0.066479  0.047008      1.000000
 -0.076763  0.177278  0.125354      1.000000
 -0.038382  0.155118  0.109685      1.000000
 -0.000000 -0.088639  0.172362      1.000000
  0.038382 -0.110798  0.156693      1.000000
  0.076763 -0.132958  0.141023      1.000000
  0.115145 -0.155118  0.125354      1.000000
 -0.076763 -0.044319  0.203700      1.000000
 -0.038382 -0.066479  0.188031      1.000000
 -0.000000 -0.044319  0.156693      1.000000
  0.038382 -0.066479  0.141023      1.000000
  0.076763 -0.088639  0.125354      1.000000
  0.115145 -0.110798  0.109685      1.000000
 -0.076763  0.000000  0.188031      1.000000
 -0.038382 -0.022160  0.172362      1.000000
  0.000000 -0.000000 -0.094016      1.000000
  0.038382 -0.022160 -0.109685      1.000000
  0.076763 -0.044319 -0.125354      1.000000
  0.115145 -0.066479 -0.141023      1.000000
 -0.076763  0.044319 -0.062677      1.000000
 -0.038382  0.022160 -0.078346      1.000000
  0.000000  0.044319 -0.109685      1.000000
  0.038382  0.022160 -0.125354      1.000000
  0.076763  0.000000 -0.141023      1.000000
  0.115145 -0.022160 -0.156693      1.000000
 -0.076763  0.088639 -0.078346      1.000000
 -0.038382  0.066479 -0.094016      1.000000
  0.000000  0.088639 -0.125354      1.000000
  0.038382  0.066479 -0.141023      1.000000
  0.076763  0.044319 -0.156693      1.000000
  0.115145  0.022160 -0.172362      1.000000
 -0.076763  0.132958 -0.094016      1.000000
 -0.038382  0.110798 -0.109685      1.000000
  0.000000  0.132958 -0.141023      1.000000
  0.038382  0.110798 -0.156693      1.000000
  0.076763  0.088639 -0.172362      1.000000
  0.115145  0.066479 -0.188031      1.000000
 -0.076763  0.177278 -0.109685      1.000000
 -0.038382  0.155118 -0.125354      1.000000
  0.000000 -0.088639 -0.062677      1.000000
  0.038382 -0.110798 -0.078346      1.000000
  0.076763 -0.132958 -0.094016      1.000000
  0.115145 -0.155118 -0.109685      1.000000
 -0.076763 -0.044319 -0.031339      1.000000
 -0.038382 -0.066479 -0.047008      1.000000
  0.000000 -0.044319 -0.078346      1.000000
  0.038382 -0.066479 -0.094016      1.000000
  0.076763 -0.088639 -0.109685      1.000000
  0.115145 -0.110798 -0.125354      1.000000
 -0.076763  0.000000 -0.047008      1.000000
 -0.038382 -0.022160 -0.062677      1.000000
  0.000000 -0.000000 -0.047008      1.000000
  0.038382 -0.022160 -0.062677      1.000000
  0.076763 -0.044319 -0.078346      1.000000
  0.115145 -0.066479 -0.094016      1.000000
 -0.076763  0.044319 -0.015669      1.000000
 -0.038382  0.022160 -0.031339      1.000000
  0.000000  0.044319 -0.062677      1.000000
  0.038382  0.022160 -0.078346      1.000000
  0.076763  0.000000 -0.094016      1.000000
  0.115145 -0.022160 -0.109685      1.000000
 -0.076763  0.088639 -0.031339      1.000000
 -0.038382  0.066479 -0.047008      1.000000
  0.000000  0.088639 -0.078346      1.000000
  0.038382  0.066479 -0.094016      1.000000
  0.076763  0.044319 -0.109685      1.000000
  0.115145  0.022160 -0.125354      1.000000
 -0.076763  0.132958 -0.047008      1.000000
 -0.038382  0.110798 -0.062677      1.000000
  0.000000  0.132958 -0.094016      1.000000
  0.038382  0.110798 -0.109685      1.000000
  0.076763  0.088639 -0.125354      1.000000
  0.115145  0.066479 -0.141023      1.000000
 -0.076763  0.177278 -0.062677      1.000000
 -0.038382  0.155118 -0.078346      1.000000
  0.000000 -0.088639 -0.015669      1.000000
  0.038382 -0.110798 -0.031339      1.000000
  0.076763 -0.132958 -0.047008      1.000000
  0.115145 -0.155118 -0.062677      1.000000
 -0.076763 -0.044319  0.015669      1.000000
 -0.038382 -0.066479  0.000000      1.000000
  0.000000 -0.044319 -0.031339      1.000000
  0.038382 -0.066479 -0.047008      1.000000
  0.076763 -0.088639 -0.062677      1.000000
  0.115145 -0.110798 -0.078346      1.000000
 -0.076763  0.000000  0.000000      1.000000
 -0.038382 -0.022160 -0.015669      1.000000
 
 
 Subroutine IBZKPT_HF returns following result:
 ==============================================
 
 Found    216 k-points in 1st BZ
 the following    216 k-points will be used (e.g. in the exchange kernel)
 Following reciprocal coordinates:   # in IRBZ
  0.000000  0.000000  0.000000    0.00462963   1 t-inv F
  0.166667  0.000000  0.000000    0.00462963   2 t-inv F
  0.333333  0.000000  0.000000    0.00462963   3 t-inv F
  0.500000  0.000000  0.000000    0.00462963   4 t-inv F
 -0.333333 -0.000000  0.000000    0.00462963   5 t-inv F
 -0.166667 -0.000000 -0.000000    0.00462963   6 t-inv F
 -0.000000  0.166667 -0.000000    0.00462963   7 t-inv F
  0.166667  0.166667  0.000000    0.00462963   8 t-inv F
  0.333333  0.166667 -0.000000    0.00462963   9 t-inv F
  0.500000  0.166667  0.000000    0.00462963  10 t-inv F
 -0.333333  0.166667 -0.000000    0.00462963  11 t-inv F
 -0.166667  0.166667 -0.000000    0.00462963  12 t-inv F
  0.000000  0.333333 -0.000000    0.00462963  13 t-inv F
  0.166667  0.333333  0.000000    0.00462963  14 t-inv F
  0.333333  0.333333  0.000000    0.00462963  15 t-inv F
  0.500000  0.333333  0.000000    0.00462963  16 t-inv F
 -0.333333  0.333333 -0.000000    0.00462963  17 t-inv F
 -0.166667  0.333333 -0.000000    0.00462963  18 t-inv F
  0.000000  0.500000 -0.000000    0.00462963  19 t-inv F
  0.166667  0.500000  0.000000    0.00462963  20 t-inv F
  0.333333  0.500000  0.000000    0.00462963  21 t-inv F
  0.500000  0.500000  0.000000    0.00462963  22 t-inv F
 -0.333333  0.500000 -0.000000    0.00462963  23 t-inv F
 -0.166667  0.500000 -0.000000    0.00462963  24 t-inv F
 -0.000000 -0.333333  0.000000    0.00462963  25 t-inv F
  0.166667 -0.333333  0.000000    0.00462963  26 t-inv F
  0.333333 -0.333333  0.000000    0.00462963  27 t-inv F
  0.500000 -0.333333  0.000000    0.00462963  28 t-inv F
 -0.333333 -0.333333 -0.000000    0.00462963  29 t-inv F
 -0.166667 -0.333333  0.000000    0.00462963  30 t-inv F
  0.000000 -0.166667  0.000000    0.00462963  31 t-inv F
  0.166667 -0.166667  0.000000    0.00462963  32 t-inv F
  0.333333 -0.166667  0.000000    0.00462963  33 t-inv F
  0.500000 -0.166667  0.000000    0.00462963  34 t-inv F
 -0.333333 -0.166667  0.000000    0.00462963  35 t-inv F
 -0.166667 -0.166667  0.000000    0.00462963  36 t-inv F
  0.000000  0.000000  0.166667    0.00462963  37 t-inv F
  0.166667  0.000000  0.166667    0.00462963  38 t-inv F
  0.333333 -0.000000  0.166667    0.00462963  39 t-inv F
  0.500000 -0.000000  0.166667    0.00462963  40 t-inv F
 -0.333333 -0.000000  0.166667    0.00462963  41 t-inv F
 -0.166667  0.000000  0.166667    0.00462963  42 t-inv F
 -0.000000  0.166667  0.166667    0.00462963  43 t-inv F
  0.166667  0.166667  0.166667    0.00462963  44 t-inv F
  0.333333  0.166667  0.166667    0.00462963  45 t-inv F
  0.500000  0.166667  0.166667    0.00462963  46 t-inv F
 -0.333333  0.166667  0.166667    0.00462963  47 t-inv F
 -0.166667  0.166667  0.166667    0.00462963  48 t-inv F
 -0.000000  0.333333  0.166667    0.00462963  49 t-inv F
  0.166667  0.333333  0.166667    0.00462963  50 t-inv F
  0.333333  0.333333  0.166667    0.00462963  51 t-inv F
  0.500000  0.333333  0.166667    0.00462963  52 t-inv F
 -0.333333  0.333333  0.166667    0.00462963  53 t-inv F
 -0.166667  0.333333  0.166667    0.00462963  54 t-inv F
 -0.000000  0.500000  0.166667    0.00462963  55 t-inv F
  0.166667  0.500000  0.166667    0.00462963  56 t-inv F
  0.333333  0.500000  0.166667    0.00462963  57 t-inv F
  0.500000  0.500000  0.166667    0.00462963  58 t-inv F
 -0.333333  0.500000  0.166667    0.00462963  59 t-inv F
 -0.166667  0.500000  0.166667    0.00462963  60 t-inv F
 -0.000000 -0.333333  0.166667    0.00462963  61 t-inv F
  0.166667 -0.333333  0.166667    0.00462963  62 t-inv F
  0.333333 -0.333333  0.166667    0.00462963  63 t-inv F
  0.500000 -0.333333  0.166667    0.00462963  64 t-inv F
 -0.333333 -0.333333  0.166667    0.00462963  65 t-inv F
 -0.166667 -0.333333  0.166667    0.00462963  66 t-inv F
  0.000000 -0.166667  0.166667    0.00462963  67 t-inv F
  0.166667 -0.166667  0.166667    0.00462963  68 t-inv F
  0.333333 -0.166667  0.166667    0.00462963  69 t-inv F
  0.500000 -0.166667  0.166667    0.00462963  70 t-inv F
 -0.333333 -0.166667  0.166667    0.00462963  71 t-inv F
 -0.166667 -0.166667  0.166667    0.00462963  72 t-inv F
  0.000000  0.000000  0.333333    0.00462963  73 t-inv F
  0.166667  0.000000  0.333333    0.00462963  74 t-inv F
  0.333333  0.000000  0.333333    0.00462963  75 t-inv F
  0.500000 -0.000000  0.333333    0.00462963  76 t-inv F
 -0.333333  0.000000  0.333333    0.00462963  77 t-inv F
 -0.166667  0.000000  0.333333    0.00462963  78 t-inv F
 -0.000000  0.166667  0.333333    0.00462963  79 t-inv F
  0.166667  0.166667  0.333333    0.00462963  80 t-inv F
  0.333333  0.166667  0.333333    0.00462963  81 t-inv F
  0.500000  0.166667  0.333333    0.00462963  82 t-inv F
 -0.333333  0.166667  0.333333    0.00462963  83 t-inv F
 -0.166667  0.166667  0.333333    0.00462963  84 t-inv F
 -0.000000  0.333333  0.333333    0.00462963  85 t-inv F
  0.166667  0.333333  0.333333    0.00462963  86 t-inv F
  0.333333  0.333333  0.333333    0.00462963  87 t-inv F
  0.500000  0.333333  0.333333    0.00462963  88 t-inv F
 -0.333333  0.333333  0.333333    0.00462963  89 t-inv F
 -0.166667  0.333333  0.333333    0.00462963  90 t-inv F
  0.000000  0.500000  0.333333    0.00462963  91 t-inv F
  0.166667  0.500000  0.333333    0.00462963  92 t-inv F
  0.333333  0.500000  0.333333    0.00462963  93 t-inv F
  0.500000  0.500000  0.333333    0.00462963  94 t-inv F
 -0.333333  0.500000  0.333333    0.00462963  95 t-inv F
 -0.166667  0.500000  0.333333    0.00462963  96 t-inv F
  0.000000 -0.333333  0.333333    0.00462963  97 t-inv F
  0.166667 -0.333333  0.333333    0.00462963  98 t-inv F
  0.333333 -0.333333  0.333333    0.00462963  99 t-inv F
  0.500000 -0.333333  0.333333    0.00462963 100 t-inv F
 -0.333333 -0.333333  0.333333    0.00462963 101 t-inv F
 -0.166667 -0.333333  0.333333    0.00462963 102 t-inv F
  0.000000 -0.166667  0.333333    0.00462963 103 t-inv F
  0.166667 -0.166667  0.333333    0.00462963 104 t-inv F
  0.333333 -0.166667  0.333333    0.00462963 105 t-inv F
  0.500000 -0.166667  0.333333    0.00462963 106 t-inv F
 -0.333333 -0.166667  0.333333    0.00462963 107 t-inv F
 -0.166667 -0.166667  0.333333    0.00462963 108 t-inv F
  0.000000  0.000000  0.500000    0.00462963 109 t-inv F
  0.166667  0.000000  0.500000    0.00462963 110 t-inv F
  0.333333  0.000000  0.500000    0.00462963 111 t-inv F
  0.500000 -0.000000  0.500000    0.00462963 112 t-inv F
 -0.333333  0.000000  0.500000    0.00462963 113 t-inv F
 -0.166667  0.000000  0.500000    0.00462963 114 t-inv F
 -0.000000  0.166667  0.500000    0.00462963 115 t-inv F
  0.166667  0.166667  0.500000    0.00462963 116 t-inv F
  0.333333  0.166667  0.500000    0.00462963 117 t-inv F
  0.500000  0.166667  0.500000    0.00462963 118 t-inv F
 -0.333333  0.166667  0.500000    0.00462963 119 t-inv F
 -0.166667  0.166667  0.500000    0.00462963 120 t-inv F
  0.000000  0.333333  0.500000    0.00462963 121 t-inv F
  0.166667  0.333333  0.500000    0.00462963 122 t-inv F
  0.333333  0.333333  0.500000    0.00462963 123 t-inv F
  0.500000  0.333333  0.500000    0.00462963 124 t-inv F
 -0.333333  0.333333  0.500000    0.00462963 125 t-inv F
 -0.166667  0.333333  0.500000    0.00462963 126 t-inv F
 -0.000000  0.500000  0.500000    0.00462963 127 t-inv F
  0.166667  0.500000  0.500000    0.00462963 128 t-inv F
  0.333333  0.500000  0.500000    0.00462963 129 t-inv F
  0.500000  0.500000  0.500000    0.00462963 130 t-inv F
 -0.333333  0.500000  0.500000    0.00462963 131 t-inv F
 -0.166667  0.500000  0.500000    0.00462963 132 t-inv F
  0.000000 -0.333333  0.500000    0.00462963 133 t-inv F
  0.166667 -0.333333  0.500000    0.00462963 134 t-inv F
  0.333333 -0.333333  0.500000    0.00462963 135 t-inv F
  0.500000 -0.333333  0.500000    0.00462963 136 t-inv F
 -0.333333 -0.333333  0.500000    0.00462963 137 t-inv F
 -0.166667 -0.333333  0.500000    0.00462963 138 t-inv F
  0.000000 -0.166667  0.500000    0.00462963 139 t-inv F
  0.166667 -0.166667  0.500000    0.00462963 140 t-inv F
  0.333333 -0.166667  0.500000    0.00462963 141 t-inv F
  0.500000 -0.166667  0.500000    0.00462963 142 t-inv F
 -0.333333 -0.166667  0.500000    0.00462963 143 t-inv F
 -0.166667 -0.166667  0.500000    0.00462963 144 t-inv F
  0.000000  0.000000 -0.333333    0.00462963 145 t-inv F
  0.166667 -0.000000 -0.333333    0.00462963 146 t-inv F
  0.333333 -0.000000 -0.333333    0.00462963 147 t-inv F
  0.500000  0.000000 -0.333333    0.00462963 148 t-inv F
 -0.333333 -0.000000 -0.333333    0.00462963 149 t-inv F
 -0.166667 -0.000000 -0.333333    0.00462963 150 t-inv F
 -0.000000  0.166667 -0.333333    0.00462963 151 t-inv F
  0.166667  0.166667 -0.333333    0.00462963 152 t-inv F
  0.333333  0.166667 -0.333333    0.00462963 153 t-inv F
  0.500000  0.166667 -0.333333    0.00462963 154 t-inv F
 -0.333333  0.166667 -0.333333    0.00462963 155 t-inv F
 -0.166667  0.166667 -0.333333    0.00462963 156 t-inv F
  0.000000  0.333333 -0.333333    0.00462963 157 t-inv F
  0.166667  0.333333 -0.333333    0.00462963 158 t-inv F
  0.333333  0.333333 -0.333333    0.00462963 159 t-inv F
  0.500000  0.333333 -0.333333    0.00462963 160 t-inv F
 -0.333333  0.333333 -0.333333    0.00462963 161 t-inv F
 -0.166667  0.333333 -0.333333    0.00462963 162 t-inv F
 -0.000000  0.500000 -0.333333    0.00462963 163 t-inv F
  0.166667  0.500000 -0.333333    0.00462963 164 t-inv F
  0.333333  0.500000 -0.333333    0.00462963 165 t-inv F
  0.500000  0.500000 -0.333333    0.00462963 166 t-inv F
 -0.333333  0.500000 -0.333333    0.00462963 167 t-inv F
 -0.166667  0.500000 -0.333333    0.00462963 168 t-inv F
  0.000000 -0.333333 -0.333333    0.00462963 169 t-inv F
  0.166667 -0.333333 -0.333333    0.00462963 170 t-inv F
  0.333333 -0.333333 -0.333333    0.00462963 171 t-inv F
  0.500000 -0.333333 -0.333333    0.00462963 172 t-inv F
 -0.333333 -0.333333 -0.333333    0.00462963 173 t-inv F
 -0.166667 -0.333333 -0.333333    0.00462963 174 t-inv F
  0.000000 -0.166667 -0.333333    0.00462963 175 t-inv F
  0.166667 -0.166667 -0.333333    0.00462963 176 t-inv F
  0.333333 -0.166667 -0.333333    0.00462963 177 t-inv F
  0.500000 -0.166667 -0.333333    0.00462963 178 t-inv F
 -0.333333 -0.166667 -0.333333    0.00462963 179 t-inv F
 -0.166667 -0.166667 -0.333333    0.00462963 180 t-inv F
 -0.000000 -0.000000 -0.166667    0.00462963 181 t-inv F
  0.166667 -0.000000 -0.166667    0.00462963 182 t-inv F
  0.333333  0.000000 -0.166667    0.00462963 183 t-inv F
  0.500000  0.000000 -0.166667    0.00462963 184 t-inv F
 -0.333333  0.000000 -0.166667    0.00462963 185 t-inv F
 -0.166667 -0.000000 -0.166667    0.00462963 186 t-inv F
 -0.000000  0.166667 -0.166667    0.00462963 187 t-inv F
  0.166667  0.166667 -0.166667    0.00462963 188 t-inv F
  0.333333  0.166667 -0.166667    0.00462963 189 t-inv F
  0.500000  0.166667 -0.166667    0.00462963 190 t-inv F
 -0.333333  0.166667 -0.166667    0.00462963 191 t-inv F
 -0.166667  0.166667 -0.166667    0.00462963 192 t-inv F
  0.000000  0.333333 -0.166667    0.00462963 193 t-inv F
  0.166667  0.333333 -0.166667    0.00462963 194 t-inv F
  0.333333  0.333333 -0.166667    0.00462963 195 t-inv F
  0.500000  0.333333 -0.166667    0.00462963 196 t-inv F
 -0.333333  0.333333 -0.166667    0.00462963 197 t-inv F
 -0.166667  0.333333 -0.166667    0.00462963 198 t-inv F
 -0.000000  0.500000 -0.166667    0.00462963 199 t-inv F
  0.166667  0.500000 -0.166667    0.00462963 200 t-inv F
  0.333333  0.500000 -0.166667    0.00462963 201 t-inv F
  0.500000  0.500000 -0.166667    0.00462963 202 t-inv F
 -0.333333  0.500000 -0.166667    0.00462963 203 t-inv F
 -0.166667  0.500000 -0.166667    0.00462963 204 t-inv F
  0.000000 -0.333333 -0.166667    0.00462963 205 t-inv F
  0.166667 -0.333333 -0.166667    0.00462963 206 t-inv F
  0.333333 -0.333333 -0.166667    0.00462963 207 t-inv F
  0.500000 -0.333333 -0.166667    0.00462963 208 t-inv F
 -0.333333 -0.333333 -0.166667    0.00462963 209 t-inv F
 -0.166667 -0.333333 -0.166667    0.00462963 210 t-inv F
  0.000000 -0.166667 -0.166667    0.00462963 211 t-inv F
  0.166667 -0.166667 -0.166667    0.00462963 212 t-inv F
  0.333333 -0.166667 -0.166667    0.00462963 213 t-inv F
  0.500000 -0.166667 -0.166667    0.00462963 214 t-inv F
 -0.333333 -0.166667 -0.166667    0.00462963 215 t-inv F
 -0.166667 -0.166667 -0.166667    0.00462963 216 t-inv F


--------------------------------------------------------------------------------------------------------




 Dimension of arrays:
   k-points           NKPTS =    216   k-points in BZ     NKDIM =    216   number of bands    NBANDS=    128
   number of dos      NEDOS =    301   number of ions     NIONS =      1
   non local maximal  LDIM  =      6   non local SUM 2l+1 LMDIM =     18
   total plane-waves  NPLWV =  21952
   max r-space proj   IRMAX =      1   max aug-charges    IRDMAX= 182324
   dimension x,y,z NGX =    28 NGY =   28 NGZ =   28
   dimension x,y,z NGXF=    56 NGYF=   56 NGZF=   56
   support grid    NGXF=   112 NGYF=  112 NGZF=  112
   ions per type =               1
   NGX,Y,Z   is equivalent  to a cutoff of  10.72, 10.72, 10.72 a.u.
   NGXF,Y,Z  is equivalent  to a cutoff of  21.44, 21.44, 21.44 a.u.

 SYSTEM =  Og_FCC                                  
 POSCAR =  Og_FCC                                  

 Startparameter for this run:
   NWRITE =      1    write-flag & timer
   PREC   = accura    normal or accurate (medium, high low for compatibility)
   ISTART =      1    job   : 0-new  1-cont  2-samecut
   ICHARG =      0    charge: 1-file 2-atom 10-const
   ISPIN  =      1    spin polarized calculation?
   LNONCOLLINEAR =      T non collinear calculations
   LSORBIT =      T    spin-orbit coupling
   INIWAV =      1    electr: 0-lowe 1-rand  2-diag
   LASPH  =      F    aspherical Exc in radial PAW
   METAGGA=      F    non-selfconsistent MetaGGA calc.

 Electronic Relaxation 1
   ENCUT  =  300.0 eV  22.05 Ry    4.70 a.u.   6.13  6.13  6.13*2*pi/ulx,y,z
   ENINI  =  300.0     initial cutoff
   ENAUG  =  361.0 eV  augmentation charge cutoff
   NELM   =      1;   NELMIN=  2; NELMDL=  0     # of ELM steps 
   EDIFF  = 0.1E-07   stopping-criterion for ELM
   LREAL  =      F    real-space projection
   NLSPLINE    = F    spline interpolate recip. space projectors
   LCOMPAT=      F    compatible to vasp.4.4
   GGA_COMPAT  = F    GGA compatible to vasp.4.4-vasp.4.6
   LMAXPAW     = -100 max onsite density
   LMAXMIX     =    2 max onsite mixed and CHGCAR
   VOSKOWN=      0    Vosko Wilk Nusair interpolation
   ROPT   =    0.00000
 Ionic relaxation
   EDIFFG = 0.1E-04   stopping-criterion for IOM
   NSW    =      1    number of steps for IOM
   NBLOCK =      1;   KBLOCK =      1    inner block; outer block 
   IBRION =     -1    ionic relax: 0-MD 1-quasi-New 2-CG
   NFREE  =      5    steps in history (QN), initial steepest desc. (CG)
   ISIF   =      3    stress and relaxation
   IWAVPR =     10    prediction:  0-non 1-charg 2-wave 3-comb
   ISYM   =      0    0-nonsym 1-usesym 2-fastsym
   LCORR  =      T    Harris-Foulkes like correction to forces

   POTIM  = 0.1000    time-step for ionic-motion
   TEIN   =    0.0    initial temperature
   TEBEG  =    0.0;   TEEND  =   0.0 temperature during run
   SMASS  =  -3.00    Nose mass-parameter (am)
   estimated Nose-frequenzy (Omega)   =  0.10E-29 period in steps =****** mass=  -0.431E-27a.u.
   SCALEE = 1.0000    scale energy and forces
   NPACO  =    256;   APACO  = 16.0  distance and # of slots for P.C.
   PSTRESS=    0.0 pullay stress

  Mass of Ions in am
   POMASS =   0.01
  Ionic Valenz
   ZVAL   =  18.00
  Atomic Wigner-Seitz radii
   RWIGS  =  -1.00
  virtual crystal weights 
   VCA    =   1.00
   NELECT =      18.0000    total number of electrons
   NUPDOWN=      -1.0000    fix difference up-down

 DOS related values:
   EMIN   =  10.00;   EMAX   =-10.00  energy-range for DOS
   EFERMI =   0.00
   ISMEAR =     0;   SIGMA  =   0.00  broadening in eV -4-tet -1-fermi 0-gaus

 Electronic relaxation 2 (details)
   IALGO  =     38    algorithm
   LDIAG  =      T    sub-space diagonalisation (order eigenvalues)
   LSUBROT=      F    optimize rotation matrix (better conditioning)
   TURBO    =      0    0=normal 1=particle mesh
   IRESTART =      0    0=no restart 2=restart with 2 vectors
   NREBOOT  =      0    no. of reboots
   NMIN     =      0    reboot dimension
   EREF     =   0.00    reference energy to select bands
   IMIX   =      1    mixing-type and parameters
     AMIX     =   0.40;   BMIX     =  1.00
     AMIX_MAG =   1.60;   BMIX_MAG =  1.00
     AMIN     =   0.10
     WC   =   100.;   INIMIX=   1;  MIXPRE=   1;  MAXMIX=  50

 Intra band minimization:
   WEIMIN = 0.0000     energy-eigenvalue tresh-hold
   EBREAK =  0.20E-10  absolut break condition
   DEPER  =   0.30     relativ break condition  

   TIME   =   0.40     timestep for ELM

  volume/ion in A,a.u.               =      57.90       390.71
  Fermi-wavevector in a.u.,A,eV,Ry     =   1.109038  2.095777 16.734680  1.229964
  Thomas-Fermi vector in A             =   2.245572
 
 Write flags
   LWAVE        =      T    write WAVECAR
   LDOWNSAMPLE  =      F    k-point downsampling of WAVECAR
   LCHARG       =      F    write CHGCAR
   LVTOT        =      F    write LOCPOT, total local potential
   LVHAR        =      F    write LOCPOT, Hartree potential only
   LELF         =      F    write electronic localiz. function (ELF)
   LORBIT       =      0    0 simple, 1 ext, 2 COOP (PROOUT), +10 PAW based schemes


 Dipole corrections
   LMONO  =      F    monopole corrections only (constant potential shift)
   LDIPOL =      F    correct potential (dipole corrections)
   IDIPOL =      0    1-x, 2-y, 3-z, 4-all directions 
   EPSILON=  1.0000000 bulk dielectric constant

 Exchange correlation treatment:
   GGA     =    PE    GGA type
   LEXCH   =     8    internal setting for exchange type
   VOSKOWN=      0    Vosko Wilk Nusair interpolation
   EXXOEP  =     0    0=HF, 1=EXX-LHF (local Hartree Fock) 2=EXX OEP
   LHFCALC =     T    Hartree Fock is set to
   LSYMGRAD=     F    symmetrize gradient (conserves proper symmetry)
   PRECFOCK=normal    Normal, Fast or Accurate (Low or Medium for compatibility)
   LRHFCALC=     F    long range Hartree Fock
   LRSCOR  =     F    long range correlation only (use DFT for short range part)
   LTHOMAS =     F    Thomas Fermi screening in HF
   LMODELHF=     F    short range full HF, long range fraction AEXX
   ENCUT4O =  -1.0   cutoff for four orbital integrals eV
   LMAXFOCK=     4    L truncation for augmentation on plane wave grid
   LMAXFOCKAE=   4    L truncation for all-electron charge restoration on plane wave grid
   NMAXFOCKAE=   1    number of basis functions for all-electron charge restoration
   LFOCKAEDFT=     F  apply the AE augmentation even for DFT
   NKREDX  =     1    reduce k-point grid by
   NKREDY  =     1    reduce k-point grid by
   NKREDZ  =     1    reduce k-point grid by
   SHIFTRED=     F    shift reduced grid of Gamma
   HFKIDENT=     F    idential grid for each k-point
   ODDONLY =     F    use only odd q-grid points
   EVENONLY=     F    use only even q-grid points
   HFALPHA =   -1.0000 decay constant for conv. correction
   MCALPHA =    0.0000 extent of test-charge in conv. correction in multipole expansion
   AEXX    =    1.0000 exact exchange contribution
   HFSCREEN=    0.0000 screening length (either q_TF or 0.3 A-1)
   HFSCREENC=   0.0000 screening length for correlation (either q_TF or 0.3 A-1)
   HFRCUT  =    0.0000 spherical cutoff for potential kernel
   ALDAX   =    0.0000 LDA exchange part
   AGGAX   =    0.0000 GGA exchange part
   ALDAC   =    0.0000 LDA correlation
   AGGAC   =    0.0000 GGA correlation
   ENCUTFOCK=  -1.0 apply spherical cutoff to Coloumb kernel
   NBANDSGWLOW=     1    first orbital included in HF term
   NBLOCK_FOCK=    64    blocking factor in FOCK_ACC
 Linear response parameters
   LEPSILON=     F    determine dielectric tensor
   LRPA    =     F    only Hartree local field effects (RPA)
   LNABLA  =     F    use nabla operator in PAW spheres
   LVEL    =     F    velocity operator in full k-point grid
   LINTERFAST=   F  fast interpolation
   KINTER  =     0    interpolate to denser k-point grid
   CSHIFT  =0.1000    complex shift for real part using Kramers Kronig
   OMEGAMAX=  -1.0    maximum frequency
   DEG_THRESHOLD= 0.2000000E-02 threshold for treating states as degnerate
   RTIME   =   -0.100 relaxation time in fs
  (WPLASMAI=    0.000 imaginary part of plasma frequency in eV, 0.658/RTIME)
   DFIELD  = 0.0000000 0.0000000 0.0000000 field for delta impulse in time
 
 Orbital magnetization related:
   ORBITALMAG=     F  switch on orbital magnetization
   LCHIMAG   =     F  perturbation theory with respect to B field
   DQ        =  0.001000  dq finite difference perturbation B field
   LLRAUG    =     F  two centre corrections for induced B field

 Response functions by sum over occupied states:
   ALGO    =QPGW       execute GW part
   LFXC    =     F    include DFT xc kernel in TD-HF and W
   LADDER  =     F    particle hole ladder diagrams for BSE/TD-HF and W (Nano-quanta)
   LRPAFORCE=     F   calculate RPA forces
   LHARTREE=     T    include Hartree terms (bubbles-RPA) in BSE/TD-HF
   IBSE    =     0    BSE modus: 0 exact, 1 time-evolution (store matrix), 10 time-evolution (implicit)
   KPOINT  =    -1   0   0   0    k-point index at which BSE equation is solved (and G at which response is eval.)
   LTRIPLET=     F    triplet instead of singlet excitation (BSE only)
   LRSRPA  =     F    range separated RPA (total - short) in ACFDT
   LTCTE   =     F    use test-charge test-electron dielectric function
   LTETE   =     F    use test-electron test-electron dielectric function
   LFXCEPS =     F    determine f_xc=epsilon-1/Xi Sharma and Gross kernel
   LFXHEG  =     F    model exchange using f_x(G,k_F) from free electron gas
   NATURALO=     2    0 natural orbitals, 1 only virtual, 2 only occupied-virtual rotation
   L2ORDER =     F    2nd order terms only
   LMP2LT   =     F    use LT MP2
   LUSEW   =     F    use screened W from WXXXX.tmp files instead of (screened) HF kernel
   ENCUTGW = 200.0    cutoff for response function in eV
   ENCUTGWSOFT = 200.0 soft cutoff for Coulomb kernel in GW response function in eV
   ENCUTLF =  -1.0    cutoff for local field effects
   LMAXMP2 =    -1    maximum L for one center terms
   SCISSOR =   0.0    scissor correction
   NOMEGA  =    50    number of frequencies
   NOMEGAR =    50    number of frequencies along real axis
   NBANDSGW=    -1    number of bands for which selfenergy shift is calculated
   NBANDSGWLOW=     1 lowest band included in GW (to exclude core correlation)
   NBANDSO =    -1    number of bands for electron-hole treatment (occupied)
   NBANDSV =    -1    number of bands for electron-hole treatment (virtual)
   NELM    =     1    number of iterations in solving QP/BSE equation
   NELMHF  =     1    number of iterations in the inner HF iteration
   DIM     =     3    dimensionality of system (0=0D molecules, 3=3D)
   ANTIRES =     0    antiresonant part (0) no TDA (1) w=0 exact (2) accurate
   OMEGAMAX= -30.0    maximum frequency
   OMEGAMIN= -30.000    minimum frequency
   OMEGATL =-200.0    maximum frequency of tail
   OMEGAGRID=     0    grid type (0 default)
   CSHIFT  =-0.100    complex shift used in evaluation of response functions
   SELFENERGY=   F    calculate selfenergy instead of QP shifts
   LSPECTRAL =   T    use spectral functions                   
   LSPECTRALGW=   F   use spectral functions to calculate int dz G(w-z) W(z) (more accurate)
   LSINGLES  =   F   calculate the singles contribution to the correlation energy
   LFERMIGW  =   F   update Fermi-energy in the Greens function

   ODDONLYGW =   F    avoid all even points for polarizability 
   EVENONLYGW=   F    avoid all odd  points for polarizability 
   NKREDLFX  =   1   NKREDLFY  =   1   NKREDLFZ  =   1

   TELESCOPE =   0   use telescope k-point sampling
   TAUPAR    =   1   number of TAU groups used in imaginary time calculation
   OMEGAPAR  =  -1   number of OMEGA groups used in imaginary frequency calculation



--------------------------------------------------------------------------------------------------------


 Static calculation
 charge density and potential will be updated during run
 non collinear spin polarized calculation
 Variant of blocked Davidson
 Davidson routine will perform the subspace rotation
 perform sub-space diagonalisation
    after iterative eigenvector-optimisation
 Kerker-like  mixing scheme
 using additional bands          119
 reciprocal scheme for non local part
 use partial core corrections
 calculate Harris-corrections to forces 
   (improved forces if not selfconsistent)
 use gradient corrections 
 use of overlap-Matrix (Vanderbilt PP)
 Gauss-broadening in eV      SIGMA  =   0.00


--------------------------------------------------------------------------------------------------------


  energy-cutoff  :      300.00
  volume of cell :       57.90
      direct lattice vectors                 reciprocal lattice vectors
     4.342345876  0.000000000  0.000000000     0.230290269 -0.132958149 -0.094015609
     2.171172938  3.760581840 -0.000000000     0.000000000  0.265916298 -0.094015609
     2.171172938  1.253527280  3.545510561    -0.000000000  0.000000000  0.282046826

  length of vectors
     4.342345876  4.342345876  4.342345876     0.282046826  0.282046826  0.282046826


 
 old parameters found on file WAVECAR:
  energy-cutoff  :      300.00
  volume of cell :       57.90
      direct lattice vectors                 reciprocal lattice vectors
     4.342345876  0.000000000  0.000000000     0.230290269 -0.132958149 -0.094015609
     2.171172938  3.760581840 -0.000000000     0.000000000  0.265916298 -0.094015609
     2.171172938  1.253527280  3.545510561    -0.000000000  0.000000000  0.282046826

  length of vectors

 
 k-points in units of 2pi/SCALE and weight: k-points                                
   0.00000000  0.00000000  0.00000000       0.005
   0.03838171 -0.02215969 -0.01566927       0.005
   0.07676342 -0.04431938 -0.03133854       0.005
   0.11514513 -0.06647907 -0.04700780       0.005
  -0.07676342  0.04431938  0.03133854       0.005
  -0.03838171  0.02215969  0.01566927       0.005
   0.00000000  0.04431938 -0.01566927       0.005
   0.03838171  0.02215969 -0.03133854       0.005
   0.07676342  0.00000000 -0.04700780       0.005
   0.11514513 -0.02215969 -0.06267707       0.005
  -0.07676342  0.08863877  0.01566927       0.005
  -0.03838171  0.06647907 -0.00000000       0.005
   0.00000000  0.08863877 -0.03133854       0.005
   0.03838171  0.06647907 -0.04700780       0.005
   0.07676342  0.04431938 -0.06267707       0.005
   0.11514513  0.02215969 -0.07834634       0.005
  -0.07676342  0.13295815  0.00000000       0.005
  -0.03838171  0.11079846 -0.01566927       0.005
   0.00000000  0.13295815 -0.04700780       0.005
   0.03838171  0.11079846 -0.06267707       0.005
   0.07676342  0.08863877 -0.07834634       0.005
   0.11514513  0.06647907 -0.09401561       0.005
  -0.07676342  0.17727753 -0.01566927       0.005
  -0.03838171  0.15511784 -0.03133854       0.005
  -0.00000000 -0.08863877  0.03133854       0.005
   0.03838171 -0.11079846  0.01566927       0.005
   0.07676342 -0.13295815 -0.00000000       0.005
   0.11514513 -0.15511784 -0.01566927       0.005
  -0.07676342 -0.04431938  0.06267707       0.005
  -0.03838171 -0.06647907  0.04700780       0.005
  -0.00000000 -0.04431938  0.01566927       0.005
   0.03838171 -0.06647907 -0.00000000       0.005
   0.07676342 -0.08863877 -0.01566927       0.005
   0.11514513 -0.11079846 -0.03133854       0.005
  -0.07676342  0.00000000  0.04700780       0.005
  -0.03838171 -0.02215969  0.03133854       0.005
  -0.00000000  0.00000000  0.04700780       0.005
   0.03838171 -0.02215969  0.03133854       0.005
   0.07676342 -0.04431938  0.01566927       0.005
   0.11514513 -0.06647907  0.00000000       0.005
  -0.07676342  0.04431938  0.07834634       0.005
  -0.03838171  0.02215969  0.06267707       0.005
  -0.00000000  0.04431938  0.03133854       0.005
   0.03838171  0.02215969  0.01566927       0.005
   0.07676342  0.00000000  0.00000000       0.005
   0.11514513 -0.02215969 -0.01566927       0.005
  -0.07676342  0.08863877  0.06267707       0.005
  -0.03838171  0.06647907  0.04700780       0.005
  -0.00000000  0.08863877  0.01566927       0.005
   0.03838171  0.06647907  0.00000000       0.005
   0.07676342  0.04431938 -0.01566927       0.005
   0.11514513  0.02215969 -0.03133854       0.005
  -0.07676342  0.13295815  0.04700780       0.005
  -0.03838171  0.11079846  0.03133854       0.005
  -0.00000000  0.13295815  0.00000000       0.005
   0.03838171  0.11079846 -0.01566927       0.005
   0.07676342  0.08863877 -0.03133854       0.005
   0.11514513  0.06647907 -0.04700780       0.005
  -0.07676342  0.17727753  0.03133854       0.005
  -0.03838171  0.15511784  0.01566927       0.005
  -0.00000000 -0.08863877  0.07834634       0.005
   0.03838171 -0.11079846  0.06267707       0.005
   0.07676342 -0.13295815  0.04700780       0.005
   0.11514513 -0.15511784  0.03133854       0.005
  -0.07676342 -0.04431938  0.10968488       0.005
  -0.03838171 -0.06647907  0.09401561       0.005
  -0.00000000 -0.04431938  0.06267707       0.005
   0.03838171 -0.06647907  0.04700780       0.005
   0.07676342 -0.08863877  0.03133854       0.005
   0.11514513 -0.11079846  0.01566927       0.005
  -0.07676342  0.00000000  0.09401561       0.005
  -0.03838171 -0.02215969  0.07834634       0.005
  -0.00000000  0.00000000  0.09401561       0.005
   0.03838171 -0.02215969  0.07834634       0.005
   0.07676342 -0.04431938  0.06267707       0.005
   0.11514513 -0.06647907  0.04700780       0.005
  -0.07676342  0.04431938  0.12535414       0.005
  -0.03838171  0.02215969  0.10968488       0.005
  -0.00000000  0.04431938  0.07834634       0.005
   0.03838171  0.02215969  0.06267707       0.005
   0.07676342  0.00000000  0.04700780       0.005
   0.11514513 -0.02215969  0.03133854       0.005
  -0.07676342  0.08863877  0.10968488       0.005
  -0.03838171  0.06647907  0.09401561       0.005
  -0.00000000  0.08863877  0.06267707       0.005
   0.03838171  0.06647907  0.04700780       0.005
   0.07676342  0.04431938  0.03133854       0.005
   0.11514513  0.02215969  0.01566927       0.005
  -0.07676342  0.13295815  0.09401561       0.005
  -0.03838171  0.11079846  0.07834634       0.005
  -0.00000000  0.13295815  0.04700780       0.005
   0.03838171  0.11079846  0.03133854       0.005
   0.07676342  0.08863877  0.01566927       0.005
   0.11514513  0.06647907 -0.00000000       0.005
  -0.07676342  0.17727753  0.07834634       0.005
  -0.03838171  0.15511784  0.06267707       0.005
  -0.00000000 -0.08863877  0.12535414       0.005
   0.03838171 -0.11079846  0.10968488       0.005
   0.07676342 -0.13295815  0.09401561       0.005
   0.11514513 -0.15511784  0.07834634       0.005
  -0.07676342 -0.04431938  0.15669268       0.005
  -0.03838171 -0.06647907  0.14102341       0.005
  -0.00000000 -0.04431938  0.10968488       0.005
   0.03838171 -0.06647907  0.09401561       0.005
   0.07676342 -0.08863877  0.07834634       0.005
   0.11514513 -0.11079846  0.06267707       0.005
  -0.07676342  0.00000000  0.14102341       0.005
  -0.03838171 -0.02215969  0.12535414       0.005
  -0.00000000  0.00000000  0.14102341       0.005
   0.03838171 -0.02215969  0.12535414       0.005
   0.07676342 -0.04431938  0.10968488       0.005
   0.11514513 -0.06647907  0.09401561       0.005
  -0.07676342  0.04431938  0.17236195       0.005
  -0.03838171  0.02215969  0.15669268       0.005
  -0.00000000  0.04431938  0.12535414       0.005
   0.03838171  0.02215969  0.10968488       0.005
   0.07676342  0.00000000  0.09401561       0.005
   0.11514513 -0.02215969  0.07834634       0.005
  -0.07676342  0.08863877  0.15669268       0.005
  -0.03838171  0.06647907  0.14102341       0.005
  -0.00000000  0.08863877  0.10968488       0.005
   0.03838171  0.06647907  0.09401561       0.005
   0.07676342  0.04431938  0.07834634       0.005
   0.11514513  0.02215969  0.06267707       0.005
  -0.07676342  0.13295815  0.14102341       0.005
  -0.03838171  0.11079846  0.12535414       0.005
  -0.00000000  0.13295815  0.09401561       0.005
   0.03838171  0.11079846  0.07834634       0.005
   0.07676342  0.08863877  0.06267707       0.005
   0.11514513  0.06647907  0.04700780       0.005
  -0.07676342  0.17727753  0.12535414       0.005
  -0.03838171  0.15511784  0.10968488       0.005
  -0.00000000 -0.08863877  0.17236195       0.005
   0.03838171 -0.11079846  0.15669268       0.005
   0.07676342 -0.13295815  0.14102341       0.005
   0.11514513 -0.15511784  0.12535414       0.005
  -0.07676342 -0.04431938  0.20370049       0.005
  -0.03838171 -0.06647907  0.18803122       0.005
  -0.00000000 -0.04431938  0.15669268       0.005
   0.03838171 -0.06647907  0.14102341       0.005
   0.07676342 -0.08863877  0.12535414       0.005
   0.11514513 -0.11079846  0.10968488       0.005
  -0.07676342  0.00000000  0.18803122       0.005
  -0.03838171 -0.02215969  0.17236195       0.005
   0.00000000 -0.00000000 -0.09401561       0.005
   0.03838171 -0.02215969 -0.10968488       0.005
   0.07676342 -0.04431938 -0.12535414       0.005
   0.11514513 -0.06647907 -0.14102341       0.005
  -0.07676342  0.04431938 -0.06267707       0.005
  -0.03838171  0.02215969 -0.07834634       0.005
   0.00000000  0.04431938 -0.10968488       0.005
   0.03838171  0.02215969 -0.12535414       0.005
   0.07676342  0.00000000 -0.14102341       0.005
   0.11514513 -0.02215969 -0.15669268       0.005
  -0.07676342  0.08863877 -0.07834634       0.005
  -0.03838171  0.06647907 -0.09401561       0.005
   0.00000000  0.08863877 -0.12535414       0.005
   0.03838171  0.06647907 -0.14102341       0.005
   0.07676342  0.04431938 -0.15669268       0.005
   0.11514513  0.02215969 -0.17236195       0.005
  -0.07676342  0.13295815 -0.09401561       0.005
  -0.03838171  0.11079846 -0.10968488       0.005
   0.00000000  0.13295815 -0.14102341       0.005
   0.03838171  0.11079846 -0.15669268       0.005
   0.07676342  0.08863877 -0.17236195       0.005
   0.11514513  0.06647907 -0.18803122       0.005
  -0.07676342  0.17727753 -0.10968488       0.005
  -0.03838171  0.15511784 -0.12535414       0.005
   0.00000000 -0.08863877 -0.06267707       0.005
   0.03838171 -0.11079846 -0.07834634       0.005
   0.07676342 -0.13295815 -0.09401561       0.005
   0.11514513 -0.15511784 -0.10968488       0.005
  -0.07676342 -0.04431938 -0.03133854       0.005
  -0.03838171 -0.06647907 -0.04700780       0.005
   0.00000000 -0.04431938 -0.07834634       0.005
   0.03838171 -0.06647907 -0.09401561       0.005
   0.07676342 -0.08863877 -0.10968488       0.005
   0.11514513 -0.11079846 -0.12535414       0.005
  -0.07676342  0.00000000 -0.04700780       0.005
  -0.03838171 -0.02215969 -0.06267707       0.005
   0.00000000 -0.00000000 -0.04700780       0.005
   0.03838171 -0.02215969 -0.06267707       0.005
   0.07676342 -0.04431938 -0.07834634       0.005
   0.11514513 -0.06647907 -0.09401561       0.005
  -0.07676342  0.04431938 -0.01566927       0.005
  -0.03838171  0.02215969 -0.03133854       0.005
   0.00000000  0.04431938 -0.06267707       0.005
   0.03838171  0.02215969 -0.07834634       0.005
   0.07676342  0.00000000 -0.09401561       0.005
   0.11514513 -0.02215969 -0.10968488       0.005
  -0.07676342  0.08863877 -0.03133854       0.005
  -0.03838171  0.06647907 -0.04700780       0.005
   0.00000000  0.08863877 -0.07834634       0.005
   0.03838171  0.06647907 -0.09401561       0.005
   0.07676342  0.04431938 -0.10968488       0.005
   0.11514513  0.02215969 -0.12535414       0.005
  -0.07676342  0.13295815 -0.04700780       0.005
  -0.03838171  0.11079846 -0.06267707       0.005
   0.00000000  0.13295815 -0.09401561       0.005
   0.03838171  0.11079846 -0.10968488       0.005
   0.07676342  0.08863877 -0.12535414       0.005
   0.11514513  0.06647907 -0.14102341       0.005
  -0.07676342  0.17727753 -0.06267707       0.005
  -0.03838171  0.15511784 -0.07834634       0.005
   0.00000000 -0.08863877 -0.01566927       0.005
   0.03838171 -0.11079846 -0.03133854       0.005
   0.07676342 -0.13295815 -0.04700780       0.005
   0.11514513 -0.15511784 -0.06267707       0.005
  -0.07676342 -0.04431938  0.01566927       0.005
  -0.03838171 -0.06647907  0.00000000       0.005
   0.00000000 -0.04431938 -0.03133854       0.005
   0.03838171 -0.06647907 -0.04700780       0.005
   0.07676342 -0.08863877 -0.06267707       0.005
   0.11514513 -0.11079846 -0.07834634       0.005
  -0.07676342  0.00000000  0.00000000       0.005
  -0.03838171 -0.02215969 -0.01566927       0.005
 
 k-points in reciprocal lattice and weights: k-points                                
   0.00000000  0.00000000  0.00000000       0.005
   0.16666667  0.00000000  0.00000000       0.005
   0.33333333  0.00000000  0.00000000       0.005
   0.50000000  0.00000000  0.00000000       0.005
  -0.33333333 -0.00000000  0.00000000       0.005
  -0.16666667 -0.00000000 -0.00000000       0.005
  -0.00000000  0.16666667 -0.00000000       0.005
   0.16666667  0.16666667  0.00000000       0.005
   0.33333333  0.16666667 -0.00000000       0.005
   0.50000000  0.16666667  0.00000000       0.005
  -0.33333333  0.16666667 -0.00000000       0.005
  -0.16666667  0.16666667 -0.00000000       0.005
   0.00000000  0.33333333 -0.00000000       0.005
   0.16666667  0.33333333  0.00000000       0.005
   0.33333333  0.33333333  0.00000000       0.005
   0.50000000  0.33333333  0.00000000       0.005
  -0.33333333  0.33333333 -0.00000000       0.005
  -0.16666667  0.33333333 -0.00000000       0.005
   0.00000000  0.50000000 -0.00000000       0.005
   0.16666667  0.50000000  0.00000000       0.005
   0.33333333  0.50000000  0.00000000       0.005
   0.50000000  0.50000000  0.00000000       0.005
  -0.33333333  0.50000000 -0.00000000       0.005
  -0.16666667  0.50000000 -0.00000000       0.005
  -0.00000000 -0.33333333  0.00000000       0.005
   0.16666667 -0.33333333  0.00000000       0.005
   0.33333333 -0.33333333  0.00000000       0.005
   0.50000000 -0.33333333  0.00000000       0.005
  -0.33333333 -0.33333333 -0.00000000       0.005
  -0.16666667 -0.33333333  0.00000000       0.005
   0.00000000 -0.16666667  0.00000000       0.005
   0.16666667 -0.16666667  0.00000000       0.005
   0.33333333 -0.16666667  0.00000000       0.005
   0.50000000 -0.16666667  0.00000000       0.005
  -0.33333333 -0.16666667  0.00000000       0.005
  -0.16666667 -0.16666667  0.00000000       0.005
   0.00000000  0.00000000  0.16666667       0.005
   0.16666667  0.00000000  0.16666667       0.005
   0.33333333 -0.00000000  0.16666667       0.005
   0.50000000 -0.00000000  0.16666667       0.005
  -0.33333333 -0.00000000  0.16666667       0.005
  -0.16666667  0.00000000  0.16666667       0.005
  -0.00000000  0.16666667  0.16666667       0.005
   0.16666667  0.16666667  0.16666667       0.005
   0.33333333  0.16666667  0.16666667       0.005
   0.50000000  0.16666667  0.16666667       0.005
  -0.33333333  0.16666667  0.16666667       0.005
  -0.16666667  0.16666667  0.16666667       0.005
  -0.00000000  0.33333333  0.16666667       0.005
   0.16666667  0.33333333  0.16666667       0.005
   0.33333333  0.33333333  0.16666667       0.005
   0.50000000  0.33333333  0.16666667       0.005
  -0.33333333  0.33333333  0.16666667       0.005
  -0.16666667  0.33333333  0.16666667       0.005
  -0.00000000  0.50000000  0.16666667       0.005
   0.16666667  0.50000000  0.16666667       0.005
   0.33333333  0.50000000  0.16666667       0.005
   0.50000000  0.50000000  0.16666667       0.005
  -0.33333333  0.50000000  0.16666667       0.005
  -0.16666667  0.50000000  0.16666667       0.005
  -0.00000000 -0.33333333  0.16666667       0.005
   0.16666667 -0.33333333  0.16666667       0.005
   0.33333333 -0.33333333  0.16666667       0.005
   0.50000000 -0.33333333  0.16666667       0.005
  -0.33333333 -0.33333333  0.16666667       0.005
  -0.16666667 -0.33333333  0.16666667       0.005
   0.00000000 -0.16666667  0.16666667       0.005
   0.16666667 -0.16666667  0.16666667       0.005
   0.33333333 -0.16666667  0.16666667       0.005
   0.50000000 -0.16666667  0.16666667       0.005
  -0.33333333 -0.16666667  0.16666667       0.005
  -0.16666667 -0.16666667  0.16666667       0.005
   0.00000000  0.00000000  0.33333333       0.005
   0.16666667  0.00000000  0.33333333       0.005
   0.33333333  0.00000000  0.33333333       0.005
   0.50000000 -0.00000000  0.33333333       0.005
  -0.33333333  0.00000000  0.33333333       0.005
  -0.16666667  0.00000000  0.33333333       0.005
  -0.00000000  0.16666667  0.33333333       0.005
   0.16666667  0.16666667  0.33333333       0.005
   0.33333333  0.16666667  0.33333333       0.005
   0.50000000  0.16666667  0.33333333       0.005
  -0.33333333  0.16666667  0.33333333       0.005
  -0.16666667  0.16666667  0.33333333       0.005
  -0.00000000  0.33333333  0.33333333       0.005
   0.16666667  0.33333333  0.33333333       0.005
   0.33333333  0.33333333  0.33333333       0.005
   0.50000000  0.33333333  0.33333333       0.005
  -0.33333333  0.33333333  0.33333333       0.005
  -0.16666667  0.33333333  0.33333333       0.005
   0.00000000  0.50000000  0.33333333       0.005
   0.16666667  0.50000000  0.33333333       0.005
   0.33333333  0.50000000  0.33333333       0.005
   0.50000000  0.50000000  0.33333333       0.005
  -0.33333333  0.50000000  0.33333333       0.005
  -0.16666667  0.50000000  0.33333333       0.005
   0.00000000 -0.33333333  0.33333333       0.005
   0.16666667 -0.33333333  0.33333333       0.005
   0.33333333 -0.33333333  0.33333333       0.005
   0.50000000 -0.33333333  0.33333333       0.005
  -0.33333333 -0.33333333  0.33333333       0.005
  -0.16666667 -0.33333333  0.33333333       0.005
   0.00000000 -0.16666667  0.33333333       0.005
   0.16666667 -0.16666667  0.33333333       0.005
   0.33333333 -0.16666667  0.33333333       0.005
   0.50000000 -0.16666667  0.33333333       0.005
  -0.33333333 -0.16666667  0.33333333       0.005
  -0.16666667 -0.16666667  0.33333333       0.005
   0.00000000  0.00000000  0.50000000       0.005
   0.16666667  0.00000000  0.50000000       0.005
   0.33333333  0.00000000  0.50000000       0.005
   0.50000000 -0.00000000  0.50000000       0.005
  -0.33333333  0.00000000  0.50000000       0.005
  -0.16666667  0.00000000  0.50000000       0.005
  -0.00000000  0.16666667  0.50000000       0.005
   0.16666667  0.16666667  0.50000000       0.005
   0.33333333  0.16666667  0.50000000       0.005
   0.50000000  0.16666667  0.50000000       0.005
  -0.33333333  0.16666667  0.50000000       0.005
  -0.16666667  0.16666667  0.50000000       0.005
   0.00000000  0.33333333  0.50000000       0.005
   0.16666667  0.33333333  0.50000000       0.005
   0.33333333  0.33333333  0.50000000       0.005
   0.50000000  0.33333333  0.50000000       0.005
  -0.33333333  0.33333333  0.50000000       0.005
  -0.16666667  0.33333333  0.50000000       0.005
  -0.00000000  0.50000000  0.50000000       0.005
   0.16666667  0.50000000  0.50000000       0.005
   0.33333333  0.50000000  0.50000000       0.005
   0.50000000  0.50000000  0.50000000       0.005
  -0.33333333  0.50000000  0.50000000       0.005
  -0.16666667  0.50000000  0.50000000       0.005
   0.00000000 -0.33333333  0.50000000       0.005
   0.16666667 -0.33333333  0.50000000       0.005
   0.33333333 -0.33333333  0.50000000       0.005
   0.50000000 -0.33333333  0.50000000       0.005
  -0.33333333 -0.33333333  0.50000000       0.005
  -0.16666667 -0.33333333  0.50000000       0.005
   0.00000000 -0.16666667  0.50000000       0.005
   0.16666667 -0.16666667  0.50000000       0.005
   0.33333333 -0.16666667  0.50000000       0.005
   0.50000000 -0.16666667  0.50000000       0.005
  -0.33333333 -0.16666667  0.50000000       0.005
  -0.16666667 -0.16666667  0.50000000       0.005
   0.00000000  0.00000000 -0.33333333       0.005
   0.16666667 -0.00000000 -0.33333333       0.005
   0.33333333 -0.00000000 -0.33333333       0.005
   0.50000000  0.00000000 -0.33333333       0.005
  -0.33333333 -0.00000000 -0.33333333       0.005
  -0.16666667 -0.00000000 -0.33333333       0.005
  -0.00000000  0.16666667 -0.33333333       0.005
   0.16666667  0.16666667 -0.33333333       0.005
   0.33333333  0.16666667 -0.33333333       0.005
   0.50000000  0.16666667 -0.33333333       0.005
  -0.33333333  0.16666667 -0.33333333       0.005
  -0.16666667  0.16666667 -0.33333333       0.005
   0.00000000  0.33333333 -0.33333333       0.005
   0.16666667  0.33333333 -0.33333333       0.005
   0.33333333  0.33333333 -0.33333333       0.005
   0.50000000  0.33333333 -0.33333333       0.005
  -0.33333333  0.33333333 -0.33333333       0.005
  -0.16666667  0.33333333 -0.33333333       0.005
  -0.00000000  0.50000000 -0.33333333       0.005
   0.16666667  0.50000000 -0.33333333       0.005
   0.33333333  0.50000000 -0.33333333       0.005
   0.50000000  0.50000000 -0.33333333       0.005
  -0.33333333  0.50000000 -0.33333333       0.005
  -0.16666667  0.50000000 -0.33333333       0.005
   0.00000000 -0.33333333 -0.33333333       0.005
   0.16666667 -0.33333333 -0.33333333       0.005
   0.33333333 -0.33333333 -0.33333333       0.005
   0.50000000 -0.33333333 -0.33333333       0.005
  -0.33333333 -0.33333333 -0.33333333       0.005
  -0.16666667 -0.33333333 -0.33333333       0.005
   0.00000000 -0.16666667 -0.33333333       0.005
   0.16666667 -0.16666667 -0.33333333       0.005
   0.33333333 -0.16666667 -0.33333333       0.005
   0.50000000 -0.16666667 -0.33333333       0.005
  -0.33333333 -0.16666667 -0.33333333       0.005
  -0.16666667 -0.16666667 -0.33333333       0.005
  -0.00000000 -0.00000000 -0.16666667       0.005
   0.16666667 -0.00000000 -0.16666667       0.005
   0.33333333  0.00000000 -0.16666667       0.005
   0.50000000  0.00000000 -0.16666667       0.005
  -0.33333333  0.00000000 -0.16666667       0.005
  -0.16666667 -0.00000000 -0.16666667       0.005
  -0.00000000  0.16666667 -0.16666667       0.005
   0.16666667  0.16666667 -0.16666667       0.005
   0.33333333  0.16666667 -0.16666667       0.005
   0.50000000  0.16666667 -0.16666667       0.005
  -0.33333333  0.16666667 -0.16666667       0.005
  -0.16666667  0.16666667 -0.16666667       0.005
   0.00000000  0.33333333 -0.16666667       0.005
   0.16666667  0.33333333 -0.16666667       0.005
   0.33333333  0.33333333 -0.16666667       0.005
   0.50000000  0.33333333 -0.16666667       0.005
  -0.33333333  0.33333333 -0.16666667       0.005
  -0.16666667  0.33333333 -0.16666667       0.005
  -0.00000000  0.50000000 -0.16666667       0.005
   0.16666667  0.50000000 -0.16666667       0.005
   0.33333333  0.50000000 -0.16666667       0.005
   0.50000000  0.50000000 -0.16666667       0.005
  -0.33333333  0.50000000 -0.16666667       0.005
  -0.16666667  0.50000000 -0.16666667       0.005
   0.00000000 -0.33333333 -0.16666667       0.005
   0.16666667 -0.33333333 -0.16666667       0.005
   0.33333333 -0.33333333 -0.16666667       0.005
   0.50000000 -0.33333333 -0.16666667       0.005
  -0.33333333 -0.33333333 -0.16666667       0.005
  -0.16666667 -0.33333333 -0.16666667       0.005
   0.00000000 -0.16666667 -0.16666667       0.005
   0.16666667 -0.16666667 -0.16666667       0.005
   0.33333333 -0.16666667 -0.16666667       0.005
   0.50000000 -0.16666667 -0.16666667       0.005
  -0.33333333 -0.16666667 -0.16666667       0.005
  -0.16666667 -0.16666667 -0.16666667       0.005
 
 position of ions in fractional coordinates (direct lattice) 
   0.00000000  0.00000000  0.00000000
 
 position of ions in cartesian coordinates  (Angst):
   0.00000000  0.00000000  0.00000000
 
 Euler angles ALPHA=     0.0000000  BETA=     0.0000000

 transformation matrix from SAXIS to cartesian coordinates
 ---------------------------------------------------------
     1.0000000 m_x     0.0000000 m_y     0.0000000 m_z
     0.0000000 m_x     1.0000000 m_y     0.0000000 m_z
     0.0000000 m_x     0.0000000 m_y     1.0000000 m_z

 transformation matrix from cartesian coordinates to SAXIS
 ---------------------------------------------------------
     1.0000000 m_x     0.0000000 m_y     0.0000000 m_z
     0.0000000 m_x     1.0000000 m_y     0.0000000 m_z
     0.0000000 m_x     0.0000000 m_y     1.0000000 m_z




--------------------------------------------------------------------------------------------------------


 k-point  1 :   0.0000 0.0000 0.0000  plane waves:    1402
 k-point  2 :   0.1667 0.0000 0.0000  plane waves:    1346
 k-point  3 :   0.3333 0.0000 0.0000  plane waves:    1370
 k-point  4 :   0.5000 0.0000 0.0000  plane waves:    1400
 k-point  5 :  -0.3333-0.0000 0.0000  plane waves:    1370
 k-point  6 :  -0.1667-0.0000-0.0000  plane waves:    1346
 k-point  7 :  -0.0000 0.1667-0.0000  plane waves:    1346
 k-point  8 :   0.1667 0.1667 0.0000  plane waves:    1362
 k-point  9 :   0.3333 0.1667-0.0000  plane waves:    1360
 k-point 10 :   0.5000 0.1667 0.0000  plane waves:    1356
 k-point 11 :  -0.3333 0.1667-0.0000  plane waves:    1368
 k-point 12 :  -0.1667 0.1667-0.0000  plane waves:    1348
 k-point 13 :   0.0000 0.3333-0.0000  plane waves:    1370
 k-point 14 :   0.1667 0.3333 0.0000  plane waves:    1360
 k-point 15 :   0.3333 0.3333 0.0000  plane waves:    1386
 k-point 16 :   0.5000 0.3333 0.0000  plane waves:    1372
 k-point 17 :  -0.3333 0.3333-0.0000  plane waves:    1360
 k-point 18 :  -0.1667 0.3333-0.0000  plane waves:    1368
 k-point 19 :   0.0000 0.5000-0.0000  plane waves:    1400
 k-point 20 :   0.1667 0.5000 0.0000  plane waves:    1356
 k-point 21 :   0.3333 0.5000 0.0000  plane waves:    1372
 k-point 22 :   0.5000 0.5000 0.0000  plane waves:    1384
 k-point 23 :  -0.3333 0.5000-0.0000  plane waves:    1372
 k-point 24 :  -0.1667 0.5000-0.0000  plane waves:    1356
 k-point 25 :  -0.0000-0.3333 0.0000  plane waves:    1370
 k-point 26 :   0.1667-0.3333 0.0000  plane waves:    1368
 k-point 27 :   0.3333-0.3333 0.0000  plane waves:    1360
 k-point 28 :   0.5000-0.3333 0.0000  plane waves:    1372
 k-point 29 :  -0.3333-0.3333-0.0000  plane waves:    1386
 k-point 30 :  -0.1667-0.3333 0.0000  plane waves:    1360
 k-point 31 :   0.0000-0.1667 0.0000  plane waves:    1346
 k-point 32 :   0.1667-0.1667 0.0000  plane waves:    1348
 k-point 33 :   0.3333-0.1667 0.0000  plane waves:    1368
 k-point 34 :   0.5000-0.1667 0.0000  plane waves:    1356
 k-point 35 :  -0.3333-0.1667 0.0000  plane waves:    1360
 k-point 36 :  -0.1667-0.1667 0.0000  plane waves:    1362
 k-point 37 :   0.0000 0.0000 0.1667  plane waves:    1346
 k-point 38 :   0.1667 0.0000 0.1667  plane waves:    1362
 k-point 39 :   0.3333-0.0000 0.1667  plane waves:    1360
 k-point 40 :   0.5000-0.0000 0.1667  plane waves:    1356
 k-point 41 :  -0.3333-0.0000 0.1667  plane waves:    1368
 k-point 42 :  -0.1667 0.0000 0.1667  plane waves:    1348
 k-point 43 :  -0.0000 0.1667 0.1667  plane waves:    1362
 k-point 44 :   0.1667 0.1667 0.1667  plane waves:    1346
 k-point 45 :   0.3333 0.1667 0.1667  plane waves:    1348
 k-point 46 :   0.5000 0.1667 0.1667  plane waves:    1368
 k-point 47 :  -0.3333 0.1667 0.1667  plane waves:    1356
 k-point 48 :  -0.1667 0.1667 0.1667  plane waves:    1360
 k-point 49 :  -0.0000 0.3333 0.1667  plane waves:    1360
 k-point 50 :   0.1667 0.3333 0.1667  plane waves:    1348
 k-point 51 :   0.3333 0.3333 0.1667  plane waves:    1360
 k-point 52 :   0.5000 0.3333 0.1667  plane waves:    1352
 k-point 53 :  -0.3333 0.3333 0.1667  plane waves:    1384
 k-point 54 :  -0.1667 0.3333 0.1667  plane waves:    1352
 k-point 55 :  -0.0000 0.5000 0.1667  plane waves:    1356
 k-point 56 :   0.1667 0.5000 0.1667  plane waves:    1368
 k-point 57 :   0.3333 0.5000 0.1667  plane waves:    1352
 k-point 58 :   0.5000 0.5000 0.1667  plane waves:    1372
 k-point 59 :  -0.3333 0.5000 0.1667  plane waves:    1380
 k-point 60 :  -0.1667 0.5000 0.1667  plane waves:    1384
 k-point 61 :  -0.0000-0.3333 0.1667  plane waves:    1368
 k-point 62 :   0.1667-0.3333 0.1667  plane waves:    1356
 k-point 63 :   0.3333-0.3333 0.1667  plane waves:    1384
 k-point 64 :   0.5000-0.3333 0.1667  plane waves:    1380
 k-point 65 :  -0.3333-0.3333 0.1667  plane waves:    1372
 k-point 66 :  -0.1667-0.3333 0.1667  plane waves:    1352
 k-point 67 :   0.0000-0.1667 0.1667  plane waves:    1348
 k-point 68 :   0.1667-0.1667 0.1667  plane waves:    1360
 k-point 69 :   0.3333-0.1667 0.1667  plane waves:    1352
 k-point 70 :   0.5000-0.1667 0.1667  plane waves:    1384
 k-point 71 :  -0.3333-0.1667 0.1667  plane waves:    1352
 k-point 72 :  -0.1667-0.1667 0.1667  plane waves:    1360
 k-point 73 :   0.0000 0.0000 0.3333  plane waves:    1370
 k-point 74 :   0.1667 0.0000 0.3333  plane waves:    1360
 k-point 75 :   0.3333 0.0000 0.3333  plane waves:    1386
 k-point 76 :   0.5000-0.0000 0.3333  plane waves:    1372
 k-point 77 :  -0.3333 0.0000 0.3333  plane waves:    1360
 k-point 78 :  -0.1667 0.0000 0.3333  plane waves:    1368
 k-point 79 :  -0.0000 0.1667 0.3333  plane waves:    1360
 k-point 80 :   0.1667 0.1667 0.3333  plane waves:    1348
 k-point 81 :   0.3333 0.1667 0.3333  plane waves:    1360
 k-point 82 :   0.5000 0.1667 0.3333  plane waves:    1352
 k-point 83 :  -0.3333 0.1667 0.3333  plane waves:    1384
 k-point 84 :  -0.1667 0.1667 0.3333  plane waves:    1352
 k-point 85 :  -0.0000 0.3333 0.3333  plane waves:    1386
 k-point 86 :   0.1667 0.3333 0.3333  plane waves:    1360
 k-point 87 :   0.3333 0.3333 0.3333  plane waves:    1370
 k-point 88 :   0.5000 0.3333 0.3333  plane waves:    1368
 k-point 89 :  -0.3333 0.3333 0.3333  plane waves:    1360
 k-point 90 :  -0.1667 0.3333 0.3333  plane waves:    1372
 k-point 91 :   0.0000 0.5000 0.3333  plane waves:    1372
 k-point 92 :   0.1667 0.5000 0.3333  plane waves:    1352
 k-point 93 :   0.3333 0.5000 0.3333  plane waves:    1368
 k-point 94 :   0.5000 0.5000 0.3333  plane waves:    1356
 k-point 95 :  -0.3333 0.5000 0.3333  plane waves:    1384
 k-point 96 :  -0.1667 0.5000 0.3333  plane waves:    1380
 k-point 97 :   0.0000-0.3333 0.3333  plane waves:    1360
 k-point 98 :   0.1667-0.3333 0.3333  plane waves:    1384
 k-point 99 :   0.3333-0.3333 0.3333  plane waves:    1360
[...]
     10     -32.8383     -32.8754     -32.8753     -32.8875       0.7519       1.0000
     11     -25.0334     -25.0544     -25.0454     -25.0492       0.7621       1.0000
     12     -25.0333     -25.0543     -25.0454     -25.0492       0.7632       1.0000
     13      -9.9486      -9.9599      -9.9597      -9.9631       0.7646       1.0000
     14      -9.9485      -9.9598      -9.9596      -9.9630       0.7640       1.0000
     15      -0.3152      -0.3209      -0.3224      -0.3243       0.7894       1.0000
     16      -0.3147      -0.3205      -0.3220      -0.3239       0.7898       1.0000
     17       1.5587       1.5547       1.5549       1.5540       0.8076       1.0000
     18       1.5595       1.5553       1.5555       1.5545       0.8081       1.0000
     19       6.9495       6.9556       6.9501       6.9502       0.8224       0.0000
     20       6.9497       6.9557       6.9502       6.9503       0.8223       0.0000
     21       9.4606       9.4692       9.4690       9.4709       0.8105       0.0000
     22       9.4606       9.4692       9.4690       9.4709       0.8104       0.0000
     23      10.0514      10.0602      10.0595      10.0615       0.8088       0.0000
     24      10.0515      10.0603      10.0596      10.0616       0.8086       0.0000
     25      12.1318      12.1417      12.1414      12.1438       0.8034       0.0000
     26      12.1319      12.1418      12.1415      12.1438       0.8033       0.0000
     27      13.5293      13.5396      13.5388      13.5411       0.8026       0.0000
     28      13.5294      13.5397      13.5389      13.5413       0.8025       0.0000
     29      14.4239      14.4345      14.4344      14.4370       0.8015       0.0000
     30      14.4240      14.4347      14.4345      14.4372       0.8015       0.0000
     31      15.3487      15.3597      15.3593      15.3620       0.8016       0.0000
     32      15.3491      15.3600      15.3597      15.3623       0.8015       0.0000
     33      17.3409      17.3519      17.3517      17.3543       0.8079       0.0000
     34      17.3411      17.3522      17.3520      17.3545       0.8078       0.0000
     35      18.0129      18.0240      18.0238      18.0264       0.8027       0.0000
     36      18.0130      18.0241      18.0238      18.0265       0.8027       0.0000
     37      19.2240      19.2343      19.2337      19.2360       0.8061       0.0000
     38      19.2249      19.2352      19.2345      19.2368       0.8059       0.0000
     39      19.6003      19.6104      19.6093      19.6115       0.8064       0.0000
     40      19.6008      19.6110      19.6098      19.6120       0.8062       0.0000
 

 k-point 213 :       0.3333   -0.1667   -0.1667
  band No. DFT-energies  QP-energies  QP-e(diag)   sigma(DFT)    Z            occupation

      1     -40.3725     -40.4172     -40.4165     -40.4319       0.7409       1.0000
      2     -40.3723     -40.4171     -40.4166     -40.4320       0.7418       1.0000
      3     -40.3635     -40.4071     -40.4067     -40.4213       0.7465       1.0000
      4     -40.3634     -40.4071     -40.4067     -40.4213       0.7471       1.0000
      5     -32.8457     -32.8834     -32.8832     -32.8959       0.7466       1.0000
      6     -32.8455     -32.8833     -32.8832     -32.8960       0.7469       1.0000
      7     -32.8421     -32.8796     -32.8795     -32.8920       0.7487       1.0000
      8     -32.8420     -32.8796     -32.8795     -32.8920       0.7490       1.0000
      9     -32.8410     -32.8784     -32.8783     -32.8908       0.7498       1.0000
     10     -32.8409     -32.8784     -32.8783     -32.8908       0.7502       1.0000
     11     -24.9876     -25.0083     -25.0022     -25.0067       0.7640       1.0000
     12     -24.9875     -25.0082     -25.0022     -25.0067       0.7648       1.0000
     13     -10.0604     -10.0720     -10.0715     -10.0750       0.7609       1.0000
     14     -10.0603     -10.0719     -10.0714     -10.0749       0.7616       1.0000
     15      -0.8945      -0.9011      -0.8995      -0.9009       0.7812       1.0000
     16      -0.8939      -0.9007      -0.8991      -0.9005       0.7817       1.0000
     17       1.2130       1.2088       1.2089       1.2078       0.8037       1.0000
     18       1.2138       1.2093       1.2094       1.2084       0.8041       1.0000
     19       7.2509       7.2577       7.2535       7.2541       0.8210       0.0000
     20       7.2510       7.2578       7.2536       7.2541       0.8209       0.0000
     21       9.2086       9.2169       9.2167       9.2186       0.8111       0.0000
     22       9.2087       9.2170       9.2168       9.2187       0.8110       0.0000
     23      11.1618      11.1712      11.1706      11.1727       0.8047       0.0000
     24      11.1619      11.1713      11.1707      11.1728       0.8046       0.0000
     25      11.8799      11.8897      11.8890      11.8912       0.8036       0.0000
     26      11.8799      11.8897      11.8891      11.8913       0.8036       0.0000
     27      13.6500      13.6603      13.6596      13.6620       0.8025       0.0000
     28      13.6501      13.6603      13.6598      13.6622       0.8024       0.0000
     29      14.5784      14.5896      14.5889      14.5915       0.7983       0.0000
     30      14.5786      14.5897      14.5890      14.5917       0.7983       0.0000
     31      16.1771      16.1885      16.1877      16.1905       0.7975       0.0000
     32      16.1772      16.1886      16.1879      16.1906       0.7973       0.0000
     33      17.4739      17.4836      17.4824      17.4843       0.8164       0.0000
     34      17.4741      17.4839      17.4826      17.4845       0.8163       0.0000
     35      18.3028      18.3131      18.3126      18.3149       0.8093       0.0000
     36      18.3037      18.3140      18.3135      18.3158       0.8092       0.0000
     37      20.5762      20.5885      20.5882      20.5913       0.7944       0.0000
     38      20.5764      20.5887      20.5884      20.5915       0.7942       0.0000
     39      21.0664      21.0782      21.0777      21.0806       0.7920       0.0000
     40      21.0681      21.0799      21.0793      21.0823       0.7918       0.0000
 

 k-point 214 :       0.5000   -0.1667   -0.1667
  band No. DFT-energies  QP-energies  QP-e(diag)   sigma(DFT)    Z            occupation

      1     -40.3759     -40.4209     -40.4203     -40.4360       0.7384       1.0000
      2     -40.3758     -40.4209     -40.4203     -40.4360       0.7388       1.0000
      3     -40.3680     -40.4123     -40.4118     -40.4269       0.7433       1.0000
      4     -40.3679     -40.4123     -40.4118     -40.4269       0.7443       1.0000
      5     -32.8522     -32.8905     -32.8903     -32.9035       0.7430       1.0000
      6     -32.8521     -32.8904     -32.8903     -32.9035       0.7431       1.0000
      7     -32.8455     -32.8830     -32.8829     -32.8955       0.7471       1.0000
      8     -32.8453     -32.8830     -32.8829     -32.8956       0.7474       1.0000
      9     -32.8407     -32.8780     -32.8779     -32.8903       0.7506       1.0000
     10     -32.8406     -32.8780     -32.8779     -32.8903       0.7509       1.0000
     11     -24.9989     -25.0198     -25.0130     -25.0174       0.7620       1.0000
     12     -24.9988     -25.0198     -25.0130     -25.0174       0.7630       1.0000
     13     -10.0333     -10.0448     -10.0444     -10.0478       0.7639       1.0000
     14     -10.0332     -10.0447     -10.0443     -10.0477       0.7631       1.0000
     15      -0.7817      -0.7881      -0.7873      -0.7888       0.7846       1.0000
     16      -0.7812      -0.7877      -0.7869      -0.7885       0.7846       1.0000
     17       1.2920       1.2878       1.2879       1.2869       0.8054       1.0000
     18       1.2927       1.2883       1.2884       1.2874       0.8054       1.0000
     19       7.3495       7.3563       7.3517       7.3521       0.8200       0.0000
     20       7.3496       7.3564       7.3518       7.3522       0.8197       0.0000
     21       9.3499       9.3582       9.3581       9.3600       0.8106       0.0000
     22       9.3500       9.3583       9.3582       9.3601       0.8104       0.0000
     23      10.9948      11.0042      11.0036      11.0057       0.8041       0.0000
     24      10.9949      11.0043      11.0036      11.0058       0.8040       0.0000
     25      11.6555      11.6649      11.6644      11.6666       0.8058       0.0000
     26      11.6555      11.6649      11.6645      11.6667       0.8057       0.0000
     27      13.7975      13.8081      13.8079      13.8105       0.8010       0.0000
     28      13.7976      13.8082      13.8080      13.8106       0.8009       0.0000
     29      14.2251      14.2358      14.2356      14.2382       0.8013       0.0000
     30      14.2252      14.2359      14.2356      14.2382       0.8013       0.0000
     31      15.0169      15.0279      15.0268      15.0293       0.8005       0.0000
     32      15.0171      15.0281      15.0270      15.0294       0.8004       0.0000
     33      17.9701      17.9802      17.9795      17.9816       0.8127       0.0000
     34      17.9702      17.9804      17.9796      17.9817       0.8127       0.0000
     35      18.8105      18.8211      18.8204      18.8228       0.8069       0.0000
     36      18.8109      18.8215      18.8207      18.8230       0.8068       0.0000
     37      20.2507      20.2612      20.2603      20.2627       0.8004       0.0000
     38      20.2512      20.2616      20.2608      20.2632       0.8003       0.0000
     39      20.5662      20.5782      20.5776      20.5806       0.7950       0.0000
     40      20.5664      20.5784      20.5779      20.5808       0.7948       0.0000
 

 k-point 215 :      -0.3333   -0.1667   -0.1667
  band No. DFT-energies  QP-energies  QP-e(diag)   sigma(DFT)    Z            occupation

      1     -40.3701     -40.4147     -40.4140     -40.4293       0.7423       1.0000
      2     -40.3701     -40.4147     -40.4140     -40.4293       0.7424       1.0000
      3     -40.3630     -40.4065     -40.4060     -40.4205       0.7472       1.0000
      4     -40.3629     -40.4065     -40.4060     -40.4205       0.7473       1.0000
      5     -32.8492     -32.8872     -32.8871     -32.9001       0.7444       1.0000
      6     -32.8492     -32.8872     -32.8871     -32.9001       0.7446       1.0000
      7     -32.8443     -32.8819     -32.8818     -32.8943       0.7491       1.0000
      8     -32.8442     -32.8819     -32.8818     -32.8943       0.7491       1.0000
      9     -32.8416     -32.8792     -32.8791     -32.8918       0.7473       1.0000
     10     -32.8416     -32.8792     -32.8791     -32.8918       0.7473       1.0000
     11     -25.0556     -25.0765     -25.0667     -25.0701       0.7628       1.0000
     12     -25.0555     -25.0765     -25.0666     -25.0701       0.7633       1.0000
     13      -9.8949      -9.9061      -9.9060      -9.9094       0.7653       1.0000
     14      -9.8948      -9.9060      -9.9059      -9.9093       0.7648       1.0000
     15      -0.0504      -0.0556      -0.0581      -0.0601       0.7948       1.0000
     16      -0.0501      -0.0554      -0.0579      -0.0599       0.7948       1.0000
     17       1.8384       1.8346       1.8347       1.8338       0.8105       1.0000
     18       1.8388       1.8349       1.8350       1.8341       0.8105       1.0000
     19       6.6172       6.6227       6.6161       6.6158       0.8253       0.0000
     20       6.6174       6.6228       6.6162       6.6159       0.8253       0.0000
     21       9.8320       9.8409       9.8407       9.8427       0.8079       0.0000
     22       9.8320       9.8409       9.8407       9.8428       0.8079       0.0000
     23      10.6358      10.6449      10.6446      10.6467       0.8059       0.0000
     24      10.6358      10.6449      10.6447      10.6468       0.8059       0.0000
     25      11.9217      11.9314      11.9312      11.9335       0.8044       0.0000
     26      11.9218      11.9315      11.9313      11.9336       0.8044       0.0000
     27      12.2219      12.2318      12.2316      12.2340       0.8048       0.0000
     28      12.2220      12.2319      12.2317      12.2341       0.8047       0.0000
     29      14.2004      14.2113      14.2111      14.2137       0.8001       0.0000
     30      14.2004      14.2114      14.2111      14.2137       0.8000       0.0000
     31      14.8937      14.9044      14.9041      14.9066       0.8030       0.0000
     32      14.8938      14.9044      14.9041      14.9066       0.8030       0.0000
     33      16.1841      16.1947      16.1942      16.1966       0.8067       0.0000
     34      16.1842      16.1947      16.1942      16.1967       0.8068       0.0000
     35      17.1981      17.2092      17.2091      17.2118       0.8058       0.0000
     36      17.1982      17.2094      17.2093      17.2120       0.8057       0.0000
     37      19.4802      19.4902      19.4895      19.4917       0.8057       0.0000
     38      19.4804      19.4905      19.4897      19.4919       0.8057       0.0000
     39      19.7952      19.8061      19.8055      19.8082       0.7979       0.0000
     40      19.7953      19.8062      19.8057      19.8083       0.7978       0.0000
 

 k-point 216 :      -0.1667   -0.1667   -0.1667
  band No. DFT-energies  QP-energies  QP-e(diag)   sigma(DFT)    Z            occupation

      1     -40.3654     -40.4091     -40.4087     -40.4234       0.7455       1.0000
      2     -40.3653     -40.4091     -40.4086     -40.4234       0.7455       1.0000
      3     -40.3650     -40.4088     -40.4083     -40.4231       0.7461       1.0000
      4     -40.3649     -40.4088     -40.4083     -40.4231       0.7462       1.0000
      5     -32.8479     -32.8860     -32.8859     -32.8988       0.7466       1.0000
      6     -32.8479     -32.8860     -32.8859     -32.8988       0.7468       1.0000
      7     -32.8474     -32.8852     -32.8851     -32.8979       0.7473       1.0000
      8     -32.8472     -32.8852     -32.8851     -32.8979       0.7475       1.0000
      9     -32.8410     -32.8788     -32.8787     -32.8914       0.7484       1.0000
     10     -32.8410     -32.8788     -32.8787     -32.8914       0.7490       1.0000
     11     -25.1005     -25.1213     -25.1090     -25.1116       0.7635       1.0000
     12     -25.1004     -25.1213     -25.1090     -25.1116       0.7637       1.0000
     13      -9.7830      -9.7939      -9.7939      -9.7973       0.7661       1.0000
     14      -9.7829      -9.7938      -9.7939      -9.7972       0.7659       1.0000
     15       0.8062       0.8024       0.7979       0.7958       0.8045       1.0000
     16       0.8065       0.8026       0.7981       0.7960       0.8047       1.0000
     17       2.4147       2.4111       2.4112       2.4105       0.8154       1.0000
     18       2.4151       2.4114       2.4116       2.4108       0.8156       1.0000
     19       5.2876       5.2916       5.2832       5.2824       0.8314       0.0000
     20       5.2878       5.2918       5.2834       5.2825       0.8311       0.0000
     21      10.2525      10.2617      10.2615      10.2637       0.8065       0.0000
     22      10.2526      10.2618      10.2616      10.2638       0.8064       0.0000
     23      11.5956      11.6058      11.6055      11.6079       0.8022       0.0000
     24      11.5958      11.6059      11.6056      11.6080       0.8020       0.0000
     25      11.7352      11.7445      11.7444      11.7466       0.8080       0.0000
     26      11.7353      11.7445      11.7444      11.7466       0.8079       0.0000
     27      12.8541      12.8644      12.8644      12.8669       0.7994       0.0000
     28      12.8542      12.8644      12.8645      12.8670       0.7993       0.0000
     29      13.1694      13.1797      13.1795      13.1820       0.8023       0.0000
     30      13.1696      13.1799      13.1797      13.1822       0.8024       0.0000
     31      13.3084      13.3185      13.3184      13.3209       0.8037       0.0000
     32      13.3085      13.3187      13.3186      13.3210       0.8037       0.0000
     33      14.6463      14.6572      14.6571      14.6598       0.8012       0.0000
     34      14.6463      14.6572      14.6571      14.6598       0.8012       0.0000
     35      17.0181      17.0290      17.0288      17.0314       0.8044       0.0000
     36      17.0183      17.0292      17.0290      17.0316       0.8044       0.0000
     37      17.2774      17.2883      17.2881      17.2906       0.8051       0.0000
     38      17.2774      17.2884      17.2881      17.2906       0.8050       0.0000
     39      18.6768      18.6842      18.6836      18.6850       0.8287       0.0000
     40      18.6769      18.6843      18.6837      18.6851       0.8285       0.0000
 


--------------------------------------------------------------------------------------------------------



IMPORTANT INFORMATION: All symmetrisations will be switched off!
NOSYMM: (Re-)initialisation of all symmetry stuff for point group C_1.

   GW_DIAG:  cpu time    2.2510: real time    2.2660
    GWLOOP:  cpu time 3550.5717: real time 3552.3842
 writing wavefunctions
    --------------------------------------------
   GWTOTAL:  cpu time 3552.5952: real time 3555.5171
    4ORBIT:  cpu time    0.0000: real time    0.0000

 Spin-Orbit-Coupling matrix elements

 Ion:    1  E_soc:    -33.0990946
 l=   1
     0.0000000    -5.1017096    -5.1017096
    -5.1017096     0.0000000    -5.1017095
    -5.1017096    -5.1017095     0.0000000
 l=   2
     0.0000000    -0.0829776     0.0000000    -0.0829776    -0.3318012
    -0.0829776     0.0000000    -0.2488509    -0.0830050    -0.0829776
     0.0000000    -0.2488509     0.0000000    -0.2488509     0.0000000
    -0.0829776    -0.0830050    -0.2488509     0.0000000    -0.0829776
    -0.3318012    -0.0829776     0.0000000    -0.0829776     0.0000000
 l=   3
     0.0000000     0.0000000     0.0000000     0.0000000     0.0000000     0.0000000     0.0000000
     0.0000000     0.0000000     0.0000000     0.0000000     0.0000000     0.0000000     0.0000000
     0.0000000     0.0000000     0.0000000     0.0000000     0.0000000     0.0000000     0.0000000
     0.0000000     0.0000000     0.0000000     0.0000000     0.0000000     0.0000000     0.0000000
     0.0000000     0.0000000     0.0000000     0.0000000     0.0000000     0.0000000     0.0000000
     0.0000000     0.0000000     0.0000000     0.0000000     0.0000000     0.0000000     0.0000000
     0.0000000     0.0000000     0.0000000     0.0000000     0.0000000     0.0000000     0.0000000

 total amount of memory used by VASP MPI-rank0   238264. kBytes
=======================================================================

   base      :      30000. kBytes
   nonl-proj :      21908. kBytes
   fftplans  :      12947. kBytes
   grid      :      12644. kBytes
   one-center:         62. kBytes
   HF        :        129. kBytes
   nonlr-proj:        437. kBytes
   wavefun   :     160137. kBytes
   2eintegral:          0. kBytes
   fockhandle:          0. kBytes
   response  :          0. kBytes
   cacher    :          0. kBytes
 
  
  
 General timing and accounting informations for this job:
 ========================================================
  
                  Total CPU time used (sec):     3561.494
                            User time (sec):     3544.730
                          System time (sec):       16.764
                         Elapsed time (sec):     3564.419
  
                   Maximum memory used (kb):     1878200.
                   Average memory used (kb):           0.
  
                          Minor page faults:       430333
                          Major page faults:            0
                 Voluntary context switches:        11157
