Rn_FCC                                  
   1.00000000000000     
     4.520565    0.000000    0.000000
     2.260282    3.914924   -0.000000
     2.260282    1.304975    3.691026
   Rn
     1
Direct
  0.000000  0.000000  0.000000
 
   56   56   56
 0.89076357440E+03 0.87140250530E+03 0.81612343043E+03 0.73246023413E+03 0.63066273883E+03
 0.52134353717E+03 0.41387122799E+03 0.31547849412E+03 0.23130584749E+03 0.16428936963E+03
 0.11518156831E+03 0.82251066862E+02 0.61643894028E+02 0.47895102124E+02 0.36926571664E+02
 0.28208045570E+02 0.21489177779E+02 0.16370645973E+02 0.12467315187E+02 0.94964205275E+01
 0.72300786581E+01 0.55165422548E+01 0.42247929287E+01 0.32703538403E+01 0.25730226104E+01
 0.20859705673E+01 0.17613146006E+01 0.15796786397E+01 0.15183066327E+01 0.15796786324E+01
 0.17613145895E+01 0.20859705576E+01 0.25730226072E+01 0.32703538459E+01 0.42247929420E+01
 0.55165422718E+01 0.72300786739E+01 0.94964205397E+01 0.12467315197E+02 0.16370645989E+02
 0.21489177809E+02 0.28208045623E+02 0.36926571743E+02 0.47895102219E+02 0.61643894115E+02
 0.82251066911E+02 0.11518156829E+03 0.16428936951E+03 0.23130584724E+03 0.31547849375E+03
 0.41387122751E+03 0.52134353663E+03 0.63066273828E+03 0.73246023364E+03 0.81612343006E+03
 0.87140250511E+03 0.87140250605E+03 0.83409709499E+03 0.76473238279E+03 0.67228199444E+03
 0.56723967958E+03 0.45957890937E+03 0.35752191556E+03 0.26719749656E+03 0.19262159351E+03
 0.13562812185E+03 0.95738059393E+02 0.70065437231E+02 0.53860881626E+02 0.41841947740E+02
 0.32060673818E+02 0.24469046208E+02 0.18635904876E+02 0.14207304852E+02 0.10818534663E+02
 0.82442833392E+01 0.62797291166E+01 0.48019069279E+01 0.36927218275E+01 0.28810171395E+01
 0.22963321883E+01 0.18977460466E+01 0.16477929159E+01 0.15284203421E+01 0.15284707649E+01
 0.16477078929E+01 0.18977535490E+01 0.22961865175E+01 0.28809366549E+01 0.36924478461E+01
 0.48016436660E+01 0.62791986483E+01 0.82436671328E+01 0.10817528010E+02 0.14206053220E+02
 0.18634076762E+02 0.24466721189E+02 0.32057556951E+02 0.41838025855E+02 0.53855897529E+02
 0.70059314790E+02 0.95731600492E+02 0.13562211010E+03 0.19261940485E+03 0.26719650347E+03
 0.35752998226E+03 0.45958330723E+03 0.56725449959E+03 0.67228997563E+03 0.76473888395E+03
 0.83410958409E+03 0.87140880869E+03 0.81612343287E+03 0.76473238438E+03 0.68680044223E+03
 0.59175674628E+03 0.48945542788E+03 0.38868681069E+03 0.29639429319E+03 0.21753898950E+03
 0.15496412473E+03 0.10933327025E+03 0.78849355027E+02 0.59684042025E+02 0.46528622848E+02
 0.35887402336E+02 0.27458269701E+02 0.20947670789E+02 0.15984182681E+02 0.12186489949E+02
 0.92940842630E+01 0.70814589764E+01 0.54090811426E+01 0.41450936025E+01 0.32124926297E+01
 0.25289107697E+01 0.20528846968E+01 0.17338333811E+01 0.15567263201E+01 0.14956175186E+01
 0.15567093325E+01 0.17337345556E+01 0.20528013423E+01 0.25286439514E+01 0.32122366578E+01
 0.41445008818E+01 0.54084417886E+01 0.70802500569E+01 0.92926912737E+01 0.12184175427E+02
 0.15981435221E+02 0.20943499762E+02 0.27453307390E+02 0.35880240374E+02 0.46520541930E+02
 0.59673062546E+02 0.78836616916E+02 0.10932000605E+03 0.15495485776E+03 0.21753487296E+03
 0.29639680672E+03 0.38869890290E+03 0.48947087040E+03 0.59177984396E+03 0.68682165608E+03
 0.76474958989E+03 0.81613384784E+03 0.83410958612E+03 0.73246023863E+03 0.67228199783E+03
 0.59175674795E+03 0.49985294677E+03 0.40528718271E+03 0.31548213922E+03 0.23610185456E+03
 0.17089698018E+03 0.12150061686E+03 0.87238461032E+02 0.65212818225E+02 0.50772668830E+02
 0.39490494227E+02 0.30335406782E+02 0.23218815496E+02 0.17742708941E+02 0.13559582441E+02
 0.10351983319E+02 0.79022708972E+01 0.60320477662E+01 0.46191208758E+01 0.35596848362E+01
 0.27814010452E+01 0.22216620755E+01 0.18386834889E+01 0.15988589951E+01 0.14841518879E+01
 0.14839424569E+01 0.15989839373E+01 0.18383644312E+01 0.22216337323E+01 0.27808467238E+01
 0.35593206249E+01 0.46180691664E+01 0.60309984124E+01 0.79002521773E+01 0.10349645500E+02
 0.13555821001E+02 0.17738119305E+02 0.23212139897E+02 0.30327257212E+02 0.39479362108E+02
 0.50759247571E+02 0.65196126649E+02 0.87221553636E+02 0.12148383014E+03 0.17088424497E+03
 0.23609793197E+03 0.31548778110E+03 0.40530418104E+03 0.49987571884E+03 0.59178287334E+03
 0.67230344990E+03 0.73248312126E+03 0.76474959274E+03 0.76473888856E+03 0.63066274500E+03
 0.56723968426E+03 0.48945543064E+03 0.40528718375E+03 0.32212442481E+03 0.24601692227E+03
 0.18139314386E+03 0.13068892954E+03 0.94237794594E+02 0.70068957568E+02 0.54405212763E+02
 0.42655612714E+02 0.32967315581E+02 0.25342660505E+02 0.19420459501E+02 0.14885321734E+02
 0.11388451739E+02 0.87144930194E+01 0.66572898365E+01 0.50996946345E+01 0.39174153511E+01
 0.30452000597E+01 0.24031104479E+01 0.19567415321E+01 0.16557654132E+01 0.14897414718E+01
 0.14314049813E+01 0.14897011676E+01 0.16556520505E+01 0.19565636060E+01 0.24027646752E+01
 0.30446975092E+01 0.39165644407E+01 0.50984954193E+01 0.66554291678E+01 0.87119421158E+01
 0.11384726030E+02 0.14880363147E+02 0.19413552654E+02 0.25333718519E+02 0.32955507199E+02
 0.42640902556E+02 0.54385875260E+02 0.70047230810E+02 0.94213990604E+02 0.13066992421E+03
 0.18137861279E+03 0.24601563730E+03 0.32213393749E+03 0.40530697999E+03 0.48948911780E+03
 0.56726883751E+03 0.63068581186E+03 0.67230345315E+03 0.68682166182E+03 0.67228998257E+03
 0.52134354396E+03 0.45957891428E+03 0.38868681351E+03 0.31548214033E+03 0.24601692242E+03
 0.18505454808E+03 0.13563537214E+03 0.98890823023E+02 0.73727010008E+02 0.57236059490E+02
 0.45199498961E+02 0.35208791775E+02 0.27210786333E+02 0.20943128251E+02 0.16108703516E+02
 0.12366675040E+02 0.94890046959E+01 0.72667248147E+01 0.55708401404E+01 0.42776437525E+01
 0.33111079871E+01 0.25946208374E+01 0.20818751234E+01 0.17275746902E+01 0.15072194361E+01
 0.14007358618E+01 0.14006249141E+01 0.15072435866E+01 0.17273423618E+01 0.20817169170E+01
 0.25940929918E+01 0.33105138097E+01 0.42764547213E+01 0.55693226154E+01 0.72642143197E+01
 0.94857208021E+01 0.12361743395E+02 0.16102314061E+02 0.20934171086E+02 0.27199344037E+02
 0.35193675827E+02 0.45181242411E+02 0.57212706482E+02 0.73702025715E+02 0.98862637049E+02
 0.13561504947E+03 0.18503727426E+03 0.24601557751E+03 0.31549224772E+03 0.38870322759E+03
 0.45960232569E+03 0.52136784027E+03 0.56726884070E+03 0.59178287937E+03 0.59177985179E+03
 0.56725450783E+03 0.41387123402E+03 0.35752191946E+03 0.29639429501E+03 0.23610185485E+03
 0.18139314341E+03 0.13563537169E+03 0.10052497071E+03 0.75700110907E+02 0.59055496097E+02
 0.46981005760E+02 0.36921918593E+02 0.28720805549E+02 0.22231148052E+02 0.17175609550E+02
 0.13243650965E+02 0.10198216500E+02 0.78360293554E+01 0.60194405300E+01 0.46257938833E+01
 0.35742840027E+01 0.27864571421E+01 0.22139375657E+01 0.18063141137E+01 0.15390277231E+01
 0.13839155100E+01 0.13357984333E+01 0.13838682215E+01 0.15389825227E+01 0.18061028449E+01
 0.22137077850E+01 0.27858536276E+01 0.35735488128E+01 0.46243406412E+01 0.60176024826E+01
 0.78329139562E+01 0.10194266973E+02 0.13237558174E+02 0.17167969497E+02 0.22220238020E+02
 0.28707497995E+02 0.36903421779E+02 0.46959860519E+02 0.59027174387E+02 0.75673129971E+02
 0.10049160040E+03 0.13561236162E+03 0.18137470678E+03 0.23609566909E+03 0.29640448820E+03
 0.35753560121E+03 0.41388606256E+03 0.45960232846E+03 0.48948912333E+03 0.49987572645E+03
 0.48947087889E+03 0.45958331528E+03 0.31547849815E+03 0.26719749844E+03 0.21753898956E+03
 0.17089697912E+03 0.13068892814E+03 0.98890821906E+02 0.75700110371E+02 0.59683590083E+02
 0.47899230236E+02 0.37994754121E+02 0.29784395801E+02 0.23210971304E+02 0.18033177716E+02
 0.13978065137E+02 0.10811969867E+02 0.83428035049E+01 0.64278654801E+01 0.49506137086E+01
 0.38239036700E+01 0.29740362247E+01 0.23453344359E+01 0.18912177553E+01 0.15784062230E+01
 0.13822668441E+01 0.12877909175E+01 0.12879452797E+01 0.13820826646E+01 0.15785049210E+01
 0.18908901511E+01 0.23452037909E+01 0.29732784615E+01 0.38231668030E+01 0.49488766442E+01
 0.64258325887E+01 0.83391290658E+01 0.10807492600E+02 0.13970966307E+02 0.18024516218E+02
 0.23198258968E+02 0.29769935691E+02 0.37974031413E+02 0.47877123609E+02 0.59652554659E+02
 0.75672015541E+02 0.98857594778E+02 0.13066405965E+03 0.17087998120E+03 0.21752419519E+03
 0.26719987029E+03 0.31548926479E+03 0.35753560333E+03 0.38870323206E+03 0.40530698645E+03
 0.40530418862E+03 0.38869891042E+03 0.35752998860E+03 0.23130584879E+03 0.19262159294E+03
 0.15496412286E+03 0.12150061445E+03 0.94237792354E+02 0.73727008405E+02 0.59055495261E+02
 0.47899229991E+02 0.38361061156E+02 0.30334232655E+02 0.23824647159E+02 0.18634030145E+02
 0.14532975840E+02 0.11301915422E+02 0.87644820246E+01 0.67800188684E+01 0.52383512516E+01
 0.40516501839E+01 0.31486673454E+01 0.24724552829E+01 0.19759730263E+01 0.16242800997E+01
 0.13899546239E+01 0.12566429278E+01 0.12127717735E+01 0.12567043514E+01 0.13898772790E+01
 0.16244006745E+01 0.19756741029E+01 0.24724241068E+01 0.31478122204E+01 0.40510407114E+01
 0.52363092084E+01 0.67780722375E+01 0.87601752412E+01 0.11297383812E+02 0.14524783537E+02
 0.18625285990E+02 0.23809969505E+02 0.30319402730E+02 0.38337468682E+02 0.47877214778E+02
 0.59021683108E+02 0.73698639872E+02 0.94203855032E+02 0.12146932329E+03 0.15495117233E+03
 0.19260666305E+03 0.23129845092E+03 0.26719987173E+03 0.29640449139E+03 0.31549225255E+03
 0.32213394339E+03 0.31548778715E+03 0.29639681193E+03 0.26719650704E+03 0.16428936822E+03
 0.13562811910E+03 0.10933326687E+03 0.87238457741E+02 0.70068954950E+02 0.57236057826E+02
 0.46981005007E+02 0.37994754002E+02 0.30334232785E+02 0.24032901678E+02 0.18943991074E+02
 0.14878538240E+02 0.11643871370E+02 0.90813717882E+01 0.70601300845E+01 0.54771515031E+01
 0.42475737142E+01 0.33038840317E+01 0.25888277611E+01 0.20573606924E+01 0.16716737162E+01
 0.14053377340E+01 0.12373618480E+01 0.11570389107E+01 0.11565492930E+01 0.12379563831E+01
 0.14049007662E+01 0.16723012716E+01 0.20567859162E+01 0.25892652122E+01 0.33027814122E+01
 0.42473705310E+01 0.54748083472E+01 0.70584844935E+01 0.90766169409E+01 0.11639497299E+02
 0.14869523427E+02 0.18935577474E+02 0.24017400958E+02 0.30320217861E+02 0.37970471898E+02
 0.46959673302E+02 0.57204922787E+02 0.70036691598E+02 0.87214546001E+02 0.10929546838E+03
 0.13560900863E+03 0.16427387363E+03 0.19260666395E+03 0.21752419724E+03 0.23609567228E+03
 0.24601558153E+03 0.24601564151E+03 0.23609793557E+03 0.21753487522E+03 0.19261940534E+03
 0.11518156490E+03 0.95738055286E+02 0.78849350930E+02 0.65212814769E+02 0.54405210344E+02
 0.45199497674E+02 0.36921918276E+02 0.29784396118E+02 0.23824647704E+02 0.18943991473E+02
 0.14996247404E+02 0.11819315297E+02 0.92782682771E+01 0.72548739851E+01 0.56562400305E+01
 0.44032749087E+01 0.34325196754E+01 0.26897344168E+01 0.21303314267E+01 0.17180378876E+01
 0.14240144544E+01 0.12282700063E+01 0.11157208928E+01 0.10796498355E+01 0.11157397091E+01
 0.12286055417E+01 0.14240107437E+01 0.17186031358E+01 0.21301033035E+01 0.26902789503E+01
 0.34316524249E+01 0.44033202667E+01 0.56539803650E+01 0.72535738129E+01 0.92734008751E+01
 0.11815486859E+02 0.14986739527E+02 0.18936062373E+02 0.23808513139E+02 0.29770903027E+02
 0.36898764937E+02 0.45176356490E+02 0.54381713078E+02 0.65174320088E+02 0.78830863577E+02
 0.95706231654E+02 0.11515628186E+03 0.13560900922E+03 0.15495117361E+03 0.17087998317E+03
 0.18137470924E+03 0.18503727681E+03 0.18137861484E+03 0.17088424595E+03 0.15495485725E+03
 0.13562210801E+03 0.82251062534E+02 0.70065432789E+02 0.59684038085E+02 0.50772665856E+02
 0.42655610930E+02 0.35208791162E+02 0.28720805882E+02 0.23210972217E+02 0.18634031231E+02
 0.14878539147E+02 0.11819315794E+02 0.93450419288E+01 0.73547968301E+01 0.57673038815E+01
 0.45113195852E+01 0.35291718833E+01 0.27697933893E+01 0.21918358010E+01 0.17590776385E+01
 0.14442202665E+01 0.12250349520E+01 0.10872953323E+01 0.10204754848E+01 0.10207888212E+01
 0.10872750777E+01 0.12256299702E+01 0.14444079971E+01 0.17598392108E+01 0.21920174130E+01
 0.27704554317E+01 0.35289233648E+01 0.45113679618E+01 0.57658806456E+01 0.73533304450E+01
 0.93411801399E+01 0.11815226514E+02 0.14870719676E+02 0.18625623140E+02 0.23198039170E+02
 0.28705095028E+02 0.35194090392E+02 0.42625599776E+02 0.50762598460E+02 0.59644906214E+02
 0.70043216928E+02 0.82235445451E+02 0.95706232153E+02 0.10929546933E+03 0.12146932461E+03
 0.13066406120E+03 0.13561236311E+03 0.13561505051E+03 0.13066992438E+03 0.12148382908E+03
 0.10932000363E+03 0.95731596874E+02 0.61643889846E+02 0.53860877707E+02 0.46528619667E+02
 0.39490492104E+02 0.32967314645E+02 0.27210786501E+02 0.22231149061E+02 0.18033179199E+02
 0.14532977420E+02 0.11643872734E+02 0.92782692269E+01 0.73547972905E+01 0.58048783405E+01
 0.45667600614E+01 0.35889900584E+01 0.28255622024E+01 0.22380912388E+01 0.17926247217E+01
 0.14625723338E+01 0.12259743949E+01 0.10678880514E+01 0.97690575436E+00 0.94760979544E+00
 0.97709871749E+00 0.10683329748E+01 0.12265151772E+01 0.14633808489E+01 0.17933801283E+01
 0.22390613682E+01 0.28262469624E+01 0.35897182578E+01 0.45668175241E+01 0.58046525005E+01
 0.73533532619E+01 0.92758578036E+01 0.11639500159E+02 0.14527231492E+02 0.18023818178E+02
 0.22222708556E+02 0.27191714237E+02 0.32961001944E+02 0.39460427921E+02 0.46515075901E+02
 0.53848046408E+02 0.61605944967E+02 0.70043217470E+02 0.78830864534E+02 0.87214547219E+02
 0.94203856338E+02 0.98857595954E+02 0.10049160117E+03 0.98862637097E+02 0.94213989648E+02
 0.87221551532E+02 0.78836613729E+02 0.70059310823E+02 0.47895098767E+02 0.41841944786E+02
 0.35887400159E+02 0.30335405619E+02 0.25342660412E+02 0.20943129100E+02 0.17175611077E+02
 0.13978067010E+02 0.11301917320E+02 0.90813734500E+01 0.72548752489E+01 0.57673046842E+01
 0.45667604235E+01 0.36092631992E+01 0.28541489828E+01 0.22668515333E+01 0.18162562937E+01
 0.14771956387E+01 0.12286660223E+01 0.10553728088E+01 0.94575933481E+00 0.89291258647E+00
 0.89298008115E+00 0.94624475054E+00 0.10559746561E+01 0.12296654007E+01 0.14782451882E+01
 0.18176465260E+01 0.22681439002E+01 0.28556547585E+01 0.36103964557E+01 0.45678428626E+01
 0.57675053402E+01 0.72547068607E+01 0.90796743478E+01 0.11299115676E+02 0.13973787823E+02
 0.17167440265E+02 0.20938053824E+02 0.25325561569E+02 0.30327618200E+02 0.35875050876E+02
 0.41811874523E+02 0.47891217633E+02 0.53848047014E+02 0.59644907310E+02 0.65174321493E+02
 0.70036693116E+02 0.73698641301E+02 0.75672016660E+02 0.75673130540E+02 0.73702025501E+02
 0.70047229653E+02 0.65196124527E+02 0.59673059620E+02 0.53855894126E+02 0.36926569356E+02
 0.32060671930E+02 0.27458268524E+02 0.23218815183E+02 0.19420460053E+02 0.16108704797E+02
 0.13243652742E+02 0.10811971873E+02 0.87644840059E+01 0.70601318402E+01 0.56562414318E+01
 0.45113205775E+01 0.35889906520E+01 0.28541492362E+01 0.22766126376E+01 0.18284381166E+01
 0.14866033558E+01 0.12313770311E+01 0.10478985590E+01 0.92455631943E+00 0.85376211765E+00
 0.83072665849E+00 0.85410337835E+00 0.92526065853E+00 0.10489031473E+01 0.12327466399E+01
 0.14881949753E+01 0.18303596306E+01 0.22786022936E+01 0.28563514363E+01 0.35909794783E+01
 0.45133229431E+01 0.56575186593E+01 0.70609779905E+01 0.87641857125E+01 0.10810054073E+02
 0.13242028697E+02 0.16100967044E+02 0.19418626931E+02 0.23207524532E+02 0.27445244502E+02
 0.32058975816E+02 0.36912806066E+02 0.41811875130E+02 0.46515077066E+02 0.50762600045E+02
 0.54381714904E+02 0.57204924667E+02 0.59021684856E+02 0.59652556076E+02 0.59027175264E+02
 0.57212706636E+02 0.54385874586E+02 0.50759246095E+02 0.46520539825E+02 0.41838023422E+02
 0.28208044277E+02 0.24469045272E+02 0.20947670411E+02 0.17742709212E+02 0.14885322630E+02
 0.12366676445E+02 0.10198218242E+02 0.83428053901E+01 0.67800207155E+01 0.54771531637E+01
 0.44032762810E+01 0.35291729169E+01 0.28255628960E+01 0.22668519258E+01 0.18284382739E+01
 0.14898454792E+01 0.12330120787E+01 0.10440043489E+01 0.91148993090E+00 0.82765253901E+00
 0.78706412158E+00 0.78730645214E+00 0.82825119915E+00 0.91257295218E+00 0.10454257778E+01
 0.12349093583E+01 0.14920237863E+01 0.18310505550E+01 0.22696130033E+01 0.28286483565E+01
 0.35320923609E+01 0.44062872166E+01 0.54796523780E+01 0.67820655002E+01 0.83444475210E+01
 0.10197160682E+02 0.12368157218E+02 0.14879136161E+02 0.17740902031E+02 0.20945292932E+02
 0.24456341535E+02 0.28199834302E+02 0.32058976351E+02 0.35875051955E+02 0.39460429473E+02
 0.42625601688E+02 0.45176358629E+02 0.46959675528E+02 0.47877216931E+02 0.47877125499E+02
 0.46959861942E+02 0.45181243191E+02 0.42640902604E+02 0.39479361461E+02 0.35880239206E+02
 0.32057555535E+02 0.21489177296E+02 0.18635904631E+02 0.15984182804E+02 0.13559582982E+02
 0.11388452676E+02 0.94890059568E+01 0.78360308348E+01 0.64278670581E+01 0.52383528083E+01
 0.42475751425E+01 0.34325208922E+01 0.27697943449E+01 0.22380919206E+01 0.18162567234E+01
 0.14866035811E+01 0.12330121608E+01 0.10428043744E+01 0.90528842788E+00 0.81274682517E+00
 0.75943444732E+00 0.74222972069E+00 0.75993596736E+00 0.81372564177E+00 0.90679393699E+00
 0.10447561111E+01 0.12355082397E+01 0.14894803192E+01 0.18196570812E+01 0.22417106693E+01
 0.27738981506E+01 0.34366048672E+01 0.42518177620E+01 0.52423025495E+01 0.64310505175E+01
 0.78400518234E+01 0.94889828697E+01 0.11392604459E+02 0.13558022659E+02 0.15980320143E+02
 0.18638036282E+02 0.21487049037E+02 0.24456341963E+02 0.27445245389E+02 0.30327619522E+02
 0.32961003650E+02 0.35194092425E+02 0.36898767234E+02 0.37970474365E+02 0.38337471173E+02
 0.37974033730E+02 0.36903423704E+02 0.35193677183E+02 0.32955507907E+02 0.30327257319E+02
 0.27453307057E+02 0.24466720646E+02 0.16370646020E+02 0.14207305002E+02 0.12186490279E+02
 0.10351983862E+02 0.87144937758E+01 0.72667257599E+01 0.60194416214E+01 0.49506148859E+01
 0.40516513732E+01 0.33038851543E+01 0.26897354018E+01 0.21918365981E+01 0.17926253097E+01
 0.14771960267E+01 0.12313772532E+01 0.10440044527E+01 0.90528846153E+00 0.80790784058E+00
 0.74607158617E+00 0.71624737307E+00 0.71650880218E+00 0.74695057565E+00 0.80930987687E+00
 0.90732101739E+00 0.10465507492E+01 0.12345640569E+01 0.14808464766E+01 0.17969201890E+01
 0.21963933949E+01 0.26947657534E+01 0.33090563320E+01 0.40569714551E+01 0.49562249547E+01
 0.60234095134E+01 0.72730377021E+01 0.87156902846E+01 0.10356220435E+02 0.12190932830E+02
 0.14205094809E+02 0.16369500170E+02 0.18638036607E+02 0.20945293599E+02 0.23207525528E+02
 0.25325562882E+02 0.27191715875E+02 0.28705097011E+02 0.29770905352E+02 0.30320220457E+02
 0.30319405443E+02 0.29769938299E+02 0.28707500265E+02 0.27199345797E+02 0.25333719701E+02
 0.23212140554E+02 0.20943500034E+02 0.18634076828E+02 0.12467315498E+02 0.10818534958E+02
 0.92940845861E+01 0.79022712792E+01 0.66572903031E+01 0.55708407113E+01 0.46257945629E+01
 0.38239044394E+01 0.31486681608E+01 0.25888285619E+01 0.21303321501E+01 0.17590782350E+01
 0.14625727788E+01 0.12286663187E+01 0.10478987326E+01 0.91149001934E+00 0.81274686490E+00
 0.74607160188E+00 0.70776485453E+00 0.69542800918E+00 0.70840265242E+00 0.74737185999E+00
 0.81467095040E+00 0.91411209103E+00 0.10511247910E+01 0.12326217658E+01 0.14670290108E+01
 0.17643345429E+01 0.21360512232E+01 0.25951044687E+01 0.31552266655E+01 0.38303476554E+01
 0.46334987210E+01 0.55759777796E+01 0.66659210929E+01 0.79071245879E+01 0.92970900002E+01
 0.10825496168E+02 0.12472028153E+02 0.14205095066E+02 0.15980320635E+02 0.17740902720E+02
 0.19418627806E+02 0.20938054929E+02 0.22222709979E+02 0.23198041001E+02 0.23808515403E+02
 0.24017403579E+02 0.23809972295E+02 0.23198261678E+02 0.22220240415E+02 0.20934173009E+02
 0.19413554062E+02 0.17738120255E+02 0.15981435832E+02 0.14206053623E+02 0.94964209161E+01
 0.82442836244E+01 0.70814591837E+01 0.60320479317E+01 0.50996948070E+01 0.42776439816E+01
 0.35742843224E+01 0.29740366399E+01 0.24724557666E+01 0.20573611952E+01 0.17180383542E+01
 0.14442206529E+01 0.12259746792E+01 0.10553729945E+01 0.92455642890E+00 0.82765260201E+00
 0.75943448882E+00 0.71624740515E+00 0.69542803002E+00 0.69580366937E+00 0.71730545704E+00
 0.76125402752E+00 0.83015873105E+00 0.92784872023E+00 0.10593354646E+01 0.12307945738E+01
 0.14495541832E+01 0.17240644639E+01 0.20639326180E+01 0.24795801689E+01 0.29818834586E+01
 0.35812490202E+01 0.42868704664E+01 0.51054828112E+01 0.60405070155E+01 0.70906370565E+01
 0.82489054312E+01 0.95011911634E+01 0.10825496401E+02 0.12190933227E+02 0.13558023137E+02
 0.14879136677E+02 0.16100967639E+02 0.17167441061E+02 0.18023819336E+02 0.18625624784E+02
 0.18936064523E+02 0.18935580013E+02 0.18625288694E+02 0.18024518825E+02 0.17167971786E+02
 0.16102315911E+02 0.14880364546E+02 0.13555822016E+02 0.12184176153E+02 0.10817528533E+02
 0.72300790263E+01 0.62797293296E+01 0.54090812161E+01 0.46191208516E+01 0.39174152921E+01
 0.33111079594E+01 0.27864571928E+01 0.23453345794E+01 0.19759732440E+01 0.16716739670E+01
 0.14240146930E+01 0.12250351451E+01 0.10678881866E+01 0.94575942091E+00 0.85376217582E+00
 0.78706417345E+00 0.74222977803E+00 0.71650886283E+00 0.70840270376E+00 0.71730548513E+00
 0.74380610929E+00 0.78946587579E+00 0.85693089977E+00 0.94979782699E+00 0.10725955168E+01
 0.12307461637E+01 0.14304906813E+01 0.16789352884E+01 0.19838425943E+01 0.23535125092E+01
 0.27961345469E+01 0.33192535360E+01 0.39286853256E+01 0.46278101285E+01 0.54164258617E+01
 0.62901567512E+01 0.72393932267E+01 0.82489056749E+01 0.92970903846E+01 0.10356220829E+02
 0.11392604767E+02 0.12368157443E+02 0.13242028954E+02 0.13973788311E+02 0.14527232411E+02
 0.14870721145E+02 0.14986741522E+02 0.14869525782E+02 0.14524786001E+02 0.13970968627E+02
 0.13237560170E+02 0.12361744996E+02 0.11384727259E+02 0.10349646430E+02 0.92926919760E+01
 0.82436676525E+01 0.55165425763E+01 0.48019070707E+01 0.41450935775E+01 0.35596846892E+01
 0.30451998594E+01 0.25946206526E+01 0.22139374445E+01 0.18912177130E+01 0.16242801214E+01
 0.14053377880E+01 0.12282700612E+01 0.10872953706E+01 0.97690577722E+00 0.89291260929E+00
 0.83072669986E+00 0.78730652245E+00 0.75993606224E+00 0.74695067718E+00 0.74737194496E+00
 0.76125407901E+00 0.78946589270E+00 0.83379458874E+00 0.89679940293E+00 0.98179865704E+00
 0.10928390150E+01 0.12346068591E+01 0.14124479492E+01 0.16321723489E+01 0.19000446053E+01
 0.22223573057E+01 0.26051587543E+01 0.30534118624E+01 0.35704506387E+01 0.41569807759E+01
 0.48106370317E+01 0.55251486050E+01 0.62901570227E+01 0.70906374830E+01 0.79071250030E+01
 0.87156905414E+01 0.94889829128E+01 0.10197160587E+02 0.10810054033E+02 0.11299115933E+02
 0.11639500912E+02 0.11815227836E+02 0.11815488665E+02 0.11639499382E+02 0.11297385919E+02
 0.10807494513E+02 0.10194268572E+02 0.94857220712E+01 0.87119431078E+01 0.79002529626E+01
 0.70802506817E+01 0.62791991209E+01 0.42247932129E+01 0.36927219290E+01 0.32124925586E+01
 0.27814008477E+01 0.24031101902E+01 0.20818748689E+01 0.18063139033E+01 0.15784060684E+01
 0.13899545140E+01 0.12373617629E+01 0.11157208189E+01 0.10204754233E+01 0.94760976094E+00
 0.89298009270E+00 0.85410344710E+00 0.82825131955E+00 0.81372579047E+00 0.80931002013E+00
 0.81467105694E+00 0.83015878472E+00 0.85693090658E+00 0.89679938891E+00 0.95221246558E+00
 0.10262283538E+01 0.11224376275E+01 0.12449809207E+01 0.13983410953E+01 0.15873450467E+01
 0.18168292034E+01 0.20915486332E+01 0.24155815580E+01 0.27920087634E+01 0.32220898603E+01
 0.37049221686E+01 0.42367053821E+01 0.48106373280E+01 0.54164263466E+01 0.60405075105E+01
 0.66659214136E+01 0.72730377352E+01 0.78400515843E+01 0.83444471633E+01 0.87641854802E+01
 0.90796744869E+01 0.92758584686E+01 0.93411813368E+01 0.92734024633E+01 0.90766186930E+01
 0.87601769279E+01 0.83391305293E+01 0.78329151420E+01 0.72642152597E+01 0.66554299328E+01
 0.60309990615E+01 0.54084423393E+01 0.48016440959E+01 0.32703541036E+01 0.28810172289E+01
 0.25289106965E+01 0.22216618841E+01 0.19567412810E+01 0.17275744304E+01 0.15390274848E+01
 0.13822666350E+01 0.12566427425E+01 0.11570387443E+01 0.10796496942E+01 0.10207887240E+01
 0.97709868815E+00 0.94624480525E+00 0.92526079426E+00 0.91257314276E+00 0.90679413909E+00
 0.90732118438E+00 0.91411218927E+00 0.92784874101E+00 0.94979778895E+00 0.98179859764E+00
 0.10262283126E+01 0.10859265681E+01 0.11642232179E+01 0.12647364046E+01 0.13913711179E+01
 0.15479994554E+01 0.17384375932E+01 0.19659996544E+01 0.22333732749E+01 0.25420007721E+01
 0.28918823206E+01 0.32809357644E+01 0.37049224718E+01 0.41569813002E+01 0.46278107072E+01
 0.51054832454E+01 0.55759779130E+01 0.60234092995E+01 0.64310500504E+01 0.67820649913E+01
 0.70609776964E+01 0.72547069901E+01 0.73533539003E+01 0.73533315294E+01 0.72535751649E+01
 0.70584858935E+01 0.67780735047E+01 0.64258336325E+01 0.60176033079E+01 0.55693232872E+01
 0.50984960108E+01 0.46180697165E+01 0.41445013808E+01 0.36924482492E+01 0.25730228599E+01
 0.22963322830E+01 0.20528846505E+01 0.18386833408E+01 0.16557652093E+01 0.15072192127E+01
 0.13839152857E+01 0.12877906977E+01 0.12127715614E+01 0.11565491009E+01 0.11157395621E+01
 0.10872750081E+01 0.10683330082E+01 0.10559747973E+01 0.10489033723E+01 0.10454260371E+01
 0.10447563436E+01 0.10465509023E+01 0.10511248380E+01 0.10593354134E+01 0.10725954050E+01
 0.10928388942E+01 0.11224375415E+01 0.11642231840E+01 0.12212917232E+01 0.12970099809E+01
 0.13947016204E+01 0.15176384525E+01 0.16686480489E+01 0.18500941847E+01 0.20634134920E+01
 0.23090736381E+01 0.25860639807E+01 0.28918826062E+01 0.32220903834E+01 0.35704512622E+01
 0.39286858609E+01 0.42868707365E+01 0.46334986302E+01 0.49562245340E+01 0.52423019564E+01
 0.54796518473E+01 0.56575184210E+01 0.57675055378E+01 0.58046531442E+01 0.57658816181E+01
 0.56539814762E+01 0.54748094101E+01 0.52363101025E+01 0.49488773419E+01 0.46243411907E+01
 0.42764552021E+01 0.39165649152E+01 0.35593211091E+01 0.32122371199E+01 0.28809370380E+01
 0.20859708014E+01 0.18977461546E+01 0.17338333784E+01 0.15988589130E+01 0.14897413407E+01
 0.14007357012E+01 0.13357982515E+01 0.12879450826E+01 0.12567041538E+01 0.12379562149E+01
 0.12286054439E+01 0.12256299813E+01 0.12265153154E+01 0.12296656507E+01 0.12327469516E+01
 0.12349096596E+01 0.12355084584E+01 0.12345641454E+01 0.12326217167E+01 0.12307944214E+01
 0.12307459697E+01 0.12346066888E+01 0.12449808182E+01 0.12647363766E+01 0.12970099953E+01
 0.13448991319E+01 0.14114640137E+01 0.14993526190E+01 0.16108174905E+01 0.17473263940E+01
 0.19096233226E+01 0.20973398545E+01 0.23090738821E+01 0.25420012467E+01 0.27920093715E+01
 0.30534124439E+01 0.33192539172E+01 0.35812490765E+01 0.38303473640E+01 0.40569709132E+01
 0.42518171610E+01 0.44062867776E+01 0.45133228406E+01 0.45678431646E+01 0.45668181755E+01
 0.45113688154E+01 0.44033211459E+01 0.42473712961E+01 0.40510413019E+01 0.38231672405E+01
 0.35735491697E+01 0.33105141634E+01 0.30446979035E+01 0.27808471534E+01 0.25286443720E+01
 0.22961868717E+01 0.17613148166E+01 0.16477930443E+01 0.15567263749E+01 0.14841518876E+01
 0.14314049383E+01 0.14006248316E+01 0.13838681001E+01 0.13820825143E+01 0.13898771288E+01
 0.14049006625E+01 0.14240107382E+01 0.14444081257E+01 0.14633811125E+01 0.14782455439E+01
 0.14881953451E+01 0.14920240803E+01 0.14894804659E+01 0.14808464482E+01 0.14670288327E+01
 0.14495539239E+01 0.14304904273E+01 0.14124477738E+01 0.13983410335E+01 0.13913711571E+01
 0.13947017090E+01 0.14114640847E+01 0.14443947137E+01 0.14958704104E+01 0.15675461422E+01
 0.16604597426E+01 0.17747124733E+01 0.19096235068E+01 0.20634138775E+01 0.22333738065E+01
 0.24155821149E+01 0.26051591843E+01 0.27961347183E+01 0.29818833117E+01 0.31552262431E+01
 0.33090557725E+01 0.34366043620E+01 0.35320920888E+01 0.35909795444E+01 0.36103968582E+01
 0.35897188974E+01 0.35289240890E+01 0.34316530886E+01 0.33027819276E+01 0.31478125770E+01
 0.29732787120E+01 0.27858538509E+01 0.25940932525E+01 0.24027649976E+01 0.22216340974E+01
 0.20528017040E+01 0.18977538589E+01 0.15796788427E+01 0.15284205025E+01 0.14956176440E+01
 0.14839425501E+01 0.14897012212E+01 0.15072435890E+01 0.15389824710E+01 0.15785048341E+01
 0.16244005970E+01 0.16723012646E+01 0.17186032541E+01 0.17598394775E+01 0.17933805168E+01
 0.18176469608E+01 0.18303600083E+01 0.18310507790E+01 0.18196570969E+01 0.17969200049E+01
 0.17643342284E+01 0.17240641245E+01 0.16789350287E+01 0.16321722374E+01 0.15873450956E+01
 0.15479996219E+01 0.15176386602E+01 0.14993527901E+01 0.14958704963E+01 0.15092140998E+01
 0.15408257529E+01 0.15912764906E+01 0.16604598563E+01 0.17473266627E+01 0.18500945919E+01
 0.19660001219E+01 0.20915490413E+01 0.22223575324E+01 0.23535124765E+01 0.24795798776E+01
 0.25951040063E+01 0.26947652702E+01 0.27738978101E+01 0.28286482792E+01 0.28563516598E+01
 0.28556552281E+01 0.28262475578E+01 0.27704560155E+01 0.26902794178E+01 0.25892655226E+01
 0.24724242851E+01 0.23452039040E+01 0.22137079058E+01 0.20817170933E+01 0.19565638471E+01
 0.18383647132E+01 0.17337348405E+01 0.16477081483E+01 0.15183068356E+01 0.15284709719E+01
 0.15567095398E+01 0.15989841282E+01 0.16556521992E+01 0.17273424467E+01 0.18061028658E+01
 0.18908901404E+01 0.19756741221E+01 0.20567860352E+01 0.21301035703E+01 0.21920178257E+01
 0.22390618643E+01 0.22681443702E+01 0.22786026174E+01 0.22696130943E+01 0.22417105092E+01
 0.21963930434E+01 0.21360507991E+01 0.20639322576E+01 0.19838424054E+01 0.19000446330E+01
 0.18168294210E+01 0.17384379190E+01 0.16686483808E+01 0.16108177445E+01 0.15675462801E+01
 0.15408257917E+01 0.15317688811E+01 0.15408257912E+01 0.15675462793E+01 0.16108177440E+01
 0.16686483811E+01 0.17384379205E+01 0.18168294241E+01 0.19000446378E+01 0.19838424116E+01
 0.20639322649E+01 0.21360508072E+01 0.21963930523E+01 0.22417105190E+01 0.22696131056E+01
 0.22786026309E+01 0.22681443864E+01 0.22390618834E+01 0.21920178473E+01 0.21301035931E+01
 0.20567860573E+01 0.19756741412E+01 0.18908901548E+01 0.18061028743E+01 0.17273424491E+01
 0.16556521968E+01 0.15989841231E+01 0.15567095345E+01 0.15284709685E+01 0.15796788495E+01
 0.16477081556E+01 0.17337348455E+01 0.18383647130E+01 0.19565638396E+01 0.20817170779E+01