   1   1   0   0
  0.6156630E+02  0.4432200E-09  0.4432200E-09  0.4432200E-09  0.1000000E-15
  1.000000000000000E-004
  CAR 
 Og_FCC                                  
     58.70078511    -25.54218979  301     -8.27237994      1.00000000
    -25.542  0.0000E+00  0.0000E+00
    -25.261  0.0000E+00  0.0000E+00
    -24.981  0.0000E+00  0.0000E+00
    -24.700  0.0000E+00  0.0000E+00
    -24.419  0.0000E+00  0.0000E+00
    -24.138  0.0000E+00  0.0000E+00
    -23.857  0.0000E+00  0.0000E+00
    -23.577  0.0000E+00  0.0000E+00
    -23.296  0.0000E+00  0.0000E+00
    -23.015  0.0000E+00  0.0000E+00
    -22.734  0.0000E+00  0.0000E+00
    -22.453  0.0000E+00  0.0000E+00
    -22.172  0.0000E+00  0.0000E+00
    -21.892  0.0000E+00  0.0000E+00
    -21.611  0.0000E+00  0.2500E+00
    -21.330  0.0000E+00  0.2000E+01
    -21.049  0.0000E+00  0.2000E+01
    -20.768  0.0000E+00  0.2000E+01
    -20.488  0.0000E+00  0.2000E+01
    -20.207  0.0000E+00  0.2000E+01
    -19.926  0.0000E+00  0.2000E+01
    -19.645  0.0000E+00  0.2000E+01
    -19.364  0.0000E+00  0.2000E+01
    -19.084  0.0000E+00  0.2000E+01
    -18.803  0.0000E+00  0.2000E+01
    -18.522  0.0000E+00  0.2000E+01
    -18.241  0.0000E+00  0.2000E+01
    -17.960  0.0000E+00  0.2000E+01
    -17.680  0.0000E+00  0.2000E+01
    -17.399  0.0000E+00  0.2000E+01
    -17.118  0.0000E+00  0.2000E+01
    -16.837  0.0000E+00  0.2000E+01
    -16.556  0.0000E+00  0.2000E+01
    -16.275  0.0000E+00  0.2000E+01
    -15.995  0.0000E+00  0.2000E+01
    -15.714  0.0000E+00  0.2000E+01
    -15.433  0.0000E+00  0.2000E+01
    -15.152  0.0000E+00  0.2000E+01
    -14.871  0.0000E+00  0.2000E+01
    -14.591  0.0000E+00  0.2000E+01
    -14.310  0.0000E+00  0.2000E+01
    -14.029  0.0000E+00  0.2000E+01
    -13.748  0.0000E+00  0.2000E+01
    -13.467  0.0000E+00  0.2000E+01
    -13.187  0.0000E+00  0.2000E+01
    -12.906  0.0000E+00  0.2000E+01
    -12.625  0.0000E+00  0.2000E+01
    -12.344  0.0000E+00  0.2000E+01
    -12.063  0.0000E+00  0.2000E+01
    -11.783  0.0000E+00  0.2000E+01
    -11.502  0.0000E+00  0.2000E+01
    -11.221  0.0000E+00  0.2000E+01
    -10.940  0.0000E+00  0.2000E+01
    -10.659  0.0000E+00  0.3398E+01
    -10.378  0.0000E+00  0.3861E+01
    -10.098  0.0000E+00  0.4000E+01
     -9.817  0.0000E+00  0.4000E+01
     -9.536  0.0000E+00  0.4000E+01
     -9.255  0.1318E+00  0.5398E+01
     -8.974  0.2251E-12  0.5861E+01
     -8.694  0.4852E-05  0.7333E+01
     -8.413  0.1310E-09  0.7981E+01
     -8.132  0.0000E+00  0.8000E+01
     -7.851  0.0000E+00  0.8000E+01
     -7.570  0.0000E+00  0.8000E+01
     -7.290  0.0000E+00  0.8000E+01
     -7.009  0.0000E+00  0.8000E+01
     -6.728  0.0000E+00  0.8000E+01
     -6.447  0.0000E+00  0.8000E+01
     -6.166  0.0000E+00  0.8000E+01
     -5.885  0.0000E+00  0.8000E+01
     -5.605  0.0000E+00  0.8000E+01
     -5.324  0.0000E+00  0.8000E+01
     -5.043  0.0000E+00  0.8000E+01
     -4.762  0.0000E+00  0.8000E+01
     -4.481  0.0000E+00  0.8000E+01
     -4.201  0.0000E+00  0.8000E+01
     -3.920  0.0000E+00  0.8000E+01
     -3.639  0.0000E+00  0.8000E+01
     -3.358  0.0000E+00  0.8000E+01
     -3.077  0.0000E+00  0.8000E+01
     -2.797  0.0000E+00  0.8000E+01
     -2.516  0.0000E+00  0.8000E+01
     -2.235  0.0000E+00  0.8000E+01
     -1.954  0.0000E+00  0.8000E+01
     -1.673  0.0000E+00  0.8000E+01
     -1.393  0.0000E+00  0.8000E+01
     -1.112  0.0000E+00  0.8000E+01
     -0.831  0.0000E+00  0.8000E+01
     -0.550  0.0000E+00  0.8000E+01
     -0.269  0.0000E+00  0.8000E+01
      0.012  0.0000E+00  0.8000E+01
      0.292  0.0000E+00  0.8000E+01
      0.573  0.0000E+00  0.8000E+01
      0.854  0.0000E+00  0.8000E+01
      1.135  0.0000E+00  0.8000E+01
      1.416  0.0000E+00  0.8000E+01
      1.696  0.0000E+00  0.8000E+01
      1.977  0.0000E+00  0.8000E+01
      2.258  0.0000E+00  0.8000E+01
      2.539  0.0000E+00  0.8000E+01
      2.820  0.0000E+00  0.8000E+01
      3.100  0.0000E+00  0.8009E+01
      3.381  0.0000E+00  0.8009E+01
      3.662  0.1237E-01  0.8013E+01
      3.943  0.0000E+00  0.8139E+01
      4.224  0.0000E+00  0.8139E+01
      4.504  0.4617E-05  0.8167E+01
      4.785  0.7913E+00  0.8630E+01
      5.066  0.0000E+00  0.8889E+01
      5.347  0.0000E+00  0.9222E+01
      5.628  0.0000E+00  0.9806E+01
      5.909  0.0000E+00  0.1031E+02
      6.189  0.0000E+00  0.1042E+02
      6.470  0.0000E+00  0.1119E+02
      6.751  0.0000E+00  0.1164E+02
      7.032  0.0000E+00  0.1203E+02
      7.313  0.7898E+00  0.1255E+02
      7.593  0.7914E+00  0.1321E+02
      7.874  0.0000E+00  0.1373E+02
      8.155  0.0000E+00  0.1413E+02
      8.436  0.0000E+00  0.1472E+02
      8.717  0.0000E+00  0.1506E+02
      8.997  0.0000E+00  0.1579E+02
      9.278  0.0000E+00  0.1675E+02
      9.559  0.2632E+00  0.1682E+02
      9.840  0.3215E+00  0.1728E+02
     10.121  0.7914E+00  0.1813E+02
     10.401  0.4268E-10  0.1857E+02
     10.682  0.0000E+00  0.1870E+02
     10.963  0.0000E+00  0.1870E+02
     11.244  0.9889E-01  0.1928E+02
     11.525  0.4792E-14  0.2028E+02
     11.806  0.0000E+00  0.2116E+02
     12.086  0.0000E+00  0.2163E+02
     12.367  0.2196E-16  0.2207E+02
     12.648  0.7758E-01  0.2276E+02
     12.929  0.0000E+00  0.2280E+02
     13.210  0.0000E+00  0.2335E+02
     13.490  0.0000E+00  0.2394E+02
     13.771  0.0000E+00  0.2428E+02
     14.052  0.0000E+00  0.2504E+02
     14.333  0.0000E+00  0.2515E+02
     14.614  0.0000E+00  0.2544E+02
     14.894  0.9892E-01  0.2675E+02
     15.175  0.2638E+00  0.2701E+02
     15.456  0.0000E+00  0.2786E+02
     15.737  0.0000E+00  0.2875E+02
     16.018  0.0000E+00  0.2944E+02
     16.298  0.0000E+00  0.3000E+02
     16.579  0.1887E-13  0.3044E+02
     16.860  0.0000E+00  0.3106E+02
     17.141  0.0000E+00  0.3219E+02
     17.422  0.7914E+00  0.3281E+02
     17.703  0.0000E+00  0.3306E+02
     17.983  0.0000E+00  0.3343E+02
     18.264  0.0000E+00  0.3465E+02
     18.545  0.0000E+00  0.3493E+02
     18.826  0.0000E+00  0.3604E+02
     19.107  0.0000E+00  0.3656E+02
     19.387  0.0000E+00  0.3778E+02
     19.668  0.3297E-01  0.3881E+02
     19.949  0.0000E+00  0.3969E+02
     20.230  0.0000E+00  0.4002E+02
     20.511  0.1319E+00  0.4011E+02
     20.791  0.0000E+00  0.4081E+02
     21.072  0.0000E+00  0.4184E+02
     21.353  0.2637E+00  0.4265E+02
     21.634  0.6834E+00  0.4377E+02
     21.915  0.1059E+01  0.4433E+02
     22.195  0.0000E+00  0.4527E+02
     22.476  0.7914E+00  0.4610E+02
     22.757  0.4527E-03  0.4712E+02
     23.038  0.0000E+00  0.4764E+02
     23.319  0.0000E+00  0.4810E+02
     23.600  0.0000E+00  0.4819E+02
     23.880  0.0000E+00  0.4895E+02
     24.161  0.9892E-01  0.4991E+02
     24.442  0.2062E+00  0.5074E+02
     24.723  0.0000E+00  0.5141E+02
     25.004  0.2116E+00  0.5180E+02
     25.284  0.0000E+00  0.5268E+02
     25.565  0.0000E+00  0.5336E+02
     25.846  0.0000E+00  0.5399E+02
     26.127  0.0000E+00  0.5452E+02
     26.408  0.3889E-01  0.5537E+02
     26.688  0.0000E+00  0.5662E+02
     26.969  0.0000E+00  0.5776E+02
     27.250  0.0000E+00  0.5798E+02
     27.531  0.1978E+00  0.5867E+02
     27.812  0.0000E+00  0.5948E+02
     28.093  0.0000E+00  0.6049E+02
     28.373  0.0000E+00  0.6079E+02
     28.654  0.0000E+00  0.6130E+02
     28.935  0.0000E+00  0.6174E+02
     29.216  0.0000E+00  0.6230E+02
     29.497  0.0000E+00  0.6263E+02
     29.777  0.0000E+00  0.6341E+02
     30.058  0.1978E+00  0.6441E+02
     30.339  0.0000E+00  0.6531E+02
     30.620  0.0000E+00  0.6613E+02
     30.901  0.0000E+00  0.6635E+02
     31.181  0.0000E+00  0.6765E+02
     31.462  0.2638E+00  0.6805E+02
     31.743  0.0000E+00  0.6866E+02
     32.024  0.0000E+00  0.6960E+02
     32.305  0.0000E+00  0.7029E+02
     32.585  0.1971E+00  0.7132E+02
     32.866  0.0000E+00  0.7184E+02
     33.147  0.4294E-08  0.7236E+02
     33.428  0.0000E+00  0.7332E+02
     33.709  0.0000E+00  0.7407E+02
     33.990  0.3957E+00  0.7496E+02
     34.270  0.0000E+00  0.7537E+02
     34.551  0.0000E+00  0.7657E+02
     34.832  0.0000E+00  0.7709E+02
     35.113  0.3421E-09  0.7785E+02
     35.394  0.6161E-13  0.7846E+02
     35.674  0.0000E+00  0.7882E+02
     35.955  0.0000E+00  0.7942E+02
     36.236  0.0000E+00  0.7969E+02
     36.517  0.0000E+00  0.8023E+02
     36.798  0.0000E+00  0.8095E+02
     37.078  0.3534E-02  0.8150E+02
     37.359  0.0000E+00  0.8294E+02
     37.640  0.0000E+00  0.8375E+02
     37.921  0.0000E+00  0.8455E+02
     38.202  0.0000E+00  0.8534E+02
     38.482  0.4576E-02  0.8590E+02
     38.763  0.3535E-02  0.8708E+02
     39.044  0.0000E+00  0.8800E+02
     39.325  0.2141E-04  0.8831E+02
     39.606  0.9956E-03  0.8993E+02
     39.887  0.0000E+00  0.9050E+02
     40.167  0.0000E+00  0.9143E+02
     40.448  0.0000E+00  0.9198E+02
     40.729  0.0000E+00  0.9335E+02
     41.010  0.6049E-06  0.9383E+02
     41.291  0.7914E+00  0.9511E+02
     41.571  0.0000E+00  0.9533E+02
     41.852  0.0000E+00  0.9557E+02
     42.133  0.0000E+00  0.9624E+02
     42.414  0.0000E+00  0.9735E+02
     42.695  0.0000E+00  0.9780E+02
     42.975  0.0000E+00  0.9892E+02
     43.256  0.0000E+00  0.9914E+02
     43.537  0.0000E+00  0.9992E+02
     43.818  0.5153E+00  0.1008E+03
     44.099  0.0000E+00  0.1018E+03
     44.379  0.0000E+00  0.1026E+03
     44.660  0.0000E+00  0.1037E+03
     44.941  0.1954E-03  0.1047E+03
     45.222  0.0000E+00  0.1057E+03
     45.503  0.0000E+00  0.1066E+03
     45.784  0.0000E+00  0.1074E+03
     46.064  0.7914E+00  0.1080E+03
     46.345  0.0000E+00  0.1083E+03
     46.626  0.0000E+00  0.1093E+03
     46.907  0.3957E+00  0.1098E+03
     47.188  0.0000E+00  0.1105E+03
     47.468  0.2638E+00  0.1110E+03
     47.749  0.3405E-08  0.1126E+03
     48.030  0.0000E+00  0.1131E+03
     48.311  0.0000E+00  0.1143E+03
     48.592  0.0000E+00  0.1148E+03
     48.872  0.0000E+00  0.1151E+03
     49.153  0.4330E+00  0.1162E+03
     49.434  0.7894E+00  0.1168E+03
     49.715  0.8452E-04  0.1179E+03
     49.996  0.0000E+00  0.1182E+03
     50.276  0.4253E+00  0.1187E+03
     50.557  0.0000E+00  0.1206E+03
     50.838  0.0000E+00  0.1212E+03
     51.119  0.0000E+00  0.1216E+03
     51.400  0.0000E+00  0.1229E+03
     51.681  0.0000E+00  0.1242E+03
     51.961  0.0000E+00  0.1248E+03
     52.242  0.0000E+00  0.1253E+03
     52.523  0.0000E+00  0.1257E+03
     52.804  0.1123E-03  0.1263E+03
     53.085  0.0000E+00  0.1270E+03
     53.365  0.0000E+00  0.1275E+03
     53.646  0.0000E+00  0.1279E+03
     53.927  0.0000E+00  0.1279E+03
     54.208  0.0000E+00  0.1279E+03
     54.489  0.0000E+00  0.1279E+03
     54.769  0.0000E+00  0.1279E+03
     55.050  0.0000E+00  0.1280E+03
     55.331  0.0000E+00  0.1280E+03
     55.612  0.0000E+00  0.1280E+03
     55.893  0.0000E+00  0.1280E+03
     56.173  0.0000E+00  0.1280E+03
     56.454  0.0000E+00  0.1280E+03
     56.735  0.0000E+00  0.1280E+03
     57.016  0.0000E+00  0.1280E+03
     57.297  0.0000E+00  0.1280E+03
     57.578  0.0000E+00  0.1280E+03
     57.858  0.0000E+00  0.1280E+03
     58.139  0.0000E+00  0.1280E+03
     58.420  0.0000E+00  0.1280E+03
     58.701  0.0000E+00  0.1280E+03
