   1   1   0   0
  0.5764366E+02  0.4335996E-09  0.4335996E-09  0.4335996E-09  0.1000000E-15
  1.000000000000000E-004
  CAR 
 Og_FCC                                  
     12.83390520    -17.50693418  301     -3.22145564      1.00000000
    -17.507  0.0000E+00  0.0000E+00
    -17.406  0.0000E+00  0.0000E+00
    -17.305  0.0000E+00  0.0000E+00
    -17.204  0.0000E+00  0.0000E+00
    -17.102  0.0000E+00  0.0000E+00
    -17.001  0.0000E+00  0.0000E+00
    -16.900  0.0000E+00  0.0000E+00
    -16.799  0.0000E+00  0.0000E+00
    -16.698  0.0000E+00  0.0000E+00
    -16.597  0.0000E+00  0.0000E+00
    -16.496  0.0000E+00  0.0000E+00
    -16.394  0.0000E+00  0.0000E+00
    -16.293  0.0000E+00  0.0000E+00
    -16.192  0.0000E+00  0.0000E+00
    -16.091  0.0000E+00  0.9259E-02
    -15.990  0.1099E+01  0.2500E+00
    -15.889  0.2563E+01  0.8611E+00
    -15.788  0.0000E+00  0.2000E+01
    -15.686  0.0000E+00  0.2000E+01
    -15.585  0.0000E+00  0.2000E+01
    -15.484  0.0000E+00  0.2000E+01
    -15.383  0.0000E+00  0.2000E+01
    -15.282  0.0000E+00  0.2000E+01
    -15.181  0.0000E+00  0.2000E+01
    -15.080  0.0000E+00  0.2000E+01
    -14.979  0.0000E+00  0.2000E+01
    -14.877  0.0000E+00  0.2000E+01
    -14.776  0.0000E+00  0.2000E+01
    -14.675  0.0000E+00  0.2000E+01
    -14.574  0.0000E+00  0.2000E+01
    -14.473  0.0000E+00  0.2000E+01
    -14.372  0.0000E+00  0.2000E+01
    -14.271  0.0000E+00  0.2000E+01
    -14.169  0.0000E+00  0.2000E+01
    -14.068  0.0000E+00  0.2000E+01
    -13.967  0.0000E+00  0.2000E+01
    -13.866  0.0000E+00  0.2000E+01
    -13.765  0.0000E+00  0.2000E+01
    -13.664  0.0000E+00  0.2000E+01
    -13.563  0.0000E+00  0.2000E+01
    -13.461  0.0000E+00  0.2000E+01
    -13.360  0.0000E+00  0.2000E+01
    -13.259  0.0000E+00  0.2000E+01
    -13.158  0.0000E+00  0.2000E+01
    -13.057  0.0000E+00  0.2000E+01
    -12.956  0.0000E+00  0.2000E+01
    -12.855  0.0000E+00  0.2000E+01
    -12.754  0.0000E+00  0.2000E+01
    -12.652  0.0000E+00  0.2000E+01
    -12.551  0.0000E+00  0.2000E+01
    -12.450  0.0000E+00  0.2000E+01
    -12.349  0.0000E+00  0.2000E+01
    -12.248  0.0000E+00  0.2000E+01
    -12.147  0.0000E+00  0.2000E+01
    -12.046  0.0000E+00  0.2000E+01
    -11.944  0.0000E+00  0.2000E+01
    -11.843  0.0000E+00  0.2000E+01
    -11.742  0.0000E+00  0.2000E+01
    -11.641  0.0000E+00  0.2000E+01
    -11.540  0.0000E+00  0.2000E+01
    -11.439  0.0000E+00  0.2000E+01
    -11.338  0.0000E+00  0.2000E+01
    -11.236  0.0000E+00  0.2000E+01
    -11.135  0.0000E+00  0.2000E+01
    -11.034  0.0000E+00  0.2000E+01
    -10.933  0.0000E+00  0.2000E+01
    -10.832  0.0000E+00  0.2000E+01
    -10.731  0.0000E+00  0.2000E+01
    -10.630  0.0000E+00  0.2000E+01
    -10.529  0.0000E+00  0.2000E+01
    -10.427  0.0000E+00  0.2000E+01
    -10.326  0.0000E+00  0.2000E+01
    -10.225  0.0000E+00  0.2000E+01
    -10.124  0.0000E+00  0.2000E+01
    -10.023  0.0000E+00  0.2000E+01
     -9.922  0.0000E+00  0.2000E+01
     -9.821  0.0000E+00  0.2000E+01
     -9.719  0.0000E+00  0.2000E+01
     -9.618  0.0000E+00  0.2000E+01
     -9.517  0.0000E+00  0.2000E+01
     -9.416  0.0000E+00  0.2000E+01
     -9.315  0.0000E+00  0.2000E+01
     -9.214  0.0000E+00  0.2000E+01
     -9.113  0.0000E+00  0.2000E+01
     -9.011  0.0000E+00  0.2000E+01
     -8.910  0.0000E+00  0.2000E+01
     -8.809  0.0000E+00  0.2000E+01
     -8.708  0.0000E+00  0.2000E+01
     -8.607  0.0000E+00  0.2000E+01
     -8.506  0.0000E+00  0.2000E+01
     -8.405  0.0000E+00  0.2000E+01
     -8.304  0.0000E+00  0.2000E+01
     -8.202  0.0000E+00  0.2000E+01
     -8.101  0.0000E+00  0.2000E+01
     -8.000  0.0000E+00  0.2000E+01
     -7.899  0.0000E+00  0.2000E+01
     -7.798  0.0000E+00  0.2000E+01
     -7.697  0.0000E+00  0.2000E+01
     -7.596  0.0000E+00  0.2000E+01
     -7.494  0.0000E+00  0.2000E+01
     -7.393  0.0000E+00  0.2000E+01
     -7.292  0.0000E+00  0.2000E+01
     -7.191  0.0000E+00  0.2000E+01
     -7.090  0.0000E+00  0.2000E+01
     -6.989  0.0000E+00  0.2000E+01
     -6.888  0.0000E+00  0.2000E+01
     -6.787  0.0000E+00  0.2000E+01
     -6.685  0.0000E+00  0.2000E+01
     -6.584  0.0000E+00  0.2000E+01
     -6.483  0.0000E+00  0.2000E+01
     -6.382  0.0000E+00  0.2000E+01
     -6.281  0.0000E+00  0.2000E+01
     -6.180  0.0000E+00  0.2000E+01
     -6.079  0.0000E+00  0.2000E+01
     -5.977  0.0000E+00  0.2000E+01
     -5.876  0.0000E+00  0.2000E+01
     -5.775  0.0000E+00  0.2000E+01
     -5.674  0.0000E+00  0.2000E+01
     -5.573  0.2747E+00  0.2065E+01
     -5.472  0.2197E+01  0.2843E+01
     -5.371  0.0000E+00  0.3398E+01
     -5.269  0.0000E+00  0.3528E+01
     -5.168  0.0000E+00  0.3750E+01
     -5.067  0.0000E+00  0.3861E+01
     -4.966  0.0000E+00  0.3861E+01
     -4.865  0.0000E+00  0.3861E+01
     -4.764  0.0000E+00  0.3991E+01
     -4.663  0.0000E+00  0.3991E+01
     -4.562  0.0000E+00  0.4000E+01
     -4.460  0.1530E-13  0.4111E+01
     -4.359  0.0000E+00  0.4694E+01
     -4.258  0.2197E+01  0.5139E+01
     -4.157  0.0000E+00  0.5417E+01
     -4.056  0.2727E-11  0.5454E+01
     -3.955  0.0000E+00  0.5861E+01
     -3.854  0.0000E+00  0.6556E+01
     -3.752  0.0000E+00  0.6778E+01
     -3.651  0.5493E+00  0.7111E+01
     -3.550  0.0000E+00  0.7630E+01
     -3.449  0.1099E+01  0.7778E+01
     -3.348  0.0000E+00  0.7907E+01
     -3.247  0.1431E+00  0.7996E+01
     -3.146  0.0000E+00  0.8000E+01
     -3.044  0.0000E+00  0.8000E+01
     -2.943  0.0000E+00  0.8000E+01
     -2.842  0.0000E+00  0.8000E+01
     -2.741  0.0000E+00  0.8000E+01
     -2.640  0.0000E+00  0.8000E+01
     -2.539  0.0000E+00  0.8000E+01
     -2.438  0.0000E+00  0.8000E+01
     -2.337  0.0000E+00  0.8000E+01
     -2.235  0.0000E+00  0.8000E+01
     -2.134  0.0000E+00  0.8000E+01
     -2.033  0.0000E+00  0.8000E+01
     -1.932  0.0000E+00  0.8000E+01
     -1.831  0.0000E+00  0.8000E+01
     -1.730  0.0000E+00  0.8000E+01
     -1.629  0.0000E+00  0.8000E+01
     -1.527  0.0000E+00  0.8000E+01
     -1.426  0.0000E+00  0.8000E+01
     -1.325  0.0000E+00  0.8000E+01
     -1.224  0.0000E+00  0.8000E+01
     -1.123  0.0000E+00  0.8000E+01
     -1.022  0.0000E+00  0.8000E+01
     -0.921  0.0000E+00  0.8000E+01
     -0.819  0.0000E+00  0.8000E+01
     -0.718  0.0000E+00  0.8000E+01
     -0.617  0.0000E+00  0.8000E+01
     -0.516  0.0000E+00  0.8000E+01
     -0.415  0.0000E+00  0.8000E+01
     -0.314  0.0000E+00  0.8000E+01
     -0.213  0.0000E+00  0.8000E+01
     -0.112  0.0000E+00  0.8000E+01
     -0.010  0.0000E+00  0.8000E+01
      0.091  0.0000E+00  0.8000E+01
      0.192  0.0000E+00  0.8000E+01
      0.293  0.0000E+00  0.8000E+01
      0.394  0.0000E+00  0.8000E+01
      0.495  0.0000E+00  0.8000E+01
      0.596  0.0000E+00  0.8000E+01
      0.698  0.0000E+00  0.8000E+01
      0.799  0.0000E+00  0.8000E+01
      0.900  0.0000E+00  0.8000E+01
      1.001  0.0000E+00  0.8000E+01
      1.102  0.0000E+00  0.8000E+01
      1.203  0.0000E+00  0.8000E+01
      1.304  0.0000E+00  0.8000E+01
      1.406  0.0000E+00  0.8000E+01
      1.507  0.0000E+00  0.8000E+01
      1.608  0.0000E+00  0.8000E+01
      1.709  0.0000E+00  0.8000E+01
      1.810  0.0000E+00  0.8000E+01
      1.911  0.0000E+00  0.8000E+01
      2.012  0.0000E+00  0.8000E+01
      2.113  0.0000E+00  0.8000E+01
      2.215  0.0000E+00  0.8000E+01
      2.316  0.0000E+00  0.8000E+01
      2.417  0.0000E+00  0.8000E+01
      2.518  0.0000E+00  0.8000E+01
      2.619  0.0000E+00  0.8009E+01
      2.720  0.0000E+00  0.8009E+01
      2.821  0.0000E+00  0.8009E+01
      2.923  0.0000E+00  0.8009E+01
      3.024  0.0000E+00  0.8009E+01
      3.125  0.0000E+00  0.8009E+01
      3.226  0.0000E+00  0.8009E+01
      3.327  0.0000E+00  0.8083E+01
      3.428  0.0000E+00  0.8083E+01
      3.529  0.0000E+00  0.8139E+01
      3.631  0.0000E+00  0.8139E+01
      3.732  0.0000E+00  0.8167E+01
      3.833  0.0000E+00  0.8167E+01
      3.934  0.0000E+00  0.8167E+01
      4.035  0.0000E+00  0.8278E+01
      4.136  0.2197E+01  0.8556E+01
      4.237  0.0000E+00  0.8667E+01
      4.338  0.0000E+00  0.8667E+01
      4.440  0.0000E+00  0.9000E+01
      4.541  0.0000E+00  0.9028E+01
      4.642  0.0000E+00  0.9250E+01
      4.743  0.0000E+00  0.9583E+01
      4.844  0.0000E+00  0.9583E+01
      4.945  0.0000E+00  0.9861E+01
      5.046  0.2197E+01  0.1031E+02
      5.148  0.0000E+00  0.1031E+02
      5.249  0.0000E+00  0.1031E+02
      5.350  0.0000E+00  0.1042E+02
      5.451  0.0000E+00  0.1042E+02
      5.552  0.0000E+00  0.1064E+02
      5.653  0.0000E+00  0.1086E+02
      5.754  0.2127E+01  0.1130E+02
      5.856  0.0000E+00  0.1142E+02
      5.957  0.5337E+00  0.1169E+02
      6.058  0.0000E+00  0.1203E+02
      6.159  0.0000E+00  0.1203E+02
      6.260  0.0000E+00  0.1203E+02
      6.361  0.0000E+00  0.1203E+02
      6.462  0.0000E+00  0.1210E+02
      6.563  0.0000E+00  0.1232E+02
      6.665  0.0000E+00  0.1255E+02
      6.766  0.6372E-09  0.1292E+02
      6.867  0.0000E+00  0.1303E+02
      6.968  0.0000E+00  0.1321E+02
      7.069  0.2197E+01  0.1354E+02
      7.170  0.0000E+00  0.1354E+02
      7.271  0.7299E+00  0.1391E+02
      7.373  0.0000E+00  0.1430E+02
      7.474  0.0000E+00  0.1433E+02
      7.575  0.0000E+00  0.1461E+02
      7.676  0.0000E+00  0.1472E+02
      7.777  0.1033E+01  0.1516E+02
      7.878  0.4935E-01  0.1517E+02
      7.979  0.0000E+00  0.1539E+02
      8.081  0.0000E+00  0.1539E+02
      8.182  0.0000E+00  0.1550E+02
      8.283  0.0000E+00  0.1561E+02
      8.384  0.0000E+00  0.1561E+02
      8.485  0.0000E+00  0.1583E+02
      8.586  0.0000E+00  0.1583E+02
      8.687  0.0000E+00  0.1583E+02
      8.788  0.4578E-01  0.1591E+02
      8.890  0.0000E+00  0.1594E+02
      8.991  0.0000E+00  0.1616E+02
      9.092  0.0000E+00  0.1638E+02
      9.193  0.0000E+00  0.1644E+02
      9.294  0.0000E+00  0.1694E+02
      9.395  0.0000E+00  0.1694E+02
      9.496  0.0000E+00  0.1694E+02
      9.598  0.5974E-01  0.1701E+02
      9.699  0.0000E+00  0.1702E+02
      9.800  0.0000E+00  0.1713E+02
      9.901  0.0000E+00  0.1739E+02
     10.002  0.0000E+00  0.1739E+02
     10.103  0.0000E+00  0.1739E+02
     10.204  0.0000E+00  0.1739E+02
     10.306  0.0000E+00  0.1761E+02
     10.407  0.0000E+00  0.1761E+02
     10.508  0.0000E+00  0.1783E+02
     10.609  0.0000E+00  0.1783E+02
     10.710  0.0000E+00  0.1783E+02
     10.811  0.0000E+00  0.1783E+02
     10.912  0.0000E+00  0.1783E+02
     11.013  0.0000E+00  0.1783E+02
     11.115  0.0000E+00  0.1786E+02
     11.216  0.0000E+00  0.1786E+02
     11.317  0.0000E+00  0.1789E+02
     11.418  0.0000E+00  0.1789E+02
     11.519  0.0000E+00  0.1800E+02
     11.620  0.0000E+00  0.1800E+02
     11.721  0.0000E+00  0.1800E+02
     11.823  0.0000E+00  0.1800E+02
     11.924  0.0000E+00  0.1800E+02
     12.025  0.0000E+00  0.1800E+02
     12.126  0.0000E+00  0.1800E+02
     12.227  0.0000E+00  0.1800E+02
     12.328  0.0000E+00  0.1800E+02
     12.429  0.0000E+00  0.1800E+02
     12.530  0.0000E+00  0.1800E+02
     12.632  0.0000E+00  0.1800E+02
     12.733  0.0000E+00  0.1800E+02
     12.834  0.0000E+00  0.1800E+02
