    1    1    1    1
  0.5764366E+02  0.4335996E-09  0.4335996E-09  0.4335996E-09  0.1000000E-15
  1.000000000000000E-004
  CAR 
 Og_FCC                                  
      8    216     18
 
  0.0000000E+00  0.0000000E+00  0.0000000E+00  0.4629630E-02
    1      -16.127805   1.000000
    2      -16.127801   1.000000
    3       -4.602784   1.000000
    4       -4.602783   1.000000
    5       -3.247291   1.000000
    6       -3.247290   1.000000
    7       -3.247289   1.000000
    8       -3.247288   1.000000
    9        2.552343   0.000000
   10        2.552350   0.000000
   11        7.001113   0.000000
   12        7.001114   0.000000
   13        7.001115   0.000000
   14        7.001117   0.000000
   15        7.058572   0.000000
   16        7.058573   0.000000
   17        9.274143   0.000000
   18        9.274144   0.000000
 
  0.1666667E+00  0.1535160E-17  0.2775558E-16  0.4629630E-02
    1      -16.071920   1.000000
    2      -16.071916   1.000000
    3       -4.809076   1.000000
    4       -4.809075   1.000000
    5       -3.609766   1.000000
    6       -3.609765   1.000000
    7       -3.305260   1.000000
    8       -3.305260   1.000000
    9        3.264660   0.000000
   10        3.264665   0.000000
   11        6.406292   0.000000
   12        6.406295   0.000000
   13        7.212293   0.000000
   14        7.212294   0.000000
   15        7.269504   0.000000
   16        7.269505   0.000000
   17        8.756594   0.000000
   18        8.758899   0.000000
 
  0.3333333E+00 -0.5244083E-16 -0.1387779E-16  0.4629630E-02
    1      -15.954295   1.000000
    2      -15.954291   1.000000
    3       -5.337692   1.000000
    4       -5.337691   1.000000
    5       -4.014187   1.000000
    6       -4.014187   1.000000
    7       -3.415641   1.000000
    8       -3.415641   1.000000
    9        3.998992   0.000000
   10        3.998996   0.000000
   11        6.691105   0.000000
   12        6.691110   0.000000
   13        6.931318   0.000000
   14        6.931319   0.000000
   15        6.994882   0.000000
   16        6.994883   0.000000
   17        9.588018   0.000000
   18        9.588350   0.000000
 
  0.5000000E+00 -0.7866125E-16 -0.2775558E-16  0.4629630E-02
    1      -15.893806   1.000000
    2      -15.893802   1.000000
    3       -5.625336   1.000000
    4       -5.625335   1.000000
    5       -4.132160   1.000000
    6       -4.132160   1.000000
    7       -3.468375   1.000000
    8       -3.468375   1.000000
    9        3.995851   0.000000
   10        3.995854   0.000000
   11        6.675891   0.000000
   12        6.675892   0.000000
   13        6.735174   0.000000
   14        6.735175   0.000000
   15        7.433044   0.000000
   16        7.433054   0.000000
   17        9.867173   0.000000
   18        9.867177   0.000000
 
 -0.3333333E+00  0.5244083E-16  0.1387779E-16  0.4629630E-02
    1      -15.954295   1.000000
    2      -15.954291   1.000000
    3       -5.337692   1.000000
    4       -5.337691   1.000000
    5       -4.014187   1.000000
    6       -4.014187   1.000000
    7       -3.415641   1.000000
    8       -3.415641   1.000000
    9        3.998992   0.000000
   10        3.998996   0.000000
   11        6.691105   0.000000
   12        6.691110   0.000000
   13        6.931318   0.000000
   14        6.931319   0.000000
   15        6.994882   0.000000
   16        6.994883   0.000000
   17        9.587928   0.000000
   18        9.587994   0.000000
 
 -0.1666667E+00 -0.1535160E-17 -0.2775558E-16  0.4629630E-02
    1      -16.071920   1.000000
    2      -16.071916   1.000000
    3       -4.809076   1.000000
    4       -4.809075   1.000000
    5       -3.609766   1.000000
    6       -3.609765   1.000000
    7       -3.305260   1.000000
    8       -3.305260   1.000000
    9        3.264660   0.000000
   10        3.264665   0.000000
   11        6.406292   0.000000
   12        6.406295   0.000000
   13        7.212293   0.000000
   14        7.212294   0.000000
   15        7.269504   0.000000
   16        7.269505   0.000000
   17        8.755984   0.000000
   18        8.758432   0.000000
 
  0.0000000E+00  0.1666667E+00  0.0000000E+00  0.4629630E-02
    1      -16.071920   1.000000
    2      -16.071916   1.000000
    3       -4.809076   1.000000
    4       -4.809075   1.000000
    5       -3.609766   1.000000
    6       -3.609765   1.000000
    7       -3.305261   1.000000
    8       -3.305260   1.000000
    9        3.264659   0.000000
   10        3.264665   0.000000
   11        6.406292   0.000000
   12        6.406295   0.000000
   13        7.212293   0.000000
   14        7.212294   0.000000
   15        7.269504   0.000000
   16        7.269505   0.000000
   17        8.757639   0.000000
   18        8.763932   0.000000
 
  0.1666667E+00  0.1666667E+00  0.4163336E-16  0.4629630E-02
    1      -16.053374   1.000000
    2      -16.053370   1.000000
    3       -4.848029   1.000000
    4       -4.848028   1.000000
    5       -3.655253   1.000000
    6       -3.655252   1.000000
    7       -3.423097   1.000000
    8       -3.423096   1.000000
    9        3.513604   0.000000
   10        3.513610   0.000000
   11        5.955300   0.000000
   12        5.955303   0.000000
   13        7.481337   0.000000
   14        7.481339   0.000000
   15        7.596974   0.000000
   16        7.596976   0.000000
   17        7.640349   0.000000
   18        7.640350   0.000000
 
  0.3333333E+00  0.1666667E+00  0.0000000E+00  0.4629630E-02
    1      -15.956039   1.000000
    2      -15.956034   1.000000
    3       -5.208169   1.000000
    4       -5.208168   1.000000
    5       -4.037161   1.000000
    6       -4.037160   1.000000
    7       -3.569407   1.000000
    8       -3.569407   1.000000
    9        4.350718   0.000000
   10        4.350724   0.000000
   11        5.690487   0.000000
   12        5.690490   0.000000
   13        6.496767   0.000000
   14        6.496771   0.000000
   15        7.759841   0.000000
   16        7.759844   0.000000
   17        8.896253   0.000000
   18        8.896255   0.000000
 
  0.5000000E+00  0.1666667E+00  0.8326673E-16  0.4629630E-02
    1      -15.874734   1.000000
    2      -15.874730   1.000000
    3       -5.529162   1.000000
    4       -5.529161   1.000000
    5       -4.265830   1.000000
    6       -4.265829   1.000000
    7       -3.673710   1.000000
    8       -3.673709   1.000000
    9        4.563845   0.000000
   10        4.563849   0.000000
   11        5.753061   0.000000
   12        5.753068   0.000000
   13        7.063284   0.000000
   14        7.063287   0.000000
   15        7.331721   0.000000
   16        7.331724   0.000000
   17       10.237719   0.000000
   18       10.237726   0.000000
 
 -0.3333333E+00  0.1666667E+00  0.0000000E+00  0.4629630E-02
    1      -15.895012   1.000000
    2      -15.895008   1.000000
    3       -5.446708   1.000000
    4       -5.446706   1.000000
    5       -4.250837   1.000000
    6       -4.250836   1.000000
    7       -3.621562   1.000000
    8       -3.621560   1.000000
    9        4.712217   0.000000
   10        4.712220   0.000000
   11        5.929310   0.000000
   12        5.929317   0.000000
   13        6.744301   0.000000
   14        6.744304   0.000000
   15        7.247112   0.000000
   16        7.247115   0.000000
   17        9.276014   0.000000
   18        9.276017   0.000000
 
 -0.1666667E+00  0.1666667E+00  0.3218561E-17  0.4629630E-02
    1      -15.994850   1.000000
    2      -15.994846   1.000000
    3       -5.081423   1.000000
    4       -5.081421   1.000000
    5       -3.941074   1.000000
    6       -3.941073   1.000000
    7       -3.453196   1.000000
    8       -3.453194   1.000000
    9        4.163068   0.000000
   10        4.163073   0.000000
   11        6.003024   0.000000
   12        6.003026   0.000000
   13        6.770038   0.000000
   14        6.770044   0.000000
   15        7.735394   0.000000
   16        7.735397   0.000000
   17        7.775998   0.000000
   18        7.776001   0.000000
 
  0.0000000E+00  0.3333333E+00  0.1387779E-16  0.4629630E-02
    1      -15.954295   1.000000
    2      -15.954291   1.000000
    3       -5.337692   1.000000
    4       -5.337691   1.000000
    5       -4.014187   1.000000
    6       -4.014187   1.000000
    7       -3.415642   1.000000
    8       -3.415641   1.000000
    9        3.998991   0.000000
   10        3.998995   0.000000
   11        6.691105   0.000000
   12        6.691111   0.000000
   13        6.931317   0.000000
   14        6.931319   0.000000
   15        6.994881   0.000000
   16        6.994883   0.000000
   17        9.588070   0.000000
   18        9.589355   0.000000
 
  0.1666667E+00  0.3333333E+00  0.5551115E-16  0.4629630E-02
    1      -15.956039   1.000000
    2      -15.956034   1.000000
    3       -5.208169   1.000000
    4       -5.208168   1.000000
    5       -4.037161   1.000000
    6       -4.037160   1.000000
    7       -3.569408   1.000000
    8       -3.569407   1.000000
    9        4.350718   0.000000
   10        4.350724   0.000000
   11        5.690487   0.000000
   12        5.690490   0.000000
   13        6.496766   0.000000
   14        6.496770   0.000000
   15        7.759840   0.000000
   16        7.759843   0.000000
   17        8.896253   0.000000
   18        8.896256   0.000000
 
  0.3333333E+00  0.3333333E+00  0.5551115E-16  0.4629630E-02
    1      -15.897638   1.000000
    2      -15.897634   1.000000
    3       -5.341261   1.000000
    4       -5.341260   1.000000
    5       -4.197164   1.000000
    6       -4.197163   1.000000
    7       -3.744263   1.000000
    8       -3.744263   1.000000
    9        4.107849   0.000000
   10        4.107858   0.000000
   11        4.853745   0.000000
   12        4.853748   0.000000
   13        7.324446   0.000000
   14        7.324448   0.000000
   15        9.107457   0.000000
   16        9.107458   0.000000
   17        9.246608   0.000000
   18        9.246609   0.000000
 
  0.5000000E+00  0.3333333E+00  0.0000000E+00  0.4629630E-02
    1      -15.836617   1.000000
    2      -15.836612   1.000000
    3       -5.496057   1.000000
    4       -5.496056   1.000000
    5       -4.391164   1.000000
    6       -4.391163   1.000000
    7       -3.899659   1.000000
    8       -3.899658   1.000000
    9        4.128562   0.000000
   10        4.128570   0.000000
   11        5.023677   0.000000
   12        5.023680   0.000000
   13        7.522037   0.000000
   14        7.522039   0.000000
   15        9.003703   0.000000
   16        9.003706   0.000000
   17       10.429698   0.000000
   18       10.429702   0.000000
 
 -0.3333333E+00  0.3333333E+00  0.9626754E-17  0.4629630E-02
    1      -15.835357   1.000000
    2      -15.835353   1.000000
    3       -5.462366   1.000000
    4       -5.462364   1.000000
    5       -4.518503   1.000000
    6       -4.518502   1.000000
    7       -3.869110   1.000000
    8       -3.869108   1.000000
    9        4.669183   0.000000
   10        4.669189   0.000000
   11        5.825906   0.000000
   12        5.825911   0.000000
   13        6.916208   0.000000
   14        6.916209   0.000000
   15        8.202496   0.000000
   16        8.202499   0.000000
   17        9.720580   0.000000
   18        9.720632   0.000000
 
 -0.1666667E+00  0.3333333E+00 -0.6938894E-17  0.4629630E-02
    1      -15.895012   1.000000
    2      -15.895008   1.000000
    3       -5.446708   1.000000
    4       -5.446706   1.000000
    5       -4.250837   1.000000
    6       -4.250836   1.000000
    7       -3.621562   1.000000
    8       -3.621560   1.000000
    9        4.712216   0.000000
   10        4.712219   0.000000
   11        5.929310   0.000000
   12        5.929317   0.000000
   13        6.744302   0.000000
   14        6.744305   0.000000
   15        7.247111   0.000000
   16        7.247115   0.000000
   17        9.276015   0.000000
   18        9.276017   0.000000
 
  0.0000000E+00  0.5000000E+00  0.2775558E-16  0.4629630E-02
    1      -15.893806   1.000000
    2      -15.893802   1.000000
    3       -5.625336   1.000000
    4       -5.625335   1.000000
    5       -4.132160   1.000000
    6       -4.132159   1.000000
    7       -3.468376   1.000000
    8       -3.468375   1.000000
    9        3.995850   0.000000
   10        3.995854   0.000000
   11        6.675891   0.000000
   12        6.675893   0.000000
   13        6.735174   0.000000
   14        6.735176   0.000000
   15        7.433044   0.000000
   16        7.433055   0.000000
   17        9.867172   0.000000
   18        9.867176   0.000000
 
  0.1666667E+00  0.5000000E+00  0.0000000E+00  0.4629630E-02
    1      -15.874734   1.000000
    2      -15.874730   1.000000
    3       -5.529162   1.000000
    4       -5.529161   1.000000
    5       -4.265830   1.000000
    6       -4.265829   1.000000
    7       -3.673710   1.000000
    8       -3.673709   1.000000
    9        4.563845   0.000000
   10        4.563849   0.000000
   11        5.753061   0.000000
   12        5.753068   0.000000
   13        7.063284   0.000000
   14        7.063287   0.000000
   15        7.331721   0.000000
   16        7.331724   0.000000
   17       10.237720   0.000000
   18       10.237726   0.000000
 
  0.3333333E+00  0.5000000E+00  0.0000000E+00  0.4629630E-02
    1      -15.836617   1.000000
    2      -15.836612   1.000000
    3       -5.496057   1.000000
    4       -5.496056   1.000000
    5       -4.391164   1.000000
    6       -4.391163   1.000000
    7       -3.899659   1.000000
    8       -3.899658   1.000000
    9        4.128562   0.000000
   10        4.128570   0.000000
   11        5.023677   0.000000
   12        5.023680   0.000000
   13        7.522037   0.000000
   14        7.522039   0.000000
   15        9.003703   0.000000
   16        9.003706   0.000000
   17       10.429698   0.000000
   18       10.429703   0.000000
 
  0.5000000E+00  0.5000000E+00  0.1110223E-15  0.4629630E-02
    1      -15.817102   1.000000
    2      -15.817098   1.000000
    3       -5.579864   1.000000
    4       -5.579863   1.000000
    5       -4.396612   1.000000
    6       -4.396612   1.000000
    7       -3.892267   1.000000
    8       -3.892266   1.000000
    9        3.637414   0.000000
   10        3.637423   0.000000
   11        4.465184   0.000000
   12        4.465187   0.000000
   13        8.830125   0.000000
   14        8.830126   0.000000
   15       11.054541   0.000000
   16       11.054557   0.000000
   17       11.237347   0.000000
   18       11.272943   0.000000
 
 -0.3333333E+00  0.5000000E+00 -0.2775558E-16  0.4629630E-02
    1      -15.836617   1.000000
    2      -15.836612   1.000000
    3       -5.496057   1.000000
    4       -5.496056   1.000000
    5       -4.391164   1.000000
    6       -4.391163   1.000000
    7       -3.899659   1.000000
    8       -3.899658   1.000000
    9        4.128562   0.000000
   10        4.128570   0.000000
   11        5.023677   0.000000
   12        5.023680   0.000000
   13        7.522037   0.000000
   14        7.522039   0.000000
   15        9.003703   0.000000
   16        9.003706   0.000000
   17       10.429698   0.000000
   18       10.429703   0.000000
 
 -0.1666667E+00  0.5000000E+00 -0.4163336E-16  0.4629630E-02
    1      -15.874734   1.000000
    2      -15.874730   1.000000
    3       -5.529162   1.000000
    4       -5.529161   1.000000
    5       -4.265830   1.000000
    6       -4.265829   1.000000
    7       -3.673710   1.000000
    8       -3.673709   1.000000
    9        4.563845   0.000000
   10        4.563849   0.000000
   11        5.753061   0.000000
   12        5.753068   0.000000
   13        7.063284   0.000000
   14        7.063287   0.000000
   15        7.331721   0.000000
   16        7.331724   0.000000
   17       10.237720   0.000000
   18       10.237726   0.000000
 
  0.0000000E+00 -0.3333333E+00 -0.1387779E-16  0.4629630E-02
    1      -15.954295   1.000000
    2      -15.954291   1.000000
    3       -5.337692   1.000000
    4       -5.337691   1.000000
    5       -4.014187   1.000000
    6       -4.014187   1.000000
    7       -3.415642   1.000000
    8       -3.415641   1.000000
    9        3.998991   0.000000
   10        3.998995   0.000000
   11        6.691105   0.000000
   12        6.691111   0.000000
   13        6.931317   0.000000
   14        6.931319   0.000000
   15        6.994881   0.000000
   16        6.994883   0.000000
   17        9.588274   0.000000
   18        9.589823   0.000000
 
  0.1666667E+00 -0.3333333E+00  0.6938894E-17  0.4629630E-02
    1      -15.895012   1.000000
    2      -15.895008   1.000000
    3       -5.446708   1.000000
    4       -5.446706   1.000000
    5       -4.250837   1.000000
    6       -4.250836   1.000000
    7       -3.621562   1.000000
    8       -3.621560   1.000000
    9        4.712216   0.000000
   10        4.712219   0.000000
   11        5.929310   0.000000
   12        5.929317   0.000000
   13        6.744302   0.000000
   14        6.744305   0.000000
   15        7.247111   0.000000
   16        7.247115   0.000000
   17        9.276015   0.000000
   18        9.276017   0.000000
 
  0.3333333E+00 -0.3333333E+00 -0.9626754E-17  0.4629630E-02
    1      -15.835357   1.000000
    2      -15.835353   1.000000
    3       -5.462366   1.000000
    4       -5.462364   1.000000
    5       -4.518503   1.000000
    6       -4.518502   1.000000
    7       -3.869110   1.000000
    8       -3.869108   1.000000
    9        4.669183   0.000000
   10        4.669189   0.000000
   11        5.825906   0.000000
   12        5.825911   0.000000
   13        6.916208   0.000000
   14        6.916209   0.000000
   15        8.202496   0.000000
   16        8.202499   0.000000
   17        9.720580   0.000000
   18        9.720630   0.000000
 
  0.5000000E+00 -0.3333333E+00 -0.3469447E-16  0.4629630E-02
    1      -15.836617   1.000000
    2      -15.836612   1.000000
    3       -5.496057   1.000000
    4       -5.496056   1.000000
    5       -4.391164   1.000000
    6       -4.391163   1.000000
    7       -3.899659   1.000000
    8       -3.899658   1.000000
    9        4.128562   0.000000
   10        4.128570   0.000000
   11        5.023677   0.000000
   12        5.023680   0.000000
   13        7.522037   0.000000
   14        7.522039   0.000000
   15        9.003703   0.000000
   16        9.003706   0.000000
   17       10.429698   0.000000
   18       10.429702   0.000000
 
 -0.3333333E+00 -0.3333333E+00 -0.5551115E-16  0.4629630E-02
    1      -15.897638   1.000000
    2      -15.897634   1.000000
    3       -5.341261   1.000000
    4       -5.341260   1.000000
    5       -4.197164   1.000000
    6       -4.197163   1.000000
    7       -3.744263   1.000000
    8       -3.744263   1.000000
    9        4.107849   0.000000
   10        4.107858   0.000000
   11        4.853745   0.000000
   12        4.853748   0.000000
   13        7.324446   0.000000
   14        7.324448   0.000000
   15        9.107457   0.000000
   16        9.107458   0.000000
   17        9.246608   0.000000
   18        9.246609   0.000000
 
 -0.1666667E+00 -0.3333333E+00 -0.5551115E-16  0.4629630E-02
    1      -15.956039   1.000000
    2      -15.956034   1.000000
    3       -5.208169   1.000000
    4       -5.208168   1.000000
    5       -4.037161   1.000000
    6       -4.037160   1.000000
    7       -3.569408   1.000000
    8       -3.569407   1.000000
    9        4.350718   0.000000
   10        4.350724   0.000000
   11        5.690487   0.000000
   12        5.690490   0.000000
   13        6.496766   0.000000
   14        6.496770   0.000000
   15        7.759840   0.000000
   16        7.759843   0.000000
   17        8.896253   0.000000
   18        8.896256   0.000000
 
  0.0000000E+00 -0.1666667E+00  0.0000000E+00  0.4629630E-02
    1      -16.071920   1.000000
    2      -16.071916   1.000000
    3       -4.809076   1.000000
    4       -4.809075   1.000000
    5       -3.609766   1.000000
    6       -3.609765   1.000000
    7       -3.305261   1.000000
    8       -3.305260   1.000000
    9        3.264659   0.000000
   10        3.264665   0.000000
   11        6.406292   0.000000
   12        6.406295   0.000000
   13        7.212293   0.000000
   14        7.212294   0.000000
   15        7.269504   0.000000
   16        7.269505   0.000000
   17        8.756202   0.000000
   18        8.768759   0.000000
 
  0.1666667E+00 -0.1666667E+00 -0.3218561E-17  0.4629630E-02
    1      -15.994850   1.000000
    2      -15.994846   1.000000
    3       -5.081423   1.000000
    4       -5.081421   1.000000
    5       -3.941074   1.000000
    6       -3.941073   1.000000
    7       -3.453196   1.000000
    8       -3.453194   1.000000
    9        4.163068   0.000000
   10        4.163073   0.000000
   11        6.003024   0.000000
   12        6.003026   0.000000
   13        6.770038   0.000000
   14        6.770044   0.000000
   15        7.735394   0.000000
   16        7.735397   0.000000
   17        7.775998   0.000000
   18        7.776001   0.000000
 
  0.3333333E+00 -0.1666667E+00  0.0000000E+00  0.4629630E-02
    1      -15.895012   1.000000
    2      -15.895008   1.000000
    3       -5.446708   1.000000
    4       -5.446706   1.000000
    5       -4.250837   1.000000
    6       -4.250836   1.000000
    7       -3.621562   1.000000
    8       -3.621560   1.000000
    9        4.712217   0.000000
   10        4.712220   0.000000
   11        5.929310   0.000000
   12        5.929317   0.000000
   13        6.744301   0.000000
   14        6.744304   0.000000
   15        7.247112   0.000000
   16        7.247115   0.000000
   17        9.276014   0.000000
   18        9.276017   0.000000
 
  0.5000000E+00 -0.1666667E+00  0.2775558E-16  0.4629630E-02
    1      -15.874734   1.000000
    2      -15.874730   1.000000
    3       -5.529162   1.000000
    4       -5.529161   1.000000
    5       -4.265830   1.000000
    6       -4.265829   1.000000
    7       -3.673710   1.000000
    8       -3.673709   1.000000
    9        4.563845   0.000000
   10        4.563849   0.000000
   11        5.753061   0.000000
   12        5.753068   0.000000
   13        7.063284   0.000000
   14        7.063287   0.000000
   15        7.331721   0.000000
   16        7.331724   0.000000
   17       10.237719   0.000000
   18       10.237726   0.000000
 
 -0.3333333E+00 -0.1666667E+00  0.0000000E+00  0.4629630E-02
    1      -15.956039   1.000000
    2      -15.956034   1.000000
    3       -5.208169   1.000000
    4       -5.208168   1.000000
    5       -4.037161   1.000000
    6       -4.037160   1.000000
    7       -3.569407   1.000000
    8       -3.569407   1.000000
    9        4.350718   0.000000
   10        4.350724   0.000000
   11        5.690487   0.000000
   12        5.690490   0.000000
   13        6.496767   0.000000
   14        6.496771   0.000000
   15        7.759841   0.000000
   16        7.759844   0.000000
   17        8.896253   0.000000
   18        8.896255   0.000000
 
 -0.1666667E+00 -0.1666667E+00 -0.4163336E-16  0.4629630E-02
    1      -16.053374   1.000000
    2      -16.053370   1.000000
    3       -4.848029   1.000000
    4       -4.848028   1.000000
    5       -3.655253   1.000000
    6       -3.655252   1.000000
    7       -3.423097   1.000000
    8       -3.423096   1.000000
    9        3.513604   0.000000
   10        3.513610   0.000000
   11        5.955300   0.000000
   12        5.955303   0.000000
   13        7.481337   0.000000
   14        7.481339   0.000000
   15        7.596974   0.000000
   16        7.596975   0.000000
   17        7.640349   0.000000
   18        7.640350   0.000000
 
  0.1540744E-32  0.7703720E-33  0.1666667E+00  0.4629630E-02
    1      -16.071920   1.000000
    2      -16.071916   1.000000
    3       -4.809076   1.000000
    4       -4.809075   1.000000
    5       -3.609766   1.000000
    6       -3.609765   1.000000
    7       -3.305261   1.000000
    8       -3.305259   1.000000
    9        3.264659   0.000000
   10        3.264665   0.000000
   11        6.406292   0.000000
   12        6.406295   0.000000
   13        7.212292   0.000000
   14        7.212294   0.000000
   15        7.269504   0.000000
   16        7.269506   0.000000
   17        8.755189   0.000000
   18        8.769013   0.000000
 
  0.1666667E+00  0.1080747E-16  0.1666667E+00  0.4629630E-02
    1      -16.053374   1.000000
    2      -16.053370   1.000000
    3       -4.848029   1.000000
    4       -4.848028   1.000000
    5       -3.655253   1.000000
    6       -3.655252   1.000000
    7       -3.423097   1.000000
    8       -3.423096   1.000000
    9        3.513604   0.000000
   10        3.513610   0.000000
   11        5.955299   0.000000
   12        5.955302   0.000000
   13        7.481337   0.000000
   14        7.481340   0.000000
   15        7.596974   0.000000
   16        7.596976   0.000000
   17        7.640350   0.000000
   18        7.640351   0.000000
 
  0.3333333E+00 -0.5704631E-16  0.1666667E+00  0.4629630E-02
    1      -15.956039   1.000000
    2      -15.956034   1.000000
    3       -5.208169   1.000000
    4       -5.208168   1.000000
    5       -4.037161   1.000000
    6       -4.037160   1.000000
    7       -3.569407   1.000000
    8       -3.569407   1.000000
    9        4.350718   0.000000
   10        4.350724   0.000000
   11        5.690486   0.000000
   12        5.690489   0.000000
   13        6.496767   0.000000
   14        6.496771   0.000000
   15        7.759841   0.000000
   16        7.759844   0.000000
   17        8.896253   0.000000
   18        8.896256   0.000000
 
  0.5000000E+00 -0.8326673E-16  0.1666667E+00  0.4629630E-02
    1      -15.874734   1.000000
    2      -15.874730   1.000000
    3       -5.529162   1.000000
    4       -5.529161   1.000000
    5       -4.265830   1.000000
    6       -4.265829   1.000000
    7       -3.673710   1.000000
    8       -3.673709   1.000000
    9        4.563845   0.000000
   10        4.563849   0.000000
   11        5.753061   0.000000
   12        5.753068   0.000000
   13        7.063283   0.000000
   14        7.063286   0.000000
   15        7.331721   0.000000
   16        7.331725   0.000000
   17       10.237719   0.000000
   18       10.237726   0.000000
 
 -0.3333333E+00  0.4783535E-16  0.1666667E+00  0.4629630E-02
    1      -15.895012   1.000000
    2      -15.895008   1.000000
    3       -5.446708   1.000000
    4       -5.446706   1.000000
    5       -4.250837   1.000000
    6       -4.250836   1.000000
    7       -3.621562   1.000000
    8       -3.621560   1.000000
    9        4.712216   0.000000
   10        4.712220   0.000000
   11        5.929310   0.000000
   12        5.929317   0.000000
   13        6.744301   0.000000
   14        6.744305   0.000000
   15        7.247112   0.000000
   16        7.247115   0.000000
   17        9.276015   0.000000
   18        9.276017   0.000000
 
 -0.1666667E+00  0.2161493E-16  0.1666667E+00  0.4629630E-02
    1      -15.994850   1.000000
    2      -15.994846   1.000000
    3       -5.081423   1.000000
    4       -5.081422   1.000000
    5       -3.941074   1.000000
    6       -3.941073   1.000000
    7       -3.453196   1.000000
    8       -3.453194   1.000000
    9        4.163068   0.000000
   10        4.163073   0.000000
   11        6.003024   0.000000
   12        6.003027   0.000000
   13        6.770038   0.000000
   14        6.770043   0.000000
   15        7.735394   0.000000
   16        7.735397   0.000000
   17        7.775999   0.000000
   18        7.776002   0.000000
 
  0.7703720E-33  0.1666667E+00  0.1666667E+00  0.4629630E-02
    1      -16.053374   1.000000
    2      -16.053370   1.000000
    3       -4.848029   1.000000
    4       -4.848028   1.000000
    5       -3.655253   1.000000
    6       -3.655252   1.000000
    7       -3.423098   1.000000
    8       -3.423096   1.000000
    9        3.513604   0.000000
   10        3.513610   0.000000
   11        5.955299   0.000000
   12        5.955302   0.000000
   13        7.481337   0.000000
   14        7.481339   0.000000
   15        7.596975   0.000000
   16        7.596976   0.000000
   17        7.640349   0.000000
   18        7.640352   0.000000
 
  0.1666667E+00  0.1666667E+00  0.1666667E+00  0.4629630E-02
    1      -16.071920   1.000000
    2      -16.071916   1.000000
    3       -4.809076   1.000000
    4       -4.809075   1.000000
    5       -3.609765   1.000000
    6       -3.609765   1.000000
    7       -3.305262   1.000000
    8       -3.305259   1.000000
    9        3.264659   0.000000
   10        3.264665   0.000000
   11        6.406292   0.000000
   12        6.406295   0.000000
   13        7.212292   0.000000
   14        7.212295   0.000000
   15        7.269503   0.000000
   16        7.269506   0.000000
   17        8.753498   0.000000
   18        8.779745   0.000000
 
  0.3333333E+00  0.1666667E+00  0.1666667E+00  0.4629630E-02
    1      -15.994850   1.000000
    2      -15.994846   1.000000
    3       -5.081423   1.000000
    4       -5.081422   1.000000
    5       -3.941074   1.000000
    6       -3.941073   1.000000
    7       -3.453196   1.000000
    8       -3.453194   1.000000
    9        4.163068   0.000000
   10        4.163073   0.000000
   11        6.003024   0.000000
   12        6.003027   0.000000
   13        6.770038   0.000000
   14        6.770044   0.000000
   15        7.735395   0.000000
   16        7.735396   0.000000
   17        7.775999   0.000000
   18        7.776001   0.000000
 
  0.5000000E+00  0.1666667E+00  0.1666667E+00  0.4629630E-02
    1      -15.895012   1.000000
    2      -15.895008   1.000000
    3       -5.446708   1.000000
    4       -5.446706   1.000000
    5       -4.250837   1.000000