       N       E                     dE             d eps       ncg     rms          rms(c)
DAV:   1     0.327773727032E+02    0.32777E+02   -0.20809E+03  7776   0.457E+02
DAV:   2     0.273245697521E+01   -0.30045E+02   -0.28053E+02 10908   0.102E+02
DAV:   3     0.335444095338E+00   -0.23970E+01   -0.23887E+01  9652   0.293E+01
DAV:   4     0.311644753342E+00   -0.23799E-01   -0.23796E-01  9594   0.380E+00
DAV:   5     0.311473456414E+00   -0.17130E-03   -0.17129E-03  9474   0.351E-01    0.436E+00
DAV:   6    -0.653381367539E-01   -0.37681E+00   -0.11020E-01  8130   0.426E+00    0.125E+00
DAV:   7    -0.135349842878E+00   -0.70012E-01   -0.54326E-02  7832   0.169E+00    0.233E-01
DAV:   8    -0.135737320504E+00   -0.38748E-03   -0.11145E-03  8952   0.294E-01    0.361E-02
DAV:   9    -0.135761209535E+00   -0.23889E-04   -0.40909E-05  8506   0.569E-02    0.170E-02
DAV:  10    -0.135766588636E+00   -0.53791E-05   -0.76875E-06  8218   0.245E-02    0.815E-03
DAV:  11    -0.135766717741E+00   -0.12911E-06   -0.21496E-06  8090   0.124E-02    0.137E-03
DAV:  12    -0.135766788091E+00   -0.70350E-07   -0.65266E-08  9440   0.210E-03    0.579E-04
DAV:  13    -0.135766851966E+00   -0.63876E-07   -0.10763E-08  8174   0.923E-04    0.234E-04
DAV:  14    -0.135766886631E+00   -0.34664E-07   -0.35159E-09  6476   0.528E-04    0.651E-05
DAV:  15    -0.135766887845E+00   -0.12139E-08   -0.23584E-10  4802   0.148E-04
   1 F= -.32034357E+00 E0= -.32034357E+00  d E =-.747854-295  mag=     0.0000     0.0000     0.0000
 imaginary and real dielectric function
