   1   1   0   0
  0.5789729E+02  0.4342346E-09  0.4342346E-09  0.4342346E-09  0.1000000E-15
  1.000000000000000E-004
  CAR 
 Og_FCC                                  
     16.09409576    -32.64625366  301      3.99024232      1.00000000
    -32.646  0.0000E+00  0.0000E+00
    -32.484  0.0000E+00  0.0000E+00
    -32.321  0.0000E+00  0.0000E+00
    -32.159  0.0000E+00  0.0000E+00
    -31.996  0.0000E+00  0.0000E+00
    -31.834  0.0000E+00  0.0000E+00
    -31.671  0.0000E+00  0.0000E+00
    -31.509  0.0000E+00  0.0000E+00
    -31.347  0.0000E+00  0.0000E+00
    -31.184  0.0000E+00  0.0000E+00
    -31.022  0.0000E+00  0.0000E+00
    -30.859  0.0000E+00  0.0000E+00
    -30.697  0.0000E+00  0.0000E+00
    -30.534  0.0000E+00  0.0000E+00
    -30.372  0.0000E+00  0.4000E+01
    -30.209  0.0000E+00  0.4000E+01
    -30.047  0.0000E+00  0.4000E+01
    -29.884  0.0000E+00  0.4000E+01
    -29.722  0.0000E+00  0.4000E+01
    -29.559  0.0000E+00  0.4000E+01
    -29.397  0.0000E+00  0.4000E+01
    -29.234  0.0000E+00  0.4000E+01
    -29.072  0.0000E+00  0.4000E+01
    -28.909  0.0000E+00  0.4000E+01
    -28.747  0.0000E+00  0.4000E+01
    -28.585  0.0000E+00  0.4000E+01
    -28.422  0.0000E+00  0.4000E+01
    -28.260  0.0000E+00  0.4000E+01
    -28.097  0.0000E+00  0.4000E+01
    -27.935  0.0000E+00  0.4000E+01
    -27.772  0.0000E+00  0.4000E+01
    -27.610  0.0000E+00  0.4000E+01
    -27.447  0.0000E+00  0.4000E+01
    -27.285  0.0000E+00  0.4000E+01
    -27.122  0.0000E+00  0.4000E+01
    -26.960  0.0000E+00  0.4000E+01
    -26.797  0.0000E+00  0.4000E+01
    -26.635  0.0000E+00  0.4000E+01
    -26.472  0.0000E+00  0.4000E+01
    -26.310  0.0000E+00  0.4000E+01
    -26.148  0.0000E+00  0.4000E+01
    -25.985  0.0000E+00  0.4000E+01
    -25.823  0.0000E+00  0.4000E+01
    -25.660  0.0000E+00  0.4000E+01
    -25.498  0.0000E+00  0.4000E+01
    -25.335  0.0000E+00  0.4000E+01
    -25.173  0.0000E+00  0.4000E+01
    -25.010  0.0000E+00  0.4000E+01
    -24.848  0.0000E+00  0.4000E+01
    -24.685  0.0000E+00  0.4000E+01
    -24.523  0.0000E+00  0.4000E+01
    -24.360  0.0000E+00  0.4000E+01
    -24.198  0.0000E+00  0.4000E+01
    -24.035  0.0000E+00  0.4000E+01
    -23.873  0.0000E+00  0.4000E+01
    -23.711  0.0000E+00  0.1000E+02
    -23.548  0.0000E+00  0.1000E+02
    -23.386  0.0000E+00  0.1000E+02
    -23.223  0.0000E+00  0.1000E+02
    -23.061  0.0000E+00  0.1000E+02
    -22.898  0.0000E+00  0.1000E+02
    -22.736  0.0000E+00  0.1000E+02
    -22.573  0.0000E+00  0.1000E+02
    -22.411  0.0000E+00  0.1000E+02
    -22.248  0.0000E+00  0.1000E+02
    -22.086  0.0000E+00  0.1000E+02
    -21.923  0.0000E+00  0.1000E+02
    -21.761  0.0000E+00  0.1000E+02
    -21.598  0.0000E+00  0.1000E+02
    -21.436  0.0000E+00  0.1000E+02
    -21.274  0.0000E+00  0.1000E+02
    -21.111  0.0000E+00  0.1000E+02
    -20.949  0.0000E+00  0.1000E+02
    -20.786  0.0000E+00  0.1000E+02
    -20.624  0.0000E+00  0.1000E+02
    -20.461  0.0000E+00  0.1000E+02
    -20.299  0.0000E+00  0.1000E+02
    -20.136  0.0000E+00  0.1007E+02
    -19.974  0.0000E+00  0.1200E+02
    -19.811  0.0000E+00  0.1200E+02
    -19.649  0.0000E+00  0.1200E+02
    -19.486  0.0000E+00  0.1200E+02
    -19.324  0.0000E+00  0.1200E+02
    -19.161  0.0000E+00  0.1200E+02
    -18.999  0.0000E+00  0.1200E+02
    -18.836  0.0000E+00  0.1200E+02
    -18.674  0.0000E+00  0.1200E+02
    -18.512  0.0000E+00  0.1200E+02
    -18.349  0.0000E+00  0.1200E+02
    -18.187  0.0000E+00  0.1200E+02
    -18.024  0.0000E+00  0.1200E+02
    -17.862  0.0000E+00  0.1200E+02
    -17.699  0.0000E+00  0.1200E+02
    -17.537  0.0000E+00  0.1200E+02
    -17.374  0.0000E+00  0.1200E+02
    -17.212  0.0000E+00  0.1200E+02
    -17.049  0.0000E+00  0.1200E+02
    -16.887  0.0000E+00  0.1200E+02
    -16.724  0.0000E+00  0.1200E+02
    -16.562  0.0000E+00  0.1200E+02
    -16.399  0.0000E+00  0.1200E+02
    -16.237  0.0000E+00  0.1200E+02
    -16.075  0.0000E+00  0.1200E+02
    -15.912  0.0000E+00  0.1200E+02
    -15.750  0.0000E+00  0.1200E+02
    -15.587  0.0000E+00  0.1200E+02
    -15.425  0.0000E+00  0.1200E+02
    -15.262  0.0000E+00  0.1200E+02
    -15.100  0.0000E+00  0.1200E+02
    -14.937  0.0000E+00  0.1200E+02
    -14.775  0.0000E+00  0.1200E+02
    -14.612  0.0000E+00  0.1200E+02
    -14.450  0.0000E+00  0.1200E+02
    -14.287  0.0000E+00  0.1200E+02
    -14.125  0.0000E+00  0.1200E+02
    -13.962  0.0000E+00  0.1200E+02
    -13.800  0.0000E+00  0.1200E+02
    -13.638  0.0000E+00  0.1200E+02
    -13.475  0.0000E+00  0.1200E+02
    -13.313  0.0000E+00  0.1200E+02
    -13.150  0.0000E+00  0.1200E+02
    -12.988  0.0000E+00  0.1200E+02
    -12.825  0.0000E+00  0.1200E+02
    -12.663  0.0000E+00  0.1200E+02
    -12.500  0.0000E+00  0.1200E+02
    -12.338  0.0000E+00  0.1200E+02
    -12.175  0.0000E+00  0.1200E+02
    -12.013  0.0000E+00  0.1200E+02
    -11.850  0.0000E+00  0.1200E+02
    -11.688  0.0000E+00  0.1200E+02
    -11.525  0.0000E+00  0.1200E+02
    -11.363  0.0000E+00  0.1200E+02
    -11.200  0.0000E+00  0.1200E+02
    -11.038  0.0000E+00  0.1200E+02
    -10.876  0.0000E+00  0.1200E+02
    -10.713  0.0000E+00  0.1200E+02
    -10.551  0.0000E+00  0.1200E+02
    -10.388  0.0000E+00  0.1200E+02
    -10.226  0.0000E+00  0.1200E+02
    -10.063  0.0000E+00  0.1200E+02
     -9.901  0.0000E+00  0.1200E+02
     -9.738  0.0000E+00  0.1200E+02
     -9.576  0.0000E+00  0.1200E+02
     -9.413  0.0000E+00  0.1200E+02
     -9.251  0.0000E+00  0.1200E+02
     -9.088  0.0000E+00  0.1200E+02
     -8.926  0.0000E+00  0.1200E+02
     -8.763  0.0000E+00  0.1200E+02
     -8.601  0.0000E+00  0.1200E+02
     -8.439  0.0000E+00  0.1200E+02
     -8.276  0.0000E+00  0.1200E+02
     -8.114  0.0000E+00  0.1200E+02
     -7.951  0.0000E+00  0.1200E+02
     -7.789  0.0000E+00  0.1200E+02
     -7.626  0.0000E+00  0.1200E+02
     -7.464  0.0000E+00  0.1200E+02
     -7.301  0.0000E+00  0.1289E+02
     -7.139  0.0000E+00  0.1393E+02
     -6.976  0.0000E+00  0.1393E+02
     -6.814  0.0000E+00  0.1400E+02
     -6.651  0.0000E+00  0.1400E+02
     -6.489  0.0000E+00  0.1400E+02
     -6.326  0.0000E+00  0.1400E+02
     -6.164  0.0000E+00  0.1400E+02
     -6.002  0.0000E+00  0.1400E+02
     -5.839  0.0000E+00  0.1400E+02
     -5.677  0.0000E+00  0.1400E+02
     -5.514  0.0000E+00  0.1400E+02
     -5.352  0.0000E+00  0.1400E+02
     -5.189  0.0000E+00  0.1400E+02
     -5.027  0.0000E+00  0.1400E+02
     -4.864  0.0000E+00  0.1400E+02
     -4.702  0.0000E+00  0.1400E+02
     -4.539  0.0000E+00  0.1400E+02
     -4.377  0.0000E+00  0.1400E+02
     -4.214  0.0000E+00  0.1400E+02
     -4.052  0.0000E+00  0.1400E+02
     -3.889  0.0000E+00  0.1400E+02
     -3.727  0.0000E+00  0.1400E+02
     -3.565  0.0000E+00  0.1400E+02
     -3.402  0.0000E+00  0.1400E+02
     -3.240  0.0000E+00  0.1400E+02
     -3.077  0.0000E+00  0.1400E+02
     -2.915  0.0000E+00  0.1400E+02
     -2.752  0.0000E+00  0.1400E+02
     -2.590  0.0000E+00  0.1400E+02
     -2.427  0.0000E+00  0.1400E+02
     -2.265  0.0000E+00  0.1400E+02
     -2.102  0.0000E+00  0.1400E+02
     -1.940  0.0000E+00  0.1400E+02
     -1.777  0.0000E+00  0.1400E+02
     -1.615  0.0000E+00  0.1400E+02
     -1.452  0.0000E+00  0.1400E+02
     -1.290  0.0000E+00  0.1400E+02
     -1.127  0.0000E+00  0.1400E+02
     -0.965  0.0000E+00  0.1400E+02
     -0.803  0.0000E+00  0.1400E+02
     -0.640  0.0000E+00  0.1400E+02
     -0.478  0.0000E+00  0.1400E+02
     -0.315  0.0000E+00  0.1400E+02
     -0.153  0.0000E+00  0.1400E+02
      0.010  0.0000E+00  0.1400E+02
      0.172  0.0000E+00  0.1400E+02
      0.335  0.0000E+00  0.1400E+02
      0.497  0.0000E+00  0.1400E+02
      0.660  0.0000E+00  0.1400E+02
      0.822  0.2279E+01  0.1437E+02
      0.985  0.0000E+00  0.1489E+02
      1.147  0.0000E+00  0.1593E+02
      1.310  0.0000E+00  0.1593E+02
      1.472  0.0000E+00  0.1593E+02
      1.634  0.0000E+00  0.1593E+02
      1.797  0.0000E+00  0.1593E+02
      1.959  0.0000E+00  0.1593E+02
      2.122  0.0000E+00  0.1681E+02
      2.284  0.0000E+00  0.1681E+02
      2.447  0.0000E+00  0.1681E+02
      2.609  0.0000E+00  0.1681E+02
      2.772  0.0000E+00  0.1726E+02
      2.934  0.0000E+00  0.1726E+02
      3.097  0.0000E+00  0.1726E+02
      3.259  0.0000E+00  0.1726E+02
      3.422  0.0000E+00  0.1726E+02
      3.584  0.0000E+00  0.1785E+02
      3.747  0.0000E+00  0.1793E+02
      3.909  0.0000E+00  0.1793E+02
      4.071  0.0000E+00  0.1807E+02
      4.234  0.0000E+00  0.1807E+02
      4.396  0.0000E+00  0.1807E+02
      4.559  0.0000E+00  0.1807E+02
      4.721  0.0000E+00  0.1807E+02
      4.884  0.0000E+00  0.1807E+02
      5.046  0.0000E+00  0.1807E+02
      5.209  0.0000E+00  0.1807E+02
      5.371  0.0000E+00  0.1807E+02
      5.534  0.0000E+00  0.1807E+02
      5.696  0.0000E+00  0.1807E+02
      5.859  0.0000E+00  0.1807E+02
      6.021  0.0000E+00  0.1807E+02
      6.184  0.0000E+00  0.1807E+02
      6.346  0.0000E+00  0.1867E+02
      6.508  0.0000E+00  0.1867E+02
      6.671  0.0000E+00  0.1867E+02
      6.833  0.0000E+00  0.1867E+02
      6.996  0.0000E+00  0.1911E+02
      7.158  0.0000E+00  0.1911E+02
      7.321  0.0000E+00  0.1911E+02
      7.483  0.2836E+01  0.1957E+02
      7.646  0.0000E+00  0.2000E+02
      7.808  0.0000E+00  0.2000E+02
      7.971  0.0000E+00  0.2000E+02
      8.133  0.0000E+00  0.2044E+02
      8.296  0.0000E+00  0.2044E+02
      8.458  0.0000E+00  0.2044E+02
      8.621  0.0000E+00  0.2044E+02
      8.783  0.0000E+00  0.2044E+02
      8.946  0.0000E+00  0.2133E+02
      9.108  0.0000E+00  0.2133E+02
      9.270  0.0000E+00  0.2133E+02
      9.433  0.0000E+00  0.2133E+02
      9.595  0.0000E+00  0.2133E+02
      9.758  0.0000E+00  0.2133E+02
      9.920  0.0000E+00  0.2133E+02
     10.083  0.0000E+00  0.2178E+02
     10.245  0.0000E+00  0.2178E+02
     10.408  0.1554E-13  0.2178E+02
     10.570  0.0000E+00  0.2237E+02
     10.733  0.0000E+00  0.2296E+02
     10.895  0.4559E+00  0.2311E+02
     11.058  0.9119E+00  0.2370E+02
     11.220  0.0000E+00  0.2378E+02
     11.383  0.0000E+00  0.2444E+02
     11.545  0.2061E+01  0.2567E+02
     11.707  0.0000E+00  0.2622E+02
     11.870  0.0000E+00  0.2622E+02
     12.032  0.0000E+00  0.2622E+02
     12.195  0.0000E+00  0.2622E+02
     12.357  0.0000E+00  0.2622E+02
     12.520  0.0000E+00  0.2622E+02
     12.682  0.0000E+00  0.2711E+02
     12.845  0.0000E+00  0.2756E+02
     13.007  0.0000E+00  0.2756E+02
     13.170  0.0000E+00  0.2756E+02
     13.332  0.0000E+00  0.2756E+02
     13.495  0.0000E+00  0.2756E+02
     13.657  0.0000E+00  0.2756E+02
     13.820  0.0000E+00  0.2756E+02
     13.982  0.0000E+00  0.2800E+02
     14.144  0.0000E+00  0.2800E+02
     14.307  0.0000E+00  0.2800E+02
     14.469  0.0000E+00  0.2800E+02
     14.632  0.0000E+00  0.2800E+02
     14.794  0.0000E+00  0.2800E+02
     14.957  0.0000E+00  0.2800E+02
     15.119  0.0000E+00  0.2800E+02
     15.282  0.0000E+00  0.2800E+02
     15.444  0.0000E+00  0.2800E+02
     15.607  0.0000E+00  0.2800E+02
     15.769  0.0000E+00  0.2800E+02
     15.932  0.0000E+00  0.2800E+02
     16.094  0.0000E+00  0.2800E+02
