   1   1   0   0
  0.6156630E+02  0.4432200E-09  0.4432200E-09  0.4432200E-09  0.1000000E-15
  1.000000000000000E-004
  CAR 
 Og_FCC                                  
     13.21796069    -18.61086705  301     -3.94308226      1.00000000
    -18.611  0.0000E+00  0.0000E+00
    -18.505  0.0000E+00  0.0000E+00
    -18.399  0.0000E+00  0.0000E+00
    -18.293  0.0000E+00  0.0000E+00
    -18.186  0.0000E+00  0.0000E+00
    -18.080  0.0000E+00  0.0000E+00
    -17.974  0.0000E+00  0.0000E+00
    -17.868  0.0000E+00  0.0000E+00
    -17.762  0.0000E+00  0.0000E+00
    -17.656  0.0000E+00  0.0000E+00
    -17.550  0.0000E+00  0.0000E+00
    -17.444  0.0000E+00  0.0000E+00
    -17.338  0.0000E+00  0.0000E+00
    -17.232  0.0000E+00  0.0000E+00
    -17.126  0.0000E+00  0.9259E-02
    -17.019  0.2445E-06  0.2500E+00
    -16.913  0.1928E+01  0.1510E+01
    -16.807  0.0000E+00  0.2000E+01
    -16.701  0.0000E+00  0.2000E+01
    -16.595  0.0000E+00  0.2000E+01
    -16.489  0.0000E+00  0.2000E+01
    -16.383  0.0000E+00  0.2000E+01
    -16.277  0.0000E+00  0.2000E+01
    -16.171  0.0000E+00  0.2000E+01
    -16.065  0.0000E+00  0.2000E+01
    -15.958  0.0000E+00  0.2000E+01
    -15.852  0.0000E+00  0.2000E+01
    -15.746  0.0000E+00  0.2000E+01
    -15.640  0.0000E+00  0.2000E+01
    -15.534  0.0000E+00  0.2000E+01
    -15.428  0.0000E+00  0.2000E+01
    -15.322  0.0000E+00  0.2000E+01
    -15.216  0.0000E+00  0.2000E+01
    -15.110  0.0000E+00  0.2000E+01
    -15.004  0.0000E+00  0.2000E+01
    -14.898  0.0000E+00  0.2000E+01
    -14.791  0.0000E+00  0.2000E+01
    -14.685  0.0000E+00  0.2000E+01
    -14.579  0.0000E+00  0.2000E+01
    -14.473  0.0000E+00  0.2000E+01
    -14.367  0.0000E+00  0.2000E+01
    -14.261  0.0000E+00  0.2000E+01
    -14.155  0.0000E+00  0.2000E+01
    -14.049  0.0000E+00  0.2000E+01
    -13.943  0.0000E+00  0.2000E+01
    -13.837  0.0000E+00  0.2000E+01
    -13.730  0.0000E+00  0.2000E+01
    -13.624  0.0000E+00  0.2000E+01
    -13.518  0.0000E+00  0.2000E+01
    -13.412  0.0000E+00  0.2000E+01
    -13.306  0.0000E+00  0.2000E+01
    -13.200  0.0000E+00  0.2000E+01
    -13.094  0.0000E+00  0.2000E+01
    -12.988  0.0000E+00  0.2000E+01
    -12.882  0.0000E+00  0.2000E+01
    -12.776  0.0000E+00  0.2000E+01
    -12.669  0.0000E+00  0.2000E+01
    -12.563  0.0000E+00  0.2000E+01
    -12.457  0.0000E+00  0.2000E+01
    -12.351  0.0000E+00  0.2000E+01
    -12.245  0.0000E+00  0.2000E+01
    -12.139  0.0000E+00  0.2000E+01
    -12.033  0.0000E+00  0.2000E+01
    -11.927  0.0000E+00  0.2000E+01
    -11.821  0.0000E+00  0.2000E+01
    -11.715  0.0000E+00  0.2000E+01
    -11.609  0.0000E+00  0.2000E+01
    -11.502  0.0000E+00  0.2000E+01
    -11.396  0.0000E+00  0.2000E+01
    -11.290  0.0000E+00  0.2000E+01
    -11.184  0.0000E+00  0.2000E+01
    -11.078  0.0000E+00  0.2000E+01
    -10.972  0.0000E+00  0.2000E+01
    -10.866  0.0000E+00  0.2000E+01
    -10.760  0.0000E+00  0.2000E+01
    -10.654  0.0000E+00  0.2000E+01
    -10.548  0.0000E+00  0.2000E+01
    -10.441  0.0000E+00  0.2000E+01
    -10.335  0.0000E+00  0.2000E+01
    -10.229  0.0000E+00  0.2000E+01
    -10.123  0.0000E+00  0.2000E+01
    -10.017  0.0000E+00  0.2000E+01
     -9.911  0.0000E+00  0.2000E+01
     -9.805  0.0000E+00  0.2000E+01
     -9.699  0.0000E+00  0.2000E+01
     -9.593  0.0000E+00  0.2000E+01
     -9.487  0.0000E+00  0.2000E+01
     -9.381  0.0000E+00  0.2000E+01
     -9.274  0.0000E+00  0.2000E+01
     -9.168  0.0000E+00  0.2000E+01
     -9.062  0.0000E+00  0.2000E+01
     -8.956  0.0000E+00  0.2000E+01
     -8.850  0.0000E+00  0.2000E+01
     -8.744  0.0000E+00  0.2000E+01
     -8.638  0.0000E+00  0.2000E+01
     -8.532  0.0000E+00  0.2000E+01
     -8.426  0.0000E+00  0.2000E+01
     -8.320  0.0000E+00  0.2000E+01
     -8.213  0.0000E+00  0.2000E+01
     -8.107  0.0000E+00  0.2000E+01
     -8.001  0.0000E+00  0.2000E+01
     -7.895  0.0000E+00  0.2000E+01
     -7.789  0.0000E+00  0.2000E+01
     -7.683  0.0000E+00  0.2000E+01
     -7.577  0.0000E+00  0.2000E+01
     -7.471  0.0000E+00  0.2000E+01
     -7.365  0.0000E+00  0.2000E+01
     -7.259  0.0000E+00  0.2000E+01
     -7.152  0.0000E+00  0.2000E+01
     -7.046  0.0000E+00  0.2000E+01
     -6.940  0.0000E+00  0.2000E+01
     -6.834  0.0000E+00  0.2000E+01
     -6.728  0.0000E+00  0.2000E+01
     -6.622  0.0000E+00  0.2000E+01
     -6.516  0.0000E+00  0.2000E+01
     -6.410  0.0000E+00  0.2000E+01
     -6.304  0.0000E+00  0.2000E+01
     -6.198  0.1599E-15  0.2037E+01
     -6.092  0.1047E+01  0.2954E+01
     -5.985  0.7444E-02  0.3399E+01
     -5.879  0.0000E+00  0.3528E+01
     -5.773  0.0000E+00  0.3750E+01
     -5.667  0.0000E+00  0.3861E+01
     -5.561  0.2161E-04  0.3861E+01
     -5.455  0.0000E+00  0.3991E+01
     -5.349  0.1059E-02  0.3991E+01
     -5.243  0.0000E+00  0.4000E+01
     -5.137  0.0000E+00  0.4000E+01
     -5.031  0.6220E-01  0.4479E+01
     -4.924  0.2095E+01  0.5139E+01
     -4.818  0.0000E+00  0.5454E+01
     -4.712  0.3149E+01  0.5788E+01
     -4.606  0.2086E+01  0.6194E+01
     -4.500  0.0000E+00  0.6556E+01
     -4.394  0.0000E+00  0.6833E+01
     -4.288  0.2095E+01  0.7630E+01
     -4.182  0.0000E+00  0.7778E+01
     -4.076  0.0000E+00  0.7907E+01
     -3.970  0.0000E+00  0.8000E+01
     -3.864  0.0000E+00  0.8000E+01
     -3.757  0.0000E+00  0.8000E+01
     -3.651  0.0000E+00  0.8000E+01
     -3.545  0.0000E+00  0.8000E+01
     -3.439  0.0000E+00  0.8000E+01
     -3.333  0.0000E+00  0.8000E+01
     -3.227  0.0000E+00  0.8000E+01
     -3.121  0.0000E+00  0.8000E+01
     -3.015  0.0000E+00  0.8000E+01
     -2.909  0.0000E+00  0.8000E+01
     -2.803  0.0000E+00  0.8000E+01
     -2.696  0.0000E+00  0.8000E+01
     -2.590  0.0000E+00  0.8000E+01
     -2.484  0.0000E+00  0.8000E+01
     -2.378  0.0000E+00  0.8000E+01
     -2.272  0.0000E+00  0.8000E+01
     -2.166  0.0000E+00  0.8000E+01
     -2.060  0.0000E+00  0.8000E+01
     -1.954  0.0000E+00  0.8000E+01
     -1.848  0.0000E+00  0.8000E+01
     -1.742  0.0000E+00  0.8000E+01
     -1.635  0.0000E+00  0.8000E+01
     -1.529  0.0000E+00  0.8000E+01
     -1.423  0.0000E+00  0.8000E+01
     -1.317  0.0000E+00  0.8000E+01
     -1.211  0.0000E+00  0.8000E+01
     -1.105  0.0000E+00  0.8000E+01
     -0.999  0.0000E+00  0.8000E+01
     -0.893  0.0000E+00  0.8000E+01
     -0.787  0.0000E+00  0.8000E+01
     -0.681  0.0000E+00  0.8000E+01
     -0.575  0.0000E+00  0.8000E+01
     -0.468  0.0000E+00  0.8000E+01
     -0.362  0.0000E+00  0.8000E+01
     -0.256  0.0000E+00  0.8000E+01
     -0.150  0.0000E+00  0.8000E+01
     -0.044  0.0000E+00  0.8000E+01
      0.062  0.0000E+00  0.8000E+01
      0.168  0.0000E+00  0.8000E+01
      0.274  0.0000E+00  0.8000E+01
      0.380  0.0000E+00  0.8000E+01
      0.486  0.0000E+00  0.8000E+01
      0.593  0.0000E+00  0.8000E+01
      0.699  0.0000E+00  0.8000E+01
      0.805  0.0000E+00  0.8000E+01
      0.911  0.0000E+00  0.8000E+01
      1.017  0.0000E+00  0.8000E+01
      1.123  0.0000E+00  0.8000E+01
      1.229  0.0000E+00  0.8000E+01
      1.335  0.0000E+00  0.8000E+01
      1.441  0.0000E+00  0.8000E+01
      1.547  0.0000E+00  0.8000E+01
      1.653  0.0000E+00  0.8000E+01
      1.760  0.0000E+00  0.8000E+01
      1.866  0.0000E+00  0.8000E+01
      1.972  0.0000E+00  0.8000E+01
      2.078  0.0000E+00  0.8000E+01
      2.184  0.0000E+00  0.8000E+01
      2.290  0.0000E+00  0.8000E+01
      2.396  0.0000E+00  0.8000E+01
      2.502  0.0000E+00  0.8009E+01
      2.608  0.0000E+00  0.8009E+01
      2.714  0.0000E+00  0.8009E+01
      2.821  0.0000E+00  0.8009E+01
      2.927  0.0000E+00  0.8009E+01
      3.033  0.0000E+00  0.8009E+01
      3.139  0.0000E+00  0.8083E+01
      3.245  0.0000E+00  0.8083E+01
      3.351  0.0000E+00  0.8139E+01
      3.457  0.0000E+00  0.8139E+01
      3.563  0.0000E+00  0.8167E+01
      3.669  0.0000E+00  0.8167E+01
      3.775  0.0000E+00  0.8167E+01
      3.882  0.0000E+00  0.8167E+01
      3.988  0.0000E+00  0.8444E+01
      4.094  0.0000E+00  0.8667E+01
      4.200  0.0000E+00  0.8889E+01
      4.306  0.0000E+00  0.9000E+01
      4.412  0.0000E+00  0.9000E+01
      4.518  0.0000E+00  0.9250E+01
      4.624  0.0000E+00  0.9361E+01
      4.730  0.2095E+01  0.9806E+01
      4.836  0.0000E+00  0.9806E+01
      4.942  0.0000E+00  0.1008E+02
      5.049  0.0000E+00  0.1031E+02
      5.155  0.0000E+00  0.1031E+02
      5.261  0.0000E+00  0.1031E+02
      5.367  0.0000E+00  0.1042E+02
      5.473  0.0000E+00  0.1064E+02
      5.579  0.0000E+00  0.1086E+02
      5.685  0.0000E+00  0.1142E+02
      5.791  0.0000E+00  0.1164E+02
      5.897  0.0000E+00  0.1164E+02
      6.003  0.0000E+00  0.1203E+02
      6.110  0.0000E+00  0.1203E+02
      6.216  0.0000E+00  0.1203E+02
      6.322  0.0000E+00  0.1203E+02
      6.428  0.0000E+00  0.1210E+02
      6.534  0.0000E+00  0.1262E+02
      6.640  0.0000E+00  0.1284E+02
      6.746  0.0000E+00  0.1303E+02
      6.852  0.0000E+00  0.1314E+02
      6.958  0.0000E+00  0.1344E+02
      7.064  0.0000E+00  0.1356E+02
      7.170  0.0000E+00  0.1363E+02
      7.277  0.0000E+00  0.1404E+02
      7.383  0.0000E+00  0.1456E+02
      7.489  0.0000E+00  0.1461E+02
      7.595  0.0000E+00  0.1467E+02
      7.701  0.0000E+00  0.1472E+02
      7.807  0.0000E+00  0.1517E+02
      7.913  0.0000E+00  0.1539E+02
      8.019  0.0000E+00  0.1539E+02
      8.125  0.0000E+00  0.1550E+02
      8.231  0.0000E+00  0.1561E+02
      8.338  0.0000E+00  0.1583E+02
      8.444  0.0000E+00  0.1583E+02
      8.550  0.0000E+00  0.1583E+02
      8.656  0.0000E+00  0.1586E+02
      8.762  0.6769E+00  0.1601E+02
      8.868  0.0000E+00  0.1623E+02
      8.974  0.0000E+00  0.1645E+02
      9.080  0.0000E+00  0.1651E+02
      9.186  0.1222E-01  0.1651E+02
      9.292  0.0000E+00  0.1703E+02
      9.399  0.0000E+00  0.1703E+02
      9.505  0.0000E+00  0.1703E+02
      9.611  0.6982E+00  0.1723E+02
      9.717  0.0000E+00  0.1734E+02
      9.823  0.0000E+00  0.1738E+02
      9.929  0.0000E+00  0.1771E+02
     10.035  0.0000E+00  0.1782E+02
     10.141  0.0000E+00  0.1805E+02
     10.247  0.0000E+00  0.1827E+02
     10.353  0.0000E+00  0.1849E+02
     10.459  0.0000E+00  0.1855E+02
     10.566  0.0000E+00  0.1855E+02
     10.672  0.0000E+00  0.1855E+02
     10.778  0.0000E+00  0.1855E+02
     10.884  0.0000E+00  0.1855E+02
     10.990  0.0000E+00  0.1855E+02
     11.096  0.0000E+00  0.1883E+02
     11.202  0.0000E+00  0.1908E+02
     11.308  0.0000E+00  0.1911E+02
     11.414  0.6066E+00  0.1940E+02
     11.520  0.0000E+00  0.1967E+02
     11.627  0.0000E+00  0.1967E+02
     11.733  0.2090E+01  0.1989E+02
     11.839  0.0000E+00  0.2000E+02
     11.945  0.0000E+00  0.2000E+02
     12.051  0.0000E+00  0.2000E+02
     12.157  0.0000E+00  0.2000E+02
     12.263  0.0000E+00  0.2000E+02
     12.369  0.0000E+00  0.2000E+02
     12.475  0.0000E+00  0.2000E+02
     12.581  0.0000E+00  0.2000E+02
     12.687  0.0000E+00  0.2000E+02
     12.794  0.0000E+00  0.2000E+02
     12.900  0.0000E+00  0.2000E+02
     13.006  0.0000E+00  0.2000E+02
     13.112  0.0000E+00  0.2000E+02
     13.218  0.0000E+00  0.2000E+02
