    1    1    1    1
  0.6156630E+02  0.4432200E-09  0.4432200E-09  0.4432200E-09  0.1000000E-15
  1.000000000000000E-004
  CAR 
 Og_FCC                                  
      8    216     20
 
  0.0000000E+00  0.0000000E+00  0.0000000E+00  0.4629630E-02
    1      -17.164102   1.000000
    2      -17.164102   1.000000
    3       -5.347263   1.000000
    4       -5.347263   1.000000
    5       -4.011915   1.000000
    6       -4.011915   1.000000
    7       -4.011895   1.000000
    8       -4.011894   1.000000
    9        2.440006   0.000000
   10        2.440006   0.000000
   11        7.026353   0.000000
   12        7.026353   0.000000
   13        7.026370   0.000000
   14        7.026371   0.000000
   15        7.083419   0.000000
   16        7.083419   0.000000
   17        9.240710   0.000000
   18        9.240710   0.000000
   19        9.240713   0.000000
   20        9.240713   0.000000
 
  0.1666667E+00  0.1535160E-17  0.6938894E-17  0.4629630E-02
    1      -17.115196   1.000000
    2      -17.115195   1.000000
    3       -5.522394   1.000000
    4       -5.522394   1.000000
    5       -4.327141   1.000000
    6       -4.327141   1.000000
    7       -4.062678   1.000000
    8       -4.062678   1.000000
    9        3.111140   0.000000
   10        3.111140   0.000000
   11        6.379044   0.000000
   12        6.379045   0.000000
   13        7.226678   0.000000
   14        7.226679   0.000000
   15        7.284610   0.000000
   16        7.284610   0.000000
   17        8.727511   0.000000
   18        8.727511   0.000000
   19        8.760607   0.000000
   20        8.760607   0.000000
 
  0.3333333E+00 -0.2468525E-16  0.2775558E-16  0.4629630E-02
    1      -17.015023   1.000000
    2      -17.015023   1.000000
    3       -5.967947   1.000000
    4       -5.967947   1.000000
    5       -4.710662   1.000000
    6       -4.710662   1.000000
    7       -4.160226   1.000000
    8       -4.160225   1.000000
    9        3.927132   0.000000
   10        3.927132   0.000000
   11        6.433933   0.000000
   12        6.433933   0.000000
   13        6.927327   0.000000
   14        6.927327   0.000000
   15        6.989505   0.000000
   16        6.989505   0.000000
   17        9.557031   0.000000
   18        9.557032   0.000000
   19        9.606539   0.000000
   20        9.606565   0.000000
 
  0.5000000E+00  0.4605481E-17  0.5551115E-16  0.4629630E-02
    1      -16.962329   1.000000
    2      -16.962328   1.000000
    3       -6.215748   1.000000
    4       -6.215748   1.000000
    5       -4.828436   1.000000
    6       -4.828436   1.000000
    7       -4.207049   1.000000
    8       -4.207049   1.000000
    9        3.978513   0.000000
   10        3.978514   0.000000
   11        6.669750   0.000000
   12        6.669750   0.000000
   13        6.727806   0.000000
   14        6.727806   0.000000
   15        7.023469   0.000000
   16        7.023470   0.000000
   17        9.761101   0.000000
   18        9.761101   0.000000
   19       11.051401   0.000000
   20       11.051603   0.000000
 
 -0.3333333E+00 -0.3070321E-17 -0.1387779E-16  0.4629630E-02
    1      -17.015023   1.000000
    2      -17.015023   1.000000
    3       -5.967947   1.000000
    4       -5.967947   1.000000
    5       -4.710662   1.000000
    6       -4.710662   1.000000
    7       -4.160226   1.000000
    8       -4.160225   1.000000
    9        3.927132   0.000000
   10        3.927132   0.000000
   11        6.433933   0.000000
   12        6.433933   0.000000
   13        6.927327   0.000000
   14        6.927327   0.000000
   15        6.989505   0.000000
   16        6.989505   0.000000
   17        9.557031   0.000000
   18        9.557034   0.000000
   19        9.606563   0.000000
   20        9.606782   0.000000
 
 -0.1666667E+00 -0.1535160E-17 -0.6938894E-17  0.4629630E-02
    1      -17.115196   1.000000
    2      -17.115195   1.000000
    3       -5.522394   1.000000
    4       -5.522394   1.000000
    5       -4.327141   1.000000
    6       -4.327141   1.000000
    7       -4.062678   1.000000
    8       -4.062678   1.000000
    9        3.111140   0.000000
   10        3.111140   0.000000
   11        6.379044   0.000000
   12        6.379045   0.000000
   13        7.226678   0.000000
   14        7.226679   0.000000
   15        7.284610   0.000000
   16        7.284610   0.000000
   17        8.727511   0.000000
   18        8.727511   0.000000
   19        8.760607   0.000000
   20        8.760607   0.000000
 
 -0.1925930E-33  0.1666667E+00  0.0000000E+00  0.4629630E-02
    1      -17.115196   1.000000
    2      -17.115195   1.000000
    3       -5.522394   1.000000
    4       -5.522394   1.000000
    5       -4.327141   1.000000
    6       -4.327141   1.000000
    7       -4.062678   1.000000
    8       -4.062678   1.000000
    9        3.111140   0.000000
   10        3.111140   0.000000
   11        6.379045   0.000000
   12        6.379045   0.000000
   13        7.226678   0.000000
   14        7.226679   0.000000
   15        7.284610   0.000000
   16        7.284610   0.000000
   17        8.727511   0.000000
   18        8.727511   0.000000
   19        8.760607   0.000000
   20        8.760607   0.000000
 
  0.1666667E+00  0.1666667E+00  0.2775558E-16  0.4629630E-02
    1      -17.098843   1.000000
    2      -17.098842   1.000000
    3       -5.558264   1.000000
    4       -5.558264   1.000000
    5       -4.363901   1.000000
    6       -4.363901   1.000000
    7       -4.164599   1.000000
    8       -4.164599   1.000000
    9        3.333864   0.000000
   10        3.333864   0.000000
   11        5.966703   0.000000
   12        5.966703   0.000000
   13        7.448910   0.000000
   14        7.448910   0.000000
   15        7.585343   0.000000
   16        7.585344   0.000000
   17        7.634989   0.000000
   18        7.634989   0.000000
   19        9.565718   0.000000
   20        9.565718   0.000000
 
  0.3333333E+00  0.1666667E+00  0.5551115E-16  0.4629630E-02
    1      -17.015769   1.000000
    2      -17.015769   1.000000
    3       -5.864565   1.000000
    4       -5.864564   1.000000
    5       -4.714971   1.000000
    6       -4.714971   1.000000
    7       -4.292293   1.000000
    8       -4.292293   1.000000
    9        4.185486   0.000000
   10        4.185486   0.000000
   11        5.625657   0.000000
   12        5.625657   0.000000
   13        6.451316   0.000000
   14        6.451316   0.000000
   15        7.736701   0.000000
   16        7.736701   0.000000
   17        8.834914   0.000000
   18        8.834915   0.000000
   19       10.191901   0.000000
   20       10.191901   0.000000
 
  0.5000000E+00  0.1666667E+00  0.2775558E-16  0.4629630E-02
    1      -16.946525   1.000000
    2      -16.946524   1.000000
    3       -6.139377   1.000000
    4       -6.139376   1.000000
    5       -4.930463   1.000000
    6       -4.930463   1.000000
    7       -4.385046   1.000000
    8       -4.385046   1.000000
    9        4.507002   0.000000
   10        4.507002   0.000000
   11        5.606551   0.000000
   12        5.606551   0.000000
   13        6.893877   0.000000
   14        6.893877   0.000000
   15        7.304165   0.000000
   16        7.304165   0.000000
   17       10.114512   0.000000
   18       10.114512   0.000000
   19       11.140008   0.000000
   20       11.140010   0.000000
 
 -0.3333333E+00  0.1666667E+00 -0.2081668E-16  0.4629630E-02
    1      -16.963689   1.000000
    2      -16.963688   1.000000
    3       -6.068794   1.000000
    4       -6.068794   1.000000
    5       -4.910061   1.000000
    6       -4.910061   1.000000
    7       -4.341678   1.000000
    8       -4.341678   1.000000
    9        4.635370   0.000000
   10        4.635370   0.000000
   11        5.782582   0.000000
   12        5.782582   0.000000
   13        6.573108   0.000000
   14        6.573108   0.000000
   15        7.223769   0.000000
   16        7.223769   0.000000
   17        9.262978   0.000000
   18        9.262979   0.000000
   19       11.039418   0.000000
   20       11.039418   0.000000
 
 -0.1666667E+00  0.1666667E+00  0.6132823E-18  0.4629630E-02
    1      -17.049194   1.000000
    2      -17.049193   1.000000
    3       -5.755435   1.000000
    4       -5.755435   1.000000
    5       -4.622989   1.000000
    6       -4.622989   1.000000
    7       -4.192958   1.000000
    8       -4.192958   1.000000
    9        3.979192   0.000000
   10        3.979192   0.000000
   11        5.962767   0.000000
   12        5.962767   0.000000
   13        6.701733   0.000000
   14        6.701733   0.000000
   15        7.712282   0.000000
   16        7.712282   0.000000
   17        7.790224   0.000000
   18        7.790225   0.000000
   19        9.949433   0.000000
   20        9.949433   0.000000
 
 -0.3851860E-33  0.3333333E+00  0.0000000E+00  0.4629630E-02
    1      -17.015023   1.000000
    2      -17.015023   1.000000
    3       -5.967947   1.000000
    4       -5.967947   1.000000
    5       -4.710662   1.000000
    6       -4.710662   1.000000
    7       -4.160226   1.000000
    8       -4.160225   1.000000
    9        3.927132   0.000000
   10        3.927132   0.000000
   11        6.433933   0.000000
   12        6.433933   0.000000
   13        6.927327   0.000000
   14        6.927327   0.000000
   15        6.989505   0.000000
   16        6.989505   0.000000
   17        9.557031   0.000000
   18        9.557035   0.000000
   19        9.606522   0.000000
   20        9.606747   0.000000
 
  0.1666667E+00  0.3333333E+00  0.2775558E-16  0.4629630E-02
    1      -17.015769   1.000000
    2      -17.015769   1.000000
    3       -5.864565   1.000000
    4       -5.864564   1.000000
    5       -4.714971   1.000000
    6       -4.714971   1.000000
    7       -4.292293   1.000000
    8       -4.292293   1.000000
    9        4.185486   0.000000
   10        4.185486   0.000000
   11        5.625657   0.000000
   12        5.625657   0.000000
   13        6.451316   0.000000
   14        6.451316   0.000000
   15        7.736701   0.000000
   16        7.736701   0.000000
   17        8.834914   0.000000
   18        8.834914   0.000000
   19       10.191901   0.000000
   20       10.191901   0.000000
 
  0.3333333E+00  0.3333333E+00  0.2775558E-16  0.4629630E-02
    1      -16.965415   1.000000
    2      -16.965414   1.000000
    3       -5.983883   1.000000
    4       -5.983882   1.000000
    5       -4.858242   1.000000
    6       -4.858242   1.000000
    7       -4.447573   1.000000
    8       -4.447573   1.000000
    9        3.967687   0.000000
   10        3.967687   0.000000
   11        4.863106   0.000000
   12        4.863106   0.000000
   13        7.151763   0.000000
   14        7.151763   0.000000
   15        9.057741   0.000000
   16        9.057742   0.000000
   17        9.187716   0.000000
   18        9.187716   0.000000
   19       10.434817   0.000000
   20       10.434817   0.000000
 
  0.5000000E+00  0.3333333E+00  0.1110223E-15  0.4629630E-02
    1      -16.913597   1.000000
    2      -16.913596   1.000000
    3       -6.121212   1.000000
    4       -6.121212   1.000000
    5       -5.029238   1.000000
    6       -5.029238   1.000000
    7       -4.584991   1.000000
    8       -4.584991   1.000000
    9        4.018676   0.000000
   10        4.018676   0.000000
   11        4.981425   0.000000
   12        4.981426   0.000000
   13        7.348844   0.000000
   14        7.348844   0.000000
   15        8.940320   0.000000
   16        8.940320   0.000000
   17       10.322960   0.000000
   18       10.322961   0.000000
   19       11.376030   0.000000
   20       11.376030   0.000000
 
 -0.3333333E+00  0.3333333E+00 -0.3713229E-16  0.4629630E-02
    1      -16.912509   1.000000
    2      -16.912509   1.000000
    3       -6.096722   1.000000
    4       -6.096722   1.000000
    5       -5.125351   1.000000
    6       -5.125351   1.000000
    7       -4.563853   1.000000
    8       -4.563853   1.000000
    9        4.596025   0.000000
   10        4.596025   0.000000
   11        5.632822   0.000000
   12        5.632822   0.000000
   13        6.761364   0.000000
   14        6.761365   0.000000
   15        8.137930   0.000000
   16        8.137931   0.000000
   17        9.708091   0.000000
   18        9.708092   0.000000
   19        9.839220   0.000000
   20        9.839221   0.000000
 
 -0.1666667E+00  0.3333333E+00  0.2081668E-16  0.4629630E-02
    1      -16.963689   1.000000
    2      -16.963688   1.000000
    3       -6.068794   1.000000
    4       -6.068794   1.000000
    5       -4.910061   1.000000
    6       -4.910061   1.000000
    7       -4.341678   1.000000
    8       -4.341678   1.000000
    9        4.635370   0.000000
   10        4.635370   0.000000
   11        5.782582   0.000000
   12        5.782582   0.000000
   13        6.573108   0.000000
   14        6.573108   0.000000
   15        7.223768   0.000000
   16        7.223769   0.000000
   17        9.262979   0.000000
   18        9.262979   0.000000
   19       11.039417   0.000000
   20       11.039418   0.000000
 
  0.7703720E-33  0.5000000E+00  0.0000000E+00  0.4629630E-02
    1      -16.962329   1.000000
    2      -16.962328   1.000000
    3       -6.215748   1.000000
    4       -6.215748   1.000000
    5       -4.828436   1.000000
    6       -4.828436   1.000000
    7       -4.207049   1.000000
    8       -4.207049   1.000000
    9        3.978513   0.000000
   10        3.978514   0.000000
   11        6.669750   0.000000
   12        6.669750   0.000000
   13        6.727806   0.000000
   14        6.727806   0.000000
   15        7.023469   0.000000
   16        7.023470   0.000000
   17        9.761101   0.000000
   18        9.761101   0.000000
   19       11.051453   0.000000
   20       11.053003   0.000000
 
  0.1666667E+00  0.5000000E+00  0.8326673E-16  0.4629630E-02
    1      -16.946525   1.000000
    2      -16.946524   1.000000
    3       -6.139377   1.000000
    4       -6.139377   1.000000
    5       -4.930463   1.000000
    6       -4.930463   1.000000
    7       -4.385046   1.000000
    8       -4.385046   1.000000
    9        4.507002   0.000000
   10        4.507002   0.000000
   11        5.606551   0.000000
   12        5.606551   0.000000
   13        6.893877   0.000000
   14        6.893877   0.000000
   15        7.304165   0.000000
   16        7.304165   0.000000
   17       10.114512   0.000000
   18       10.114512   0.000000
   19       11.140009   0.000000
   20       11.140009   0.000000
 
  0.3333333E+00  0.5000000E+00  0.1110223E-15  0.4629630E-02
    1      -16.913597   1.000000
    2      -16.913596   1.000000
    3       -6.121212   1.000000
    4       -6.121212   1.000000
    5       -5.029238   1.000000
    6       -5.029238   1.000000
    7       -4.584991   1.000000
    8       -4.584990   1.000000
    9        4.018676   0.000000
   10        4.018676   0.000000
   11        4.981425   0.000000
   12        4.981426   0.000000
   13        7.348844   0.000000
   14        7.348844   0.000000
   15        8.940319   0.000000
   16        8.940320   0.000000
   17       10.322960   0.000000
   18       10.322961   0.000000
   19       11.376030   0.000000
   20       11.376030   0.000000
 
  0.5000000E+00  0.5000000E+00  0.5551115E-16  0.4629630E-02
    1      -16.897054   1.000000
    2      -16.897053   1.000000
    3       -6.191963   1.000000
    4       -6.191963   1.000000
    5       -5.045202   1.000000
    6       -5.045202   1.000000
    7       -4.579528   1.000000
    8       -4.579528   1.000000
    9        3.538001   0.000000
   10        3.538002   0.000000
   11        4.474864   0.000000
   12        4.474865   0.000000
   13        8.570124   0.000000
   14        8.570124   0.000000
   15       11.002069   0.000000
   16       11.002069   0.000000
   17       11.117144   0.000000
   18       11.117144   0.000000
   19       11.241472   0.000000
   20       11.241473   0.000000
 
 -0.3333333E+00  0.5000000E+00  0.2775558E-16  0.4629630E-02
    1      -16.913597   1.000000
    2      -16.913596   1.000000
    3       -6.121212   1.000000
    4       -6.121212   1.000000
    5       -5.029238   1.000000
    6       -5.029238   1.000000
    7       -4.584991   1.000000
    8       -4.584990   1.000000
    9        4.018676   0.000000
   10        4.018676   0.000000
   11        4.981425   0.000000
   12        4.981426   0.000000
   13        7.348844   0.000000
   14        7.348844   0.000000
   15        8.940319   0.000000
   16        8.940320   0.000000
   17       10.322960   0.000000
   18       10.322961   0.000000
   19       11.376030   0.000000
   20       11.376030   0.000000
 
 -0.1666667E+00  0.5000000E+00 -0.2775558E-16  0.4629630E-02
    1      -16.946525   1.000000
    2      -16.946524   1.000000
    3       -6.139377   1.000000
    4       -6.139376   1.000000
    5       -4.930463   1.000000
    6       -4.930463   1.000000
    7       -4.385046   1.000000
    8       -4.385046   1.000000
    9        4.507002   0.000000
   10        4.507002   0.000000
   11        5.606551   0.000000
   12        5.606551   0.000000
   13        6.893877   0.000000
   14        6.893877   0.000000
   15        7.304165   0.000000
   16        7.304165   0.000000
   17       10.114512   0.000000
   18       10.114512   0.000000
   19       11.140009   0.000000
   20       11.140014   0.000000
 
  0.3851860E-33 -0.3333333E+00  0.0000000E+00  0.4629630E-02
    1      -17.015023   1.000000
    2      -17.015023   1.000000
    3       -5.967947   1.000000
    4       -5.967947   1.000000
    5       -4.710662   1.000000
    6       -4.710662   1.000000
    7       -4.160226   1.000000
    8       -4.160225   1.000000
    9        3.927132   0.000000
   10        3.927132   0.000000
   11        6.433933   0.000000
   12        6.433933   0.000000
   13        6.927327   0.000000
   14        6.927327   0.000000
   15        6.989505   0.000000
   16        6.989505   0.000000
   17        9.557031   0.000000
   18        9.557031   0.000000
   19        9.606510   0.000000
   20        9.606530   0.000000
 
  0.1666667E+00 -0.3333333E+00  0.3469447E-16  0.4629630E-02
    1      -16.963689   1.000000
    2      -16.963688   1.000000
    3       -6.068794   1.000000
    4       -6.068794   1.000000
    5       -4.910061   1.000000
    6       -4.910061   1.000000
    7       -4.341678   1.000000
    8       -4.341678   1.000000
    9        4.635370   0.000000
   10        4.635370   0.000000
   11        5.782582   0.000000
   12        5.782582   0.000000
   13        6.573108   0.000000
   14        6.573108   0.000000
   15        7.223768   0.000000
   16        7.223769   0.000000
   17        9.262979   0.000000
   18        9.262979   0.000000
   19       11.039417   0.000000
   20       11.039418   0.000000
 
  0.3333333E+00 -0.3333333E+00  0.3377038E-16  0.4629630E-02
    1      -16.912509   1.000000
    2      -16.912509   1.000000
    3       -6.096722   1.000000
    4       -6.096722   1.000000
    5       -5.125351   1.000000
    6       -5.125351   1.000000
    7       -4.563853   1.000000
    8       -4.563853   1.000000
    9        4.596025   0.000000
   10        4.596025   0.000000
   11        5.632822   0.000000
   12        5.632822   0.000000
   13        6.761364   0.000000
   14        6.761365   0.000000
   15        8.137930   0.000000
   16        8.137931   0.000000
   17        9.708091   0.000000
   18        9.708092   0.000000
   19        9.839220   0.000000
   20        9.839221   0.000000
 
  0.5000000E+00 -0.3333333E+00  0.6938894E-17  0.4629630E-02
    1      -16.913597   1.000000
    2      -16.913596   1.000000
    3       -6.121212   1.000000
    4       -6.121212   1.000000
    5       -5.029238   1.000000
    6       -5.029238   1.000000
    7       -4.584991   1.000000
    8       -4.584991   1.000000
    9        4.018676   0.000000
   10        4.018676   0.000000
   11        4.981425   0.000000
   12        4.981426   0.000000
   13        7.348844   0.000000
   14        7.348844   0.000000
   15        8.940320   0.000000
   16        8.940320   0.000000
   17       10.322960   0.000000
   18       10.322960   0.000000
   19       11.376030   0.000000
   20       11.376030   0.000000
 
 -0.3333333E+00 -0.3333333E+00 -0.5551115E-16  0.4629630E-02
    1      -16.965415   1.000000
    2      -16.965414   1.000000
    3       -5.983883   1.000000
    4       -5.983882   1.000000
    5       -4.858242   1.000000
    6       -4.858242   1.000000
    7       -4.447573   1.000000
    8       -4.447573   1.000000
    9        3.967687   0.000000
   10        3.967687   0.000000
   11        4.863106   0.000000
   12        4.863106   0.000000
   13        7.151763   0.000000
   14        7.151763   0.000000
   15        9.057741   0.000000
   16        9.057742   0.000000
   17        9.187716   0.000000
   18        9.187716   0.000000
   19       10.434817   0.000000
   20       10.434817   0.000000
 
 -0.1666667E+00 -0.3333333E+00 -0.5551115E-16  0.4629630E-02
    1      -17.015769   1.000000
    2      -17.015769   1.000000
    3       -5.864565   1.000000
    4       -5.864564   1.000000
    5       -4.714971   1.000000
    6       -4.714971   1.000000
    7       -4.292293   1.000000
    8       -4.292293   1.000000
    9        4.185486   0.000000
   10        4.185486   0.000000
   11        5.625657   0.000000
   12        5.625657   0.000000
   13        6.451316   0.000000
   14        6.451316   0.000000
   15        7.736701   0.000000
   16        7.736701   0.000000
   17        8.834914   0.000000
   18        8.834914   0.000000
   19       10.191901   0.000000
   20       10.191901   0.000000
 
  0.1925930E-33 -0.1666667E+00  0.0000000E+00  0.4629630E-02
    1      -17.115196   1.000000
    2      -17.115195   1.000000
    3       -5.522394   1.000000
    4       -5.522394   1.000000
    5       -4.327141   1.000000
    6       -4.327141   1.000000
    7       -4.062678   1.000000
    8       -4.062678   1.000000
    9        3.111140   0.000000
   10        3.111140   0.000000
   11        6.379045   0.000000
   12        6.379045   0.000000
   13        7.226678   0.000000
   14        7.226679   0.000000
   15        7.284610   0.000000
   16        7.284610   0.000000
   17        8.727511   0.000000
   18        8.727511   0.000000
   19        8.760607   0.000000
   20        8.760607   0.000000
 
  0.1666667E+00 -0.1666667E+00 -0.6132823E-18  0.4629630E-02
    1      -17.049194   1.000000
    2      -17.049193   1.000000
    3       -5.755436   1.000000
    4       -5.755435   1.000000
    5       -4.622989   1.000000
    6       -4.622989   1.000000
    7       -4.192958   1.000000
    8       -4.192958   1.000000
    9        3.979192   0.000000
   10        3.979192   0.000000
   11        5.962767   0.000000
   12        5.962767   0.000000
   13        6.701733   0.000000
   14        6.701733   0.000000
   15        7.712282   0.000000
   16        7.712282   0.000000
   17        7.790224   0.000000
   18        7.790225   0.000000
   19        9.949433   0.000000
   20        9.949433   0.000000
 
  0.3333333E+00 -0.1666667E+00  0.2775558E-16  0.4629630E-02
    1      -16.963689   1.000000
    2      -16.963688   1.000000
    3       -6.068794   1.000000
    4       -6.068794   1.000000
    5       -4.910061   1.000000
    6       -4.910061   1.000000
    7       -4.341678   1.000000
    8       -4.341678   1.000000
    9        4.635370   0.000000
   10        4.635370   0.000000
   11        5.782582   0.000000
   12        5.782582   0.000000
   13        6.573108   0.000000
   14        6.573108   0.000000
   15        7.223769   0.000000
   16        7.223769   0.000000
   17        9.262978   0.000000
   18        9.262979   0.000000
   19       11.039418   0.000000
   20       11.039418   0.000000
 
  0.5000000E+00 -0.1666667E+00  0.2775558E-16  0.4629630E-02
    1      -16.946525   1.000000
    2      -16.946524   1.000000
    3       -6.139377   1.000000
    4       -6.139376   1.000000
    5       -4.930463   1.000000
    6       -4.930463   1.000000
    7       -4.385046   1.000000
    8       -4.385046   1.000000
    9        4.507002   0.000000
   10        4.507002   0.000000
   11        5.606551   0.000000
   12        5.606551   0.000000
   13        6.893877   0.000000
   14        6.893877   0.000000
   15        7.304165   0.000000
   16        7.304165   0.000000
   17       10.114512   0.000000
   18       10.114512   0.000000
   19       11.140008   0.000000
   20       11.140012   0.000000
 
 -0.3333333E+00 -0.1666667E+00 -0.5551115E-16  0.4629630E-02
    1      -17.015769   1.000000
    2      -17.015769   1.000000
    3       -5.864565   1.000000
    4       -5.864564   1.000000
    5       -4.714971   1.000000
    6       -4.714971   1.000000
    7       -4.292293   1.000000
    8       -4.292293   1.000000
    9        4.185486   0.000000
   10        4.185486   0.000000
   11        5.625657   0.000000
   12        5.625657   0.000000
   13        6.451316   0.000000
   14        6.451316   0.000000
   15        7.736701   0.000000
   16        7.736701   0.000000
   17        8.834914   0.000000
   18        8.834915   0.000000
   19       10.191901   0.000000
   20       10.191901   0.000000
 
 -0.1666667E+00 -0.1666667E+00 -0.2775558E-16  0.4629630E-02
    1      -17.098843   1.000000
    2      -17.098842   1.000000
    3       -5.558264   1.000000
    4       -5.558264   1.000000
    5       -4.363901   1.000000
    6       -4.363901   1.000000
    7       -4.164599   1.000000
    8       -4.164599   1.000000
    9        3.333864   0.000000
   10        3.333864   0.000000
   11        5.966703   0.000000
   12        5.966703   0.000000
   13        7.448910   0.000000
   14        7.448910   0.000000
   15        7.585343   0.000000
   16        7.585344   0.000000
   17        7.634989   0.000000
   18        7.634989   0.000000
   19        9.565718   0.000000
   20        9.565718   0.000000
 
 -0.7703720E-33 -0.7703720E-33  0.1666667E+00  0.4629630E-02
    1      -17.115196   1.000000
    2      -17.115195   1.000000
    3       -5.522394   1.000000
    4       -5.522394   1.000000
    5       -4.327141   1.000000
    6       -4.327141   1.000000
    7       -4.062678   1.000000
    8       -4.062678   1.000000
    9        3.111140   0.000000
   10        3.111140   0.000000
   11        6.379046   0.000000
   12        6.379046   0.000000
   13        7.226678   0.000000
   14        7.226678   0.000000
   15        7.284609   0.000000
   16        7.284610   0.000000
   17        8.727510   0.000000
   18        8.727510   0.000000
   19        8.760606   0.000000
   20        8.760606   0.000000
 
  0.1666667E+00  0.1080747E-16  0.1666667E+00  0.4629630E-02
    1      -17.098843   1.000000
    2      -17.098842   1.000000
    3       -5.558264   1.000000
    4       -5.558264   1.000000
    5       -4.363901   1.000000
    6       -4.363901   1.000000
    7       -4.164599   1.000000
    8       -4.164599   1.000000
    9        3.333864   0.000000
   10        3.333864   0.000000
   11        5.966703   0.000000
   12        5.966703   0.000000
   13        7.448910   0.000000
   14        7.448910   0.000000
   15        7.585343   0.000000
   16        7.585344   0.000000
   17        7.634989   0.000000
   18        7.634989   0.000000
   19        9.565718   0.000000
   20        9.565718   0.000000
 
  0.3333333E+00 -0.2929074E-16  0.1666667E+00  0.4629630E-02
    1      -17.015769   1.000000
    2      -17.015769   1.000000
    3       -5.864565   1.000000
    4       -5.864565   1.000000
    5       -4.714971   1.000000
    6       -4.714971   1.000000
    7       -4.292293   1.000000
    8       -4.292293   1.000000
    9        4.185486   0.000000
   10        4.185487   0.000000
   11        5.625656   0.000000
   12        5.625656   0.000000
   13        6.451316   0.000000
   14        6.451317   0.000000
   15        7.736699   0.000000
   16        7.736699   0.000000
   17        8.834917   0.000000
   18        8.834917   0.000000
   19       10.191901   0.000000
   20       10.191901   0.000000
 
  0.5000000E+00  0.4857226E-32  0.1666667E+00  0.4629630E-02
    1      -16.946525   1.000000
    2      -16.946524   1.000000
    3       -6.139377   1.000000
    4       -6.139377   1.000000
    5       -4.930463   1.000000
    6       -4.930463   1.000000
    7       -4.385046   1.000000
    8       -4.385046   1.000000
    9        4.507003   0.000000
   10        4.507003   0.000000
   11        5.606550   0.000000
   12        5.606551   0.000000
   13        6.893877   0.000000
   14        6.893878   0.000000
   15        7.304163   0.000000
   16        7.304163   0.000000
   17       10.114513   0.000000
   18       10.114513   0.000000
   19       11.140007   0.000000
   20       11.140011   0.000000
 
 -0.3333333E+00 -0.7675802E-17  0.1666667E+00  0.4629630E-02
    1      -16.963689   1.000000
    2      -16.963688   1.000000
    3       -6.068794   1.000000
    4       -6.068794   1.000000
    5       -4.910061   1.000000
    6       -4.910061   1.000000
    7       -4.341678   1.000000
    8       -4.341678   1.000000
    9        4.635370   0.000000
   10        4.635370   0.000000
   11        5.782583   0.000000
   12        5.782583   0.000000
   13        6.573110   0.000000
   14        6.573110   0.000000
   15        7.223767   0.000000
   16        7.223767   0.000000
   17        9.262978   0.000000
   18        9.262978   0.000000
   19       11.039418   0.000000
   20       11.039418   0.000000
 
 -0.1666667E+00  0.2161493E-16  0.1666667E+00  0.4629630E-02
    1      -17.049194   1.000000
    2      -17.049193   1.000000
    3       -5.755435   1.000000