   1   1   0   0
  0.6008441E+02  0.4396350E-09  0.4396350E-09  0.4396350E-09  0.1000000E-15
  1.000000000000000E-004
  CAR 
 Og_FCC                                  
     78.51866627    -35.95925053  301      3.55765383      1.00000000
    -35.959  0.0000E+00  0.0000E+00
    -35.578  0.0000E+00  0.0000E+00
    -35.196  0.0000E+00  0.0000E+00
    -34.814  0.0000E+00  0.0000E+00
    -34.433  0.0000E+00  0.0000E+00
    -34.051  0.0000E+00  0.0000E+00
    -33.670  0.0000E+00  0.0000E+00
    -33.288  0.0000E+00  0.0000E+00
    -32.907  0.0000E+00  0.0000E+00
    -32.525  0.0000E+00  0.0000E+00
    -32.143  0.0000E+00  0.0000E+00
    -31.762  0.0000E+00  0.0000E+00
    -31.380  0.0000E+00  0.0000E+00
    -30.999  0.0000E+00  0.0000E+00
    -30.617  0.0000E+00  0.4000E+01
    -30.235  0.0000E+00  0.4000E+01
    -29.854  0.0000E+00  0.4000E+01
    -29.472  0.0000E+00  0.4000E+01
    -29.091  0.0000E+00  0.4000E+01
    -28.709  0.0000E+00  0.4000E+01
    -28.327  0.0000E+00  0.4000E+01
    -27.946  0.0000E+00  0.4000E+01
    -27.564  0.0000E+00  0.4000E+01
    -27.183  0.0000E+00  0.4000E+01
    -26.801  0.0000E+00  0.4000E+01
    -26.419  0.0000E+00  0.4000E+01
    -26.038  0.0000E+00  0.4000E+01
    -25.656  0.0000E+00  0.4000E+01
    -25.275  0.0000E+00  0.4000E+01
    -24.893  0.0000E+00  0.4000E+01
    -24.511  0.0000E+00  0.4000E+01
    -24.130  0.0000E+00  0.4000E+01
    -23.748  0.0000E+00  0.1000E+02
    -23.367  0.0000E+00  0.1000E+02
    -22.985  0.0000E+00  0.1000E+02
    -22.603  0.0000E+00  0.1000E+02
    -22.222  0.0000E+00  0.1000E+02
    -21.840  0.0000E+00  0.1000E+02
    -21.459  0.0000E+00  0.1000E+02
    -21.077  0.0000E+00  0.1000E+02
    -20.696  0.0000E+00  0.1000E+02
    -20.314  0.0000E+00  0.1200E+02
    -19.932  0.0000E+00  0.1200E+02
    -19.551  0.0000E+00  0.1200E+02
    -19.169  0.0000E+00  0.1200E+02
    -18.788  0.0000E+00  0.1200E+02
    -18.406  0.0000E+00  0.1200E+02
    -18.024  0.0000E+00  0.1200E+02
    -17.643  0.0000E+00  0.1200E+02
    -17.261  0.0000E+00  0.1200E+02
    -16.880  0.0000E+00  0.1200E+02
    -16.498  0.0000E+00  0.1200E+02
    -16.116  0.0000E+00  0.1200E+02
    -15.735  0.0000E+00  0.1200E+02
    -15.353  0.0000E+00  0.1200E+02
    -14.972  0.0000E+00  0.1200E+02
    -14.590  0.0000E+00  0.1200E+02
    -14.208  0.0000E+00  0.1200E+02
    -13.827  0.0000E+00  0.1200E+02
    -13.445  0.0000E+00  0.1200E+02
    -13.064  0.0000E+00  0.1200E+02
    -12.682  0.0000E+00  0.1200E+02
    -12.300  0.0000E+00  0.1200E+02
    -11.919  0.0000E+00  0.1200E+02
    -11.537  0.0000E+00  0.1200E+02
    -11.156  0.0000E+00  0.1200E+02
    -10.774  0.0000E+00  0.1200E+02
    -10.393  0.0000E+00  0.1200E+02
    -10.011  0.0000E+00  0.1200E+02
     -9.629  0.0000E+00  0.1200E+02
     -9.248  0.0000E+00  0.1200E+02
     -8.866  0.0000E+00  0.1200E+02
     -8.485  0.0000E+00  0.1200E+02
     -8.103  0.0000E+00  0.1200E+02
     -7.721  0.0000E+00  0.1200E+02
     -7.340  0.0000E+00  0.1391E+02
     -6.958  0.0000E+00  0.1400E+02
     -6.577  0.0000E+00  0.1400E+02
     -6.195  0.0000E+00  0.1400E+02
     -5.813  0.0000E+00  0.1400E+02
     -5.432  0.0000E+00  0.1400E+02
     -5.050  0.0000E+00  0.1400E+02
     -4.669  0.0000E+00  0.1400E+02
     -4.287  0.0000E+00  0.1400E+02
     -3.905  0.0000E+00  0.1400E+02
     -3.524  0.0000E+00  0.1400E+02
     -3.142  0.0000E+00  0.1400E+02
     -2.761  0.0000E+00  0.1400E+02
     -2.379  0.0000E+00  0.1400E+02
     -1.997  0.0000E+00  0.1400E+02
     -1.616  0.0000E+00  0.1400E+02
     -1.234  0.0000E+00  0.1400E+02
     -0.853  0.0000E+00  0.1400E+02
     -0.471  0.0000E+00  0.1400E+02
     -0.090  0.0000E+00  0.1400E+02
      0.292  0.0000E+00  0.1400E+02
      0.674  0.0000E+00  0.1492E+02
      1.055  0.9168E-01  0.1566E+02
      1.437  0.0000E+00  0.1584E+02
      1.818  0.0000E+00  0.1619E+02
      2.200  0.0000E+00  0.1701E+02
      2.582  0.0000E+00  0.1732E+02
      2.963  0.0000E+00  0.1774E+02
      3.345  0.0000E+00  0.1794E+02
      3.726  0.0000E+00  0.1801E+02
      4.108  0.0000E+00  0.1801E+02
      4.490  0.0000E+00  0.1801E+02
      4.871  0.0000E+00  0.1801E+02
      5.253  0.0000E+00  0.1805E+02
      5.634  0.0000E+00  0.1809E+02
      6.016  0.0000E+00  0.1825E+02
      6.398  0.0000E+00  0.1843E+02
      6.779  0.0000E+00  0.1909E+02
      7.161  0.0000E+00  0.1951E+02
      7.542  0.9168E-01  0.2003E+02
      7.924  0.0000E+00  0.2010E+02
      8.306  0.0000E+00  0.2042E+02
      8.687  0.0000E+00  0.2105E+02
      9.069  0.1370E-03  0.2161E+02
      9.450  0.0000E+00  0.2203E+02
      9.832  0.0000E+00  0.2254E+02
     10.214  0.1222E+00  0.2341E+02
     10.595  0.0000E+00  0.2400E+02
     10.977  0.1276E+00  0.2457E+02
     11.358  0.0000E+00  0.2507E+02
     11.740  0.0000E+00  0.2578E+02
     12.121  0.0000E+00  0.2615E+02
     12.503  0.1019E-10  0.2687E+02
     12.885  0.7799E-01  0.2787E+02
     13.266  0.1834E+00  0.2864E+02
     13.648  0.0000E+00  0.2899E+02
     14.029  0.3832E-02  0.2999E+02
     14.411  0.1666E+00  0.3059E+02
     14.793  0.0000E+00  0.3126E+02
     15.174  0.4166E-11  0.3222E+02
     15.556  0.0000E+00  0.3248E+02
     15.937  0.0000E+00  0.3280E+02
     16.319  0.0000E+00  0.3310E+02
     16.701  0.3667E+00  0.3492E+02
     17.082  0.2405E+00  0.3600E+02
     17.464  0.0000E+00  0.3714E+02
     17.845  0.3602E+00  0.3827E+02
     18.227  0.0000E+00  0.4017E+02
     18.609  0.0000E+00  0.4191E+02
     18.990  0.0000E+00  0.4245E+02
     19.372  0.3667E+00  0.4365E+02
     19.753  0.0000E+00  0.4491E+02
     20.135  0.0000E+00  0.4586E+02
     20.517  0.0000E+00  0.4619E+02
     20.898  0.0000E+00  0.4629E+02
     21.280  0.0000E+00  0.4696E+02
     21.661  0.0000E+00  0.4781E+02
     22.043  0.0000E+00  0.4781E+02
     22.424  0.0000E+00  0.4849E+02
     22.806  0.0000E+00  0.4954E+02
     23.188  0.0000E+00  0.5013E+02
     23.569  0.0000E+00  0.5093E+02
     23.951  0.0000E+00  0.5201E+02
     24.332  0.0000E+00  0.5346E+02
     24.714  0.0000E+00  0.5478E+02
     25.096  0.0000E+00  0.5624E+02
     25.477  0.0000E+00  0.5690E+02
     25.859  0.0000E+00  0.5720E+02
     26.240  0.0000E+00  0.5798E+02
     26.622  0.3666E+00  0.5918E+02
     27.004  0.6227E-10  0.6009E+02
     27.385  0.8509E-03  0.6057E+02
     27.767  0.0000E+00  0.6085E+02
     28.148  0.1568E-03  0.6143E+02
     28.530  0.3629E-02  0.6277E+02
     28.912  0.0000E+00  0.6348E+02
     29.293  0.2131E-01  0.6415E+02
     29.675  0.0000E+00  0.6532E+02
     30.056  0.0000E+00  0.6592E+02
     30.438  0.0000E+00  0.6685E+02
     30.820  0.8095E-08  0.6763E+02
     31.201  0.0000E+00  0.6925E+02
     31.583  0.0000E+00  0.7029E+02
     31.964  0.1834E+00  0.7179E+02
     32.346  0.0000E+00  0.7235E+02
     32.727  0.0000E+00  0.7355E+02
     33.109  0.0000E+00  0.7401E+02
     33.491  0.9167E-01  0.7537E+02
     33.872  0.0000E+00  0.7621E+02
     34.254  0.0000E+00  0.7662E+02
     34.635  0.2374E+00  0.7856E+02
     35.017  0.0000E+00  0.7942E+02
     35.399  0.0000E+00  0.8051E+02
     35.780  0.4292E-05  0.8203E+02
     36.162  0.0000E+00  0.8310E+02
     36.543  0.0000E+00  0.8356E+02
     36.925  0.0000E+00  0.8445E+02
     37.307  0.0000E+00  0.8567E+02
     37.688  0.0000E+00  0.8582E+02
     38.070  0.0000E+00  0.8700E+02
     38.451  0.3818E-01  0.8788E+02
     38.833  0.0000E+00  0.8920E+02
     39.215  0.0000E+00  0.8978E+02
     39.596  0.1222E+00  0.9077E+02
     39.978  0.0000E+00  0.9216E+02
     40.359  0.0000E+00  0.9352E+02
     40.741  0.0000E+00  0.9413E+02
     41.123  0.0000E+00  0.9495E+02
     41.504  0.0000E+00  0.9651E+02
     41.886  0.0000E+00  0.9743E+02
     42.267  0.0000E+00  0.9894E+02
     42.649  0.0000E+00  0.9957E+02
     43.031  0.0000E+00  0.1000E+03
     43.412  0.0000E+00  0.1013E+03
     43.794  0.0000E+00  0.1028E+03
     44.175  0.2051E-08  0.1033E+03
     44.557  0.1528E-01  0.1043E+03
     44.938  0.0000E+00  0.1058E+03
     45.320  0.0000E+00  0.1073E+03
     45.702  0.0000E+00  0.1085E+03
     46.083  0.0000E+00  0.1093E+03
     46.465  0.0000E+00  0.1104E+03
     46.846  0.0000E+00  0.1116E+03
     47.228  0.0000E+00  0.1125E+03
     47.610  0.0000E+00  0.1137E+03
     47.991  0.0000E+00  0.1149E+03
     48.373  0.0000E+00  0.1162E+03
     48.754  0.0000E+00  0.1171E+03
     49.136  0.0000E+00  0.1187E+03
     49.518  0.0000E+00  0.1195E+03
     49.899  0.0000E+00  0.1206E+03
     50.281  0.0000E+00  0.1218E+03
     50.662  0.1354E-07  0.1231E+03
     51.044  0.0000E+00  0.1247E+03
     51.426  0.0000E+00  0.1256E+03
     51.807  0.4888E+00  0.1274E+03
     52.189  0.0000E+00  0.1280E+03
     52.570  0.0000E+00  0.1295E+03
     52.952  0.1834E+00  0.1306E+03
     53.334  0.0000E+00  0.1316E+03
     53.715  0.0000E+00  0.1325E+03
     54.097  0.7478E-14  0.1341E+03
     54.478  0.1834E+00  0.1356E+03
     54.860  0.1799E+00  0.1366E+03
     55.241  0.3667E+00  0.1376E+03
     55.623  0.0000E+00  0.1390E+03
     56.005  0.0000E+00  0.1400E+03
     56.386  0.0000E+00  0.1411E+03
     56.768  0.0000E+00  0.1420E+03
     57.149  0.1419E-05  0.1431E+03
     57.531  0.3448E-02  0.1444E+03
     57.913  0.3054E-02  0.1455E+03
     58.294  0.3106E-06  0.1475E+03
     58.676  0.0000E+00  0.1488E+03
     59.057  0.2345E-06  0.1498E+03
     59.439  0.3667E+00  0.1510E+03
     59.821  0.0000E+00  0.1527E+03
     60.202  0.0000E+00  0.1533E+03
     60.584  0.2121E-16  0.1548E+03
     60.965  0.2878E+00  0.1559E+03
     61.347  0.3667E+00  0.1573E+03
     61.729  0.0000E+00  0.1585E+03
     62.110  0.0000E+00  0.1597E+03
     62.492  0.0000E+00  0.1610E+03
     62.873  0.0000E+00  0.1621E+03
     63.255  0.0000E+00  0.1639E+03
     63.637  0.3069E-04  0.1652E+03
     64.018  0.0000E+00  0.1669E+03
     64.400  0.3508E-12  0.1677E+03
     64.781  0.3667E+00  0.1687E+03
     65.163  0.0000E+00  0.1706E+03
     65.545  0.3667E+00  0.1724E+03
     65.926  0.0000E+00  0.1733E+03
     66.308  0.0000E+00  0.1745E+03
     66.689  0.3549E+00  0.1759E+03
     67.071  0.0000E+00  0.1768E+03
     67.452  0.0000E+00  0.1784E+03
     67.834  0.0000E+00  0.1793E+03
     68.216  0.0000E+00  0.1804E+03
     68.597  0.0000E+00  0.1823E+03
     68.979  0.0000E+00  0.1837E+03
     69.360  0.0000E+00  0.1849E+03
     69.742  0.0000E+00  0.1861E+03
     70.124  0.4618E-01  0.1876E+03
     70.505  0.0000E+00  0.1889E+03
     70.887  0.0000E+00  0.1900E+03
     71.268  0.0000E+00  0.1919E+03
     71.650  0.0000E+00  0.1932E+03
     72.032  0.0000E+00  0.1940E+03
     72.413  0.0000E+00  0.1946E+03
     72.795  0.3667E+00  0.1953E+03
     73.176  0.0000E+00  0.1956E+03
     73.558  0.0000E+00  0.1960E+03
     73.940  0.0000E+00  0.1960E+03
     74.321  0.0000E+00  0.1960E+03
     74.703  0.0000E+00  0.1960E+03
     75.084  0.0000E+00  0.1960E+03
     75.466  0.0000E+00  0.1960E+03
     75.848  0.0000E+00  0.1960E+03
     76.229  0.0000E+00  0.1960E+03
     76.611  0.0000E+00  0.1960E+03
     76.992  0.0000E+00  0.1960E+03
     77.374  0.0000E+00  0.1960E+03
     77.755  0.0000E+00  0.1960E+03
     78.137  0.0000E+00  0.1960E+03
     78.519  0.0000E+00  0.1960E+03
