 vasp.5.4.4.18Apr17-6-g9f103f2a35 (build Nov 03 2018 10:20:46) complex          
  
 executed on             LinuxIFC date 2018.12.10  10:33:36
 running on   56 total cores
 distrk:  each k-point on   14 cores,    4 groups
 distr:  one band on NCORES_PER_BAND=   7 cores,    2 groups


--------------------------------------------------------------------------------------------------------


 INCAR:
 POTCAR:    PAW Og, JanMewes Oct 18               

 ----------------------------------------------------------------------------- 
|                                                                             |
|           W    W    AA    RRRRR   N    N  II  N    N   GGGG   !!!           |
|           W    W   A  A   R    R  NN   N  II  NN   N  G    G  !!!           |
|           W    W  A    A  R    R  N N  N  II  N N  N  G       !!!           |
|           W WW W  AAAAAA  RRRRR   N  N N  II  N  N N  G  GGG   !            |
|           WW  WW  A    A  R   R   N   NN  II  N   NN  G    G                |
|           W    W  A    A  R    R  N    N  II  N    N   GGGG   !!!           |
|                                                                             |
|      You have enabled k-point parallelism (KPAR>1).                         |
|      This developmental code was originally  written by Paul Kent at ORNL,  |
|      and carefully double checked in Vienna.                                |
|      GW as well as linear response parallelism added by Martijn Marsman     |
|      and Georg Kresse.                                                      |
|      Carefully verify results versus KPAR=1.                                |
|      Report problems to Paul Kent and Vienna.                               |
|                                                                             |
 ----------------------------------------------------------------------------- 

 POTCAR:    PAW Og, JanMewes Oct 18               
   VRHFIN =Og : 10d 2s 6p, PE                                                   
   LEXCH  = PE                                                                  
   EATOM  =  2640.5573 eV,  194.0755 Ry                                         
                                                                                
   TITEL  = PAW Og, JanMewes Oct 18                                             
   LULTRA =        F    use ultrasoft PP ?                                      
   IUNSCR =        1    unscreen: 0-lin 1-nonlin 2-no                           
   RPACOR =    1.700    partial core radius                                     
   POMASS =    0.010; ZVAL   =   18.000    mass and valenz                      
   RCORE  =    2.600    outmost cutoff radius                                   
   RWIGS  =    3.500; RWIGS  =    1.852    wigner-seitz radius (au A)           
   ENMAX  =  339.336; ENMIN  =  254.502 eV                                      
   ICORE  =        3    local potential                                         
   LCOR   =        T    correct aug charges                                     
   LPAW   =        T    paw PP                                                  
   EAUG   =  361.025                                                            
   DEXC   =   -0.000                                                            
   RAUG   =    1.300    factor for augmentation sphere                          
   RDEP   =    2.775    radius for radial grids                                 
   RDEPT  =    2.135    core radius for aug-charge                              
   QCUT   =   -4.994; QGAM   =    9.988    optimization parameters              
                                                                                
   Atomic configuration                                                         
   22 entries                                                                   
     n  l   j            E        occ.                                          
     1  0  0.50   -225781.4217   2.0000                                         
     2  0  0.50    -47342.3774   2.0000                                         
     2  1  1.50    -33463.4058   6.0000                                         
     3  0  0.50    -12845.8060   2.0000                                         
     3  1  1.50     -9184.5562   6.0000                                         
     3  2  2.50     -7322.6146  10.0000                                         
     4  0  0.50     -3781.9433   2.0000                                         
     4  1  1.50     -2605.9204   6.0000                                         
     4  2  2.50     -1899.4626  10.0000                                         
     4  3  3.50     -1273.6890  14.0000                                         
     5  0  0.50     -1046.0643   2.0000                                         
     5  1  1.50      -650.9265   6.0000                                         
     5  2  2.50      -388.1490  10.0000                                         
     5  3  3.50      -152.1121  14.0000                                         
     6  0  0.50      -224.6639   2.0000                                         
     6  1  0.50      -184.3267   2.0000                                         
     6  1  1.50       -97.8537   4.0000                                         
     6  2  2.50       -35.6667  10.0000                                         
     7  0  0.50       -28.5889   2.0000                                         
     8  0  0.50        -1.3606   0.0000                                         
     7  1  1.50        -7.0827   6.0000                                         
     6  3  3.50        -0.0136   0.0000                                         
   Description                                                                  
     l       E           TYP  RCUT    TYP  RCUT                                 
     2    -35.6666962     23  2.100                                             
     2     34.0145650     23  2.300                                             
     0    -28.5889381     23  1.600                                             
     0     40.8174780     23  2.200                                             
     1     -7.0826811     23  2.200                                             
     1    148.3035034     23  1.900                                             
     3      6.8029130      7  2.600                                             
  local pseudopotential read in
  partial core-charges read in
  partial kinetic energy density read in
  kinetic energy density of atom read in
  atomic valenz-charges read in
  non local Contribution for L=           2  read in
    real space projection operators read in
  non local Contribution for L=           2  read in
    real space projection operators read in
  non local Contribution for L=           0  read in
    real space projection operators read in
  non local Contribution for L=           0  read in
    real space projection operators read in
  non local Contribution for L=           1  read in
    real space projection operators read in
  non local Contribution for L=           1  read in
    real space projection operators read in
    PAW grid and wavefunctions read in
 
   number of l-projection  operators is LMAX  =           6
   number of lm-projection operators is LMMAX =          18
 
  PAW Og, JanMewes Oct 18               :
 energy of atom  1       EATOM=-2640.5573
 kinetic energy error for atom=    0.6524 (will be added to EATOM!!)
 
 
 POSCAR: Og_FCC                                  
  positions in direct lattice
  velocities in cartesian coordinates
 exchange correlation table for  LEXCH =        8
   RHO(1)=    0.500       N(1)  =     2000
   RHO(2)=  100.500       N(2)  =     4000
 


--------------------------------------------------------------------------------------------------------


 ion  position               nearest neighbor table
   1  0.000  0.000  0.000-
 

IMPORTANT INFORMATION: All symmetrisations will be switched off!
NOSYMM: (Re-)initialisation of all symmetry stuff for point group C_1.

 
 
 KPOINTS: k-points                                

Automatic generation of k-mesh.
Space group operators:
 irot       det(A)        alpha          n_x          n_y          n_z        tau_x        tau_y        tau_z
    1     1.000000     0.000000     1.000000     0.000000     0.000000     0.000000     0.000000     0.000000
 
 Subroutine IBZKPT returns following result:
 ===========================================
 
 Found    343 irreducible k-points:
 
 Following reciprocal coordinates:
            Coordinates               Weight
  0.000000  0.000000  0.000000      1.000000
  0.142857 -0.000000  0.000000      1.000000
  0.285714  0.000000  0.000000      1.000000
  0.428571  0.000000  0.000000      1.000000
 -0.428571 -0.000000 -0.000000      1.000000
 -0.285714 -0.000000 -0.000000      1.000000
 -0.142857  0.000000  0.000000      1.000000
  0.000000  0.142857  0.000000      1.000000
  0.142857  0.142857  0.000000      1.000000
  0.285714  0.142857  0.000000      1.000000
  0.428571  0.142857  0.000000      1.000000
 -0.428571  0.142857 -0.000000      1.000000
 -0.285714  0.142857 -0.000000      1.000000
 -0.142857  0.142857 -0.000000      1.000000
  0.000000  0.285714 -0.000000      1.000000
  0.142857  0.285714  0.000000      1.000000
  0.285714  0.285714  0.000000      1.000000
  0.428571  0.285714  0.000000      1.000000
 -0.428571  0.285714 -0.000000      1.000000
 -0.285714  0.285714  0.000000      1.000000
 -0.142857  0.285714  0.000000      1.000000
  0.000000  0.428571 -0.000000      1.000000
  0.142857  0.428571 -0.000000      1.000000
  0.285714  0.428571  0.000000      1.000000
  0.428571  0.428571 -0.000000      1.000000
 -0.428571  0.428571 -0.000000      1.000000
 -0.285714  0.428571 -0.000000      1.000000
 -0.142857  0.428571 -0.000000      1.000000
  0.000000 -0.428571  0.000000      1.000000
  0.142857 -0.428571  0.000000      1.000000
  0.285714 -0.428571  0.000000      1.000000
  0.428571 -0.428571  0.000000      1.000000
 -0.428571 -0.428571  0.000000      1.000000
 -0.285714 -0.428571  0.000000      1.000000
 -0.142857 -0.428571  0.000000      1.000000
 -0.000000 -0.285714  0.000000      1.000000
  0.142857 -0.285714 -0.000000      1.000000
  0.285714 -0.285714 -0.000000      1.000000
  0.428571 -0.285714  0.000000      1.000000
 -0.428571 -0.285714 -0.000000      1.000000
 -0.285714 -0.285714  0.000000      1.000000
 -0.142857 -0.285714 -0.000000      1.000000
  0.000000 -0.142857  0.000000      1.000000
  0.142857 -0.142857  0.000000      1.000000
  0.285714 -0.142857  0.000000      1.000000
  0.428571 -0.142857  0.000000      1.000000
 -0.428571 -0.142857  0.000000      1.000000
 -0.285714 -0.142857 -0.000000      1.000000
 -0.142857 -0.142857  0.000000      1.000000
 -0.000000  0.000000  0.142857      1.000000
  0.142857 -0.000000  0.142857      1.000000
  0.285714 -0.000000  0.142857      1.000000
  0.428571 -0.000000  0.142857      1.000000
 -0.428571 -0.000000  0.142857      1.000000
 -0.285714 -0.000000  0.142857      1.000000
 -0.142857 -0.000000  0.142857      1.000000
 -0.000000  0.142857  0.142857      1.000000
  0.142857  0.142857  0.142857      1.000000
  0.285714  0.142857  0.142857      1.000000
  0.428571  0.142857  0.142857      1.000000
 -0.428571  0.142857  0.142857      1.000000
 -0.285714  0.142857  0.142857      1.000000
 -0.142857  0.142857  0.142857      1.000000
 -0.000000  0.285714  0.142857      1.000000
  0.142857  0.285714  0.142857      1.000000
  0.285714  0.285714  0.142857      1.000000
  0.428571  0.285714  0.142857      1.000000
 -0.428571  0.285714  0.142857      1.000000
 -0.285714  0.285714  0.142857      1.000000
 -0.142857  0.285714  0.142857      1.000000
 -0.000000  0.428571  0.142857      1.000000
  0.142857  0.428571  0.142857      1.000000
  0.285714  0.428571  0.142857      1.000000
  0.428571  0.428571  0.142857      1.000000
 -0.428571  0.428571  0.142857      1.000000
 -0.285714  0.428571  0.142857      1.000000
 -0.142857  0.428571  0.142857      1.000000
 -0.000000 -0.428571  0.142857      1.000000
  0.142857 -0.428571  0.142857      1.000000
  0.285714 -0.428571  0.142857      1.000000
  0.428571 -0.428571  0.142857      1.000000
 -0.428571 -0.428571  0.142857      1.000000
 -0.285714 -0.428571  0.142857      1.000000
 -0.142857 -0.428571  0.142857      1.000000
 -0.000000 -0.285714  0.142857      1.000000
  0.142857 -0.285714  0.142857      1.000000
  0.285714 -0.285714  0.142857      1.000000
  0.428571 -0.285714  0.142857      1.000000
 -0.428571 -0.285714  0.142857      1.000000
 -0.285714 -0.285714  0.142857      1.000000
 -0.142857 -0.285714  0.142857      1.000000
 -0.000000 -0.142857  0.142857      1.000000
  0.142857 -0.142857  0.142857      1.000000
  0.285714 -0.142857  0.142857      1.000000
  0.428571 -0.142857  0.142857      1.000000
 -0.428571 -0.142857  0.142857      1.000000
 -0.285714 -0.142857  0.142857      1.000000
 -0.142857 -0.142857  0.142857      1.000000
  0.000000  0.000000  0.285714      1.000000
  0.142857  0.000000  0.285714      1.000000
  0.285714 -0.000000  0.285714      1.000000
  0.428571 -0.000000  0.285714      1.000000
 -0.428571 -0.000000  0.285714      1.000000
 -0.285714 -0.000000  0.285714      1.000000
 -0.142857  0.000000  0.285714      1.000000
  0.000000  0.142857  0.285714      1.000000
  0.142857  0.142857  0.285714      1.000000
  0.285714  0.142857  0.285714      1.000000
  0.428571  0.142857  0.285714      1.000000
 -0.428571  0.142857  0.285714      1.000000
 -0.285714  0.142857  0.285714      1.000000
 -0.142857  0.142857  0.285714      1.000000
 -0.000000  0.285714  0.285714      1.000000
  0.142857  0.285714  0.285714      1.000000
  0.285714  0.285714  0.285714      1.000000
  0.428571  0.285714  0.285714      1.000000
 -0.428571  0.285714  0.285714      1.000000
 -0.285714  0.285714  0.285714      1.000000
 -0.142857  0.285714  0.285714      1.000000
  0.000000  0.428571  0.285714      1.000000
  0.142857  0.428571  0.285714      1.000000
  0.285714  0.428571  0.285714      1.000000
  0.428571  0.428571  0.285714      1.000000
 -0.428571  0.428571  0.285714      1.000000
 -0.285714  0.428571  0.285714      1.000000
 -0.142857  0.428571  0.285714      1.000000
 -0.000000 -0.428571  0.285714      1.000000
  0.142857 -0.428571  0.285714      1.000000
  0.285714 -0.428571  0.285714      1.000000
  0.428571 -0.428571  0.285714      1.000000
 -0.428571 -0.428571  0.285714      1.000000
 -0.285714 -0.428571  0.285714      1.000000
 -0.142857 -0.428571  0.285714      1.000000
  0.000000 -0.285714  0.285714      1.000000
  0.142857 -0.285714  0.285714      1.000000
  0.285714 -0.285714  0.285714      1.000000
  0.428571 -0.285714  0.285714      1.000000
 -0.428571 -0.285714  0.285714      1.000000
 -0.285714 -0.285714  0.285714      1.000000
 -0.142857 -0.285714  0.285714      1.000000
  0.000000 -0.142857  0.285714      1.000000
  0.142857 -0.142857  0.285714      1.000000
  0.285714 -0.142857  0.285714      1.000000
  0.428571 -0.142857  0.285714      1.000000
 -0.428571 -0.142857  0.285714      1.000000
 -0.285714 -0.142857  0.285714      1.000000
 -0.142857 -0.142857  0.285714      1.000000
  0.000000  0.000000  0.428571      1.000000
  0.142857  0.000000  0.428571      1.000000
  0.285714  0.000000  0.428571      1.000000
  0.428571  0.000000  0.428571      1.000000
 -0.428571  0.000000  0.428571      1.000000
 -0.285714  0.000000  0.428571      1.000000
 -0.142857  0.000000  0.428571      1.000000
  0.000000  0.142857  0.428571      1.000000
  0.142857  0.142857  0.428571      1.000000
  0.285714  0.142857  0.428571      1.000000
  0.428571  0.142857  0.428571      1.000000
 -0.428571  0.142857  0.428571      1.000000
 -0.285714  0.142857  0.428571      1.000000
 -0.142857  0.142857  0.428571      1.000000
  0.000000  0.285714  0.428571      1.000000
  0.142857  0.285714  0.428571      1.000000
  0.285714  0.285714  0.428571      1.000000
  0.428571  0.285714  0.428571      1.000000
 -0.428571  0.285714  0.428571      1.000000
 -0.285714  0.285714  0.428571      1.000000
 -0.142857  0.285714  0.428571      1.000000
 -0.000000  0.428571  0.428571      1.000000
  0.142857  0.428571  0.428571      1.000000
  0.285714  0.428571  0.428571      1.000000
  0.428571  0.428571  0.428571      1.000000
 -0.428571  0.428571  0.428571      1.000000
 -0.285714  0.428571  0.428571      1.000000
 -0.142857  0.428571  0.428571      1.000000
 -0.000000 -0.428571  0.428571      1.000000
  0.142857 -0.428571  0.428571      1.000000
  0.285714 -0.428571  0.428571      1.000000
  0.428571 -0.428571  0.428571      1.000000
 -0.428571 -0.428571  0.428571      1.000000
 -0.285714 -0.428571  0.428571      1.000000
 -0.142857 -0.428571  0.428571      1.000000
 -0.000000 -0.285714  0.428571      1.000000
  0.142857 -0.285714  0.428571      1.000000
  0.285714 -0.285714  0.428571      1.000000
  0.428571 -0.285714  0.428571      1.000000
 -0.428571 -0.285714  0.428571      1.000000
 -0.285714 -0.285714  0.428571      1.000000
 -0.142857 -0.285714  0.428571      1.000000
  0.000000 -0.142857  0.428571      1.000000
  0.142857 -0.142857  0.428571      1.000000
  0.285714 -0.142857  0.428571      1.000000
  0.428571 -0.142857  0.428571      1.000000
 -0.428571 -0.142857  0.428571      1.000000
 -0.285714 -0.142857  0.428571      1.000000
 -0.142857 -0.142857  0.428571      1.000000
  0.000000 -0.000000 -0.428571      1.000000
  0.142857 -0.000000 -0.428571      1.000000
  0.285714 -0.000000 -0.428571      1.000000
  0.428571 -0.000000 -0.428571      1.000000
 -0.428571 -0.000000 -0.428571      1.000000
 -0.285714 -0.000000 -0.428571      1.000000
 -0.142857 -0.000000 -0.428571      1.000000
  0.000000  0.142857 -0.428571      1.000000
  0.142857  0.142857 -0.428571      1.000000
  0.285714  0.142857 -0.428571      1.000000
  0.428571  0.142857 -0.428571      1.000000
 -0.428571  0.142857 -0.428571      1.000000
 -0.285714  0.142857 -0.428571      1.000000
 -0.142857  0.142857 -0.428571      1.000000
  0.000000  0.285714 -0.428571      1.000000
  0.142857  0.285714 -0.428571      1.000000
  0.285714  0.285714 -0.428571      1.000000
  0.428571  0.285714 -0.428571      1.000000
 -0.428571  0.285714 -0.428571      1.000000
 -0.285714  0.285714 -0.428571      1.000000
 -0.142857  0.285714 -0.428571      1.000000
  0.000000  0.428571 -0.428571      1.000000
  0.142857  0.428571 -0.428571      1.000000
  0.285714  0.428571 -0.428571      1.000000
  0.428571  0.428571 -0.428571      1.000000
 -0.428571  0.428571 -0.428571      1.000000
 -0.285714  0.428571 -0.428571      1.000000
 -0.142857  0.428571 -0.428571      1.000000
  0.000000 -0.428571 -0.428571      1.000000
  0.142857 -0.428571 -0.428571      1.000000
  0.285714 -0.428571 -0.428571      1.000000
  0.428571 -0.428571 -0.428571      1.000000
 -0.428571 -0.428571 -0.428571      1.000000
 -0.285714 -0.428571 -0.428571      1.000000
 -0.142857 -0.428571 -0.428571      1.000000
  0.000000 -0.285714 -0.428571      1.000000
  0.142857 -0.285714 -0.428571      1.000000
  0.285714 -0.285714 -0.428571      1.000000
  0.428571 -0.285714 -0.428571      1.000000
 -0.428571 -0.285714 -0.428571      1.000000
 -0.285714 -0.285714 -0.428571      1.000000
 -0.142857 -0.285714 -0.428571      1.000000
  0.000000 -0.142857 -0.428571      1.000000
  0.142857 -0.142857 -0.428571      1.000000
  0.285714 -0.142857 -0.428571      1.000000
  0.428571 -0.142857 -0.428571      1.000000
 -0.428571 -0.142857 -0.428571      1.000000
 -0.285714 -0.142857 -0.428571      1.000000
 -0.142857 -0.142857 -0.428571      1.000000
  0.000000 -0.000000 -0.285714      1.000000
  0.142857 -0.000000 -0.285714      1.000000
  0.285714  0.000000 -0.285714      1.000000
  0.428571  0.000000 -0.285714      1.000000
 -0.428571  0.000000 -0.285714      1.000000
 -0.285714  0.000000 -0.285714      1.000000
 -0.142857 -0.000000 -0.285714      1.000000
  0.000000  0.142857 -0.285714      1.000000
  0.142857  0.142857 -0.285714      1.000000
  0.285714  0.142857 -0.285714      1.000000
  0.428571  0.142857 -0.285714      1.000000
 -0.428571  0.142857 -0.285714      1.000000
 -0.285714  0.142857 -0.285714      1.000000
 -0.142857  0.142857 -0.285714      1.000000
  0.000000  0.285714 -0.285714      1.000000
  0.142857  0.285714 -0.285714      1.000000
  0.285714  0.285714 -0.285714      1.000000
  0.428571  0.285714 -0.285714      1.000000
 -0.428571  0.285714 -0.285714      1.000000
 -0.285714  0.285714 -0.285714      1.000000
 -0.142857  0.285714 -0.285714      1.000000
  0.000000  0.428571 -0.285714      1.000000
  0.142857  0.428571 -0.285714      1.000000
  0.285714  0.428571 -0.285714      1.000000
  0.428571  0.428571 -0.285714      1.000000
 -0.428571  0.428571 -0.285714      1.000000
 -0.285714  0.428571 -0.285714      1.000000
 -0.142857  0.428571 -0.285714      1.000000
  0.000000 -0.428571 -0.285714      1.000000
  0.142857 -0.428571 -0.285714      1.000000
  0.285714 -0.428571 -0.285714      1.000000
  0.428571 -0.428571 -0.285714      1.000000
 -0.428571 -0.428571 -0.285714      1.000000
 -0.285714 -0.428571 -0.285714      1.000000
 -0.142857 -0.428571 -0.285714      1.000000
  0.000000 -0.285714 -0.285714      1.000000
  0.142857 -0.285714 -0.285714      1.000000
  0.285714 -0.285714 -0.285714      1.000000
  0.428571 -0.285714 -0.285714      1.000000
 -0.428571 -0.285714 -0.285714      1.000000
 -0.285714 -0.285714 -0.285714      1.000000
 -0.142857 -0.285714 -0.285714      1.000000
 -0.000000 -0.142857 -0.285714      1.000000
  0.142857 -0.142857 -0.285714      1.000000
  0.285714 -0.142857 -0.285714      1.000000
  0.428571 -0.142857 -0.285714      1.000000
 -0.428571 -0.142857 -0.285714      1.000000
 -0.285714 -0.142857 -0.285714      1.000000
 -0.142857 -0.142857 -0.285714      1.000000
  0.000000  0.000000 -0.142857      1.000000
  0.142857  0.000000 -0.142857      1.000000
  0.285714  0.000000 -0.142857      1.000000
  0.428571  0.000000 -0.142857      1.000000
 -0.428571 -0.000000 -0.142857      1.000000
 -0.285714  0.000000 -0.142857      1.000000
 -0.142857  0.000000 -0.142857      1.000000
  0.000000  0.142857 -0.142857      1.000000
  0.142857  0.142857 -0.142857      1.000000
  0.285714  0.142857 -0.142857      1.000000
  0.428571  0.142857 -0.142857      1.000000
 -0.428571  0.142857 -0.142857      1.000000
 -0.285714  0.142857 -0.142857      1.000000
 -0.142857  0.142857 -0.142857      1.000000
  0.000000  0.285714 -0.142857      1.000000
  0.142857  0.285714 -0.142857      1.000000
  0.285714  0.285714 -0.142857      1.000000
  0.428571  0.285714 -0.142857      1.000000
 -0.428571  0.285714 -0.142857      1.000000
 -0.285714  0.285714 -0.142857      1.000000
 -0.142857  0.285714 -0.142857      1.000000
  0.000000  0.428571 -0.142857      1.000000
  0.142857  0.428571 -0.142857      1.000000
  0.285714  0.428571 -0.142857      1.000000
  0.428571  0.428571 -0.142857      1.000000
 -0.428571  0.428571 -0.142857      1.000000
 -0.285714  0.428571 -0.142857      1.000000
 -0.142857  0.428571 -0.142857      1.000000
  0.000000 -0.428571 -0.142857      1.000000
  0.142857 -0.428571 -0.142857      1.000000
  0.285714 -0.428571 -0.142857      1.000000
  0.428571 -0.428571 -0.142857      1.000000
 -0.428571 -0.428571 -0.142857      1.000000
 -0.285714 -0.428571 -0.142857      1.000000
 -0.142857 -0.428571 -0.142857      1.000000
  0.000000 -0.285714 -0.142857      1.000000
  0.142857 -0.285714 -0.142857      1.000000
  0.285714 -0.285714 -0.142857      1.000000
  0.428571 -0.285714 -0.142857      1.000000
 -0.428571 -0.285714 -0.142857      1.000000
 -0.285714 -0.285714 -0.142857      1.000000
 -0.142857 -0.285714 -0.142857      1.000000
  0.000000 -0.142857 -0.142857      1.000000
  0.142857 -0.142857 -0.142857      1.000000
  0.285714 -0.142857 -0.142857      1.000000
  0.428571 -0.142857 -0.142857      1.000000
 -0.428571 -0.142857 -0.142857      1.000000
 -0.285714 -0.142857 -0.142857      1.000000
 -0.142857 -0.142857 -0.142857      1.000000
 
 Following cartesian coordinates:
            Coordinates               Weight
  0.000000  0.000000  0.000000      1.000000
  0.032899 -0.018994 -0.013431      1.000000
  0.065797 -0.037988 -0.026862      1.000000
  0.098696 -0.056982 -0.040292      1.000000
 -0.098696  0.056982  0.040292      1.000000
 -0.065797  0.037988  0.026862      1.000000
 -0.032899  0.018994  0.013431      1.000000
  0.000000  0.037988 -0.013431      1.000000
  0.032899  0.018994 -0.026862      1.000000
  0.065797  0.000000 -0.040292      1.000000
  0.098696 -0.018994 -0.053723      1.000000
 -0.098696  0.094970  0.026862      1.000000
 -0.065797  0.075976  0.013431      1.000000
 -0.032899  0.056982  0.000000      1.000000
  0.000000  0.075976 -0.026862      1.000000
  0.032899  0.056982 -0.040292      1.000000
  0.065797  0.037988 -0.053723      1.000000
  0.098696  0.018994 -0.067154      1.000000
 -0.098696  0.132958  0.013431      1.000000
 -0.065797  0.113964  0.000000      1.000000
 -0.032899  0.094970 -0.013431      1.000000
  0.000000  0.113964 -0.040292      1.000000
  0.032899  0.094970 -0.053723      1.000000
  0.065797  0.075976 -0.067154      1.000000
  0.098696  0.056982 -0.080585      1.000000
 -0.098696  0.170946  0.000000      1.000000
 -0.065797  0.151952 -0.013431      1.000000
 -0.032899  0.132958 -0.026862      1.000000
 -0.000000 -0.113964  0.040292      1.000000
  0.032899 -0.132958  0.026862      1.000000
  0.065797 -0.151952  0.013431      1.000000
  0.098696 -0.170946 -0.000000      1.000000
 -0.098696 -0.056982  0.080585      1.000000
 -0.065797 -0.075976  0.067154      1.000000
 -0.032899 -0.094970  0.053723      1.000000
 -0.000000 -0.075976  0.026862      1.000000
  0.032899 -0.094970  0.013431      1.000000
  0.065797 -0.113964 -0.000000      1.000000
  0.098696 -0.132958 -0.013431      1.000000
 -0.098696 -0.018994  0.067154      1.000000
 -0.065797 -0.037988  0.053723      1.000000
 -0.032899 -0.056982  0.040292      1.000000
 -0.000000 -0.037988  0.013431      1.000000
  0.032899 -0.056982 -0.000000      1.000000
  0.065797 -0.075976 -0.013431      1.000000
  0.098696 -0.094970 -0.026862      1.000000
 -0.098696  0.018994  0.053723      1.000000
 -0.065797  0.000000  0.040292      1.000000
 -0.032899 -0.018994  0.026862      1.000000
 -0.000000  0.000000  0.040292      1.000000
  0.032899 -0.018994  0.026862      1.000000
  0.065797 -0.037988  0.013431      1.000000
  0.098696 -0.056982  0.000000      1.000000
 -0.098696  0.056982  0.080585      1.000000
 -0.065797  0.037988  0.067154      1.000000
 -0.032899  0.018994  0.053723      1.000000
 -0.000000  0.037988  0.026862      1.000000
  0.032899  0.018994  0.013431      1.000000
  0.065797  0.000000  0.000000      1.000000
  0.098696 -0.018994 -0.013431      1.000000
 -0.098696  0.094970  0.067154      1.000000
 -0.065797  0.075976  0.053723      1.000000
 -0.032899  0.056982  0.040292      1.000000
 -0.000000  0.075976  0.013431      1.000000
  0.032899  0.056982  0.000000      1.000000
  0.065797  0.037988 -0.013431      1.000000
  0.098696  0.018994 -0.026862      1.000000
 -0.098696  0.132958  0.053723      1.000000
 -0.065797  0.113964  0.040292      1.000000
 -0.032899  0.094970  0.026862      1.000000
 -0.000000  0.113964  0.000000      1.000000
  0.032899  0.094970 -0.013431      1.000000
  0.065797  0.075976 -0.026862      1.000000
  0.098696  0.056982 -0.040292      1.000000
 -0.098696  0.170946  0.040292      1.000000
 -0.065797  0.151952  0.026862      1.000000
 -0.032899  0.132958  0.013431      1.000000
 -0.000000 -0.113964  0.080585      1.000000
  0.032899 -0.132958  0.067154      1.000000
  0.065797 -0.151952  0.053723      1.000000
  0.098696 -0.170946  0.040292      1.000000
 -0.098696 -0.056982  0.120877      1.000000
 -0.065797 -0.075976  0.107446      1.000000
 -0.032899 -0.094970  0.094016      1.000000
 -0.000000 -0.075976  0.067154      1.000000
  0.032899 -0.094970  0.053723      1.000000
  0.065797 -0.113964  0.040292      1.000000
  0.098696 -0.132958  0.026862      1.000000
 -0.098696 -0.018994  0.107446      1.000000
 -0.065797 -0.037988  0.094016      1.000000
 -0.032899 -0.056982  0.080585      1.000000
 -0.000000 -0.037988  0.053723      1.000000
  0.032899 -0.056982  0.040292      1.000000
  0.065797 -0.075976  0.026862      1.000000
  0.098696 -0.094970  0.013431      1.000000
 -0.098696  0.018994  0.094016      1.000000
 -0.065797  0.000000  0.080585      1.000000
 -0.032899 -0.018994  0.067154      1.000000
 -0.000000  0.000000  0.080585      1.000000
  0.032899 -0.018994  0.067154      1.000000
  0.065797 -0.037988  0.053723      1.000000
  0.098696 -0.056982  0.040292      1.000000
 -0.098696  0.056982  0.120877      1.000000
 -0.065797  0.037988  0.107446      1.000000
 -0.032899  0.018994  0.094016      1.000000
 -0.000000  0.037988  0.067154      1.000000
  0.032899  0.018994  0.053723      1.000000
  0.065797  0.000000  0.040292      1.000000
  0.098696 -0.018994  0.026862      1.000000
 -0.098696  0.094970  0.107446      1.000000
 -0.065797  0.075976  0.094016      1.000000
 -0.032899  0.056982  0.080585      1.000000
 -0.000000  0.075976  0.053723      1.000000
  0.032899  0.056982  0.040292      1.000000
  0.065797  0.037988  0.026862      1.000000
  0.098696  0.018994  0.013431      1.000000
 -0.098696  0.132958  0.094016      1.000000
 -0.065797  0.113964  0.080585      1.000000
 -0.032899  0.094970  0.067154      1.000000
 -0.000000  0.113964  0.040292      1.000000
  0.032899  0.094970  0.026862      1.000000
  0.065797  0.075976  0.013431      1.000000
  0.098696  0.056982 -0.000000      1.000000
 -0.098696  0.170946  0.080585      1.000000
 -0.065797  0.151952  0.067154      1.000000
 -0.032899  0.132958  0.053723      1.000000
 -0.000000 -0.113964  0.120877      1.000000
  0.032899 -0.132958  0.107446      1.000000
  0.065797 -0.151952  0.094016      1.000000
  0.098696 -0.170946  0.080585      1.000000
 -0.098696 -0.056982  0.161170      1.000000
 -0.065797 -0.075976  0.147739      1.000000
 -0.032899 -0.094970  0.134308      1.000000
 -0.000000 -0.075976  0.107446      1.000000
  0.032899 -0.094970  0.094016      1.000000
  0.065797 -0.113964  0.080585      1.000000
  0.098696 -0.132958  0.067154      1.000000
 -0.098696 -0.018994  0.147739      1.000000
 -0.065797 -0.037988  0.134308      1.000000
 -0.032899 -0.056982  0.120877      1.000000
 -0.000000 -0.037988  0.094016      1.000000
  0.032899 -0.056982  0.080585      1.000000
  0.065797 -0.075976  0.067154      1.000000
  0.098696 -0.094970  0.053723      1.000000
 -0.098696  0.018994  0.134308      1.000000
 -0.065797  0.000000  0.120877      1.000000
 -0.032899 -0.018994  0.107446      1.000000
 -0.000000  0.000000  0.120877      1.000000
  0.032899 -0.018994  0.107446      1.000000
  0.065797 -0.037988  0.094016      1.000000
  0.098696 -0.056982  0.080585      1.000000
 -0.098696  0.056982  0.161170      1.000000
 -0.065797  0.037988  0.147739      1.000000
 -0.032899  0.018994  0.134308      1.000000
 -0.000000  0.037988  0.107446      1.000000
  0.032899  0.018994  0.094016      1.000000
  0.065797  0.000000  0.080585      1.000000
  0.098696 -0.018994  0.067154      1.000000
 -0.098696  0.094970  0.147739      1.000000
 -0.065797  0.075976  0.134308      1.000000
 -0.032899  0.056982  0.120877      1.000000
 -0.000000  0.075976  0.094016      1.000000
  0.032899  0.056982  0.080585      1.000000
  0.065797  0.037988  0.067154      1.000000
  0.098696  0.018994  0.053723      1.000000
 -0.098696  0.132958  0.134308      1.000000
 -0.065797  0.113964  0.120877      1.000000
 -0.032899  0.094970  0.107446      1.000000
 -0.000000  0.113964  0.080585      1.000000
  0.032899  0.094970  0.067154      1.000000
  0.065797  0.075976  0.053723      1.000000
  0.098696  0.056982  0.040292      1.000000
 -0.098696  0.170946  0.120877      1.000000
 -0.065797  0.151952  0.107446      1.000000
 -0.032899  0.132958  0.094016      1.000000
 -0.000000 -0.113964  0.161170      1.000000
  0.032899 -0.132958  0.147739      1.000000
  0.065797 -0.151952  0.134308      1.000000
  0.098696 -0.170946  0.120877      1.000000
 -0.098696 -0.056982  0.201462      1.000000
 -0.065797 -0.075976  0.188031      1.000000
 -0.032899 -0.094970  0.174600      1.000000
 -0.000000 -0.075976  0.147739      1.000000
  0.032899 -0.094970  0.134308      1.000000
  0.065797 -0.113964  0.120877      1.000000
  0.098696 -0.132958  0.107446      1.000000
 -0.098696 -0.018994  0.188031      1.000000
 -0.065797 -0.037988  0.174600      1.000000
 -0.032899 -0.056982  0.161170      1.000000
 -0.000000 -0.037988  0.134308      1.000000
  0.032899 -0.056982  0.120877      1.000000
  0.065797 -0.075976  0.107446      1.000000
  0.098696 -0.094970  0.094016      1.000000
 -0.098696  0.018994  0.174600      1.000000
 -0.065797  0.000000  0.161170      1.000000
 -0.032899 -0.018994  0.147739      1.000000
  0.000000 -0.000000 -0.120877      1.000000
  0.032899 -0.018994 -0.134308      1.000000
  0.065797 -0.037988 -0.147739      1.000000
  0.098696 -0.056982 -0.161170      1.000000
 -0.098696  0.056982 -0.080585      1.000000
 -0.065797  0.037988 -0.094016      1.000000
 -0.032899  0.018994 -0.107446      1.000000
  0.000000  0.037988 -0.134308      1.000000
  0.032899  0.018994 -0.147739      1.000000
  0.065797  0.000000 -0.161170      1.000000
  0.098696 -0.018994 -0.174600      1.000000
 -0.098696  0.094970 -0.094016      1.000000
 -0.065797  0.075976 -0.107446      1.000000
 -0.032899  0.056982 -0.120877      1.000000
  0.000000  0.075976 -0.147739      1.000000
  0.032899  0.056982 -0.161170      1.000000
  0.065797  0.037988 -0.174600      1.000000
  0.098696  0.018994 -0.188031      1.000000
 -0.098696  0.132958 -0.107446      1.000000
 -0.065797  0.113964 -0.120877      1.000000
 -0.032899  0.094970 -0.134308      1.000000
  0.000000  0.113964 -0.161170      1.000000
  0.032899  0.094970 -0.174600      1.000000
  0.065797  0.075976 -0.188031      1.000000
  0.098696  0.056982 -0.201462      1.000000
 -0.098696  0.170946 -0.120877      1.000000
 -0.065797  0.151952 -0.134308      1.000000
 -0.032899  0.132958 -0.147739      1.000000
  0.000000 -0.113964 -0.080585      1.000000
  0.032899 -0.132958 -0.094016      1.000000
  0.065797 -0.151952 -0.107446      1.000000
  0.098696 -0.170946 -0.120877      1.000000
 -0.098696 -0.056982 -0.040292      1.000000
 -0.065797 -0.075976 -0.053723      1.000000
 -0.032899 -0.094970 -0.067154      1.000000
  0.000000 -0.075976 -0.094016      1.000000
  0.032899 -0.094970 -0.107446      1.000000
  0.065797 -0.113964 -0.120877      1.000000
  0.098696 -0.132958 -0.134308      1.000000
 -0.098696 -0.018994 -0.053723      1.000000
 -0.065797 -0.037988 -0.067154      1.000000
 -0.032899 -0.056982 -0.080585      1.000000
  0.000000 -0.037988 -0.107446      1.000000
  0.032899 -0.056982 -0.120877      1.000000
  0.065797 -0.075976 -0.134308      1.000000
  0.098696 -0.094970 -0.147739      1.000000
 -0.098696  0.018994 -0.067154      1.000000
 -0.065797  0.000000 -0.080585      1.000000
 -0.032899 -0.018994 -0.094016      1.000000
  0.000000 -0.000000 -0.080585      1.000000
  0.032899 -0.018994 -0.094016      1.000000
  0.065797 -0.037988 -0.107446      1.000000
  0.098696 -0.056982 -0.120877      1.000000
 -0.098696  0.056982 -0.040292      1.000000
 -0.065797  0.037988 -0.053723      1.000000
 -0.032899  0.018994 -0.067154      1.000000
  0.000000  0.037988 -0.094016      1.000000
  0.032899  0.018994 -0.107446      1.000000
  0.065797  0.000000 -0.120877      1.000000
  0.098696 -0.018994 -0.134308      1.000000
 -0.098696  0.094970 -0.053723      1.000000
 -0.065797  0.075976 -0.067154      1.000000
 -0.032899  0.056982 -0.080585      1.000000
  0.000000  0.075976 -0.107446      1.000000
  0.032899  0.056982 -0.120877      1.000000
  0.065797  0.037988 -0.134308      1.000000
  0.098696  0.018994 -0.147739      1.000000
 -0.098696  0.132958 -0.067154      1.000000
 -0.065797  0.113964 -0.080585      1.000000
 -0.032899  0.094970 -0.094016      1.000000
  0.000000  0.113964 -0.120877      1.000000
  0.032899  0.094970 -0.134308      1.000000
  0.065797  0.075976 -0.147739      1.000000
  0.098696  0.056982 -0.161170      1.000000
 -0.098696  0.170946 -0.080585      1.000000
 -0.065797  0.151952 -0.094016      1.000000
 -0.032899  0.132958 -0.107446      1.000000
  0.000000 -0.113964 -0.040292      1.000000
  0.032899 -0.132958 -0.053723      1.000000
  0.065797 -0.151952 -0.067154      1.000000
  0.098696 -0.170946 -0.080585      1.000000
 -0.098696 -0.056982  0.000000      1.000000
 -0.065797 -0.075976 -0.013431      1.000000
 -0.032899 -0.094970 -0.026862      1.000000
  0.000000 -0.075976 -0.053723      1.000000
  0.032899 -0.094970 -0.067154      1.000000
  0.065797 -0.113964 -0.080585      1.000000
  0.098696 -0.132958 -0.094016      1.000000
 -0.098696 -0.018994 -0.013431      1.000000
 -0.065797 -0.037988 -0.026862      1.000000
 -0.032899 -0.056982 -0.040292      1.000000
  0.000000 -0.037988 -0.067154      1.000000
  0.032899 -0.056982 -0.080585      1.000000
  0.065797 -0.075976 -0.094016      1.000000
  0.098696 -0.094970 -0.107446      1.000000
 -0.098696  0.018994 -0.026862      1.000000
 -0.065797  0.000000 -0.040292      1.000000
 -0.032899 -0.018994 -0.053723      1.000000
  0.000000 -0.000000 -0.040292      1.000000
  0.032899 -0.018994 -0.053723      1.000000
  0.065797 -0.037988 -0.067154      1.000000
  0.098696 -0.056982 -0.080585      1.000000
 -0.098696  0.056982  0.000000      1.000000
 -0.065797  0.037988 -0.013431      1.000000
 -0.032899  0.018994 -0.026862      1.000000
  0.000000  0.037988 -0.053723      1.000000
  0.032899  0.018994 -0.067154      1.000000
  0.065797  0.000000 -0.080585      1.000000
  0.098696 -0.018994 -0.094016      1.000000
 -0.098696  0.094970 -0.013431      1.000000
 -0.065797  0.075976 -0.026862      1.000000
 -0.032899  0.056982 -0.040292      1.000000
  0.000000  0.075976 -0.067154      1.000000
  0.032899  0.056982 -0.080585      1.000000
  0.065797  0.037988 -0.094016      1.000000
  0.098696  0.018994 -0.107446      1.000000
 -0.098696  0.132958 -0.026862      1.000000
 -0.065797  0.113964 -0.040292      1.000000
 -0.032899  0.094970 -0.053723      1.000000
  0.000000  0.113964 -0.080585      1.000000
  0.032899  0.094970 -0.094016      1.000000
  0.065797  0.075976 -0.107446      1.000000
  0.098696  0.056982 -0.120877      1.000000
 -0.098696  0.170946 -0.040292      1.000000
 -0.065797  0.151952 -0.053723      1.000000
 -0.032899  0.132958 -0.067154      1.000000
 -0.000000 -0.113964  0.000000      1.000000
  0.032899 -0.132958 -0.013431      1.000000
  0.065797 -0.151952 -0.026862      1.000000
  0.098696 -0.170946 -0.040292      1.000000
 -0.098696 -0.056982  0.040292      1.000000
 -0.065797 -0.075976  0.026862      1.000000
 -0.032899 -0.094970  0.013431      1.000000
  0.000000 -0.075976 -0.013431      1.000000
  0.032899 -0.094970 -0.026862      1.000000
  0.065797 -0.113964 -0.040292      1.000000
  0.098696 -0.132958 -0.053723      1.000000
 -0.098696 -0.018994  0.026862      1.000000
 -0.065797 -0.037988  0.013431      1.000000
 -0.032899 -0.056982  0.000000      1.000000
  0.000000 -0.037988 -0.026862      1.000000
  0.032899 -0.056982 -0.040292      1.000000
  0.065797 -0.075976 -0.053723      1.000000
  0.098696 -0.094970 -0.067154      1.000000
 -0.098696  0.018994  0.013431      1.000000
 -0.065797  0.000000  0.000000      1.000000
 -0.032899 -0.018994 -0.013431      1.000000
 


--------------------------------------------------------------------------------------------------------




 Dimension of arrays:
   k-points           NKPTS =    343   k-points in BZ     NKDIM =    343   number of bands    NBANDS=    196
   number of dos      NEDOS =    301   number of ions     NIONS =      1
   non local maximal  LDIM  =      6   non local SUM 2l+1 LMDIM =     18
   total plane-waves  NPLWV =  21952
   max r-space proj   IRMAX =      1   max aug-charges    IRDMAX= 175694
   dimension x,y,z NGX =    28 NGY =   28 NGZ =   28
   dimension x,y,z NGXF=    56 NGYF=   56 NGZF=   56
   support grid    NGXF=   112 NGYF=  112 NGZF=  112
   ions per type =               1
   NGX,Y,Z   is equivalent  to a cutoff of  10.59, 10.59, 10.59 a.u.
   NGXF,Y,Z  is equivalent  to a cutoff of  21.18, 21.18, 21.18 a.u.

 SYSTEM =  Og_FCC                                  
 POSCAR =  Og_FCC                                  

 Startparameter for this run:
   NWRITE =      2    write-flag & timer
   PREC   = accura    normal or accurate (medium, high low for compatibility)
   ISTART =      1    job   : 0-new  1-cont  2-samecut
   ICHARG =      0    charge: 1-file 2-atom 10-const
   ISPIN  =      1    spin polarized calculation?
   LNONCOLLINEAR =      T non collinear calculations
   LSORBIT =      T    spin-orbit coupling
   INIWAV =      1    electr: 0-lowe 1-rand  2-diag
   LASPH  =      F    aspherical Exc in radial PAW
   METAGGA=      F    non-selfconsistent MetaGGA calc.

 Electronic Relaxation 1
   ENCUT  =  300.0 eV  22.05 Ry    4.70 a.u.   6.21  6.21  6.21*2*pi/ulx,y,z
   ENINI  =  300.0     initial cutoff
   ENAUG  =  361.0 eV  augmentation charge cutoff
   NELM   =     50;   NELMIN=  2; NELMDL= -5     # of ELM steps 
   EDIFF  = 0.1E-07   stopping-criterion for ELM
   LREAL  =      F    real-space projection
   NLSPLINE    = F    spline interpolate recip. space projectors
   LCOMPAT=      F    compatible to vasp.4.4
   GGA_COMPAT  = F    GGA compatible to vasp.4.4-vasp.4.6
   LMAXPAW     = -100 max onsite density
   LMAXMIX     =    2 max onsite mixed and CHGCAR
   VOSKOWN=      0    Vosko Wilk Nusair interpolation
   ROPT   =    0.00000
 Ionic relaxation
   EDIFFG = 0.1E-04   stopping-criterion for IOM
   NSW    =      1    number of steps for IOM
   NBLOCK =      1;   KBLOCK =      1    inner block; outer block 
   IBRION =     -1    ionic relax: 0-MD 1-quasi-New 2-CG
   NFREE  =      5    steps in history (QN), initial steepest desc. (CG)
   ISIF   =      3    stress and relaxation
   IWAVPR =     10    prediction:  0-non 1-charg 2-wave 3-comb
   ISYM   =      0    0-nonsym 1-usesym 2-fastsym
   LCORR  =      T    Harris-Foulkes like correction to forces

   POTIM  = 0.1000    time-step for ionic-motion
   TEIN   =    0.0    initial temperature
   TEBEG  =    0.0;   TEEND  =   0.0 temperature during run
   SMASS  =  -3.00    Nose mass-parameter (am)
   estimated Nose-frequenzy (Omega)   =  0.10E-29 period in steps =****** mass=  -0.442E-27a.u.
   SCALEE = 1.0000    scale energy and forces
   NPACO  =    256;   APACO  = 16.0  distance and # of slots for P.C.
   PSTRESS=    0.0 pullay stress

  Mass of Ions in am
   POMASS =   0.01
  Ionic Valenz
   ZVAL   =  18.00
  Atomic Wigner-Seitz radii
   RWIGS  =  -1.00
  virtual crystal weights 
   VCA    =   1.00
   NELECT =      18.0000    total number of electrons
   NUPDOWN=      -1.0000    fix difference up-down

 DOS related values:
   EMIN   =  10.00;   EMAX   =-10.00  energy-range for DOS
   EFERMI =   0.00
   ISMEAR =     0;   SIGMA  =   0.00  broadening in eV -4-tet -1-fermi 0-gaus

 Electronic relaxation 2 (details)
   IALGO  =     90    algorithm
   LDIAG  =      T    sub-space diagonalisation (order eigenvalues)
   LSUBROT=      F    optimize rotation matrix (better conditioning)
   TURBO    =      0    0=normal 1=particle mesh
   IRESTART =      0    0=no restart 2=restart with 2 vectors
   NREBOOT  =      0    no. of reboots
   NMIN     =      0    reboot dimension
   EREF     =   0.00    reference energy to select bands
   IMIX   =      4    mixing-type and parameters
     AMIX     =   0.40;   BMIX     =  1.00
     AMIX_MAG =   1.60;   BMIX_MAG =  1.00
     AMIN     =   0.10
     WC   =   100.;   INIMIX=   1;  MIXPRE=   1;  MAXMIX=  50

 Intra band minimization:
   WEIMIN = 0.0000     energy-eigenvalue tresh-hold
   EBREAK =  0.13E-10  absolut break condition
   DEPER  =   0.30     relativ break condition  

   TIME   =   0.40     timestep for ELM

  volume/ion in A,a.u.               =      60.08       405.47
  Fermi-wavevector in a.u.,A,eV,Ry     =   1.095414  2.070033 16.326071  1.199932
  Thomas-Fermi vector in A             =   2.231737
 
 Write flags
   LWAVE        =      T    write WAVECAR
   LDOWNSAMPLE  =      F    k-point downsampling of WAVECAR
   LCHARG       =      F    write CHGCAR
   LVTOT        =      F    write LOCPOT, total local potential
   LVHAR        =      F    write LOCPOT, Hartree potential only
   LELF         =      F    write electronic localiz. function (ELF)
   LORBIT       =      0    0 simple, 1 ext, 2 COOP (PROOUT), +10 PAW based schemes


 Dipole corrections
   LMONO  =      F    monopole corrections only (constant potential shift)
   LDIPOL =      F    correct potential (dipole corrections)
   IDIPOL =      0    1-x, 2-y, 3-z, 4-all directions 
   EPSILON=  1.0000000 bulk dielectric constant

 Exchange correlation treatment:
   GGA     =    PE    GGA type
   LEXCH   =     8    internal setting for exchange type
   VOSKOWN=      0    Vosko Wilk Nusair interpolation
   LHFCALC =     F    Hartree Fock is set to
   LHFONE  =     F    Hartree Fock one center treatment
   AEXX    =    0.0000 exact exchange contribution

 Linear response parameters
   LEPSILON=     F    determine dielectric tensor
   LRPA    =     F    only Hartree local field effects (RPA)
   LNABLA  =     F    use nabla operator in PAW spheres
   LVEL    =     F    velocity operator in full k-point grid
   LINTERFAST=   F  fast interpolation
   KINTER  =     0    interpolate to denser k-point grid
   CSHIFT  =0.1000    complex shift for real part using Kramers Kronig
   OMEGAMAX=  -1.0    maximum frequency
   DEG_THRESHOLD= 0.2000000E-02 threshold for treating states as degnerate
   RTIME   =   -0.100 relaxation time in fs
  (WPLASMAI=    0.000 imaginary part of plasma frequency in eV, 0.658/RTIME)
   DFIELD  = 0.0000000 0.0000000 0.0000000 field for delta impulse in time
 
 Orbital magnetization related:
   ORBITALMAG=     F  switch on orbital magnetization
   LCHIMAG   =     F  perturbation theory with respect to B field
   DQ        =  0.001000  dq finite difference perturbation B field
   LLRAUG    =     F  two centre corrections for induced B field



--------------------------------------------------------------------------------------------------------


 Static calculation
 charge density and potential will be updated during run
 non collinear spin polarized calculation
 Exact diagonalization
 preconditioned conjugated gradient (Jacobi prec)
    charged. constant during bandupdate  
    band-by band algorithm
 perform sub-space diagonalisation
    after iterative eigenvector-optimisation
 modified Broyden-mixing scheme, WC =      100.0
 initial mixing is a Kerker type mixing with AMIX =  0.4000 and BMIX =      1.0000
 Hartree-type preconditioning will be used
 using additional bands          187
 reciprocal scheme for non local part
 use partial core corrections
 calculate Harris-corrections to forces 
   (improved forces if not selfconsistent)
 use gradient corrections 
 use of overlap-Matrix (Vanderbilt PP)
 Gauss-broadening in eV      SIGMA  =   0.00


--------------------------------------------------------------------------------------------------------


  energy-cutoff  :      300.00
  volume of cell :       60.08
      direct lattice vectors                 reciprocal lattice vectors
     4.396350177  0.000000000  0.000000000     0.227461408 -0.131324905 -0.092860731
     2.198175089  3.807350937 -0.000000000     0.000000000  0.262649810 -0.092860731
     2.198175089  1.269116979  3.589604888    -0.000000000  0.000000000  0.278582192

  length of vectors
     4.396350177  4.396350177  4.396350177     0.278582193  0.278582193  0.278582192


 
 old parameters found on file WAVECAR:
  energy-cutoff  :      300.00
  volume of cell :       60.08
      direct lattice vectors                 reciprocal lattice vectors
     4.396350177  0.000000000  0.000000000     0.227461408 -0.131324905 -0.092860731
     2.198175089  3.807350937 -0.000000000     0.000000000  0.262649810 -0.092860731
     2.198175089  1.269116979  3.589604888    -0.000000000  0.000000000  0.278582192

  length of vectors

 
 k-points in units of 2pi/SCALE and weight: k-points                                
   0.00000000  0.00000000  0.00000000       0.003
   0.03289861 -0.01899402 -0.01343080       0.003
   0.06579722 -0.03798804 -0.02686160       0.003
   0.09869583 -0.05698206 -0.04029240       0.003
  -0.09869583  0.05698206  0.04029240       0.003
  -0.06579722  0.03798804  0.02686160       0.003
  -0.03289861  0.01899402  0.01343080       0.003
   0.00000000  0.03798804 -0.01343080       0.003
   0.03289861  0.01899402 -0.02686160       0.003
   0.06579722  0.00000000 -0.04029240       0.003
   0.09869583 -0.01899402 -0.05372320       0.003
  -0.09869583  0.09497011  0.02686160       0.003
  -0.06579722  0.07597609  0.01343080       0.003
  -0.03289861  0.05698206  0.00000000       0.003
   0.00000000  0.07597609 -0.02686160       0.003
   0.03289861  0.05698206 -0.04029240       0.003
   0.06579722  0.03798804 -0.05372320       0.003
   0.09869583  0.01899402 -0.06715401       0.003
  -0.09869583  0.13295815  0.01343080       0.003
  -0.06579722  0.11396413  0.00000000       0.003
  -0.03289861  0.09497011 -0.01343080       0.003
   0.00000000  0.11396413 -0.04029240       0.003
   0.03289861  0.09497011 -0.05372320       0.003
   0.06579722  0.07597609 -0.06715401       0.003
   0.09869583  0.05698206 -0.08058481       0.003
  -0.09869583  0.17094619  0.00000000       0.003
  -0.06579722  0.15195217 -0.01343080       0.003
  -0.03289861  0.13295815 -0.02686160       0.003
  -0.00000000 -0.11396413  0.04029240       0.003
   0.03289861 -0.13295815  0.02686160       0.003
   0.06579722 -0.15195217  0.01343080       0.003
   0.09869583 -0.17094619 -0.00000000       0.003
  -0.09869583 -0.05698206  0.08058481       0.003
  -0.06579722 -0.07597609  0.06715401       0.003
  -0.03289861 -0.09497011  0.05372320       0.003
  -0.00000000 -0.07597609  0.02686160       0.003
   0.03289861 -0.09497011  0.01343080       0.003
   0.06579722 -0.11396413 -0.00000000       0.003
   0.09869583 -0.13295815 -0.01343080       0.003
  -0.09869583 -0.01899402  0.06715401       0.003
  -0.06579722 -0.03798804  0.05372320       0.003
  -0.03289861 -0.05698206  0.04029240       0.003
  -0.00000000 -0.03798804  0.01343080       0.003
   0.03289861 -0.05698206 -0.00000000       0.003
   0.06579722 -0.07597609 -0.01343080       0.003
   0.09869583 -0.09497011 -0.02686160       0.003
  -0.09869583  0.01899402  0.05372320       0.003
  -0.06579722  0.00000000  0.04029240       0.003
  -0.03289861 -0.01899402  0.02686160       0.003
  -0.00000000  0.00000000  0.04029240       0.003
   0.03289861 -0.01899402  0.02686160       0.003
   0.06579722 -0.03798804  0.01343080       0.003
   0.09869583 -0.05698206  0.00000000       0.003
  -0.09869583  0.05698206  0.08058481       0.003
  -0.06579722  0.03798804  0.06715401       0.003
  -0.03289861  0.01899402  0.05372320       0.003
  -0.00000000  0.03798804  0.02686160       0.003
   0.03289861  0.01899402  0.01343080       0.003
   0.06579722  0.00000000  0.00000000       0.003
   0.09869583 -0.01899402 -0.01343080       0.003
  -0.09869583  0.09497011  0.06715401       0.003
  -0.06579722  0.07597609  0.05372320       0.003
  -0.03289861  0.05698206  0.04029240       0.003
  -0.00000000  0.07597609  0.01343080       0.003
   0.03289861  0.05698206  0.00000000       0.003
   0.06579722  0.03798804 -0.01343080       0.003
   0.09869583  0.01899402 -0.02686160       0.003
  -0.09869583  0.13295815  0.05372320       0.003
  -0.06579722  0.11396413  0.04029240       0.003
  -0.03289861  0.09497011  0.02686160       0.003
  -0.00000000  0.11396413  0.00000000       0.003
   0.03289861  0.09497011 -0.01343080       0.003
   0.06579722  0.07597609 -0.02686160       0.003
   0.09869583  0.05698206 -0.04029240       0.003
  -0.09869583  0.17094619  0.04029240       0.003
  -0.06579722  0.15195217  0.02686160       0.003
  -0.03289861  0.13295815  0.01343080       0.003
  -0.00000000 -0.11396413  0.08058481       0.003
   0.03289861 -0.13295815  0.06715401       0.003
   0.06579722 -0.15195217  0.05372320       0.003
   0.09869583 -0.17094619  0.04029240       0.003
  -0.09869583 -0.05698206  0.12087721       0.003
  -0.06579722 -0.07597609  0.10744641       0.003
  -0.03289861 -0.09497011  0.09401561       0.003
  -0.00000000 -0.07597609  0.06715401       0.003
   0.03289861 -0.09497011  0.05372320       0.003
   0.06579722 -0.11396413  0.04029240       0.003
   0.09869583 -0.13295815  0.02686160       0.003
  -0.09869583 -0.01899402  0.10744641       0.003
  -0.06579722 -0.03798804  0.09401561       0.003
  -0.03289861 -0.05698206  0.08058481       0.003
  -0.00000000 -0.03798804  0.05372320       0.003
   0.03289861 -0.05698206  0.04029240       0.003
   0.06579722 -0.07597609  0.02686160       0.003
   0.09869583 -0.09497011  0.01343080       0.003
  -0.09869583  0.01899402  0.09401561       0.003
  -0.06579722  0.00000000  0.08058481       0.003
  -0.03289861 -0.01899402  0.06715401       0.003
  -0.00000000  0.00000000  0.08058481       0.003
   0.03289861 -0.01899402  0.06715401       0.003
   0.06579722 -0.03798804  0.05372320       0.003
   0.09869583 -0.05698206  0.04029240       0.003
  -0.09869583  0.05698206  0.12087721       0.003
  -0.06579722  0.03798804  0.10744641       0.003
  -0.03289861  0.01899402  0.09401561       0.003
  -0.00000000  0.03798804  0.06715401       0.003
   0.03289861  0.01899402  0.05372320       0.003
   0.06579722  0.00000000  0.04029240       0.003
   0.09869583 -0.01899402  0.02686160       0.003
  -0.09869583  0.09497011  0.10744641       0.003
  -0.06579722  0.07597609  0.09401561       0.003
  -0.03289861  0.05698206  0.08058481       0.003
  -0.00000000  0.07597609  0.05372320       0.003
   0.03289861  0.05698206  0.04029240       0.003
   0.06579722  0.03798804  0.02686160       0.003
   0.09869583  0.01899402  0.01343080       0.003
  -0.09869583  0.13295815  0.09401561       0.003
  -0.06579722  0.11396413  0.08058481       0.003
  -0.03289861  0.09497011  0.06715401       0.003
  -0.00000000  0.11396413  0.04029240       0.003
   0.03289861  0.09497011  0.02686160       0.003
   0.06579722  0.07597609  0.01343080       0.003
   0.09869583  0.05698206 -0.00000000       0.003
  -0.09869583  0.17094619  0.08058481       0.003
  -0.06579722  0.15195217  0.06715401       0.003
  -0.03289861  0.13295815  0.05372320       0.003
  -0.00000000 -0.11396413  0.12087721       0.003
   0.03289861 -0.13295815  0.10744641       0.003
   0.06579722 -0.15195217  0.09401561       0.003
   0.09869583 -0.17094619  0.08058481       0.003
  -0.09869583 -0.05698206  0.16116961       0.003
  -0.06579722 -0.07597609  0.14773881       0.003
  -0.03289861 -0.09497011  0.13430801       0.003
  -0.00000000 -0.07597609  0.10744641       0.003
   0.03289861 -0.09497011  0.09401561       0.003
   0.06579722 -0.11396413  0.08058481       0.003
   0.09869583 -0.13295815  0.06715401       0.003
  -0.09869583 -0.01899402  0.14773881       0.003
  -0.06579722 -0.03798804  0.13430801       0.003
  -0.03289861 -0.05698206  0.12087721       0.003
  -0.00000000 -0.03798804  0.09401561       0.003
   0.03289861 -0.05698206  0.08058481       0.003
   0.06579722 -0.07597609  0.06715401       0.003
   0.09869583 -0.09497011  0.05372320       0.003
  -0.09869583  0.01899402  0.13430801       0.003
  -0.06579722  0.00000000  0.12087721       0.003
  -0.03289861 -0.01899402  0.10744641       0.003
  -0.00000000  0.00000000  0.12087721       0.003
   0.03289861 -0.01899402  0.10744641       0.003
   0.06579722 -0.03798804  0.09401561       0.003
   0.09869583 -0.05698206  0.08058481       0.003
  -0.09869583  0.05698206  0.16116961       0.003
  -0.06579722  0.03798804  0.14773881       0.003
  -0.03289861  0.01899402  0.13430801       0.003
  -0.00000000  0.03798804  0.10744641       0.003
   0.03289861  0.01899402  0.09401561       0.003
   0.06579722  0.00000000  0.08058481       0.003
   0.09869583 -0.01899402  0.06715401       0.003
  -0.09869583  0.09497011  0.14773881       0.003
  -0.06579722  0.07597609  0.13430801       0.003
  -0.03289861  0.05698206  0.12087721       0.003
  -0.00000000  0.07597609  0.09401561       0.003
   0.03289861  0.05698206  0.08058481       0.003
   0.06579722  0.03798804  0.06715401       0.003
   0.09869583  0.01899402  0.05372320       0.003
  -0.09869583  0.13295815  0.13430801       0.003
  -0.06579722  0.11396413  0.12087721       0.003
  -0.03289861  0.09497011  0.10744641       0.003
  -0.00000000  0.11396413  0.08058481       0.003
   0.03289861  0.09497011  0.06715401       0.003
   0.06579722  0.07597609  0.05372320       0.003
   0.09869583  0.05698206  0.04029240       0.003
  -0.09869583  0.17094619  0.12087721       0.003
  -0.06579722  0.15195217  0.10744641       0.003
  -0.03289861  0.13295815  0.09401561       0.003
  -0.00000000 -0.11396413  0.16116961       0.003
   0.03289861 -0.13295815  0.14773881       0.003
   0.06579722 -0.15195217  0.13430801       0.003
   0.09869583 -0.17094619  0.12087721       0.003
  -0.09869583 -0.05698206  0.20146202       0.003
  -0.06579722 -0.07597609  0.18803122       0.003
  -0.03289861 -0.09497011  0.17460042       0.003
  -0.00000000 -0.07597609  0.14773881       0.003
   0.03289861 -0.09497011  0.13430801       0.003
   0.06579722 -0.11396413  0.12087721       0.003
   0.09869583 -0.13295815  0.10744641       0.003
  -0.09869583 -0.01899402  0.18803122       0.003
  -0.06579722 -0.03798804  0.17460042       0.003
  -0.03289861 -0.05698206  0.16116961       0.003
  -0.00000000 -0.03798804  0.13430801       0.003
   0.03289861 -0.05698206  0.12087721       0.003
   0.06579722 -0.07597609  0.10744641       0.003
   0.09869583 -0.09497011  0.09401561       0.003
  -0.09869583  0.01899402  0.17460042       0.003
  -0.06579722  0.00000000  0.16116961       0.003
  -0.03289861 -0.01899402  0.14773881       0.003
   0.00000000 -0.00000000 -0.12087721       0.003
   0.03289861 -0.01899402 -0.13430801       0.003
   0.06579722 -0.03798804 -0.14773881       0.003
   0.09869583 -0.05698206 -0.16116961       0.003
  -0.09869583  0.05698206 -0.08058481       0.003
  -0.06579722  0.03798804 -0.09401561       0.003
  -0.03289861  0.01899402 -0.10744641       0.003
   0.00000000  0.03798804 -0.13430801       0.003
   0.03289861  0.01899402 -0.14773881       0.003
   0.06579722  0.00000000 -0.16116961       0.003
   0.09869583 -0.01899402 -0.17460042       0.003
  -0.09869583  0.09497011 -0.09401561       0.003
  -0.06579722  0.07597609 -0.10744641       0.003
  -0.03289861  0.05698206 -0.12087721       0.003
   0.00000000  0.07597609 -0.14773881       0.003
   0.03289861  0.05698206 -0.16116961       0.003
   0.06579722  0.03798804 -0.17460042       0.003
   0.09869583  0.01899402 -0.18803122       0.003
  -0.09869583  0.13295815 -0.10744641       0.003
  -0.06579722  0.11396413 -0.12087721       0.003
  -0.03289861  0.09497011 -0.13430801       0.003
   0.00000000  0.11396413 -0.16116961       0.003
   0.03289861  0.09497011 -0.17460042       0.003
   0.06579722  0.07597609 -0.18803122       0.003
   0.09869583  0.05698206 -0.20146202       0.003
  -0.09869583  0.17094619 -0.12087721       0.003
  -0.06579722  0.15195217 -0.13430801       0.003
  -0.03289861  0.13295815 -0.14773881       0.003
   0.00000000 -0.11396413 -0.08058481       0.003
   0.03289861 -0.13295815 -0.09401561       0.003
   0.06579722 -0.15195217 -0.10744641       0.003
   0.09869583 -0.17094619 -0.12087721       0.003
  -0.09869583 -0.05698206 -0.04029240       0.003
  -0.06579722 -0.07597609 -0.05372320       0.003
  -0.03289861 -0.09497011 -0.06715401       0.003
   0.00000000 -0.07597609 -0.09401561       0.003
   0.03289861 -0.09497011 -0.10744641       0.003
   0.06579722 -0.11396413 -0.12087721       0.003
   0.09869583 -0.13295815 -0.13430801       0.003
  -0.09869583 -0.01899402 -0.05372320       0.003
  -0.06579722 -0.03798804 -0.06715401       0.003
  -0.03289861 -0.05698206 -0.08058481       0.003
   0.00000000 -0.03798804 -0.10744641       0.003
   0.03289861 -0.05698206 -0.12087721       0.003
   0.06579722 -0.07597609 -0.13430801       0.003
   0.09869583 -0.09497011 -0.14773881       0.003
  -0.09869583  0.01899402 -0.06715401       0.003
  -0.06579722  0.00000000 -0.08058481       0.003
  -0.03289861 -0.01899402 -0.09401561       0.003
   0.00000000 -0.00000000 -0.08058481       0.003
   0.03289861 -0.01899402 -0.09401561       0.003
   0.06579722 -0.03798804 -0.10744641       0.003
   0.09869583 -0.05698206 -0.12087721       0.003
  -0.09869583  0.05698206 -0.04029240       0.003
  -0.06579722  0.03798804 -0.05372320       0.003
  -0.03289861  0.01899402 -0.06715401       0.003
   0.00000000  0.03798804 -0.09401561       0.003
   0.03289861  0.01899402 -0.10744641       0.003
   0.06579722  0.00000000 -0.12087721       0.003
   0.09869583 -0.01899402 -0.13430801       0.003
  -0.09869583  0.09497011 -0.05372320       0.003
  -0.06579722  0.07597609 -0.06715401       0.003
  -0.03289861  0.05698206 -0.08058481       0.003
   0.00000000  0.07597609 -0.10744641       0.003
   0.03289861  0.05698206 -0.12087721       0.003
   0.06579722  0.03798804 -0.13430801       0.003
   0.09869583  0.01899402 -0.14773881       0.003
  -0.09869583  0.13295815 -0.06715401       0.003
  -0.06579722  0.11396413 -0.08058481       0.003
  -0.03289861  0.09497011 -0.09401561       0.003
   0.00000000  0.11396413 -0.12087721       0.003
   0.03289861  0.09497011 -0.13430801       0.003
   0.06579722  0.07597609 -0.14773881       0.003
   0.09869583  0.05698206 -0.16116961       0.003
  -0.09869583  0.17094619 -0.08058481       0.003
  -0.06579722  0.15195217 -0.09401561       0.003
  -0.03289861  0.13295815 -0.10744641       0.003
   0.00000000 -0.11396413 -0.04029240       0.003
   0.03289861 -0.13295815 -0.05372320       0.003
   0.06579722 -0.15195217 -0.06715401       0.003
   0.09869583 -0.17094619 -0.08058481       0.003
  -0.09869583 -0.05698206  0.00000000       0.003
  -0.06579722 -0.07597609 -0.01343080       0.003
  -0.03289861 -0.09497011 -0.02686160       0.003
   0.00000000 -0.07597609 -0.05372320       0.003
   0.03289861 -0.09497011 -0.06715401       0.003
   0.06579722 -0.11396413 -0.08058481       0.003
   0.09869583 -0.13295815 -0.09401561       0.003
  -0.09869583 -0.01899402 -0.01343080       0.003
  -0.06579722 -0.03798804 -0.02686160       0.003
  -0.03289861 -0.05698206 -0.04029240       0.003
   0.00000000 -0.03798804 -0.06715401       0.003
   0.03289861 -0.05698206 -0.08058481       0.003
   0.06579722 -0.07597609 -0.09401561       0.003
   0.09869583 -0.09497011 -0.10744641       0.003
  -0.09869583  0.01899402 -0.02686160       0.003
  -0.06579722  0.00000000 -0.04029240       0.003
  -0.03289861 -0.01899402 -0.05372320       0.003
   0.00000000 -0.00000000 -0.04029240       0.003
   0.03289861 -0.01899402 -0.05372320       0.003
   0.06579722 -0.03798804 -0.06715401       0.003
   0.09869583 -0.05698206 -0.08058481       0.003
  -0.09869583  0.05698206  0.00000000       0.003
  -0.06579722  0.03798804 -0.01343080       0.003
  -0.03289861  0.01899402 -0.02686160       0.003
   0.00000000  0.03798804 -0.05372320       0.003
   0.03289861  0.01899402 -0.06715401       0.003
   0.06579722  0.00000000 -0.08058481       0.003
   0.09869583 -0.01899402 -0.09401561       0.003
  -0.09869583  0.09497011 -0.01343080       0.003
  -0.06579722  0.07597609 -0.02686160       0.003
  -0.03289861  0.05698206 -0.04029240       0.003
   0.00000000  0.07597609 -0.06715401       0.003
   0.03289861  0.05698206 -0.08058481       0.003
   0.06579722  0.03798804 -0.09401561       0.003
   0.09869583  0.01899402 -0.10744641       0.003
  -0.09869583  0.13295815 -0.02686160       0.003
  -0.06579722  0.11396413 -0.04029240       0.003
  -0.03289861  0.09497011 -0.05372320       0.003
   0.00000000  0.11396413 -0.08058481       0.003
   0.03289861  0.09497011 -0.09401561       0.003
   0.06579722  0.07597609 -0.10744641       0.003
   0.09869583  0.05698206 -0.12087721       0.003
  -0.09869583  0.17094619 -0.04029240       0.003
  -0.06579722  0.15195217 -0.05372320       0.003
  -0.03289861  0.13295815 -0.06715401       0.003
  -0.00000000 -0.11396413  0.00000000       0.003
   0.03289861 -0.13295815 -0.01343080       0.003
   0.06579722 -0.15195217 -0.02686160       0.003
   0.09869583 -0.17094619 -0.04029240       0.003
  -0.09869583 -0.05698206  0.04029240       0.003
  -0.06579722 -0.07597609  0.02686160       0.003
  -0.03289861 -0.09497011  0.01343080       0.003
   0.00000000 -0.07597609 -0.01343080       0.003
   0.03289861 -0.09497011 -0.02686160       0.003
   0.06579722 -0.11396413 -0.04029240       0.003
   0.09869583 -0.13295815 -0.05372320       0.003
  -0.09869583 -0.01899402  0.02686160       0.003
  -0.06579722 -0.03798804  0.01343080       0.003
  -0.03289861 -0.05698206  0.00000000       0.003
   0.00000000 -0.03798804 -0.02686160       0.003
   0.03289861 -0.05698206 -0.04029240       0.003
   0.06579722 -0.07597609 -0.05372320       0.003
   0.09869583 -0.09497011 -0.06715401       0.003
  -0.09869583  0.01899402  0.01343080       0.003
  -0.06579722  0.00000000  0.00000000       0.003
  -0.03289861 -0.01899402 -0.01343080       0.003
 
 k-points in reciprocal lattice and weights: k-points                                
   0.00000000  0.00000000  0.00000000       0.003
   0.14285714 -0.00000000  0.00000000       0.003
   0.28571429  0.00000000  0.00000000       0.003
   0.42857143  0.00000000  0.00000000       0.003
  -0.42857143 -0.00000000 -0.00000000       0.003
  -0.28571429 -0.00000000 -0.00000000       0.003
  -0.14285714  0.00000000  0.00000000       0.003
   0.00000000  0.14285714  0.00000000       0.003
   0.14285714  0.14285714  0.00000000       0.003
   0.28571429  0.14285714  0.00000000       0.003
   0.42857143  0.14285714  0.00000000       0.003
  -0.42857143  0.14285714 -0.00000000       0.003
  -0.28571429  0.14285714 -0.00000000       0.003
  -0.14285714  0.14285714 -0.00000000       0.003
   0.00000000  0.28571429 -0.00000000       0.003
   0.14285714  0.28571429  0.00000000       0.003
   0.28571429  0.28571429  0.00000000       0.003
   0.42857143  0.28571429  0.00000000       0.003
  -0.42857143  0.28571429 -0.00000000       0.003
  -0.28571429  0.28571429  0.00000000       0.003
  -0.14285714  0.28571429  0.00000000       0.003
   0.00000000  0.42857143 -0.00000000       0.003
   0.14285714  0.42857143 -0.00000000       0.003
   0.28571429  0.42857143  0.00000000       0.003
   0.42857143  0.42857143 -0.00000000       0.003
  -0.42857143  0.42857143 -0.00000000       0.003
  -0.28571429  0.42857143 -0.00000000       0.003
  -0.14285714  0.42857143 -0.00000000       0.003
   0.00000000 -0.42857143  0.00000000       0.003
   0.14285714 -0.42857143  0.00000000       0.003
   0.28571429 -0.42857143  0.00000000       0.003
   0.42857143 -0.42857143  0.00000000       0.003
  -0.42857143 -0.42857143  0.00000000       0.003
  -0.28571429 -0.42857143  0.00000000       0.003
  -0.14285714 -0.42857143  0.00000000       0.003
  -0.00000000 -0.28571429  0.00000000       0.003
   0.14285714 -0.28571429 -0.00000000       0.003
   0.28571429 -0.28571429 -0.00000000       0.003
   0.42857143 -0.28571429  0.00000000       0.003
  -0.42857143 -0.28571429 -0.00000000       0.003
  -0.28571429 -0.28571429  0.00000000       0.003
  -0.14285714 -0.28571429 -0.00000000       0.003
   0.00000000 -0.14285714  0.00000000       0.003
   0.14285714 -0.14285714  0.00000000       0.003
   0.28571429 -0.14285714  0.00000000       0.003
   0.42857143 -0.14285714  0.00000000       0.003
  -0.42857143 -0.14285714  0.00000000       0.003
  -0.28571429 -0.14285714 -0.00000000       0.003
  -0.14285714 -0.14285714  0.00000000       0.003
  -0.00000000  0.00000000  0.14285714       0.003
   0.14285714 -0.00000000  0.14285714       0.003
   0.28571429 -0.00000000  0.14285714       0.003
   0.42857143 -0.00000000  0.14285714       0.003
  -0.42857143 -0.00000000  0.14285714       0.003
  -0.28571429 -0.00000000  0.14285714       0.003
  -0.14285714 -0.00000000  0.14285714       0.003
  -0.00000000  0.14285714  0.14285714       0.003
   0.14285714  0.14285714  0.14285714       0.003
   0.28571429  0.14285714  0.14285714       0.003
   0.42857143  0.14285714  0.14285714       0.003
  -0.42857143  0.14285714  0.14285714       0.003
  -0.28571429  0.14285714  0.14285714       0.003
  -0.14285714  0.14285714  0.14285714       0.003
  -0.00000000  0.28571429  0.14285714       0.003
   0.14285714  0.28571429  0.14285714       0.003
   0.28571429  0.28571429  0.14285714       0.003
   0.42857143  0.28571429  0.14285714       0.003
  -0.42857143  0.28571429  0.14285714       0.003
  -0.28571429  0.28571429  0.14285714       0.003
  -0.14285714  0.28571429  0.14285714       0.003
  -0.00000000  0.42857143  0.14285714       0.003
   0.14285714  0.42857143  0.14285714       0.003
   0.28571429  0.42857143  0.14285714       0.003
   0.42857143  0.42857143  0.14285714       0.003
  -0.42857143  0.42857143  0.14285714       0.003
  -0.28571429  0.42857143  0.14285714       0.003
  -0.14285714  0.42857143  0.14285714       0.003
  -0.00000000 -0.42857143  0.14285714       0.003
   0.14285714 -0.42857143  0.14285714       0.003
   0.28571429 -0.42857143  0.14285714       0.003
   0.42857143 -0.42857143  0.14285714       0.003
  -0.42857143 -0.42857143  0.14285714       0.003
  -0.28571429 -0.42857143  0.14285714       0.003
  -0.14285714 -0.42857143  0.14285714       0.003
  -0.00000000 -0.28571429  0.14285714       0.003
   0.14285714 -0.28571429  0.14285714       0.003
   0.28571429 -0.28571429  0.14285714       0.003
   0.42857143 -0.28571429  0.14285714       0.003
  -0.42857143 -0.28571429  0.14285714       0.003
  -0.28571429 -0.28571429  0.14285714       0.003
  -0.14285714 -0.28571429  0.14285714       0.003
  -0.00000000 -0.14285714  0.14285714       0.003
   0.14285714 -0.14285714  0.14285714       0.003
   0.28571429 -0.14285714  0.14285714       0.003
   0.42857143 -0.14285714  0.14285714       0.003
  -0.42857143 -0.14285714  0.14285714       0.003
  -0.28571429 -0.14285714  0.14285714       0.003
  -0.14285714 -0.14285714  0.14285714       0.003
   0.00000000  0.00000000  0.28571429       0.003
   0.14285714  0.00000000  0.28571429       0.003
   0.28571429 -0.00000000  0.28571429       0.003
   0.42857143 -0.00000000  0.28571429       0.003
  -0.42857143 -0.00000000  0.28571429       0.003
  -0.28571429 -0.00000000  0.28571429       0.003
  -0.14285714  0.00000000  0.28571429       0.003
   0.00000000  0.14285714  0.28571429       0.003
   0.14285714  0.14285714  0.28571429       0.003
   0.28571429  0.14285714  0.28571429       0.003
   0.42857143  0.14285714  0.28571429       0.003
  -0.42857143  0.14285714  0.28571429       0.003
  -0.28571429  0.14285714  0.28571429       0.003
  -0.14285714  0.14285714  0.28571429       0.003
  -0.00000000  0.28571429  0.28571429       0.003
   0.14285714  0.28571429  0.28571429       0.003
   0.28571429  0.28571429  0.28571429       0.003
   0.42857143  0.28571429  0.28571429       0.003
  -0.42857143  0.28571429  0.28571429       0.003
  -0.28571429  0.28571429  0.28571429       0.003
  -0.14285714  0.28571429  0.28571429       0.003
   0.00000000  0.42857143  0.28571429       0.003
   0.14285714  0.42857143  0.28571429       0.003
   0.28571429  0.42857143  0.28571429       0.003
   0.42857143  0.42857143  0.28571429       0.003
  -0.42857143  0.42857143  0.28571429       0.003
  -0.28571429  0.42857143  0.28571429       0.003
  -0.14285714  0.42857143  0.28571429       0.003
  -0.00000000 -0.42857143  0.28571429       0.003
   0.14285714 -0.42857143  0.28571429       0.003
   0.28571429 -0.42857143  0.28571429       0.003
   0.42857143 -0.42857143  0.28571429       0.003
  -0.42857143 -0.42857143  0.28571429       0.003
  -0.28571429 -0.42857143  0.28571429       0.003
  -0.14285714 -0.42857143  0.28571429       0.003
   0.00000000 -0.28571429  0.28571429       0.003
   0.14285714 -0.28571429  0.28571429       0.003
   0.28571429 -0.28571429  0.28571429       0.003
   0.42857143 -0.28571429  0.28571429       0.003
  -0.42857143 -0.28571429  0.28571429       0.003
  -0.28571429 -0.28571429  0.28571429       0.003
  -0.14285714 -0.28571429  0.28571429       0.003
   0.00000000 -0.14285714  0.28571429       0.003
   0.14285714 -0.14285714  0.28571429       0.003
   0.28571429 -0.14285714  0.28571429       0.003
   0.42857143 -0.14285714  0.28571429       0.003
  -0.42857143 -0.14285714  0.28571429       0.003
  -0.28571429 -0.14285714  0.28571429       0.003
  -0.14285714 -0.14285714  0.28571429       0.003
   0.00000000  0.00000000  0.42857143       0.003
   0.14285714  0.00000000  0.42857143       0.003
   0.28571429  0.00000000  0.42857143       0.003
   0.42857143  0.00000000  0.42857143       0.003
  -0.42857143  0.00000000  0.42857143       0.003
  -0.28571429  0.00000000  0.42857143       0.003
  -0.14285714  0.00000000  0.42857143       0.003
   0.00000000  0.14285714  0.42857143       0.003
   0.14285714  0.14285714  0.42857143       0.003
   0.28571429  0.14285714  0.42857143       0.003
   0.42857143  0.14285714  0.42857143       0.003
  -0.42857143  0.14285714  0.42857143       0.003
  -0.28571429  0.14285714  0.42857143       0.003
  -0.14285714  0.14285714  0.42857143       0.003
   0.00000000  0.28571429  0.42857143       0.003
   0.14285714  0.28571429  0.42857143       0.003
   0.28571429  0.28571429  0.42857143       0.003
   0.42857143  0.28571429  0.42857143       0.003
  -0.42857143  0.28571429  0.42857143       0.003
  -0.28571429  0.28571429  0.42857143       0.003
  -0.14285714  0.28571429  0.42857143       0.003
  -0.00000000  0.42857143  0.42857143       0.003
   0.14285714  0.42857143  0.42857143       0.003
   0.28571429  0.42857143  0.42857143       0.003
   0.42857143  0.42857143  0.42857143       0.003
  -0.42857143  0.42857143  0.42857143       0.003
  -0.28571429  0.42857143  0.42857143       0.003
  -0.14285714  0.42857143  0.42857143       0.003
  -0.00000000 -0.42857143  0.42857143       0.003
   0.14285714 -0.42857143  0.42857143       0.003
   0.28571429 -0.42857143  0.42857143       0.003
   0.42857143 -0.42857143  0.42857143       0.003
  -0.42857143 -0.42857143  0.42857143       0.003
  -0.28571429 -0.42857143  0.42857143       0.003
  -0.14285714 -0.42857143  0.42857143       0.003
  -0.00000000 -0.28571429  0.42857143       0.003
   0.14285714 -0.28571429  0.42857143       0.003
   0.28571429 -0.28571429  0.42857143       0.003
   0.42857143 -0.28571429  0.42857143       0.003
  -0.42857143 -0.28571429  0.42857143       0.003
  -0.28571429 -0.28571429  0.42857143       0.003
  -0.14285714 -0.28571429  0.42857143       0.003
   0.00000000 -0.14285714  0.42857143       0.003
   0.14285714 -0.14285714  0.42857143       0.003
   0.28571429 -0.14285714  0.42857143       0.003
   0.42857143 -0.14285714  0.42857143       0.003
  -0.42857143 -0.14285714  0.42857143       0.003
  -0.28571429 -0.14285714  0.42857143       0.003
  -0.14285714 -0.14285714  0.42857143       0.003
   0.00000000 -0.00000000 -0.42857143       0.003
   0.14285714 -0.00000000 -0.42857143       0.003
   0.28571429 -0.00000000 -0.42857143       0.003
   0.42857143 -0.00000000 -0.42857143       0.003
  -0.42857143 -0.00000000 -0.42857143       0.003
  -0.28571429 -0.00000000 -0.42857143       0.003
  -0.14285714 -0.00000000 -0.42857143       0.003
   0.00000000  0.14285714 -0.42857143       0.003
   0.14285714  0.14285714 -0.42857143       0.003
   0.28571429  0.14285714 -0.42857143       0.003
   0.42857143  0.14285714 -0.42857143       0.003
  -0.42857143  0.14285714 -0.42857143       0.003
  -0.28571429  0.14285714 -0.42857143       0.003
  -0.14285714  0.14285714 -0.42857143       0.003
   0.00000000  0.28571429 -0.42857143       0.003
   0.14285714  0.28571429 -0.42857143       0.003
   0.28571429  0.28571429 -0.42857143       0.003
   0.42857143  0.28571429 -0.42857143       0.003
  -0.42857143  0.28571429 -0.42857143       0.003
  -0.28571429  0.28571429 -0.42857143       0.003
  -0.14285714  0.28571429 -0.42857143       0.003
   0.00000000  0.42857143 -0.42857143       0.003
   0.14285714  0.42857143 -0.42857143       0.003
   0.28571429  0.42857143 -0.42857143       0.003
   0.42857143  0.42857143 -0.42857143       0.003
  -0.42857143  0.42857143 -0.42857143       0.003
  -0.28571429  0.42857143 -0.42857143       0.003
  -0.14285714  0.42857143 -0.42857143       0.003
   0.00000000 -0.42857143 -0.42857143       0.003
   0.14285714 -0.42857143 -0.42857143       0.003
   0.28571429 -0.42857143 -0.42857143       0.003
   0.42857143 -0.42857143 -0.42857143       0.003
  -0.42857143 -0.42857143 -0.42857143       0.003
  -0.28571429 -0.42857143 -0.42857143       0.003
  -0.14285714 -0.42857143 -0.42857143       0.003
   0.00000000 -0.28571429 -0.42857143       0.003
   0.14285714 -0.28571429 -0.42857143       0.003
   0.28571429 -0.28571429 -0.42857143       0.003
   0.42857143 -0.28571429 -0.42857143       0.003
  -0.42857143 -0.28571429 -0.42857143       0.003
  -0.28571429 -0.28571429 -0.42857143       0.003
  -0.14285714 -0.28571429 -0.42857143       0.003
   0.00000000 -0.14285714 -0.42857143       0.003
   0.14285714 -0.14285714 -0.42857143       0.003
   0.28571429 -0.14285714 -0.42857143       0.003
   0.42857143 -0.14285714 -0.42857143       0.003
  -0.42857143 -0.14285714 -0.42857143       0.003
  -0.28571429 -0.14285714 -0.42857143       0.003
  -0.14285714 -0.14285714 -0.42857143       0.003
   0.00000000 -0.00000000 -0.28571429       0.003
   0.14285714 -0.00000000 -0.28571429       0.003
   0.28571429  0.00000000 -0.28571429       0.003
   0.42857143  0.00000000 -0.28571429       0.003
  -0.42857143  0.00000000 -0.28571429       0.003
  -0.28571429  0.00000000 -0.28571429       0.003
  -0.14285714 -0.00000000 -0.28571429       0.003
   0.00000000  0.14285714 -0.28571429       0.003
   0.14285714  0.14285714 -0.28571429       0.003
   0.28571429  0.14285714 -0.28571429       0.003
   0.42857143  0.14285714 -0.28571429       0.003
  -0.42857143  0.14285714 -0.28571429       0.003
  -0.28571429  0.14285714 -0.28571429       0.003
  -0.14285714  0.14285714 -0.28571429       0.003
   0.00000000  0.28571429 -0.28571429       0.003
   0.14285714  0.28571429 -0.28571429       0.003
   0.28571429  0.28571429 -0.28571429       0.003
   0.42857143  0.28571429 -0.28571429       0.003
  -0.42857143  0.28571429 -0.28571429       0.003
  -0.28571429  0.28571429 -0.28571429       0.003
  -0.14285714  0.28571429 -0.28571429       0.003
   0.00000000  0.42857143 -0.28571429       0.003
   0.14285714  0.42857143 -0.28571429       0.003
   0.28571429  0.42857143 -0.28571429       0.003
   0.42857143  0.42857143 -0.28571429       0.003
  -0.42857143  0.42857143 -0.28571429       0.003
  -0.28571429  0.42857143 -0.28571429       0.003
  -0.14285714  0.42857143 -0.28571429       0.003
   0.00000000 -0.42857143 -0.28571429       0.003
   0.14285714 -0.42857143 -0.28571429       0.003
   0.28571429 -0.42857143 -0.28571429       0.003
   0.42857143 -0.42857143 -0.28571429       0.003
  -0.42857143 -0.42857143 -0.28571429       0.003
  -0.28571429 -0.42857143 -0.28571429       0.003
  -0.14285714 -0.42857143 -0.28571429       0.003
   0.00000000 -0.28571429 -0.28571429       0.003
   0.14285714 -0.28571429 -0.28571429       0.003
   0.28571429 -0.28571429 -0.28571429       0.003
   0.42857143 -0.28571429 -0.28571429       0.003
  -0.42857143 -0.28571429 -0.28571429       0.003
  -0.28571429 -0.28571429 -0.28571429       0.003
[...]
    0.000000  505.411929  505.416658  505.386695   -2.012456   -0.559612   -0.844814
    1.250100    0.000000    0.000000    0.000000   -0.009618   -0.002683   -0.004034
    2.500200    0.000000    0.000000    0.000000   -0.001334   -0.000369   -0.000560
    3.750300    0.000000    0.000000    0.000000   -0.000497   -0.000125   -0.000207
    5.000401    3.127920    3.127920    3.127920   -0.000332   -0.000076   -0.000137
    6.250501    9.709514    9.709514    9.709514   -0.000391    0.000001   -0.000149
    7.500601    2.170644    2.170644    2.170644   -0.000182    0.001468    0.000109
    8.750701    0.558335    0.558335    0.558335    0.000129    0.000182    0.000072
   10.000801    1.109975    1.109975    1.109975   -0.000307    0.000076   -0.000109
   11.250901    0.634513    0.634513    0.634513    0.000089    0.000009    0.000035
   12.501002    0.197231    0.197231    0.197231    0.000040    0.000006    0.000016
   13.751102    0.578297    0.578297    0.578297    0.000030    0.000002    0.000012
   15.001202    0.839806    0.839806    0.839804    0.000029   -0.000012    0.000010
   16.251302    0.960909    0.960909    0.960909    0.000012    0.000004    0.000005
   17.501402    1.872552    1.872552    1.872547    0.000016   -0.000003    0.000005
   18.751502    0.257000    0.257000    0.257000    0.000021    0.000002    0.000015
   20.001602    0.516273    0.516273    0.516273    0.000057   -0.000034    0.000018
   21.251703    0.202651    0.202651    0.202651    0.000017    0.000005    0.000008
   22.501803    0.129270    0.129271    0.129271   -0.000000    0.000062    0.000006
   23.751903    0.344115    0.344115    0.344115    0.000147    0.000040    0.000062
   25.002003    0.363494    0.363494    0.363494   -0.000042   -0.000014   -0.000018
   26.252103    0.118094    0.118094    0.118094   -0.000006   -0.000040   -0.000007
   27.502203    0.069679    0.069679    0.069680   -0.000079   -0.000015   -0.000032
   28.752303    0.293318    0.293318    0.293318    0.000006    0.000002    0.000002
   30.002404    0.213966    0.213966    0.213966    0.000004   -0.000005    0.000001
   31.252504    0.155896    0.155896    0.155896    0.000002   -0.000001    0.000001
   32.502604    0.096581    0.096582    0.096583   -0.000001    0.000003    0.000001
   33.752704    0.169392    0.169393    0.169393    0.000008   -0.000008    0.000003
   35.002804    0.093421    0.093421    0.093421   -0.000003   -0.000001   -0.000002
   36.252904    0.257357    0.257358    0.257357   -0.000008    0.000002   -0.000003
   37.503005    0.145941    0.145941    0.145941    0.000000    0.000000    0.000000
   38.753105    0.083732    0.083732    0.083732   -0.000004    0.000001   -0.000001
   40.003205    0.236120    0.236120    0.236120   -0.000003    0.000001   -0.000001
   41.253305    0.353216    0.353216    0.353216    0.000002   -0.000005   -0.000000
   42.503405    1.413625    1.413623    1.413631   -0.000087    0.000031   -0.000037
   43.753505    1.419335    1.419335    1.419335    0.000012    0.000003    0.000005
   45.003605    0.307844    0.307844    0.307844   -0.000002    0.000004    0.000000
   46.253706    0.143184    0.143184    0.143184   -0.000001    0.000004    0.000000
   47.503806    0.184963    0.184963    0.184962    0.000006   -0.000001    0.000002
   48.753906    0.667827    0.667827    0.667827   -0.000005    0.000001   -0.000001
   50.004006    1.085739    1.085739    1.085739   -0.000001    0.000006    0.000000
   51.254106    0.017097    0.017097    0.017097    0.000003    0.000006    0.000002
   52.504206    0.180545    0.180545    0.180545    0.000002   -0.000001    0.000001
   53.754306    0.140369    0.140368    0.140368    0.000003   -0.000001    0.000001
   55.004407    0.582787    0.582787    0.582787    0.000003   -0.000000    0.000001
   56.254507    0.208405    0.208407    0.208406   -0.000005   -0.000005   -0.000002
   57.504607    0.203070    0.203070    0.203069    0.000000    0.000000    0.000000
   58.754707    0.086001    0.086001    0.086001    0.000001   -0.000000    0.000000
   60.004807    0.147339    0.147339    0.147339   -0.000000   -0.000000   -0.000000
   61.254907    0.053071    0.053071    0.053071    0.000000    0.000000    0.000000
   62.505008    0.274545    0.274545    0.274545   -0.000000   -0.000000   -0.000000
   63.755108    0.038821    0.038821    0.038821    0.000000    0.000000    0.000000
   65.005208    0.120532    0.120532    0.120532    0.000000    0.000001    0.000000
   66.255308    0.084333    0.084333    0.084333    0.000001   -0.000001    0.000000
   67.505408    0.060629    0.060628    0.060629    0.000000   -0.000000   -0.000000
   68.755508    0.051876    0.051876    0.051876    0.000003    0.000002    0.000002
   70.005608    0.021840    0.021840    0.021840   -0.000000    0.000000    0.000000
   71.255709    0.109211    0.109211    0.109211   -0.000000   -0.000000    0.000000
   72.505809    0.056665    0.056665    0.056665    0.000000    0.000000   -0.000000
   73.755909    0.071225    0.071225    0.071225   -0.000002    0.000002   -0.000000
   75.006009    0.062835    0.062835    0.062835    0.000000   -0.000000    0.000000
   76.256109    0.029683    0.029683    0.029683    0.000000    0.000000    0.000000
   77.506209    0.063319    0.063319    0.063319    0.000000    0.000000    0.000000
   78.756310    0.039026    0.039026    0.039026    0.000001    0.000001    0.000001
   80.006410    0.016140    0.016140    0.016140   -0.000000   -0.000000   -0.000000
   81.256510    0.020025    0.020025    0.020025    0.000000   -0.000000    0.000000
   82.506610    0.018697    0.018697    0.018697    0.000000    0.000001    0.000000
   83.756710    0.014017    0.014017    0.014017   -0.000000    0.000000   -0.000000
   85.006810    0.022690    0.022690    0.022690    0.000000    0.000000    0.000000
   86.256910    0.021889    0.021889    0.021889    0.000000   -0.000000   -0.000000
   87.507011    0.014979    0.014979    0.014979    0.000000   -0.000000   -0.000000
   88.757111    0.021680    0.021680    0.021680    0.000000    0.000000    0.000000
   90.007211    0.016551    0.016551    0.016551    0.000000    0.000000    0.000000
   91.257311    0.020337    0.020337    0.020337   -0.000000    0.000000   -0.000000
   92.507411    0.022123    0.022123    0.022123   -0.000000    0.000000   -0.000000
   93.757511    0.016039    0.016039    0.016039    0.000000   -0.000000    0.000000
   95.007611    0.013882    0.013882    0.013882    0.000000   -0.000000    0.000000
   96.257712    0.008036    0.008036    0.008036    0.000000   -0.000000    0.000000
   97.507812    0.002672    0.002672    0.002672    0.000000   -0.000000    0.000000
   98.757912    0.000637    0.000637    0.000637   -0.000000    0.000000   -0.000000
  100.008012    0.004668    0.004668    0.004668   -0.000000   -0.000000   -0.000000
  101.258112    0.006187    0.006187    0.006187    0.000000   -0.000000    0.000000
  102.508212    0.000195    0.000195    0.000195   -0.000000    0.000000   -0.000000
  103.758313    0.001652    0.001652    0.001652   -0.000000   -0.000000   -0.000000
  105.008413    0.000000    0.000000    0.000000   -0.000000   -0.000000   -0.000000
  106.258513    0.000000    0.000000    0.000000   -0.000000   -0.000000   -0.000000
  107.508613    0.000000    0.000000    0.000000   -0.000000   -0.000000   -0.000000
  108.758713    0.000000    0.000000    0.000000   -0.000000   -0.000000   -0.000000
  110.008813    0.000000    0.000000    0.000000   -0.000000   -0.000000   -0.000000
  111.258913    0.000000    0.000000    0.000000   -0.000000   -0.000000   -0.000000
  112.509014    0.000000    0.000000    0.000000   -0.000000   -0.000000   -0.000000
  113.759114    0.000000    0.000000    0.000000   -0.000000   -0.000000   -0.000000
  115.009214    0.000000    0.000000    0.000000   -0.000000   -0.000000   -0.000000
  116.259314    0.000000    0.000000    0.000000   -0.000000   -0.000000   -0.000000
  117.509414    0.000000    0.000000    0.000000   -0.000000   -0.000000   -0.000000
  118.759514    0.000000    0.000000    0.000000   -0.000000   -0.000000   -0.000000
  120.009615    0.000000    0.000000    0.000000   -0.000000   -0.000000   -0.000000
  121.259715    0.000000    0.000000    0.000000   -0.000000   -0.000000   -0.000000
  122.509815    0.000000    0.000000    0.000000   -0.000000   -0.000000   -0.000000
  123.759915    0.000000    0.000000    0.000000   -0.000000   -0.000000   -0.000000

  frequency dependent      REAL DIELECTRIC FUNCTION (independent particle, no local field effects) current-current (2nd set in vasprun.xml)
     E(ev)        X           Y           Z          XY          YZ          ZX
  --------------------------------------------------------------------------------------------------------------
    0.000000 -120.066537 -120.070442 -120.062631   -2.083967   -0.577832   -0.872064
    1.250100    7.237946    7.237907    7.237985    0.044685    0.012434    0.018744
    2.500200    8.418167    8.418157    8.418186    0.011306    0.003144    0.004742
    3.750300    6.948912    6.948903    6.948916    0.005033    0.001399    0.002111
    5.000401    4.448371    4.448366    4.448373    0.002839    0.000781    0.001190
    6.250501   -1.017515   -1.017520   -1.017523    0.001846    0.000521    0.000769
    7.500601   -0.271479   -0.271480   -0.271484    0.000697    0.001892    0.000496
    8.750701   -1.034159   -1.034158   -1.034165    0.001003    0.000313    0.000424
   10.000801   -0.769230   -0.769230   -0.769231    0.000853    0.000183    0.000352
   11.250901    0.166630    0.166630    0.166630    0.000565    0.000161    0.000237
   12.501002    0.397881    0.397881    0.397882    0.000454    0.000128    0.000191
   13.751102    0.691564    0.691564    0.691564    0.000375    0.000107    0.000157
   15.001202    0.772936    0.772936    0.772936    0.000306    0.000099    0.000130
   16.251302    0.786283    0.786283    0.786283    0.000269    0.000073    0.000113
   17.501402    0.500965    0.500965    0.500966    0.000230    0.000059    0.000094
   18.751502    0.325306    0.325305    0.325306    0.000215    0.000055    0.000093
   20.001602    0.693325    0.693324    0.693325    0.000094    0.000107    0.000054
   21.251703    0.761519    0.761519    0.761519    0.000156    0.000043    0.000066
   22.501803    0.826392    0.826392    0.826392    0.000109    0.000105    0.000053
   23.751903    1.067170    1.067170    1.067170    0.000064    0.000018    0.000027
   25.002003    0.864087    0.864087    0.864087    0.000112    0.000034    0.000047
   26.252103    0.752082    0.752081    0.752082    0.000099    0.000047    0.000044
   27.502203    0.760508    0.760508    0.760508    0.000149    0.000039    0.000062
   28.752303    0.993953    0.993953    0.993953    0.000087    0.000023    0.000037
   30.002404    1.017599    1.017599    1.017599    0.000074    0.000030    0.000032
   31.252504    0.982270    0.982270    0.982271    0.000073    0.000019    0.000030
   32.502604    0.947488    0.947487    0.947488    0.000067    0.000021    0.000030
   33.752704    1.062981    1.062981    1.062981    0.000068    0.000015    0.000028
   35.002804    1.053508    1.053508    1.053508    0.000058    0.000019    0.000025
   36.252904    1.159757    1.159757    1.159758    0.000049    0.000017    0.000020
   37.503005    1.195948    1.195948    1.195948    0.000050    0.000013    0.000021
   38.753105    1.087284    1.087284    1.087284    0.000050    0.000010    0.000020
   40.003205    1.231727    1.231727    1.231727    0.000046    0.000016    0.000020
   41.253305    1.146613    1.146613    1.146613    0.000041    0.000014    0.000017
   42.503405    0.712911    0.712911    0.712910   -0.000072    0.000035   -0.000031
   43.753505    0.955224    0.955224    0.955224    0.000018    0.000014    0.000008
   45.003605    0.867250    0.867250    0.867250    0.000035    0.000006    0.000014
   46.253706    0.952029    0.952029    0.952029    0.000033    0.000010    0.000014
   47.503806    0.985977    0.985977    0.985977    0.000027    0.000016    0.000013
   48.753906    0.858976    0.858976    0.858976    0.000029    0.000009    0.000012
   50.004006    0.839485    0.839485    0.839485    0.000030   -0.000000    0.000011
   51.254106    0.579039    0.579039    0.579039    0.000027    0.000011    0.000012
   52.504206    0.718658    0.718658    0.718658    0.000025    0.000007    0.000011
   53.754306    0.782357    0.782357    0.782357    0.000023    0.000006    0.000010
   55.004407    0.805606    0.805606    0.805606    0.000031    0.000002    0.000012
   56.254507    0.634118    0.634118    0.634118    0.000024    0.000010    0.000010
   57.504607    0.725741    0.725741    0.725741    0.000022    0.000006    0.000009
   58.754707    0.738312    0.738312    0.738312    0.000022    0.000005    0.000009
   60.004807    0.765646    0.765646    0.765646    0.000020    0.000006    0.000008
   61.254907    0.791839    0.791839    0.791839    0.000019    0.000005    0.000008
   62.505008    0.787105    0.787105    0.787105    0.000019    0.000005    0.000008
   63.755108    0.822766    0.822766    0.822766    0.000017    0.000005    0.000007
   65.005208    0.858307    0.858307    0.858307    0.000016    0.000005    0.000007
   66.255308    0.812377    0.812377    0.812377    0.000016    0.000003    0.000006
   67.505408    0.849803    0.849803    0.849803    0.000015    0.000005    0.000007
   68.755508    0.815781    0.815781    0.815781    0.000012    0.000003    0.000005
   70.005608    0.823857    0.823857    0.823857    0.000014    0.000005    0.000006
   71.255709    0.834546    0.834546    0.834546    0.000014    0.000004    0.000006
   72.505809    0.851150    0.851150    0.851150    0.000014    0.000004    0.000006
   73.755909    0.871860    0.871860    0.871860    0.000010    0.000007    0.000005
   75.006009    0.865551    0.865551    0.865551    0.000012    0.000003    0.000005
   76.256109    0.864466    0.864466    0.864466    0.000012    0.000003    0.000005
   77.506209    0.864979    0.864979    0.864979    0.000012    0.000003    0.000005
   78.756310    0.871001    0.871001    0.871001    0.000012    0.000004    0.000005
   80.006410    0.876077    0.876077    0.876077    0.000011    0.000003    0.000005
   81.256510    0.884490    0.884490    0.884490    0.000011    0.000003    0.000005
   82.506610    0.878008    0.878008    0.878008    0.000010    0.000003    0.000004
   83.756710    0.877939    0.877939    0.877939    0.000010    0.000003    0.000004
   85.006810    0.888259    0.888259    0.888259    0.000010    0.000003    0.000004
   86.256910    0.892514    0.892514    0.892514    0.000010    0.000003    0.000004
   87.507011    0.898756    0.898756    0.898756    0.000009    0.000003    0.000004
   88.757111    0.909353    0.909353    0.909353    0.000008    0.000003    0.000003
   90.007211    0.907368    0.907368    0.907368    0.000008    0.000002    0.000003
   91.257311    0.906155    0.906155    0.906155    0.000009    0.000002    0.000004
   92.507411    0.912621    0.912621    0.912621    0.000008    0.000002    0.000003
   93.757511    0.910710    0.910710    0.910710    0.000008    0.000002    0.000003
   95.007611    0.917024    0.917024    0.917024    0.000008    0.000002    0.000003
   96.257712    0.911914    0.911914    0.911914    0.000008    0.000002    0.000003
   97.507812    0.915166    0.915166    0.915166    0.000007    0.000002    0.000003
   98.757912    0.921966    0.921966    0.921966    0.000008    0.000002    0.000003
  100.008012    0.924580    0.924580    0.924580    0.000007    0.000002    0.000003
  101.258112    0.926525    0.926525    0.926525    0.000007    0.000002    0.000003
  102.508212    0.927381    0.927381    0.927381    0.000007    0.000002    0.000003
  103.758313    0.930836    0.930836    0.930836    0.000007    0.000002    0.000003
  105.008413    0.933970    0.933970    0.933970    0.000006    0.000002    0.000003
  106.258513    0.936759    0.936759    0.936759    0.000006    0.000002    0.000003
  107.508613    0.939111    0.939111    0.939111    0.000006    0.000002    0.000003
  108.758713    0.941216    0.941216    0.941216    0.000006    0.000002    0.000003
  110.008813    0.943144    0.943144    0.943144    0.000006    0.000002    0.000002
  111.258913    0.944932    0.944932    0.944932    0.000006    0.000002    0.000002
  112.509014    0.946602    0.946602    0.946602    0.000006    0.000002    0.000002
  113.759114    0.948173    0.948173    0.948173    0.000005    0.000002    0.000002
  115.009214    0.949654    0.949654    0.949655    0.000005    0.000001    0.000002
  116.259314    0.951057    0.951057    0.951057    0.000005    0.000001    0.000002
  117.509414    0.952389    0.952389    0.952389    0.000005    0.000001    0.000002
  118.759514    0.953656    0.953656    0.953656    0.000005    0.000001    0.000002
  120.009615    0.954864    0.954864    0.954864    0.000005    0.000001    0.000002
  121.259715    0.956017    0.956017    0.956017    0.000005    0.000001    0.000002
  122.509815    0.957119    0.957119    0.957119    0.000005    0.000001    0.000002
  123.759915    0.958175    0.958175    0.958175    0.000005    0.000001    0.000002
 
 The outermost node in the dielectric function lies at epsilon=  11.1


--------------------------------------------------------------------------------------------------------


    OPTICS:  cpu time    1.6099: real time    1.6968
    4ORBIT:  cpu time    0.0000: real time    0.0000

 Spin-Orbit-Coupling matrix elements

 Ion:    1  E_soc:    -33.0009402
 l=   1
     0.0000000    -5.0820227    -5.0820228
    -5.0820227     0.0000000    -5.0820227
    -5.0820228    -5.0820227     0.0000000
 l=   2
     0.0000000    -0.0836327     0.0000000    -0.0836327    -0.3344914
    -0.0836327     0.0000000    -0.2508686    -0.0836425    -0.0836327
     0.0000000    -0.2508686     0.0000000    -0.2508686     0.0000000
    -0.0836327    -0.0836425    -0.2508686     0.0000000    -0.0836327
    -0.3344914    -0.0836327     0.0000000    -0.0836327     0.0000000
 l=   3
     0.0000000     0.0000000     0.0000000     0.0000000     0.0000000     0.0000000     0.0000000
     0.0000000     0.0000000     0.0000000     0.0000000     0.0000000     0.0000000     0.0000000
     0.0000000     0.0000000     0.0000000     0.0000000     0.0000000     0.0000000     0.0000000
     0.0000000     0.0000000     0.0000000     0.0000000     0.0000000     0.0000000     0.0000000
     0.0000000     0.0000000     0.0000000     0.0000000     0.0000000     0.0000000     0.0000000
     0.0000000     0.0000000     0.0000000     0.0000000     0.0000000     0.0000000     0.0000000
     0.0000000     0.0000000     0.0000000     0.0000000     0.0000000     0.0000000     0.0000000

 total amount of memory used by VASP MPI-rank0   177892. kBytes
=======================================================================

   base      :      30000. kBytes
   nonl-proj :       5336. kBytes
   fftplans  :       3752. kBytes
   grid      :       3211. kBytes
   one-center:         62. kBytes
   wavefun   :     135531. kBytes
 
  
  
 General timing and accounting informations for this job:
 ========================================================
  
                  Total CPU time used (sec):     1144.932
                            User time (sec):     1133.456
                          System time (sec):       11.475
                         Elapsed time (sec):     1146.527
  
                   Maximum memory used (kb):     1248916.
                   Average memory used (kb):           0.
  
                          Minor page faults:       160099
                          Major page faults:            0
                 Voluntary context switches:         4210
