   1   1   0   0
  0.5789729E+02  0.4342346E-09  0.4342346E-09  0.4342346E-09  0.1000000E-15
  1.000000000000000E-004
  CAR 
 Og_FCC                                  
     17.37123961    -32.73789812  301      3.94920100      1.00000000
    -32.738  0.0000E+00  0.0000E+00
    -32.571  0.0000E+00  0.0000E+00
    -32.404  0.0000E+00  0.0000E+00
    -32.237  0.0000E+00  0.0000E+00
    -32.070  0.0000E+00  0.0000E+00
    -31.903  0.0000E+00  0.0000E+00
    -31.736  0.0000E+00  0.0000E+00
    -31.569  0.0000E+00  0.0000E+00
    -31.402  0.0000E+00  0.0000E+00
    -31.235  0.0000E+00  0.0000E+00
    -31.068  0.0000E+00  0.0000E+00
    -30.901  0.0000E+00  0.0000E+00
    -30.734  0.0000E+00  0.0000E+00
    -30.567  0.0000E+00  0.0000E+00
    -30.399  0.0000E+00  0.4000E+01
    -30.232  0.0000E+00  0.4000E+01
    -30.065  0.0000E+00  0.4000E+01
    -29.898  0.0000E+00  0.4000E+01
    -29.731  0.0000E+00  0.4000E+01
    -29.564  0.0000E+00  0.4000E+01
    -29.397  0.0000E+00  0.4000E+01
    -29.230  0.0000E+00  0.4000E+01
    -29.063  0.0000E+00  0.4000E+01
    -28.896  0.0000E+00  0.4000E+01
    -28.729  0.0000E+00  0.4000E+01
    -28.562  0.0000E+00  0.4000E+01
    -28.395  0.0000E+00  0.4000E+01
    -28.228  0.0000E+00  0.4000E+01
    -28.061  0.0000E+00  0.4000E+01
    -27.894  0.0000E+00  0.4000E+01
    -27.727  0.0000E+00  0.4000E+01
    -27.560  0.0000E+00  0.4000E+01
    -27.393  0.0000E+00  0.4000E+01
    -27.226  0.0000E+00  0.4000E+01
    -27.059  0.0000E+00  0.4000E+01
    -26.892  0.0000E+00  0.4000E+01
    -26.725  0.0000E+00  0.4000E+01
    -26.558  0.0000E+00  0.4000E+01
    -26.391  0.0000E+00  0.4000E+01
    -26.224  0.0000E+00  0.4000E+01
    -26.057  0.0000E+00  0.4000E+01
    -25.890  0.0000E+00  0.4000E+01
    -25.723  0.0000E+00  0.4000E+01
    -25.556  0.0000E+00  0.4000E+01
    -25.389  0.0000E+00  0.4000E+01
    -25.222  0.0000E+00  0.4000E+01
    -25.054  0.0000E+00  0.4000E+01
    -24.887  0.0000E+00  0.4000E+01
    -24.720  0.0000E+00  0.4000E+01
    -24.553  0.0000E+00  0.4000E+01
    -24.386  0.0000E+00  0.4000E+01
    -24.219  0.0000E+00  0.4000E+01
    -24.052  0.0000E+00  0.4000E+01
    -23.885  0.0000E+00  0.4000E+01
    -23.718  0.0000E+00  0.1000E+02
    -23.551  0.0000E+00  0.1000E+02
    -23.384  0.0000E+00  0.1000E+02
    -23.217  0.0000E+00  0.1000E+02
    -23.050  0.0000E+00  0.1000E+02
    -22.883  0.0000E+00  0.1000E+02
    -22.716  0.0000E+00  0.1000E+02
    -22.549  0.0000E+00  0.1000E+02
    -22.382  0.0000E+00  0.1000E+02
    -22.215  0.0000E+00  0.1000E+02
    -22.048  0.0000E+00  0.1000E+02
    -21.881  0.0000E+00  0.1000E+02
    -21.714  0.0000E+00  0.1000E+02
    -21.547  0.0000E+00  0.1000E+02
    -21.380  0.0000E+00  0.1000E+02
    -21.213  0.0000E+00  0.1000E+02
    -21.046  0.0000E+00  0.1000E+02
    -20.879  0.0000E+00  0.1000E+02
    -20.712  0.0000E+00  0.1000E+02
    -20.545  0.0000E+00  0.1000E+02
    -20.378  0.0000E+00  0.1000E+02
    -20.211  0.0000E+00  0.1001E+02
    -20.044  0.0000E+00  0.1200E+02
    -19.877  0.0000E+00  0.1200E+02
    -19.710  0.0000E+00  0.1200E+02
    -19.542  0.0000E+00  0.1200E+02
    -19.375  0.0000E+00  0.1200E+02
    -19.208  0.0000E+00  0.1200E+02
    -19.041  0.0000E+00  0.1200E+02
    -18.874  0.0000E+00  0.1200E+02
    -18.707  0.0000E+00  0.1200E+02
    -18.540  0.0000E+00  0.1200E+02
    -18.373  0.0000E+00  0.1200E+02
    -18.206  0.0000E+00  0.1200E+02
    -18.039  0.0000E+00  0.1200E+02
    -17.872  0.0000E+00  0.1200E+02
    -17.705  0.0000E+00  0.1200E+02
    -17.538  0.0000E+00  0.1200E+02
    -17.371  0.0000E+00  0.1200E+02
    -17.204  0.0000E+00  0.1200E+02
    -17.037  0.0000E+00  0.1200E+02
    -16.870  0.0000E+00  0.1200E+02
    -16.703  0.0000E+00  0.1200E+02
    -16.536  0.0000E+00  0.1200E+02
    -16.369  0.0000E+00  0.1200E+02
    -16.202  0.0000E+00  0.1200E+02
    -16.035  0.0000E+00  0.1200E+02
    -15.868  0.0000E+00  0.1200E+02
    -15.701  0.0000E+00  0.1200E+02
    -15.534  0.0000E+00  0.1200E+02
    -15.367  0.0000E+00  0.1200E+02
    -15.200  0.0000E+00  0.1200E+02
    -15.033  0.0000E+00  0.1200E+02
    -14.866  0.0000E+00  0.1200E+02
    -14.699  0.0000E+00  0.1200E+02
    -14.532  0.0000E+00  0.1200E+02
    -14.365  0.0000E+00  0.1200E+02
    -14.198  0.0000E+00  0.1200E+02
    -14.030  0.0000E+00  0.1200E+02
    -13.863  0.0000E+00  0.1200E+02
    -13.696  0.0000E+00  0.1200E+02
    -13.529  0.0000E+00  0.1200E+02
    -13.362  0.0000E+00  0.1200E+02
    -13.195  0.0000E+00  0.1200E+02
    -13.028  0.0000E+00  0.1200E+02
    -12.861  0.0000E+00  0.1200E+02
    -12.694  0.0000E+00  0.1200E+02
    -12.527  0.0000E+00  0.1200E+02
    -12.360  0.0000E+00  0.1200E+02
    -12.193  0.0000E+00  0.1200E+02
    -12.026  0.0000E+00  0.1200E+02
    -11.859  0.0000E+00  0.1200E+02
    -11.692  0.0000E+00  0.1200E+02
    -11.525  0.0000E+00  0.1200E+02
    -11.358  0.0000E+00  0.1200E+02
    -11.191  0.0000E+00  0.1200E+02
    -11.024  0.0000E+00  0.1200E+02
    -10.857  0.0000E+00  0.1200E+02
    -10.690  0.0000E+00  0.1200E+02
    -10.523  0.0000E+00  0.1200E+02
    -10.356  0.0000E+00  0.1200E+02
    -10.189  0.0000E+00  0.1200E+02
    -10.022  0.0000E+00  0.1200E+02
     -9.855  0.0000E+00  0.1200E+02
     -9.688  0.0000E+00  0.1200E+02
     -9.521  0.0000E+00  0.1200E+02
     -9.354  0.0000E+00  0.1200E+02
     -9.187  0.0000E+00  0.1200E+02
     -9.020  0.0000E+00  0.1200E+02
     -8.853  0.0000E+00  0.1200E+02
     -8.686  0.0000E+00  0.1200E+02
     -8.518  0.0000E+00  0.1200E+02
     -8.351  0.0000E+00  0.1200E+02
     -8.184  0.0000E+00  0.1200E+02
     -8.017  0.0000E+00  0.1200E+02
     -7.850  0.0000E+00  0.1200E+02
     -7.683  0.0000E+00  0.1200E+02
     -7.516  0.0000E+00  0.1200E+02
     -7.349  0.1321E-01  0.1214E+02
     -7.182  0.1330E+01  0.1375E+02
     -7.015  0.2111E-09  0.1392E+02
     -6.848  0.0000E+00  0.1400E+02
     -6.681  0.0000E+00  0.1400E+02
     -6.514  0.0000E+00  0.1400E+02
     -6.347  0.0000E+00  0.1400E+02
     -6.180  0.0000E+00  0.1400E+02
     -6.013  0.0000E+00  0.1400E+02
     -5.846  0.0000E+00  0.1400E+02
     -5.679  0.0000E+00  0.1400E+02
     -5.512  0.0000E+00  0.1400E+02
     -5.345  0.0000E+00  0.1400E+02
     -5.178  0.0000E+00  0.1400E+02
     -5.011  0.0000E+00  0.1400E+02
     -4.844  0.0000E+00  0.1400E+02
     -4.677  0.0000E+00  0.1400E+02
     -4.510  0.0000E+00  0.1400E+02
     -4.343  0.0000E+00  0.1400E+02
     -4.176  0.0000E+00  0.1400E+02
     -4.009  0.0000E+00  0.1400E+02
     -3.842  0.0000E+00  0.1400E+02
     -3.675  0.0000E+00  0.1400E+02
     -3.508  0.0000E+00  0.1400E+02
     -3.341  0.0000E+00  0.1400E+02
     -3.174  0.0000E+00  0.1400E+02
     -3.006  0.0000E+00  0.1400E+02
     -2.839  0.0000E+00  0.1400E+02
     -2.672  0.0000E+00  0.1400E+02
     -2.505  0.0000E+00  0.1400E+02
     -2.338  0.0000E+00  0.1400E+02
     -2.171  0.0000E+00  0.1400E+02
     -2.004  0.0000E+00  0.1400E+02
     -1.837  0.0000E+00  0.1400E+02
     -1.670  0.0000E+00  0.1400E+02
     -1.503  0.0000E+00  0.1400E+02
     -1.336  0.0000E+00  0.1400E+02
     -1.169  0.0000E+00  0.1400E+02
     -1.002  0.0000E+00  0.1400E+02
     -0.835  0.0000E+00  0.1400E+02
     -0.668  0.0000E+00  0.1400E+02
     -0.501  0.0000E+00  0.1400E+02
     -0.334  0.0000E+00  0.1400E+02
     -0.167  0.0000E+00  0.1400E+02
      0.000  0.0000E+00  0.1400E+02
      0.167  0.0000E+00  0.1400E+02
      0.334  0.0000E+00  0.1400E+02
      0.501  0.0000E+00  0.1400E+02
      0.668  0.0000E+00  0.1400E+02
      0.835  0.9479E-01  0.1441E+02
      1.002  0.0000E+00  0.1540E+02
      1.169  0.0000E+00  0.1553E+02
      1.336  0.0000E+00  0.1575E+02
      1.503  0.0000E+00  0.1586E+02
      1.670  0.0000E+00  0.1586E+02
      1.837  0.0000E+00  0.1597E+02
      2.004  0.0000E+00  0.1619E+02
      2.171  0.7467E-12  0.1636E+02
      2.338  0.0000E+00  0.1669E+02
      2.506  0.0000E+00  0.1691E+02
      2.673  0.0000E+00  0.1696E+02
      2.840  0.0000E+00  0.1741E+02
      3.007  0.1547E-12  0.1741E+02
      3.174  0.0000E+00  0.1763E+02
      3.341  0.0000E+00  0.1774E+02
      3.508  0.1510E-06  0.1783E+02
      3.675  0.0000E+00  0.1791E+02
      3.842  0.0000E+00  0.1799E+02
      4.009  0.0000E+00  0.1801E+02
      4.176  0.0000E+00  0.1801E+02
      4.343  0.0000E+00  0.1801E+02
      4.510  0.0000E+00  0.1801E+02
      4.677  0.0000E+00  0.1801E+02
      4.844  0.0000E+00  0.1801E+02
      5.011  0.0000E+00  0.1801E+02
      5.178  0.0000E+00  0.1801E+02
      5.345  0.0000E+00  0.1801E+02
      5.512  0.0000E+00  0.1801E+02
      5.679  0.0000E+00  0.1808E+02
      5.846  0.0000E+00  0.1808E+02
      6.013  0.0000E+00  0.1808E+02
      6.180  0.0000E+00  0.1814E+02
      6.347  0.0000E+00  0.1828E+02
      6.514  0.0000E+00  0.1828E+02
      6.681  0.0000E+00  0.1839E+02
      6.848  0.6154E-17  0.1839E+02
      7.015  0.0000E+00  0.1889E+02
      7.182  0.0000E+00  0.1911E+02
      7.349  0.0000E+00  0.1944E+02
      7.516  0.0000E+00  0.1956E+02
      7.683  0.0000E+00  0.1978E+02
      7.851  0.0000E+00  0.2003E+02
      8.018  0.0000E+00  0.2003E+02
      8.185  0.0000E+00  0.2008E+02
      8.352  0.0000E+00  0.2008E+02
      8.519  0.0000E+00  0.2031E+02
      8.686  0.0000E+00  0.2031E+02
      8.853  0.0000E+00  0.2064E+02
      9.020  0.0000E+00  0.2119E+02
      9.187  0.0000E+00  0.2164E+02
      9.354  0.0000E+00  0.2169E+02
      9.521  0.0000E+00  0.2203E+02
      9.688  0.0000E+00  0.2225E+02
      9.855  0.0000E+00  0.2232E+02
     10.022  0.0000E+00  0.2238E+02
     10.189  0.0000E+00  0.2238E+02
     10.356  0.1330E+01  0.2286E+02
     10.523  0.3241E-03  0.2316E+02
     10.690  0.0000E+00  0.2355E+02
     10.857  0.0000E+00  0.2381E+02
     11.024  0.0000E+00  0.2385E+02
     11.191  0.0000E+00  0.2401E+02
     11.358  0.0000E+00  0.2431E+02
     11.525  0.0000E+00  0.2489E+02
     11.692  0.0000E+00  0.2544E+02
     11.859  0.6652E+00  0.2567E+02
     12.026  0.0000E+00  0.2567E+02
     12.193  0.0000E+00  0.2606E+02
     12.360  0.0000E+00  0.2606E+02
     12.527  0.0000E+00  0.2606E+02
     12.694  0.0000E+00  0.2617E+02
     12.861  0.0000E+00  0.2667E+02
     13.028  0.0000E+00  0.2711E+02
     13.195  0.0000E+00  0.2733E+02
     13.363  0.0000E+00  0.2733E+02
     13.530  0.0000E+00  0.2756E+02
     13.697  0.0000E+00  0.2756E+02
     13.864  0.3326E+00  0.2761E+02
     14.031  0.0000E+00  0.2794E+02
     14.198  0.0000E+00  0.2794E+02
     14.365  0.0000E+00  0.2794E+02
     14.532  0.0000E+00  0.2794E+02
     14.699  0.0000E+00  0.2794E+02
     14.866  0.0000E+00  0.2794E+02
     15.033  0.0000E+00  0.2794E+02
     15.200  0.0000E+00  0.2800E+02
     15.367  0.0000E+00  0.2800E+02
     15.534  0.0000E+00  0.2800E+02
     15.701  0.0000E+00  0.2800E+02
     15.868  0.0000E+00  0.2800E+02
     16.035  0.0000E+00  0.2800E+02
     16.202  0.0000E+00  0.2800E+02
     16.369  0.0000E+00  0.2800E+02
     16.536  0.0000E+00  0.2800E+02
     16.703  0.0000E+00  0.2800E+02
     16.870  0.0000E+00  0.2800E+02
     17.037  0.0000E+00  0.2800E+02
     17.204  0.0000E+00  0.2800E+02
     17.371  0.0000E+00  0.2800E+02
