   1   1   0   0
  0.5789729E+02  0.4342346E-09  0.4342346E-09  0.4342346E-09  0.1000000E-15
  1.000000000000000E-004
  CAR 
 Og_FCC                                  
     17.36896807    -32.73778961  301      3.94920096      1.00000000
    -32.738  0.0000E+00  0.0000E+00
    -32.571  0.0000E+00  0.0000E+00
    -32.404  0.0000E+00  0.0000E+00
    -32.237  0.0000E+00  0.0000E+00
    -32.070  0.0000E+00  0.0000E+00
    -31.903  0.0000E+00  0.0000E+00
    -31.736  0.0000E+00  0.0000E+00
    -31.569  0.0000E+00  0.0000E+00
    -31.402  0.0000E+00  0.0000E+00
    -31.235  0.0000E+00  0.0000E+00
    -31.068  0.0000E+00  0.0000E+00
    -30.901  0.0000E+00  0.0000E+00
    -30.734  0.0000E+00  0.0000E+00
    -30.566  0.0000E+00  0.0000E+00
    -30.399  0.0000E+00  0.4000E+01
    -30.232  0.0000E+00  0.4000E+01
    -30.065  0.0000E+00  0.4000E+01
    -29.898  0.0000E+00  0.4000E+01
    -29.731  0.0000E+00  0.4000E+01
    -29.564  0.0000E+00  0.4000E+01
    -29.397  0.0000E+00  0.4000E+01
    -29.230  0.0000E+00  0.4000E+01
    -29.063  0.0000E+00  0.4000E+01
    -28.896  0.0000E+00  0.4000E+01
    -28.729  0.0000E+00  0.4000E+01
    -28.562  0.0000E+00  0.4000E+01
    -28.395  0.0000E+00  0.4000E+01
    -28.228  0.0000E+00  0.4000E+01
    -28.061  0.0000E+00  0.4000E+01
    -27.894  0.0000E+00  0.4000E+01
    -27.727  0.0000E+00  0.4000E+01
    -27.560  0.0000E+00  0.4000E+01
    -27.393  0.0000E+00  0.4000E+01
    -27.226  0.0000E+00  0.4000E+01
    -27.059  0.0000E+00  0.4000E+01
    -26.892  0.0000E+00  0.4000E+01
    -26.725  0.0000E+00  0.4000E+01
    -26.558  0.0000E+00  0.4000E+01
    -26.391  0.0000E+00  0.4000E+01
    -26.224  0.0000E+00  0.4000E+01
    -26.057  0.0000E+00  0.4000E+01
    -25.890  0.0000E+00  0.4000E+01
    -25.723  0.0000E+00  0.4000E+01
    -25.556  0.0000E+00  0.4000E+01
    -25.389  0.0000E+00  0.4000E+01
    -25.222  0.0000E+00  0.4000E+01
    -25.055  0.0000E+00  0.4000E+01
    -24.888  0.0000E+00  0.4000E+01
    -24.721  0.0000E+00  0.4000E+01
    -24.554  0.0000E+00  0.4000E+01
    -24.387  0.0000E+00  0.4000E+01
    -24.220  0.0000E+00  0.4000E+01
    -24.053  0.0000E+00  0.4000E+01
    -23.886  0.0000E+00  0.4000E+01
    -23.719  0.0000E+00  0.1000E+02
    -23.552  0.0000E+00  0.1000E+02
    -23.385  0.0000E+00  0.1000E+02
    -23.218  0.0000E+00  0.1000E+02
    -23.050  0.0000E+00  0.1000E+02
    -22.883  0.0000E+00  0.1000E+02
    -22.716  0.0000E+00  0.1000E+02
    -22.549  0.0000E+00  0.1000E+02
    -22.382  0.0000E+00  0.1000E+02
    -22.215  0.0000E+00  0.1000E+02
    -22.048  0.0000E+00  0.1000E+02
    -21.881  0.0000E+00  0.1000E+02
    -21.714  0.0000E+00  0.1000E+02
    -21.547  0.0000E+00  0.1000E+02
    -21.380  0.0000E+00  0.1000E+02
    -21.213  0.0000E+00  0.1000E+02
    -21.046  0.0000E+00  0.1000E+02
    -20.879  0.0000E+00  0.1000E+02
    -20.712  0.0000E+00  0.1000E+02
    -20.545  0.0000E+00  0.1000E+02
    -20.378  0.0000E+00  0.1000E+02
    -20.211  0.0000E+00  0.1001E+02
    -20.044  0.0000E+00  0.1200E+02
    -19.877  0.0000E+00  0.1200E+02
    -19.710  0.0000E+00  0.1200E+02
    -19.543  0.0000E+00  0.1200E+02
    -19.376  0.0000E+00  0.1200E+02
    -19.209  0.0000E+00  0.1200E+02
    -19.042  0.0000E+00  0.1200E+02
    -18.875  0.0000E+00  0.1200E+02
    -18.708  0.0000E+00  0.1200E+02
    -18.541  0.0000E+00  0.1200E+02
    -18.374  0.0000E+00  0.1200E+02
    -18.207  0.0000E+00  0.1200E+02
    -18.040  0.0000E+00  0.1200E+02
    -17.873  0.0000E+00  0.1200E+02
    -17.706  0.0000E+00  0.1200E+02
    -17.539  0.0000E+00  0.1200E+02
    -17.372  0.0000E+00  0.1200E+02
    -17.205  0.0000E+00  0.1200E+02
    -17.038  0.0000E+00  0.1200E+02
    -16.871  0.0000E+00  0.1200E+02
    -16.704  0.0000E+00  0.1200E+02
    -16.537  0.0000E+00  0.1200E+02
    -16.370  0.0000E+00  0.1200E+02
    -16.203  0.0000E+00  0.1200E+02
    -16.036  0.0000E+00  0.1200E+02
    -15.869  0.0000E+00  0.1200E+02
    -15.701  0.0000E+00  0.1200E+02
    -15.534  0.0000E+00  0.1200E+02
    -15.367  0.0000E+00  0.1200E+02
    -15.200  0.0000E+00  0.1200E+02
    -15.033  0.0000E+00  0.1200E+02
    -14.866  0.0000E+00  0.1200E+02
    -14.699  0.0000E+00  0.1200E+02
    -14.532  0.0000E+00  0.1200E+02
    -14.365  0.0000E+00  0.1200E+02
    -14.198  0.0000E+00  0.1200E+02
    -14.031  0.0000E+00  0.1200E+02
    -13.864  0.0000E+00  0.1200E+02
    -13.697  0.0000E+00  0.1200E+02
    -13.530  0.0000E+00  0.1200E+02
    -13.363  0.0000E+00  0.1200E+02
    -13.196  0.0000E+00  0.1200E+02
    -13.029  0.0000E+00  0.1200E+02
    -12.862  0.0000E+00  0.1200E+02
    -12.695  0.0000E+00  0.1200E+02
    -12.528  0.0000E+00  0.1200E+02
    -12.361  0.0000E+00  0.1200E+02
    -12.194  0.0000E+00  0.1200E+02
    -12.027  0.0000E+00  0.1200E+02
    -11.860  0.0000E+00  0.1200E+02
    -11.693  0.0000E+00  0.1200E+02
    -11.526  0.0000E+00  0.1200E+02
    -11.359  0.0000E+00  0.1200E+02
    -11.192  0.0000E+00  0.1200E+02
    -11.025  0.0000E+00  0.1200E+02
    -10.858  0.0000E+00  0.1200E+02
    -10.691  0.0000E+00  0.1200E+02
    -10.524  0.0000E+00  0.1200E+02
    -10.357  0.0000E+00  0.1200E+02
    -10.190  0.0000E+00  0.1200E+02
    -10.023  0.0000E+00  0.1200E+02
     -9.856  0.0000E+00  0.1200E+02
     -9.689  0.0000E+00  0.1200E+02
     -9.522  0.0000E+00  0.1200E+02
     -9.355  0.0000E+00  0.1200E+02
     -9.188  0.0000E+00  0.1200E+02
     -9.021  0.0000E+00  0.1200E+02
     -8.854  0.0000E+00  0.1200E+02
     -8.687  0.0000E+00  0.1200E+02
     -8.520  0.0000E+00  0.1200E+02
     -8.353  0.0000E+00  0.1200E+02
     -8.185  0.0000E+00  0.1200E+02
     -8.018  0.0000E+00  0.1200E+02
     -7.851  0.0000E+00  0.1200E+02
     -7.684  0.0000E+00  0.1200E+02
     -7.517  0.0000E+00  0.1200E+02
     -7.350  0.8298E-04  0.1214E+02
     -7.183  0.1300E+01  0.1374E+02
     -7.016  0.3945E-14  0.1392E+02
     -6.849  0.0000E+00  0.1400E+02
     -6.682  0.0000E+00  0.1400E+02
     -6.515  0.0000E+00  0.1400E+02
     -6.348  0.0000E+00  0.1400E+02
     -6.181  0.0000E+00  0.1400E+02
     -6.014  0.0000E+00  0.1400E+02
     -5.847  0.0000E+00  0.1400E+02
     -5.680  0.0000E+00  0.1400E+02
     -5.513  0.0000E+00  0.1400E+02
     -5.346  0.0000E+00  0.1400E+02
     -5.179  0.0000E+00  0.1400E+02
     -5.012  0.0000E+00  0.1400E+02
     -4.845  0.0000E+00  0.1400E+02
     -4.678  0.0000E+00  0.1400E+02
     -4.511  0.0000E+00  0.1400E+02
     -4.344  0.0000E+00  0.1400E+02
     -4.177  0.0000E+00  0.1400E+02
     -4.010  0.0000E+00  0.1400E+02
     -3.843  0.0000E+00  0.1400E+02
     -3.676  0.0000E+00  0.1400E+02
     -3.509  0.0000E+00  0.1400E+02
     -3.342  0.0000E+00  0.1400E+02
     -3.175  0.0000E+00  0.1400E+02
     -3.008  0.0000E+00  0.1400E+02
     -2.841  0.0000E+00  0.1400E+02
     -2.674  0.0000E+00  0.1400E+02
     -2.507  0.0000E+00  0.1400E+02
     -2.340  0.0000E+00  0.1400E+02
     -2.173  0.0000E+00  0.1400E+02
     -2.006  0.0000E+00  0.1400E+02
     -1.839  0.0000E+00  0.1400E+02
     -1.672  0.0000E+00  0.1400E+02
     -1.505  0.0000E+00  0.1400E+02
     -1.338  0.0000E+00  0.1400E+02
     -1.171  0.0000E+00  0.1400E+02
     -1.004  0.0000E+00  0.1400E+02
     -0.836  0.0000E+00  0.1400E+02
     -0.669  0.0000E+00  0.1400E+02
     -0.502  0.0000E+00  0.1400E+02
     -0.335  0.0000E+00  0.1400E+02
     -0.168  0.0000E+00  0.1400E+02
     -0.001  0.0000E+00  0.1400E+02
      0.166  0.0000E+00  0.1400E+02
      0.333  0.0000E+00  0.1400E+02
      0.500  0.0000E+00  0.1400E+02
      0.667  0.0000E+00  0.1400E+02
      0.834  0.5202E-03  0.1440E+02
      1.001  0.0000E+00  0.1540E+02
      1.168  0.0000E+00  0.1553E+02
      1.335  0.0000E+00  0.1575E+02
      1.502  0.0000E+00  0.1586E+02
      1.669  0.0000E+00  0.1586E+02
      1.836  0.0000E+00  0.1597E+02
      2.003  0.0000E+00  0.1619E+02
      2.170  0.0000E+00  0.1636E+02
      2.337  0.0000E+00  0.1669E+02
      2.504  0.0000E+00  0.1691E+02
      2.671  0.0000E+00  0.1696E+02
      2.838  0.0000E+00  0.1741E+02
      3.005  0.0000E+00  0.1741E+02
      3.172  0.0000E+00  0.1763E+02
      3.339  0.0000E+00  0.1774E+02
      3.506  0.2416E-12  0.1783E+02
      3.673  0.0000E+00  0.1791E+02
      3.840  0.0000E+00  0.1799E+02
      4.007  0.0000E+00  0.1801E+02
      4.174  0.0000E+00  0.1801E+02
      4.341  0.0000E+00  0.1801E+02
      4.508  0.0000E+00  0.1801E+02
      4.675  0.0000E+00  0.1801E+02
      4.842  0.0000E+00  0.1801E+02
      5.009  0.0000E+00  0.1801E+02
      5.176  0.0000E+00  0.1801E+02
      5.343  0.0000E+00  0.1801E+02
      5.510  0.0000E+00  0.1801E+02
      5.677  0.0000E+00  0.1808E+02
      5.844  0.0000E+00  0.1808E+02
      6.011  0.0000E+00  0.1808E+02
      6.178  0.0000E+00  0.1814E+02
      6.345  0.0000E+00  0.1828E+02
      6.513  0.0000E+00  0.1828E+02
      6.680  0.0000E+00  0.1839E+02
      6.847  0.0000E+00  0.1839E+02
      7.014  0.0000E+00  0.1889E+02
      7.181  0.0000E+00  0.1911E+02
      7.348  0.0000E+00  0.1944E+02
      7.515  0.0000E+00  0.1956E+02
      7.682  0.0000E+00  0.1978E+02
      7.849  0.0000E+00  0.2003E+02
      8.016  0.0000E+00  0.2003E+02
      8.183  0.0000E+00  0.2008E+02
      8.350  0.0000E+00  0.2008E+02
      8.517  0.0000E+00  0.2031E+02
      8.684  0.0000E+00  0.2031E+02
      8.851  0.6652E+00  0.2064E+02
      9.018  0.0000E+00  0.2119E+02
      9.185  0.0000E+00  0.2164E+02
      9.352  0.0000E+00  0.2169E+02
      9.519  0.0000E+00  0.2203E+02
      9.686  0.0000E+00  0.2225E+02
      9.853  0.0000E+00  0.2232E+02
     10.020  0.0000E+00  0.2238E+02
     10.187  0.0000E+00  0.2238E+02
     10.354  0.1330E+01  0.2286E+02
     10.521  0.2319E-08  0.2316E+02
     10.688  0.0000E+00  0.2355E+02
     10.855  0.0000E+00  0.2381E+02
     11.022  0.0000E+00  0.2385E+02
     11.189  0.0000E+00  0.2401E+02
     11.356  0.0000E+00  0.2431E+02
     11.523  0.0000E+00  0.2489E+02
     11.690  0.0000E+00  0.2544E+02
     11.857  0.6652E+00  0.2567E+02
     12.024  0.0000E+00  0.2567E+02
     12.191  0.0000E+00  0.2606E+02
     12.358  0.0000E+00  0.2606E+02
     12.525  0.0000E+00  0.2606E+02
     12.692  0.0000E+00  0.2617E+02
     12.859  0.0000E+00  0.2667E+02
     13.026  0.0000E+00  0.2711E+02
     13.193  0.0000E+00  0.2733E+02
     13.360  0.0000E+00  0.2733E+02
     13.527  0.0000E+00  0.2756E+02
     13.694  0.0000E+00  0.2756E+02
     13.861  0.3116E+00  0.2761E+02
     14.029  0.0000E+00  0.2794E+02
     14.196  0.0000E+00  0.2794E+02
     14.363  0.0000E+00  0.2794E+02
     14.530  0.0000E+00  0.2794E+02
     14.697  0.0000E+00  0.2794E+02
     14.864  0.0000E+00  0.2794E+02
     15.031  0.0000E+00  0.2794E+02
     15.198  0.0000E+00  0.2800E+02
     15.365  0.0000E+00  0.2800E+02
     15.532  0.0000E+00  0.2800E+02
     15.699  0.0000E+00  0.2800E+02
     15.866  0.0000E+00  0.2800E+02
     16.033  0.0000E+00  0.2800E+02
     16.200  0.0000E+00  0.2800E+02
     16.367  0.0000E+00  0.2800E+02
     16.534  0.0000E+00  0.2800E+02
     16.701  0.0000E+00  0.2800E+02
     16.868  0.0000E+00  0.2800E+02
     17.035  0.0000E+00  0.2800E+02
     17.202  0.0000E+00  0.2800E+02
     17.369  0.0000E+00  0.2800E+02
