    1    1    1    1
  0.6156630E+02  0.4432200E-09  0.4432200E-09  0.4432200E-09  0.1000000E-15
  1.000000000000000E-004
  CAR 
 Og_FCC                                  
      8    216    128
 
  0.0000000E+00  0.0000000E+00  0.0000000E+00  0.4629630E-02
    1      -17.164102   1.000000
    2      -17.164102   1.000000
    3       -5.347263   1.000000
    4       -5.347263   1.000000
    5       -4.011915   1.000000
    6       -4.011915   1.000000
    7       -4.011895   1.000000
    8       -4.011895   1.000000
    9        2.440007   0.000000
   10        2.440007   0.000000
   11        7.026353   0.000000
   12        7.026353   0.000000
   13        7.026371   0.000000
   14        7.026371   0.000000
   15        7.083419   0.000000
   16        7.083419   0.000000
   17        9.240710   0.000000
   18        9.240710   0.000000
   19        9.240713   0.000000
   20        9.240713   0.000000
   21        9.687613   0.000000
   22        9.687614   0.000000
   23       11.896277   0.000000
   24       11.896277   0.000000
   25       11.935383   0.000000
   26       11.935383   0.000000
   27       11.935476   0.000000
   28       11.935476   0.000000
   29       13.813819   0.000000
   30       13.813819   0.000000
   31       19.660286   0.000000
   32       19.660286   0.000000
   33       19.672115   0.000000
   34       19.672115   0.000000
   35       19.672179   0.000000
   36       19.672179   0.000000
   37       21.915604   0.000000
   38       21.915604   0.000000
   39       22.370339   0.000000
   40       22.370339   0.000000
   41       22.370341   0.000000
   42       22.370341   0.000000
   43       23.525799   0.000000
   44       23.525799   0.000000
   45       23.554624   0.000000
   46       23.554624   0.000000
   47       23.554688   0.000000
   48       23.554689   0.000000
   49       23.686280   0.000000
   50       23.686280   0.000000
   51       25.008711   0.000000
   52       25.008712   0.000000
   53       25.372600   0.000000
   54       25.372600   0.000000
   55       25.372610   0.000000
   56       25.372610   0.000000
   57       25.901638   0.000000
   58       25.901638   0.000000
   59       25.901663   0.000000
   60       25.901663   0.000000
   61       27.951820   0.000000
   62       27.951820   0.000000
   63       33.477703   0.000000
   64       33.477703   0.000000
   65       33.490062   0.000000
   66       33.490062   0.000000
   67       33.490257   0.000000
   68       33.490258   0.000000
   69       35.044574   0.000000
   70       35.044574   0.000000
   71       35.044584   0.000000
   72       35.044584   0.000000
   73       36.372203   0.000000
   74       36.372203   0.000000
   75       36.842812   0.000000
   76       36.842812   0.000000
   77       36.842852   0.000000
   78       36.842852   0.000000
   79       36.923658   0.000000
   80       36.923658   0.000000
   81       36.923729   0.000000
   82       36.923729   0.000000
   83       36.996648   0.000000
   84       36.996649   0.000000
   85       39.031696   0.000000
   86       39.031696   0.000000
   87       39.031702   0.000000
   88       39.031702   0.000000
   89       39.031801   0.000000
   90       39.031801   0.000000
   91       40.557901   0.000000
   92       40.557901   0.000000
   93       40.599228   0.000000
   94       40.599229   0.000000
   95       40.599360   0.000000
   96       40.599360   0.000000
   97       40.599840   0.000000
   98       40.599840   0.000000
   99       41.636808   0.000000
  100       41.636808   0.000000
  101       41.636810   0.000000
  102       41.636811   0.000000
  103       42.713410   0.000000
  104       42.713410   0.000000
  105       43.008411   0.000000
  106       43.008411   0.000000
  107       43.013369   0.000000
  108       43.013369   0.000000
  109       43.013596   0.000000
  110       43.013596   0.000000
  111       43.091705   0.000000
  112       43.091705   0.000000
  113       43.091736   0.000000
  114       43.091736   0.000000
  115       43.100494   0.000000
  116       43.100494   0.000000
  117       44.247221   0.000000
  118       44.247221   0.000000
  119       44.247273   0.000000
  120       44.247273   0.000000
  121       44.253073   0.000000
  122       44.253073   0.000000
  123       44.262196   0.000000
  124       44.262196   0.000000
  125       45.764364   0.000000
  126       45.764364   0.000000
  127       45.767927   0.000000
  128       45.767927   0.000000
 
  0.1666667E+00  0.1535160E-17  0.6938894E-17  0.4629630E-02
    1      -17.115195   1.000000
    2      -17.115195   1.000000
    3       -5.522394   1.000000
    4       -5.522394   1.000000
    5       -4.327141   1.000000
    6       -4.327141   1.000000
    7       -4.062678   1.000000
    8       -4.062678   1.000000
    9        3.111140   0.000000
   10        3.111140   0.000000
   11        6.379045   0.000000
   12        6.379045   0.000000
   13        7.226678   0.000000
   14        7.226678   0.000000
   15        7.284610   0.000000
   16        7.284610   0.000000
   17        8.727511   0.000000
   18        8.727511   0.000000
   19        8.760607   0.000000
   20        8.760607   0.000000
   21       10.405903   0.000000
   22       10.405903   0.000000
   23       11.579669   0.000000
   24       11.579669   0.000000
   25       13.341315   0.000000
   26       13.341315   0.000000
   27       13.361255   0.000000
   28       13.361255   0.000000
   29       15.825732   0.000000
   30       15.825732   0.000000
   31       18.194915   0.000000
   32       18.194915   0.000000
   33       18.251611   0.000000
   34       18.251611   0.000000
   35       19.041352   0.000000
   36       19.041352   0.000000
   37       19.728443   0.000000
   38       19.728443   0.000000
   39       21.447445   0.000000
   40       21.447445   0.000000
   41       21.699120   0.000000
   42       21.699120   0.000000
   43       23.245541   0.000000
   44       23.245541   0.000000
   45       23.839818   0.000000
   46       23.839818   0.000000
   47       23.850922   0.000000
   48       23.850922   0.000000
   49       23.960928   0.000000
   50       23.960928   0.000000
   51       24.734940   0.000000
   52       24.734940   0.000000
   53       24.753847   0.000000
   54       24.753847   0.000000
   55       25.913797   0.000000
   56       25.913797   0.000000
   57       27.369092   0.000000
   58       27.369092   0.000000
   59       27.563024   0.000000
   60       27.563024   0.000000
   61       30.101947   0.000000
   62       30.101947   0.000000
   63       32.054578   0.000000
   64       32.054578   0.000000
   65       32.122396   0.000000
   66       32.122396   0.000000
   67       32.548562   0.000000
   68       32.548563   0.000000
   69       33.151125   0.000000
   70       33.151125   0.000000
   71       34.601870   0.000000
   72       34.601870   0.000000
   73       34.665529   0.000000
   74       34.665529   0.000000
   75       35.743659   0.000000
   76       35.743659   0.000000
   77       35.779138   0.000000
   78       35.779138   0.000000
   79       37.140293   0.000000
   80       37.140293   0.000000
   81       37.147479   0.000000
   82       37.147479   0.000000
   83       37.271954   0.000000
   84       37.271954   0.000000
   85       37.909136   0.000000
   86       37.909136   0.000000
   87       38.163842   0.000000
   88       38.163842   0.000000
   89       38.430380   0.000000
   90       38.430380   0.000000
   91       38.438764   0.000000
   92       38.438765   0.000000
   93       39.582442   0.000000
   94       39.582442   0.000000
   95       39.734352   0.000000
   96       39.734352   0.000000
   97       40.099681   0.000000
   98       40.099681   0.000000
   99       42.220240   0.000000
  100       42.220240   0.000000
  101       42.239523   0.000000
  102       42.239524   0.000000
  103       42.245437   0.000000
  104       42.245437   0.000000
  105       44.152344   0.000000
  106       44.152344   0.000000
  107       44.217748   0.000000
  108       44.217748   0.000000
  109       44.236546   0.000000
  110       44.236546   0.000000
  111       44.465489   0.000000
  112       44.465490   0.000000
  113       45.118255   0.000000
  114       45.118255   0.000000
  115       45.434888   0.000000
  116       45.434888   0.000000
  117       45.465092   0.000000
  118       45.465092   0.000000
  119       47.067274   0.000000
  120       47.067275   0.000000
  121       47.406880   0.000000
  122       47.406880   0.000000
  123       47.412592   0.000000
  124       47.412592   0.000000
  125       47.725750   0.000000
  126       47.725750   0.000000
  127       47.729700   0.000000
  128       47.729700   0.000000
 
  0.3333333E+00 -0.2468525E-16  0.2775558E-16  0.4629630E-02
    1      -17.015023   1.000000
    2      -17.015023   1.000000
    3       -5.967947   1.000000
    4       -5.967947   1.000000
    5       -4.710662   1.000000
    6       -4.710662   1.000000
    7       -4.160225   1.000000
    8       -4.160225   1.000000
    9        3.927132   0.000000
   10        3.927132   0.000000
   11        6.433933   0.000000
   12        6.433934   0.000000
   13        6.927327   0.000000
   14        6.927327   0.000000
   15        6.989505   0.000000
   16        6.989505   0.000000
   17        9.557031   0.000000
   18        9.557031   0.000000
   19        9.606502   0.000000
   20        9.606502   0.000000
   21        9.613247   0.000000
   22        9.613247   0.000000
   23       14.435416   0.000000
   24       14.435416   0.000000
   25       15.061715   0.000000
   26       15.061715   0.000000
   27       15.168361   0.000000
   28       15.168361   0.000000
   29       15.297039   0.000000
   30       15.297039   0.000000
   31       16.074615   0.000000
   32       16.074615   0.000000
   33       16.105830   0.000000
   34       16.105830   0.000000
   35       19.130108   0.000000
   36       19.130108   0.000000
   37       19.839606   0.000000
   38       19.839606   0.000000
   39       21.350595   0.000000
   40       21.350595   0.000000
   41       21.491760   0.000000
   42       21.491760   0.000000
   43       21.906968   0.000000
   44       21.906968   0.000000
   45       22.702839   0.000000
   46       22.702839   0.000000
   47       22.841423   0.000000
   48       22.841424   0.000000
   49       24.086028   0.000000
   50       24.086028   0.000000
   51       25.144078   0.000000
   52       25.144078   0.000000
   53       25.202877   0.000000
   54       25.202877   0.000000
   55       25.769541   0.000000
   56       25.769541   0.000000
   57       27.541804   0.000000
   58       27.541804   0.000000
   59       27.653949   0.000000
   60       27.653949   0.000000
   61       28.307462   0.000000
   62       28.307462   0.000000
   63       30.407880   0.000000
   64       30.407880   0.000000
   65       30.454047   0.000000
   66       30.454047   0.000000
   67       31.457896   0.000000
   68       31.457897   0.000000
   69       32.449603   0.000000
   70       32.449603   0.000000
   71       32.818233   0.000000
   72       32.818233   0.000000
   73       32.894033   0.000000
   74       32.894033   0.000000
   75       34.252301   0.000000
   76       34.252302   0.000000
   77       35.060284   0.000000
   78       35.060284   0.000000
   79       35.103861   0.000000
   80       35.103861   0.000000
   81       37.294586   0.000000
   82       37.294586   0.000000
   83       37.479307   0.000000
   84       37.479307   0.000000
   85       37.491468   0.000000
   86       37.491468   0.000000
   87       38.226595   0.000000
   88       38.226595   0.000000
   89       38.646511   0.000000
   90       38.646511   0.000000
   91       38.764804   0.000000
   92       38.764804   0.000000
   93       40.157265   0.000000
   94       40.157266   0.000000
   95       40.922003   0.000000
   96       40.922003   0.000000
   97       40.958357   0.000000
   98       40.958357   0.000000
   99       42.254647   0.000000
  100       42.254647   0.000000
  101       43.368837   0.000000
  102       43.368837   0.000000
  103       43.403071   0.000000
  104       43.403071   0.000000
  105       44.943309   0.000000
  106       44.943309   0.000000
  107       47.464687   0.000000
  108       47.464687   0.000000
  109       47.503873   0.000000
  110       47.503873   0.000000
  111       48.128364   0.000000
  112       48.128364   0.000000
  113       48.390889   0.000000
  114       48.390889   0.000000
  115       48.410112   0.000000
  116       48.410112   0.000000
  117       49.254055   0.000000
  118       49.254055   0.000000
  119       50.383132   0.000000
  120       50.383133   0.000000
  121       50.481135   0.000000
  122       50.481135   0.000000
  123       50.565272   0.000000
  124       50.565272   0.000000
  125       51.420257   0.000000
  126       51.420257   0.000000
  127       51.663653   0.000000
  128       51.663653   0.000000
 
  0.5000000E+00  0.4605481E-17  0.5551115E-16  0.4629630E-02
    1      -16.962329   1.000000
    2      -16.962329   1.000000
    3       -6.215748   1.000000
    4       -6.215748   1.000000
    5       -4.828436   1.000000
    6       -4.828436   1.000000
    7       -4.207049   1.000000
    8       -4.207049   1.000000
    9        3.978513   0.000000
   10        3.978514   0.000000
   11        6.669750   0.000000
   12        6.669750   0.000000
   13        6.727806   0.000000
   14        6.727806   0.000000
   15        7.023471   0.000000
   16        7.023471   0.000000
   17        9.761101   0.000000
   18        9.761101   0.000000
   19       11.051347   0.000000
   20       11.051347   0.000000
   21       11.099679   0.000000
   22       11.099679   0.000000
   23       12.952559   0.000000
   24       12.952559   0.000000
   25       12.972499   0.000000
   26       12.972499   0.000000
   27       13.050091   0.000000
   28       13.050091   0.000000
   29       17.620953   0.000000
   30       17.620953   0.000000
   31       18.195553   0.000000
   32       18.195553   0.000000
   33       18.217087   0.000000
   34       18.217087   0.000000
   35       19.295932   0.000000
   36       19.295933   0.000000
   37       19.927617   0.000000
   38       19.927617   0.000000
   39       20.502992   0.000000
   40       20.502992   0.000000
   41       20.550727   0.000000
   42       20.550727   0.000000
   43       21.322452   0.000000
   44       21.322452   0.000000
   45       21.927092   0.000000
   46       21.927092   0.000000
   47       22.257502   0.000000
   48       22.257502   0.000000
   49       24.812753   0.000000
   50       24.812753   0.000000
   51       24.912849   0.000000
   52       24.912849   0.000000
   53       25.934020   0.000000
   54       25.934020   0.000000
   55       26.020060   0.000000
   56       26.020060   0.000000
   57       26.290999   0.000000
   58       26.290999   0.000000
   59       26.407899   0.000000
   60       26.407899   0.000000
   61       27.576458   0.000000
   62       27.576458   0.000000
   63       28.424326   0.000000
   64       28.424326   0.000000
   65       30.974608   0.000000
   66       30.974608   0.000000
   67       30.994893   0.000000
   68       30.994893   0.000000
   69       31.316242   0.000000
   70       31.316242   0.000000
   71       31.434671   0.000000
   72       31.434671   0.000000
   73       32.117124   0.000000
   74       32.117124   0.000000
   75       34.502032   0.000000
   76       34.502032   0.000000
   77       34.816009   0.000000
   78       34.816009   0.000000
   79       34.839740   0.000000
   80       34.839740   0.000000
   81       37.278447   0.000000
   82       37.278447   0.000000
   83       37.284482   0.000000
   84       37.284482   0.000000
   85       37.321967   0.000000
   86       37.321967   0.000000
   87       38.868176   0.000000
   88       38.868177   0.000000
   89       39.162064   0.000000
   90       39.162064   0.000000
   91       39.327410   0.000000
   92       39.327410   0.000000
   93       42.172178   0.000000
   94       42.172179   0.000000
   95       43.293305   0.000000
   96       43.293305   0.000000
   97       43.373495   0.000000
   98       43.373495   0.000000
   99       43.738659   0.000000
  100       43.738659   0.000000
  101       44.579052   0.000000
  102       44.579052   0.000000
  103       45.137988   0.000000
  104       45.137988   0.000000
  105       45.163653   0.000000
  106       45.163653   0.000000
  107       47.173487   0.000000
  108       47.173487   0.000000
  109       47.299719   0.000000
  110       47.299719   0.000000
  111       47.630468   0.000000
  112       47.630468   0.000000
  113       49.112045   0.000000
  114       49.112045   0.000000
  115       49.113320   0.000000
  116       49.113320   0.000000
  117       49.510149   0.000000
  118       49.510149   0.000000
  119       51.443468   0.000000
  120       51.443468   0.000000
  121       51.473267   0.000000
  122       51.473267   0.000000
  123       52.843078   0.000000
  124       52.843078   0.000000
  125       52.858580   0.000000
  126       52.858581   0.000000
  127       53.490366   0.000000
  128       53.490367   0.000000
 
 -0.3333333E+00 -0.3070321E-17 -0.1387779E-16  0.4629630E-02
    1      -17.015023   1.000000
    2      -17.015023   1.000000
    3       -5.967947   1.000000
    4       -5.967947   1.000000
    5       -4.710662   1.000000
    6       -4.710662   1.000000
    7       -4.160225   1.000000
    8       -4.160225   1.000000
    9        3.927132   0.000000
   10        3.927132   0.000000
   11        6.433933   0.000000
   12        6.433934   0.000000
   13        6.927327   0.000000
   14        6.927327   0.000000
   15        6.989505   0.000000
   16        6.989505   0.000000
   17        9.557031   0.000000
   18        9.557031   0.000000
   19        9.606502   0.000000
   20        9.606502   0.000000
   21        9.613247   0.000000
   22        9.613247   0.000000
   23       14.435416   0.000000
   24       14.435416   0.000000
   25       15.061715   0.000000
   26       15.061715   0.000000
   27       15.168361   0.000000
   28       15.168361   0.000000
   29       15.297039   0.000000
   30       15.297039   0.000000
   31       16.074615   0.000000
   32       16.074615   0.000000
   33       16.105830   0.000000
   34       16.105830   0.000000
   35       19.130108   0.000000
   36       19.130108   0.000000
   37       19.839606   0.000000
   38       19.839606   0.000000
   39       21.350595   0.000000
   40       21.350595   0.000000
   41       21.491760   0.000000
   42       21.491760   0.000000
   43       21.906968   0.000000
   44       21.906968   0.000000
   45       22.702839   0.000000
   46       22.702839   0.000000
   47       22.841423   0.000000
   48       22.841424   0.000000
   49       24.086028   0.000000
   50       24.086028   0.000000
   51       25.144078   0.000000
   52       25.144078   0.000000
   53       25.202877   0.000000
   54       25.202877   0.000000
   55       25.769541   0.000000
   56       25.769541   0.000000
   57       27.541804   0.000000
   58       27.541804   0.000000
   59       27.653949   0.000000
   60       27.653949   0.000000
   61       28.307462   0.000000
   62       28.307462   0.000000
   63       30.407880   0.000000
   64       30.407880   0.000000
   65       30.454047   0.000000
   66       30.454047   0.000000
   67       31.457896   0.000000
   68       31.457897   0.000000
   69       32.449603   0.000000
   70       32.449603   0.000000
   71       32.818233   0.000000
   72       32.818233   0.000000
   73       32.894033   0.000000
   74       32.894033   0.000000
   75       34.252301   0.000000
   76       34.252302   0.000000
   77       35.060284   0.000000
   78       35.060284   0.000000
   79       35.103861   0.000000
   80       35.103861   0.000000
   81       37.294586   0.000000
   82       37.294586   0.000000
   83       37.479307   0.000000
   84       37.479307   0.000000
   85       37.491468   0.000000
   86       37.491468   0.000000
   87       38.226595   0.000000
   88       38.226595   0.000000
   89       38.646511   0.000000
   90       38.646511   0.000000
   91       38.764804   0.000000
   92       38.764804   0.000000
   93       40.157265   0.000000
   94       40.157266   0.000000
   95       40.922003   0.000000
   96       40.922003   0.000000
   97       40.958357   0.000000
   98       40.958357   0.000000
   99       42.254647   0.000000
  100       42.254647   0.000000
  101       43.368837   0.000000
  102       43.368837   0.000000
  103       43.403071   0.000000
  104       43.403071   0.000000
  105       44.943309   0.000000
  106       44.943309   0.000000
  107       47.464687   0.000000
  108       47.464687   0.000000
  109       47.503873   0.000000
  110       47.503873   0.000000
  111       48.128364   0.000000
  112       48.128364   0.000000
  113       48.390889   0.000000
  114       48.390889   0.000000
  115       48.410112   0.000000
  116       48.410112   0.000000
  117       49.254055   0.000000
  118       49.254055   0.000000
  119       50.383132   0.000000
  120       50.383133   0.000000
  121       50.481135   0.000000
  122       50.481135   0.000000
  123       50.565272   0.000000
  124       50.565272   0.000000
  125       51.420257   0.000000
  126       51.420257   0.000000
  127       51.663653   0.000000
  128       51.663653   0.000000
 
 -0.1666667E+00 -0.1535160E-17 -0.6938894E-17  0.4629630E-02
    1      -17.115195   1.000000
    2      -17.115195   1.000000
    3       -5.522394   1.000000
    4       -5.522394   1.000000
    5       -4.327141   1.000000
    6       -4.327141   1.000000
    7       -4.062678   1.000000
    8       -4.062678   1.000000
    9        3.111140   0.000000
   10        3.111140   0.000000
   11        6.379045   0.000000
   12        6.379045   0.000000
   13        7.226678   0.000000
   14        7.226678   0.000000
   15        7.284610   0.000000
   16        7.284610   0.000000
   17        8.727511   0.000000
   18        8.727511   0.000000
   19        8.760607   0.000000
   20        8.760607   0.000000
   21       10.405903   0.000000
   22       10.405903   0.000000
   23       11.579669   0.000000
   24       11.579669   0.000000
   25       13.341315   0.000000
   26       13.341315   0.000000
   27       13.361255   0.000000
   28       13.361255   0.000000
   29       15.825732   0.000000
   30       15.825732   0.000000
   31       18.194915   0.000000
   32       18.194915   0.000000
   33       18.251611   0.000000
   34       18.251611   0.000000
   35       19.041352   0.000000
   36       19.041352   0.000000
   37       19.728443   0.000000
   38       19.728443   0.000000
   39       21.447445   0.000000
   40       21.447445   0.000000
   41       21.699120   0.000000
   42       21.699120   0.000000
   43       23.245541   0.000000
   44       23.245541   0.000000
   45       23.839818   0.000000
   46       23.839818   0.000000
   47       23.850922   0.000000
   48       23.850922   0.000000
   49       23.960928   0.000000
   50       23.960928   0.000000
   51       24.734940   0.000000
   52       24.734940   0.000000
   53       24.753847   0.000000
   54       24.753847   0.000000
   55       25.913797   0.000000
   56       25.913797   0.000000
   57       27.369092   0.000000
   58       27.369092   0.000000
   59       27.563024   0.000000
   60       27.563024   0.000000
   61       30.101947   0.000000
   62       30.101947   0.000000
   63       32.054578   0.000000
   64       32.054578   0.000000
   65       32.122396   0.000000
   66       32.122396   0.000000
   67       32.548562   0.000000
   68       32.548563   0.000000
   69       33.151125   0.000000
   70       33.151125   0.000000
   71       34.601870   0.000000
   72       34.601870   0.000000
   73       34.665529   0.000000
   74       34.665529   0.000000
   75       35.743659   0.000000
   76       35.743659   0.000000
   77       35.779138   0.000000
   78       35.779138   0.000000
   79       37.140293   0.000000
   80       37.140293   0.000000
   81       37.147479   0.000000
   82       37.147479   0.000000
   83       37.271954   0.000000
   84       37.271954   0.000000
   85       37.909136   0.000000
   86       37.909136   0.000000
   87       38.163842   0.000000
   88       38.163842   0.000000
   89       38.430380   0.000000
   90       38.430380   0.000000
   91       38.438764   0.000000
   92       38.438765   0.000000
   93       39.582442   0.000000
   94       39.582442   0.000000
   95       39.734352   0.000000
   96       39.734352   0.000000
   97       40.099681   0.000000
   98       40.099681   0.000000
   99       42.220240   0.000000
  100       42.220240   0.000000
  101       42.239523   0.000000
  102       42.239524   0.000000
  103       42.245437   0.000000
  104       42.245437   0.000000
  105       44.152344   0.000000
  106       44.152344   0.000000
  107       44.217748   0.000000
  108       44.217748   0.000000
  109       44.236546   0.000000
  110       44.236546   0.000000
  111       44.465489   0.000000
  112       44.465490   0.000000
  113       45.118255   0.000000
  114       45.118255   0.000000
  115       45.434888   0.000000
  116       45.434888   0.000000
  117       45.465092   0.000000
  118       45.465092   0.000000
  119       47.067274   0.000000
  120       47.067275   0.000000
  121       47.406880   0.000000
  122       47.406880   0.000000
  123       47.412592   0.000000
  124       47.412592   0.000000
  125       47.725750   0.000000
  126       47.725750   0.000000
  127       47.729700   0.000000
  128       47.729700   0.000000
 
 -0.1925930E-33  0.1666667E+00  0.0000000E+00  0.4629630E-02
    1      -17.115195   1.000000
    2      -17.115195   1.000000
    3       -5.522394   1.000000
    4       -5.522394   1.000000
    5       -4.327141   1.000000
    6       -4.327141   1.000000
    7       -4.062678   1.000000
    8       -4.062678   1.000000
    9        3.111140   0.000000
   10        3.111140   0.000000
   11        6.379045   0.000000
   12        6.379045   0.000000
   13        7.226678   0.000000
   14        7.226678   0.000000
   15        7.284610   0.000000
   16        7.284610   0.000000
   17        8.727511   0.000000
   18        8.727511   0.000000
   19        8.760607   0.000000
   20        8.760607   0.000000
   21       10.405903   0.000000
   22       10.405903   0.000000
   23       11.579669   0.000000
   24       11.579669   0.000000
   25       13.341315   0.000000
   26       13.341315   0.000000
   27       13.361255   0.000000
   28       13.361255   0.000000
   29       15.825732   0.000000
   30       15.825732   0.000000
   31       18.194915   0.000000
   32       18.194915   0.000000
   33       18.251611   0.000000
   34       18.251611   0.000000
   35       19.041352   0.000000
   36       19.041352   0.000000
   37       19.728443   0.000000
   38       19.728443   0.000000
   39       21.447445   0.000000
   40       21.447445   0.000000
   41       21.699121   0.000000
   42       21.699121   0.000000
   43       23.245541   0.000000
   44       23.245541   0.000000
   45       23.839818   0.000000
   46       23.839818   0.000000
   47       23.850922   0.000000
   48       23.850922   0.000000
   49       23.960928   0.000000
   50       23.960928   0.000000
   51       24.734938   0.000000
   52       24.734938   0.000000
   53       24.753845   0.000000
   54       24.753845   0.000000
   55       25.913798   0.000000
   56       25.913798   0.000000
   57       27.369092   0.000000
   58       27.369092   0.000000
   59       27.563024   0.000000
   60       27.563024   0.000000
   61       30.101947   0.000000
   62       30.101947   0.000000
   63       32.054578   0.000000
   64       32.054578   0.000000
   65       32.122396   0.000000
   66       32.122396   0.000000
   67       32.548562   0.000000
   68       32.548562   0.000000
   69       33.151126   0.000000
   70       33.151126   0.000000
   71       34.601870   0.000000
   72       34.601870   0.000000
   73       34.665529   0.000000
   74       34.665529   0.000000
   75       35.743660   0.000000
   76       35.743660   0.000000
   77       35.779138   0.000000
   78       35.779139   0.000000
   79       37.140292   0.000000
   80       37.140292   0.000000
   81       37.147478   0.000000
   82       37.147478   0.000000
   83       37.271954   0.000000
   84       37.271954   0.000000
   85       37.909136   0.000000
   86       37.909136   0.000000
   87       38.163843   0.000000
   88       38.163843   0.000000
   89       38.430380   0.000000
   90       38.430380   0.000000
   91       38.438764   0.000000
   92       38.438764   0.000000
   93       39.582442   0.000000
   94       39.582442   0.000000
   95       39.734351   0.000000
   96       39.734351   0.000000
   97       40.099679   0.000000
   98       40.099679   0.000000
   99       42.220240   0.000000
  100       42.220240   0.000000
  101       42.239525   0.000000
  102       42.239525   0.000000
  103       42.245438   0.000000
  104       42.245438   0.000000
  105       44.152344   0.000000
  106       44.152344   0.000000
  107       44.217747   0.000000
  108       44.217748   0.000000
  109       44.236546   0.000000
  110       44.236546   0.000000
  111       44.465491   0.000000
  112       44.465491   0.000000
  113       45.118256   0.000000
  114       45.118257   0.000000
  115       45.434886   0.000000
  116       45.434886   0.000000
  117       45.465090   0.000000
  118       45.465090   0.000000
  119       47.067274   0.000000
  120       47.067275   0.000000
  121       47.406879   0.000000