   1   1   0   0
  0.4557239E+02  0.4009334E-09  0.4009334E-09  0.4009334E-09  0.1000000E-15
  1.000000000000000E-004
  CAR 
 Og_FCC                                  
     15.92744518    -19.94015558  301     -3.50083856      1.00000000
    -19.940  0.0000E+00  0.0000E+00
    -19.821  0.0000E+00  0.0000E+00
    -19.701  0.0000E+00  0.0000E+00
    -19.581  0.0000E+00  0.0000E+00
    -19.462  0.0000E+00  0.0000E+00
    -19.342  0.0000E+00  0.0000E+00
    -19.223  0.0000E+00  0.0000E+00
    -19.103  0.0000E+00  0.0000E+00
    -18.984  0.0000E+00  0.0000E+00
    -18.864  0.0000E+00  0.0000E+00
    -18.745  0.0000E+00  0.0000E+00
    -18.625  0.0000E+00  0.0000E+00
    -18.505  0.0000E+00  0.0000E+00
    -18.386  0.0000E+00  0.0000E+00
    -18.266  0.3125E+00  0.4662E-01
    -18.147  0.0000E+00  0.5463E+00
    -18.027  0.0000E+00  0.2000E+01
    -17.908  0.0000E+00  0.2000E+01
    -17.788  0.0000E+00  0.2000E+01
    -17.669  0.0000E+00  0.2000E+01
    -17.549  0.0000E+00  0.2000E+01
    -17.429  0.0000E+00  0.2000E+01
    -17.310  0.0000E+00  0.2000E+01
    -17.190  0.0000E+00  0.2000E+01
    -17.071  0.0000E+00  0.2000E+01
    -16.951  0.0000E+00  0.2000E+01
    -16.832  0.0000E+00  0.2000E+01
    -16.712  0.0000E+00  0.2000E+01
    -16.593  0.0000E+00  0.2000E+01
    -16.473  0.0000E+00  0.2000E+01
    -16.353  0.0000E+00  0.2000E+01
    -16.234  0.0000E+00  0.2000E+01
    -16.114  0.0000E+00  0.2000E+01
    -15.995  0.0000E+00  0.2000E+01
    -15.875  0.0000E+00  0.2000E+01
    -15.756  0.0000E+00  0.2000E+01
    -15.636  0.0000E+00  0.2000E+01
    -15.516  0.0000E+00  0.2000E+01
    -15.397  0.0000E+00  0.2000E+01
    -15.277  0.0000E+00  0.2000E+01
    -15.158  0.0000E+00  0.2000E+01
    -15.038  0.0000E+00  0.2000E+01
    -14.919  0.0000E+00  0.2000E+01
    -14.799  0.0000E+00  0.2000E+01
    -14.680  0.0000E+00  0.2000E+01
    -14.560  0.0000E+00  0.2000E+01
    -14.440  0.0000E+00  0.2000E+01
    -14.321  0.0000E+00  0.2000E+01
    -14.201  0.0000E+00  0.2000E+01
    -14.082  0.0000E+00  0.2000E+01
    -13.962  0.0000E+00  0.2000E+01
    -13.843  0.0000E+00  0.2000E+01
    -13.723  0.0000E+00  0.2000E+01
    -13.604  0.0000E+00  0.2000E+01
    -13.484  0.0000E+00  0.2000E+01
    -13.364  0.0000E+00  0.2000E+01
    -13.245  0.0000E+00  0.2000E+01
    -13.125  0.0000E+00  0.2000E+01
    -13.006  0.0000E+00  0.2000E+01
    -12.886  0.0000E+00  0.2000E+01
    -12.767  0.0000E+00  0.2000E+01
    -12.647  0.0000E+00  0.2000E+01
    -12.528  0.0000E+00  0.2000E+01
    -12.408  0.0000E+00  0.2000E+01
    -12.288  0.0000E+00  0.2000E+01
    -12.169  0.0000E+00  0.2000E+01
    -12.049  0.0000E+00  0.2000E+01
    -11.930  0.0000E+00  0.2000E+01
    -11.810  0.0000E+00  0.2000E+01
    -11.691  0.0000E+00  0.2000E+01
    -11.571  0.0000E+00  0.2000E+01
    -11.451  0.0000E+00  0.2000E+01
    -11.332  0.0000E+00  0.2000E+01
    -11.212  0.0000E+00  0.2000E+01
    -11.093  0.0000E+00  0.2000E+01
    -10.973  0.0000E+00  0.2000E+01
    -10.854  0.0000E+00  0.2000E+01
    -10.734  0.0000E+00  0.2000E+01
    -10.615  0.0000E+00  0.2000E+01
    -10.495  0.0000E+00  0.2000E+01
    -10.375  0.0000E+00  0.2000E+01
    -10.256  0.0000E+00  0.2000E+01
    -10.136  0.0000E+00  0.2000E+01
    -10.017  0.0000E+00  0.2000E+01
     -9.897  0.0000E+00  0.2000E+01
     -9.778  0.0000E+00  0.2000E+01
     -9.658  0.0000E+00  0.2000E+01
     -9.539  0.0000E+00  0.2000E+01
     -9.419  0.0000E+00  0.2000E+01
     -9.299  0.0000E+00  0.2000E+01
     -9.180  0.0000E+00  0.2000E+01
     -9.060  0.0000E+00  0.2000E+01
     -8.941  0.0000E+00  0.2000E+01
     -8.821  0.0000E+00  0.2000E+01
     -8.702  0.0000E+00  0.2000E+01
     -8.582  0.0000E+00  0.2000E+01
     -8.463  0.0000E+00  0.2000E+01
     -8.343  0.0000E+00  0.2000E+01
     -8.223  0.0000E+00  0.2000E+01
     -8.104  0.0000E+00  0.2000E+01
     -7.984  0.0000E+00  0.2000E+01
     -7.865  0.0000E+00  0.2000E+01
     -7.745  0.0000E+00  0.2000E+01
     -7.626  0.0000E+00  0.2000E+01
     -7.506  0.0000E+00  0.2000E+01
     -7.386  0.0000E+00  0.2000E+01
     -7.267  0.0000E+00  0.2000E+01
     -7.147  0.0000E+00  0.2000E+01
     -7.028  0.0000E+00  0.2000E+01
     -6.908  0.0000E+00  0.2000E+01
     -6.789  0.0000E+00  0.2000E+01
     -6.669  0.0000E+00  0.2000E+01
     -6.550  0.0000E+00  0.2000E+01
     -6.430  0.0000E+00  0.2000E+01
     -6.310  0.0000E+00  0.2000E+01
     -6.191  0.0000E+00  0.2000E+01
     -6.071  0.0000E+00  0.2000E+01
     -5.952  0.0000E+00  0.2000E+01
     -5.832  0.0000E+00  0.2000E+01
     -5.713  0.0000E+00  0.2000E+01
     -5.593  0.0000E+00  0.2000E+01
     -5.474  0.0000E+00  0.2000E+01
     -5.354  0.0000E+00  0.2000E+01
     -5.234  0.0000E+00  0.2037E+01
     -5.115  0.0000E+00  0.2287E+01
     -4.995  0.2361E-03  0.3176E+01
     -4.876  0.0000E+00  0.3528E+01
     -4.756  0.0000E+00  0.3750E+01
     -4.637  0.0000E+00  0.3861E+01
     -4.517  0.0000E+00  0.3972E+01
     -4.398  0.0000E+00  0.4435E+01
     -4.278  0.0000E+00  0.4907E+01
     -4.158  0.0000E+00  0.5417E+01
     -4.039  0.0000E+00  0.5787E+01
     -3.919  0.0000E+00  0.6778E+01
     -3.800  0.1722E-13  0.7111E+01
     -3.680  0.0000E+00  0.7667E+01
     -3.561  0.6193E+00  0.7981E+01
     -3.441  0.0000E+00  0.8000E+01
     -3.322  0.0000E+00  0.8000E+01
     -3.202  0.0000E+00  0.8000E+01
     -3.082  0.0000E+00  0.8000E+01
     -2.963  0.0000E+00  0.8000E+01
     -2.843  0.0000E+00  0.8000E+01
     -2.724  0.0000E+00  0.8000E+01
     -2.604  0.0000E+00  0.8000E+01
     -2.485  0.0000E+00  0.8000E+01
     -2.365  0.0000E+00  0.8000E+01
     -2.245  0.0000E+00  0.8000E+01
     -2.126  0.0000E+00  0.8000E+01
     -2.006  0.0000E+00  0.8000E+01
     -1.887  0.0000E+00  0.8000E+01
     -1.767  0.0000E+00  0.8000E+01
     -1.648  0.0000E+00  0.8000E+01
     -1.528  0.0000E+00  0.8000E+01
     -1.409  0.0000E+00  0.8000E+01
     -1.289  0.0000E+00  0.8000E+01
     -1.169  0.0000E+00  0.8000E+01
     -1.050  0.0000E+00  0.8000E+01
     -0.930  0.0000E+00  0.8000E+01
     -0.811  0.0000E+00  0.8000E+01
     -0.691  0.0000E+00  0.8000E+01
     -0.572  0.0000E+00  0.8000E+01
     -0.452  0.0000E+00  0.8000E+01
     -0.333  0.0000E+00  0.8000E+01
     -0.213  0.0000E+00  0.8000E+01
     -0.093  0.0000E+00  0.8000E+01
      0.026  0.0000E+00  0.8000E+01
      0.146  0.0000E+00  0.8000E+01
      0.265  0.0000E+00  0.8000E+01
      0.385  0.0000E+00  0.8000E+01
      0.504  0.0000E+00  0.8000E+01
      0.624  0.0000E+00  0.8000E+01
      0.743  0.0000E+00  0.8000E+01
      0.863  0.0000E+00  0.8000E+01
      0.983  0.0000E+00  0.8000E+01
      1.102  0.0000E+00  0.8000E+01
      1.222  0.0000E+00  0.8000E+01
      1.341  0.0000E+00  0.8000E+01
      1.461  0.0000E+00  0.8000E+01
      1.580  0.0000E+00  0.8000E+01
      1.700  0.0000E+00  0.8000E+01
      1.820  0.0000E+00  0.8000E+01
      1.939  0.0000E+00  0.8000E+01
      2.059  0.0000E+00  0.8000E+01
      2.178  0.0000E+00  0.8000E+01
      2.298  0.0000E+00  0.8000E+01
      2.417  0.0000E+00  0.8000E+01
      2.537  0.0000E+00  0.8000E+01
      2.656  0.0000E+00  0.8000E+01
      2.776  0.0000E+00  0.8000E+01
      2.896  0.0000E+00  0.8000E+01
      3.015  0.0000E+00  0.8000E+01
      3.135  0.0000E+00  0.8000E+01
      3.254  0.0000E+00  0.8000E+01
      3.374  0.0000E+00  0.8000E+01
      3.493  0.0000E+00  0.8000E+01
      3.613  0.0000E+00  0.8009E+01
      3.732  0.0000E+00  0.8009E+01
      3.852  0.0000E+00  0.8009E+01
      3.972  0.0000E+00  0.8009E+01
      4.091  0.0000E+00  0.8009E+01
      4.211  0.0000E+00  0.8009E+01
      4.330  0.0000E+00  0.8083E+01
      4.450  0.0000E+00  0.8083E+01
      4.569  0.0000E+00  0.8139E+01
      4.689  0.0000E+00  0.8139E+01
      4.808  0.0000E+00  0.8139E+01
      4.928  0.0000E+00  0.8139E+01
      5.048  0.0000E+00  0.8139E+01
      5.167  0.0000E+00  0.8139E+01
      5.287  0.0000E+00  0.8250E+01
      5.406  0.0000E+00  0.8250E+01
      5.526  0.0000E+00  0.8324E+01
      5.645  0.0000E+00  0.8546E+01
      5.765  0.0000E+00  0.8574E+01
      5.885  0.3098E+00  0.8667E+01
      6.004  0.0000E+00  0.8667E+01
      6.124  0.0000E+00  0.8667E+01
      6.243  0.0000E+00  0.8889E+01
      6.363  0.0000E+00  0.8889E+01
      6.482  0.0000E+00  0.9444E+01
      6.602  0.0000E+00  0.9667E+01
      6.721  0.0000E+00  0.9667E+01
      6.841  0.0000E+00  0.9667E+01
      6.961  0.0000E+00  0.9694E+01
      7.080  0.0000E+00  0.9806E+01
      7.200  0.0000E+00  0.1003E+02
      7.319  0.0000E+00  0.1003E+02
      7.439  0.0000E+00  0.1031E+02
      7.558  0.1859E+01  0.1053E+02
      7.678  0.0000E+00  0.1075E+02
      7.797  0.0000E+00  0.1075E+02
      7.917  0.0000E+00  0.1097E+02
      8.037  0.0000E+00  0.1119E+02
      8.156  0.0000E+00  0.1164E+02
      8.276  0.1859E+01  0.1186E+02
      8.395  0.0000E+00  0.1186E+02
      8.515  0.0000E+00  0.1205E+02
      8.634  0.0000E+00  0.1205E+02
      8.754  0.0000E+00  0.1236E+02
      8.873  0.1858E+01  0.1258E+02
      8.993  0.0000E+00  0.1269E+02
      9.113  0.0000E+00  0.1299E+02
      9.232  0.5455E-03  0.1327E+02
      9.352  0.0000E+00  0.1360E+02
      9.471  0.0000E+00  0.1371E+02
      9.591  0.0000E+00  0.1379E+02
      9.710  0.0000E+00  0.1379E+02
      9.830  0.0000E+00  0.1394E+02
      9.950  0.0000E+00  0.1396E+02
     10.069  0.0000E+00  0.1396E+02
     10.189  0.1871E-01  0.1456E+02
     10.308  0.0000E+00  0.1458E+02
     10.428  0.0000E+00  0.1464E+02
     10.547  0.3488E-01  0.1475E+02
     10.667  0.0000E+00  0.1519E+02
     10.786  0.9293E+00  0.1553E+02
     10.906  0.0000E+00  0.1553E+02
     11.026  0.0000E+00  0.1586E+02
     11.145  0.0000E+00  0.1586E+02
     11.265  0.0000E+00  0.1586E+02
     11.384  0.0000E+00  0.1586E+02
     11.504  0.0000E+00  0.1586E+02
     11.623  0.0000E+00  0.1586E+02
     11.743  0.0000E+00  0.1608E+02
     11.862  0.0000E+00  0.1631E+02
     11.982  0.0000E+00  0.1644E+02
     12.102  0.0000E+00  0.1649E+02
     12.221  0.0000E+00  0.1649E+02
     12.341  0.0000E+00  0.1671E+02
     12.460  0.1841E+01  0.1694E+02
     12.580  0.0000E+00  0.1694E+02
     12.699  0.0000E+00  0.1706E+02
     12.819  0.7745E-01  0.1713E+02
     12.938  0.0000E+00  0.1713E+02
     13.058  0.0000E+00  0.1757E+02
     13.178  0.0000E+00  0.1757E+02
     13.297  0.0000E+00  0.1780E+02
     13.417  0.0000E+00  0.1783E+02
     13.536  0.0000E+00  0.1783E+02
     13.656  0.0000E+00  0.1783E+02
     13.775  0.0000E+00  0.1783E+02
     13.895  0.0000E+00  0.1786E+02
     14.015  0.0000E+00  0.1789E+02
     14.134  0.0000E+00  0.1789E+02
     14.254  0.0000E+00  0.1789E+02
     14.373  0.0000E+00  0.1800E+02
     14.493  0.0000E+00  0.1800E+02
     14.612  0.0000E+00  0.1800E+02
     14.732  0.0000E+00  0.1800E+02
     14.851  0.0000E+00  0.1800E+02
     14.971  0.0000E+00  0.1800E+02
     15.091  0.0000E+00  0.1800E+02
     15.210  0.0000E+00  0.1800E+02
     15.330  0.0000E+00  0.1800E+02
     15.449  0.0000E+00  0.1800E+02
     15.569  0.0000E+00  0.1800E+02
     15.688  0.0000E+00  0.1800E+02
     15.808  0.0000E+00  0.1800E+02
     15.927  0.0000E+00  0.1800E+02
