    1    1    1    1
  0.4557239E+02  0.4009334E-09  0.4009334E-09  0.4009334E-09  0.1000000E-15
  1.000000000000000E-004
  CAR 
 Og_FCC                                  
      8    216     18
 
  0.0000000E+00  0.0000000E+00  0.0000000E+00  0.4629630E-02
    1      -18.309810   1.000000
    2      -18.309792   1.000000
    3       -4.219092   1.000000
    4       -4.219086   1.000000
    5       -3.518523   1.000000
    6       -3.518515   1.000000
    7       -3.518510   1.000000
    8       -3.518502   1.000000
    9        3.523120   0.000000
   10        3.523171   0.000000
   11        9.898072   0.000000
   12        9.898075   0.000000
   13        9.898079   0.000000
   14        9.898082   0.000000
   15        9.915873   0.000000
   16        9.915876   0.000000
   17       12.382035   0.000000
   18       12.382037   0.000000
 
  0.1666667E+00  0.1653359E-17  0.1387779E-16  0.4629630E-02
    1      -18.266351   1.000000
    2      -18.266333   1.000000
    3       -4.424673   1.000000
    4       -4.424661   1.000000
    5       -3.778664   1.000000
    6       -3.778655   1.000000
    7       -3.562979   1.000000
    8       -3.562978   1.000000
    9        4.258329   0.000000
   10        4.258380   0.000000
   11        9.054772   0.000000
   12        9.054782   0.000000
   13       10.123910   0.000000
   14       10.123912   0.000000
   15       10.140170   0.000000
   16       10.140172   0.000000
   17       11.876261   0.000000
   18       11.879574   0.000000
 
  0.3333333E+00 -0.5220443E-16  0.1387779E-16  0.4629630E-02
    1      -18.177208   1.000000
    2      -18.177190   1.000000
    3       -4.984983   1.000000
    4       -4.984965   1.000000
    5       -4.011444   1.000000
    6       -4.011441   1.000000
    7       -3.648977   1.000000
    8       -3.648976   1.000000
    9        5.507614   0.000000
   10        5.507644   0.000000
   11        8.483007   0.000000
   12        8.483066   0.000000
   13        9.798189   0.000000
   14        9.798192   0.000000
   15        9.817034   0.000000
   16        9.817037   0.000000
   17       12.794708   0.000000
   18       12.798715   0.000000
 
  0.5000000E+00  0.4960076E-17  0.5551115E-16  0.4629630E-02
    1      -18.131448   1.000000
    2      -18.131430   1.000000
    3       -5.271008   1.000000
    4       -5.270990   1.000000
    5       -4.076363   1.000000
    6       -4.076361   1.000000
    7       -3.690612   1.000000
    8       -3.690611   1.000000
    9        5.878724   0.000000
   10        5.878727   0.000000
   11        8.724241   0.000000
   12        8.724369   0.000000
   13        9.503982   0.000000
   14        9.503985   0.000000
   15        9.522156   0.000000
   16        9.522159   0.000000
   17       13.370647   0.000000
   18       13.370729   0.000000
 
 -0.3333333E+00  0.5220443E-16 -0.1387779E-16  0.4629630E-02
    1      -18.177208   1.000000
    2      -18.177190   1.000000
    3       -4.984983   1.000000
    4       -4.984965   1.000000
    5       -4.011444   1.000000
    6       -4.011441   1.000000
    7       -3.648977   1.000000
    8       -3.648976   1.000000
    9        5.507614   0.000000
   10        5.507644   0.000000
   11        8.483007   0.000000
   12        8.483066   0.000000
   13        9.798189   0.000000
   14        9.798192   0.000000
   15        9.817034   0.000000
   16        9.817037   0.000000
   17       12.799276   0.000000
   18       12.800839   0.000000
 
 -0.1666667E+00 -0.1653359E-17 -0.1387779E-16  0.4629630E-02
    1      -18.266351   1.000000
    2      -18.266333   1.000000
    3       -4.424673   1.000000
    4       -4.424661   1.000000
    5       -3.778664   1.000000
    6       -3.778655   1.000000
    7       -3.562979   1.000000
    8       -3.562978   1.000000
    9        4.258329   0.000000
   10        4.258380   0.000000
   11        9.054772   0.000000
   12        9.054782   0.000000
   13       10.123910   0.000000
   14       10.123912   0.000000
   15       10.140170   0.000000
   16       10.140172   0.000000
   17       11.876257   0.000000
   18       11.878225   0.000000
 
 -0.3851860E-33  0.1666667E+00 -0.6938894E-17  0.4629630E-02
    1      -18.266351   1.000000
    2      -18.266333   1.000000
    3       -4.424673   1.000000
    4       -4.424661   1.000000
    5       -3.778664   1.000000
    6       -3.778656   1.000000
    7       -3.562982   1.000000
    8       -3.562975   1.000000
    9        4.258329   0.000000
   10        4.258380   0.000000
   11        9.054772   0.000000
   12        9.054782   0.000000
   13       10.123909   0.000000
   14       10.123913   0.000000
   15       10.140169   0.000000
   16       10.140173   0.000000
   17       11.875498   0.000000
   18       11.879867   0.000000
 
  0.1666667E+00  0.1666667E+00  0.2775558E-16  0.4629630E-02
    1      -18.251984   1.000000
    2      -18.251966   1.000000
    3       -4.451812   1.000000
    4       -4.451801   1.000000
    5       -3.825110   1.000000
    6       -3.825102   1.000000
    7       -3.652027   1.000000
    8       -3.652020   1.000000
    9        4.496792   0.000000
   10        4.496846   0.000000
   11        8.706211   0.000000
   12        8.706215   0.000000
   13       10.404246   0.000000
   14       10.404255   0.000000
   15       10.439979   0.000000
   16       10.439982   0.000000
   17       10.454042   0.000000
   18       10.454046   0.000000
 
  0.3333333E+00  0.1666667E+00  0.0000000E+00  0.4629630E-02
    1      -18.178105   1.000000
    2      -18.178087   1.000000
    3       -4.828670   1.000000
    4       -4.828654   1.000000
    5       -4.073972   1.000000
    6       -4.073967   1.000000
    7       -3.765681   1.000000
    8       -3.765678   1.000000
    9        5.632792   0.000000
   10        5.632847   0.000000
   11        8.104268   0.000000
   12        8.104282   0.000000
   13        9.133915   0.000000
   14        9.133936   0.000000
   15       10.583677   0.000000
   16       10.583684   0.000000
   17       11.706532   0.000000
   18       11.706541   0.000000
 
  0.5000000E+00  0.1666667E+00  0.8326673E-16  0.4629630E-02
    1      -18.117333   1.000000
    2      -18.117315   1.000000
    3       -5.152241   1.000000
    4       -5.152224   1.000000
    5       -4.222072   1.000000
    6       -4.222063   1.000000
    7       -3.843573   1.000000
    8       -3.843566   1.000000
    9        6.448441   0.000000
   10        6.448456   0.000000
   11        7.903730   0.000000
   12        7.903825   0.000000
   13        9.103228   0.000000
   14        9.103235   0.000000
   15       10.139093   0.000000
   16       10.139097   0.000000
   17       13.228249   0.000000
   18       13.228279   0.000000
 
 -0.3333333E+00  0.1666667E+00 -0.4163336E-16  0.4629630E-02
    1      -18.132461   1.000000
    2      -18.132443   1.000000
    3       -5.067604   1.000000
    4       -5.067587   1.000000
    5       -4.229664   1.000000
    6       -4.229651   1.000000
    7       -3.794324   1.000000
    8       -3.794313   1.000000
    9        6.396221   0.000000
   10        6.396244   0.000000
   11        8.125592   0.000000
   12        8.125682   0.000000
   13        8.870870   0.000000
   14        8.870874   0.000000
   15       10.092101   0.000000
   16       10.092105   0.000000
   17       12.458575   0.000000
   18       12.458583   0.000000
 
 -0.1666667E+00  0.1666667E+00 -0.3808273E-16  0.4629630E-02
    1      -18.207577   1.000000
    2      -18.207559   1.000000
    3       -4.699890   1.000000
    4       -4.699875   1.000000
    5       -4.018685   1.000000
    6       -4.018671   1.000000
    7       -3.667972   1.000000
    8       -3.667962   1.000000
    9        5.245250   0.000000
   10        5.245301   0.000000
   11        8.506480   0.000000
   12        8.506484   0.000000
   13        9.445368   0.000000
   14        9.445407   0.000000
   15       10.699062   0.000000
   16       10.699067   0.000000
   17       10.779439   0.000000
   18       10.779450   0.000000
 
 -0.3851860E-33  0.3333333E+00  0.1387779E-16  0.4629630E-02
    1      -18.177208   1.000000
    2      -18.177190   1.000000
    3       -4.984983   1.000000
    4       -4.984966   1.000000
    5       -4.011446   1.000000
    6       -4.011440   1.000000
    7       -3.648980   1.000000
    8       -3.648973   1.000000
    9        5.507614   0.000000
   10        5.507644   0.000000
   11        8.483007   0.000000
   12        8.483066   0.000000
   13        9.798189   0.000000
   14        9.798192   0.000000
   15        9.817034   0.000000
   16        9.817036   0.000000
   17       12.794979   0.000000
   18       12.801116   0.000000
 
  0.1666667E+00  0.3333333E+00  0.0000000E+00  0.4629630E-02
    1      -18.178105   1.000000
    2      -18.178087   1.000000
    3       -4.828670   1.000000
    4       -4.828655   1.000000
    5       -4.073972   1.000000
    6       -4.073967   1.000000
    7       -3.765683   1.000000
    8       -3.765676   1.000000
    9        5.632792   0.000000
   10        5.632847   0.000000
   11        8.104268   0.000000
   12        8.104282   0.000000
   13        9.133914   0.000000
   14        9.133936   0.000000
   15       10.583677   0.000000
   16       10.583683   0.000000
   17       11.706532   0.000000
   18       11.706541   0.000000
 
  0.3333333E+00  0.3333333E+00  0.0000000E+00  0.4629630E-02
    1      -18.134122   1.000000
    2      -18.134104   1.000000
    3       -4.947920   1.000000
    4       -4.947905   1.000000
    5       -4.206026   1.000000
    6       -4.206021   1.000000
    7       -3.904493   1.000000
    8       -3.904487   1.000000
    9        5.825618   0.000000
   10        5.825700   0.000000
   11        7.411031   0.000000
   12        7.411034   0.000000
   13        9.178456   0.000000
   14        9.178464   0.000000
   15       11.928897   0.000000
   16       11.928902   0.000000
   17       12.003273   0.000000
   18       12.003278   0.000000
 
  0.5000000E+00  0.3333333E+00  0.5551115E-16  0.4629630E-02
    1      -18.088636   1.000000
    2      -18.088618   1.000000
    3       -5.084350   1.000000
    4       -5.084335   1.000000
    5       -4.368115   1.000000
    6       -4.368104   1.000000
    7       -4.020384   1.000000
    8       -4.020375   1.000000
    9        6.175778   0.000000
   10        6.175866   0.000000
   11        7.387030   0.000000
   12        7.387038   0.000000
   13        9.288146   0.000000
   14        9.288153   0.000000
   15       11.840937   0.000000
   16       11.840942   0.000000
   17       12.948584   0.000000
   18       12.948605   0.000000
 
 -0.3333333E+00  0.3333333E+00 -0.2486581E-16  0.4629630E-02
    1      -18.087875   1.000000
    2      -18.087857   1.000000
    3       -5.013649   1.000000
    4       -5.013635   1.000000
    5       -4.531292   1.000000
    6       -4.531275   1.000000
    7       -3.974316   1.000000
    8       -3.974300   1.000000
    9        6.966851   0.000000
   10        6.966921   0.000000
   11        7.600229   0.000000
   12        7.600273   0.000000
   13        8.876511   0.000000
   14        8.876517   0.000000
   15       11.002149   0.000000
   16       11.002153   0.000000
   17       12.590814   0.000000
   18       12.590823   0.000000
 
 -0.1666667E+00  0.3333333E+00 -0.1387779E-16  0.4629630E-02
    1      -18.132461   1.000000
    2      -18.132443   1.000000
    3       -5.067604   1.000000
    4       -5.067587   1.000000
    5       -4.229664   1.000000
    6       -4.229651   1.000000
    7       -3.794324   1.000000
    8       -3.794312   1.000000
    9        6.396221   0.000000
   10        6.396244   0.000000
   11        8.125592   0.000000
   12        8.125682   0.000000
   13        8.870870   0.000000
   14        8.870874   0.000000
   15       10.092102   0.000000
   16       10.092105   0.000000
   17       12.458575   0.000000
   18       12.458584   0.000000
 
  0.0000000E+00  0.5000000E+00 -0.2775558E-16  0.4629630E-02
    1      -18.131448   1.000000
    2      -18.131430   1.000000
    3       -5.271008   1.000000
    4       -5.270990   1.000000
    5       -4.076366   1.000000
    6       -4.076359   1.000000
    7       -3.690615   1.000000
    8       -3.690608   1.000000
    9        5.878724   0.000000
   10        5.878727   0.000000
   11        8.724241   0.000000
   12        8.724369   0.000000
   13        9.503982   0.000000
   14        9.503984   0.000000
   15        9.522157   0.000000
   16        9.522159   0.000000
   17       13.370647   0.000000
   18       13.370729   0.000000
 
  0.1666667E+00  0.5000000E+00  0.2775558E-16  0.4629630E-02
    1      -18.117333   1.000000
    2      -18.117315   1.000000
    3       -5.152241   1.000000
    4       -5.152224   1.000000
    5       -4.222073   1.000000
    6       -4.222063   1.000000
    7       -3.843574   1.000000
    8       -3.843565   1.000000
    9        6.448441   0.000000
   10        6.448456   0.000000
   11        7.903730   0.000000
   12        7.903825   0.000000
   13        9.103229   0.000000
   14        9.103235   0.000000
   15       10.139093   0.000000
   16       10.139096   0.000000
   17       13.228250   0.000000
   18       13.228279   0.000000
 
  0.3333333E+00  0.5000000E+00  0.5551115E-16  0.4629630E-02
    1      -18.088636   1.000000
    2      -18.088618   1.000000
    3       -5.084350   1.000000
    4       -5.084335   1.000000
    5       -4.368115   1.000000
    6       -4.368104   1.000000
    7       -4.020385   1.000000
    8       -4.020375   1.000000
    9        6.175778   0.000000
   10        6.175866   0.000000
   11        7.387030   0.000000
   12        7.387038   0.000000
   13        9.288146   0.000000
   14        9.288153   0.000000
   15       11.840938   0.000000
   16       11.840941   0.000000
   17       12.948585   0.000000
   18       12.948605   0.000000
 
  0.5000000E+00  0.5000000E+00  0.1110223E-15  0.4629630E-02
    1      -18.074059   1.000000
    2      -18.074040   1.000000
    3       -5.180012   1.000000
    4       -5.179997   1.000000
    5       -4.346834   1.000000
    6       -4.346829   1.000000
    7       -4.024179   1.000000
    8       -4.024173   1.000000
    9        5.695938   0.000000
   10        5.696030   0.000000
   11        6.949843   0.000000
   12        6.949845   0.000000
   13       10.189616   0.000000
   14       10.189624   0.000000
   15       13.803234   0.000000
   16       13.803240   0.000000
   17       13.960645   0.000000
   18       13.960654   0.000000
 
 -0.3333333E+00  0.5000000E+00 -0.2081668E-16  0.4629630E-02
    1      -18.088636   1.000000
    2      -18.088618   1.000000
    3       -5.084350   1.000000
    4       -5.084335   1.000000
    5       -4.368115   1.000000
    6       -4.368104   1.000000
    7       -4.020385   1.000000
    8       -4.020375   1.000000
    9        6.175778   0.000000
   10        6.175866   0.000000
   11        7.387030   0.000000
   12        7.387038   0.000000
   13        9.288146   0.000000
   14        9.288153   0.000000
   15       11.840938   0.000000
   16       11.840941   0.000000
   17       12.948585   0.000000
   18       12.948605   0.000000
 
 -0.1666667E+00  0.5000000E+00 -0.5551115E-16  0.4629630E-02
    1      -18.117333   1.000000
    2      -18.117315   1.000000
    3       -5.152241   1.000000
    4       -5.152224   1.000000
    5       -4.222073   1.000000
    6       -4.222063   1.000000
    7       -3.843574   1.000000
    8       -3.843565   1.000000
    9        6.448441   0.000000
   10        6.448456   0.000000
   11        7.903730   0.000000
   12        7.903825   0.000000
   13        9.103228   0.000000
   14        9.103235   0.000000
   15       10.139093   0.000000
   16       10.139096   0.000000
   17       13.228250   0.000000
   18       13.228279   0.000000
 
  0.3851860E-33 -0.3333333E+00 -0.1387779E-16  0.4629630E-02
    1      -18.177208   1.000000
    2      -18.177190   1.000000
    3       -4.984983   1.000000
    4       -4.984966   1.000000
    5       -4.011446   1.000000
    6       -4.011440   1.000000
    7       -3.648980   1.000000
    8       -3.648973   1.000000
    9        5.507614   0.000000
   10        5.507644   0.000000
   11        8.483007   0.000000
   12        8.483066   0.000000
   13        9.798189   0.000000
   14        9.798192   0.000000
   15        9.817034   0.000000
   16        9.817036   0.000000
   17       12.794382   0.000000
   18       12.801283   0.000000
 
  0.1666667E+00 -0.3333333E+00  0.1387779E-16  0.4629630E-02
    1      -18.132461   1.000000
    2      -18.132443   1.000000
    3       -5.067604   1.000000
    4       -5.067587   1.000000
    5       -4.229664   1.000000
    6       -4.229651   1.000000
    7       -3.794324   1.000000
    8       -3.794312   1.000000
    9        6.396221   0.000000
   10        6.396244   0.000000
   11        8.125592   0.000000
   12        8.125682   0.000000
   13        8.870870   0.000000
   14        8.870874   0.000000
   15       10.092102   0.000000
   16       10.092105   0.000000
   17       12.458575   0.000000
   18       12.458584   0.000000
 
  0.3333333E+00 -0.3333333E+00  0.2486581E-16  0.4629630E-02
    1      -18.087875   1.000000
    2      -18.087857   1.000000
    3       -5.013649   1.000000
    4       -5.013635   1.000000
    5       -4.531292   1.000000
    6       -4.531275   1.000000
    7       -3.974316   1.000000
    8       -3.974300   1.000000
    9        6.966851   0.000000
   10        6.966921   0.000000
   11        7.600229   0.000000
   12        7.600273   0.000000
   13        8.876511   0.000000
   14        8.876517   0.000000
   15       11.002149   0.000000
   16       11.002153   0.000000
   17       12.590814   0.000000
   18       12.590824   0.000000
 
  0.5000000E+00 -0.3333333E+00  0.6245005E-16  0.4629630E-02
    1      -18.088636   1.000000
    2      -18.088618   1.000000
    3       -5.084350   1.000000
    4       -5.084335   1.000000
    5       -4.368115   1.000000
    6       -4.368104   1.000000
    7       -4.020384   1.000000
    8       -4.020375   1.000000
    9        6.175778   0.000000
   10        6.175866   0.000000
   11        7.387030   0.000000
   12        7.387038   0.000000
   13        9.288146   0.000000
   14        9.288153   0.000000
   15       11.840937   0.000000
   16       11.840942   0.000000
   17       12.948584   0.000000
   18       12.948605   0.000000
 
 -0.3333333E+00 -0.3333333E+00  0.0000000E+00  0.4629630E-02
    1      -18.134122   1.000000
    2      -18.134104   1.000000
    3       -4.947920   1.000000
    4       -4.947905   1.000000
    5       -4.206026   1.000000
    6       -4.206021   1.000000
    7       -3.904493   1.000000
    8       -3.904487   1.000000
    9        5.825618   0.000000
   10        5.825700   0.000000
   11        7.411031   0.000000
   12        7.411034   0.000000
   13        9.178456   0.000000
   14        9.178464   0.000000
   15       11.928897   0.000000
   16       11.928902   0.000000
   17       12.003273   0.000000
   18       12.003278   0.000000
 
 -0.1666667E+00 -0.3333333E+00  0.0000000E+00  0.4629630E-02
    1      -18.178105   1.000000
    2      -18.178087   1.000000
    3       -4.828670   1.000000
    4       -4.828655   1.000000
    5       -4.073972   1.000000
    6       -4.073967   1.000000
    7       -3.765683   1.000000
    8       -3.765676   1.000000
    9        5.632792   0.000000
   10        5.632847   0.000000
   11        8.104268   0.000000
   12        8.104282   0.000000
   13        9.133914   0.000000
   14        9.133936   0.000000
   15       10.583677   0.000000
   16       10.583683   0.000000
   17       11.706532   0.000000
   18       11.706541   0.000000
 
  0.1925930E-33 -0.1666667E+00  0.0000000E+00  0.4629630E-02
    1      -18.266351   1.000000
    2      -18.266333   1.000000
    3       -4.424673   1.000000
    4       -4.424661   1.000000
    5       -3.778664   1.000000
    6       -3.778656   1.000000
    7       -3.562982   1.000000
    8       -3.562975   1.000000
    9        4.258329   0.000000
   10        4.258380   0.000000
   11        9.054772   0.000000
   12        9.054782   0.000000
   13       10.123909   0.000000
   14       10.123913   0.000000
   15       10.140169   0.000000
   16       10.140173   0.000000
   17       11.875401   0.000000
   18       11.879986   0.000000
 
  0.1666667E+00 -0.1666667E+00  0.9330303E-17  0.4629630E-02
    1      -18.207577   1.000000
    2      -18.207559   1.000000
    3       -4.699890   1.000000
    4       -4.699875   1.000000
    5       -4.018685   1.000000
    6       -4.018671   1.000000
    7       -3.667972   1.000000
    8       -3.667962   1.000000
    9        5.245250   0.000000
   10        5.245301   0.000000
   11        8.506480   0.000000
   12        8.506484   0.000000
   13        9.445368   0.000000
   14        9.445407   0.000000
   15       10.699062   0.000000
   16       10.699067   0.000000
   17       10.779439   0.000000
   18       10.779450   0.000000
 
  0.3333333E+00 -0.1666667E+00  0.4163336E-16  0.4629630E-02
    1      -18.132461   1.000000
    2      -18.132443   1.000000
    3       -5.067604   1.000000
    4       -5.067587   1.000000
    5       -4.229664   1.000000
    6       -4.229651   1.000000
    7       -3.794324   1.000000
    8       -3.794313   1.000000
    9        6.396221   0.000000
   10        6.396244   0.000000
   11        8.125592   0.000000
   12        8.125682   0.000000
   13        8.870870   0.000000
   14        8.870874   0.000000
   15       10.092101   0.000000
   16       10.092105   0.000000
   17       12.458575   0.000000
   18       12.458583   0.000000
 
  0.5000000E+00 -0.1666667E+00  0.4163336E-16  0.4629630E-02
    1      -18.117333   1.000000
    2      -18.117315   1.000000
    3       -5.152241   1.000000
    4       -5.152224   1.000000
    5       -4.222072   1.000000
    6       -4.222063   1.000000
    7       -3.843573   1.000000
    8       -3.843566   1.000000
    9        6.448441   0.000000
   10        6.448456   0.000000
   11        7.903730   0.000000
   12        7.903825   0.000000
   13        9.103228   0.000000
   14        9.103235   0.000000
   15       10.139093   0.000000
   16       10.139097   0.000000
   17       13.228249   0.000000
   18       13.228279   0.000000
 
 -0.3333333E+00 -0.1666667E+00 -0.2775558E-16  0.4629630E-02
    1      -18.178105   1.000000
    2      -18.178087   1.000000
    3       -4.828670   1.000000
    4       -4.828654   1.000000
    5       -4.073972   1.000000
    6       -4.073967   1.000000
    7       -3.765681   1.000000
    8       -3.765678   1.000000
    9        5.632792   0.000000
   10        5.632847   0.000000
   11        8.104268   0.000000
   12        8.104282   0.000000
   13        9.133915   0.000000
   14        9.133936   0.000000
   15       10.583677   0.000000
   16       10.583684   0.000000
   17       11.706532   0.000000
   18       11.706541   0.000000
 
 -0.1666667E+00 -0.1666667E+00  0.1387779E-16  0.4629630E-02
    1      -18.251984   1.000000
    2      -18.251966   1.000000
    3       -4.451812   1.000000
    4       -4.451801   1.000000
    5       -3.825110   1.000000
    6       -3.825102   1.000000
    7       -3.652027   1.000000
    8       -3.652020   1.000000
    9        4.496792   0.000000
   10        4.496846   0.000000
   11        8.706211   0.000000
   12        8.706215   0.000000
   13       10.404246   0.000000
   14       10.404255   0.000000
   15       10.439979   0.000000
   16       10.439982   0.000000
   17       10.454042   0.000000
   18       10.454046   0.000000
 
  0.0000000E+00  0.1540744E-32  0.1666667E+00  0.4629630E-02
    1      -18.266351   1.000000
    2      -18.266333   1.000000
    3       -4.424672   1.000000
    4       -4.424662   1.000000
    5       -3.778663   1.000000
    6       -3.778656   1.000000
    7       -3.562984   1.000000
    8       -3.562973   1.000000
    9        4.258329   0.000000
   10        4.258380   0.000000
   11        9.054772   0.000000
   12        9.054782   0.000000
   13       10.123908   0.000000
   14       10.123913   0.000000
   15       10.140168   0.000000
   16       10.140173   0.000000
   17       11.874535   0.000000
   18       11.879693   0.000000
 
  0.1666667E+00  0.1057107E-16  0.1666667E+00  0.4629630E-02
    1      -18.251984   1.000000
    2      -18.251966   1.000000
    3       -4.451811   1.000000
    4       -4.451802   1.000000
    5       -3.825110   1.000000
    6       -3.825102   1.000000
    7       -3.652028   1.000000
    8       -3.652019   1.000000
    9        4.496792   0.000000
   10        4.496846   0.000000
   11        8.706210   0.000000
   12        8.706215   0.000000
   13       10.404247   0.000000
   14       10.404255   0.000000
   15       10.439979   0.000000
   16       10.439983   0.000000
   17       10.454041   0.000000
   18       10.454047   0.000000
 
  0.3333333E+00 -0.5716451E-16  0.1666667E+00  0.4629630E-02
    1      -18.178105   1.000000
    2      -18.178087   1.000000
    3       -4.828670   1.000000
    4       -4.828655   1.000000
    5       -4.073972   1.000000
    6       -4.073967   1.000000
    7       -3.765682   1.000000
    8       -3.765677   1.000000
    9        5.632791   0.000000
   10        5.632847   0.000000
   11        8.104268   0.000000
   12        8.104282   0.000000
   13        9.133915   0.000000
   14        9.133936   0.000000
   15       10.583677   0.000000
   16       10.583684   0.000000
   17       11.706531   0.000000
   18       11.706541   0.000000
 
  0.5000000E+00  0.0000000E+00  0.1666667E+00  0.4629630E-02
    1      -18.117333   1.000000
    2      -18.117315   1.000000
    3       -5.152241   1.000000
    4       -5.152224   1.000000
    5       -4.222071   1.000000
    6       -4.222064   1.000000
    7       -3.843573   1.000000
    8       -3.843566   1.000000
    9        6.448441   0.000000
   10        6.448456   0.000000
   11        7.903730   0.000000
   12        7.903825   0.000000
   13        9.103228   0.000000
   14        9.103235   0.000000
   15       10.139093   0.000000
   16       10.139097   0.000000
   17       13.228249   0.000000
   18       13.228279   0.000000
 
 -0.3333333E+00  0.4724436E-16  0.1666667E+00  0.4629630E-02
    1      -18.132461   1.000000
    2      -18.132443   1.000000
    3       -5.067604   1.000000
    4       -5.067587   1.000000
    5       -4.229663   1.000000
    6       -4.229652   1.000000
    7       -3.794324   1.000000
    8       -3.794313   1.000000
    9        6.396221   0.000000
   10        6.396244   0.000000
   11        8.125591   0.000000
   12        8.125682   0.000000
   13        8.870870   0.000000
   14        8.870874   0.000000
   15       10.092101   0.000000
   16       10.092106   0.000000
   17       12.458575   0.000000
   18       12.458583   0.000000
 
 -0.1666667E+00  0.7264353E-17  0.1666667E+00  0.4629630E-02
    1      -18.207577   1.000000
    2      -18.207559   1.000000
    3       -4.699890   1.000000
    4       -4.699875   1.000000
    5       -4.018684   1.000000
    6       -4.018672   1.000000
    7       -3.667973   1.000000
    8       -3.667961   1.000000
    9        5.245250   0.000000
   10        5.245300   0.000000
   11        8.506480   0.000000
   12        8.506484   0.000000
   13        9.445368   0.000000
   14        9.445407   0.000000
   15       10.699062   0.000000
   16       10.699067   0.000000
   17       10.779439   0.000000
   18       10.779450   0.000000
 
 -0.7703720E-33  0.1666667E+00  0.1666667E+00  0.4629630E-02
    1      -18.251984   1.000000
    2      -18.251966   1.000000
    3       -4.451810   1.000000
    4       -4.451803   1.000000
    5       -3.825108   1.000000
    6       -3.825104   1.000000
    7       -3.652031   1.000000
    8       -3.652016   1.000000
    9        4.496792   0.000000
   10        4.496846   0.000000
   11        8.706210   0.000000
   12        8.706215   0.000000
   13       10.404248   0.000000
   14       10.404254   0.000000
   15       10.439978   0.000000
   16       10.439984   0.000000
   17       10.454040   0.000000
   18       10.454048   0.000000
 
  0.1666667E+00  0.1666667E+00  0.1666667E+00  0.4629630E-02
    1      -18.266351   1.000000
    2      -18.266333   1.000000
    3       -4.424671   1.000000
    4       -4.424664   1.000000
    5       -3.778662   1.000000
    6       -3.778657   1.000000
    7       -3.562987   1.000000
    8       -3.562969   1.000000
    9        4.258329   0.000000
   10        4.258379   0.000000
   11        9.054772   0.000000
   12        9.054783   0.000000
   13       10.123907   0.000000
   14       10.123915   0.000000
   15       10.140167   0.000000
   16       10.140175   0.000000
   17       11.873255   0.000000
   18       11.883544   0.000000
 
  0.3333333E+00  0.1666667E+00  0.1666667E+00  0.4629630E-02
    1      -18.207577   1.000000
    2      -18.207559   1.000000
    3       -4.699890   1.000000
    4       -4.699877   1.000000
    5       -4.018681   1.000000
    6       -4.018675   1.000000
    7       -3.667974   1.000000
    8       -3.667959   1.000000
    9        5.245250   0.000000
   10        5.245300   0.000000
   11        8.506480   0.000000
   12        8.506485   0.000000
   13        9.445369   0.000000
   14        9.445407   0.000000
   15       10.699062   0.000000
   16       10.699067   0.000000
   17       10.779440   0.000000
   18       10.779450   0.000000
 
  0.5000000E+00  0.1666667E+00  0.1666667E+00  0.4629630E-02
    1      -18.132461   1.000000
    2      -18.132443   1.000000
    3       -5.067604   1.000000
    4       -5.067587   1.000000
    5       -4.229662   1.000000