       N       E                     dE             d eps       ncg     rms          rms(c)
DAV:   1     0.351762901550E+02    0.35176E+02   -0.23516E+03  7784   0.498E+02
DAV:   2     0.247302073172E+01   -0.32703E+02   -0.30511E+02 10858   0.121E+02
DAV:   3     0.511864517021E+00   -0.19612E+01   -0.19543E+01  9464   0.299E+01
DAV:   4     0.500610196510E+00   -0.11254E-01   -0.11251E-01 10142   0.290E+00
DAV:   5     0.500350766439E+00   -0.25943E-03   -0.25941E-03  9618   0.459E-01    0.540E+00
DAV:   6     0.732286360054E-01   -0.42712E+00   -0.23861E-01  8082   0.559E+00    0.148E+00
DAV:   7    -0.546451030556E-01   -0.12787E+00   -0.10318E-01  7824   0.289E+00    0.150E-01
DAV:   8    -0.545318041795E-01    0.11330E-03   -0.19171E-03  8562   0.440E-01    0.333E-02
DAV:   9    -0.545993102417E-01   -0.67506E-04   -0.24121E-05  8752   0.468E-02    0.170E-02
DAV:  10    -0.546398904776E-01   -0.40580E-04   -0.89341E-06  8454   0.329E-02    0.613E-03
DAV:  11    -0.546412869770E-01   -0.13965E-05   -0.24308E-06  8256   0.153E-02    0.119E-03
DAV:  12    -0.546413318418E-01   -0.44865E-07   -0.13939E-07  9474   0.314E-03    0.672E-04
DAV:  13    -0.546414012476E-01   -0.69406E-07   -0.56626E-08  8360   0.202E-03    0.331E-04
DAV:  14    -0.546413992992E-01    0.19484E-08   -0.96391E-09  8240   0.871E-04
   1 F= -.17832555E+00 E0= -.17832555E+00  d E =-.117642-140  mag=     0.0000     0.0000     0.0000
 imaginary and real dielectric function
