   1   1   0   0
  0.5469731E+02  0.4260825E-09  0.4260825E-09  0.4260825E-09  0.1000000E-15
  1.000000000000000E-004
  CAR 
 Og_FCC                                  
     18.62016936    -32.35352213  301      4.61360506      1.00000000
    -32.354  0.0000E+00  0.0000E+00
    -32.184  0.0000E+00  0.0000E+00
    -32.014  0.0000E+00  0.0000E+00
    -31.844  0.0000E+00  0.0000E+00
    -31.674  0.0000E+00  0.0000E+00
    -31.504  0.0000E+00  0.0000E+00
    -31.334  0.0000E+00  0.0000E+00
    -31.164  0.0000E+00  0.0000E+00
    -30.994 -0.6051E-38 -0.1028E-38
    -30.824 -0.4071E-25 -0.6917E-26
    -30.654 -0.8128E-15 -0.1381E-15
    -30.484 -0.4446E-07 -0.7553E-08
    -30.315 -0.6301E-02 -0.1071E-02
    -30.145 -0.7672E+00 -0.1314E+00
    -29.975  0.2236E+02  0.3669E+01
    -29.805  0.2016E+01  0.4011E+01
    -29.635 -0.6542E-01  0.4000E+01
    -29.465 -0.2996E-05  0.4000E+01
    -29.295 -0.3167E-12  0.4000E+01
    -29.125  0.0000E+00  0.4000E+01
    -28.955  0.0000E+00  0.4000E+01
    -28.785  0.0000E+00  0.4000E+01
    -28.615  0.0000E+00  0.4000E+01
    -28.446  0.0000E+00  0.4000E+01
    -28.276  0.0000E+00  0.4000E+01
    -28.106  0.0000E+00  0.4000E+01
    -27.936  0.0000E+00  0.4000E+01
    -27.766  0.0000E+00  0.4000E+01
    -27.596  0.0000E+00  0.4000E+01
    -27.426  0.0000E+00  0.4000E+01
    -27.256  0.0000E+00  0.4000E+01
    -27.086  0.0000E+00  0.4000E+01
    -26.916  0.0000E+00  0.4000E+01
    -26.746  0.0000E+00  0.4000E+01
    -26.577  0.0000E+00  0.4000E+01
    -26.407  0.0000E+00  0.4000E+01
    -26.237  0.0000E+00  0.4000E+01
    -26.067  0.0000E+00  0.4000E+01
    -25.897  0.0000E+00  0.4000E+01
    -25.727  0.0000E+00  0.4000E+01
    -25.557  0.0000E+00  0.4000E+01
    -25.387  0.0000E+00  0.4000E+01
    -25.217  0.0000E+00  0.4000E+01
    -25.047  0.0000E+00  0.4000E+01
    -24.877  0.0000E+00  0.4000E+01
    -24.707  0.0000E+00  0.4000E+01
    -24.538  0.0000E+00  0.4000E+01
    -24.368  0.0000E+00  0.4000E+01
    -24.198 -0.1795E-29  0.4000E+01
    -24.028 -0.3098E-18  0.4000E+01
    -23.858 -0.1527E-09  0.4000E+01
    -23.688 -0.2107E-03  0.4000E+01
    -23.518 -0.5680E+00  0.3903E+01
    -23.348  0.1643E+02  0.6695E+01
    -23.178  0.2020E+02  0.1013E+02
    -23.008 -0.7519E+00  0.1000E+02
    -22.838 -0.4582E-03  0.1000E+02
    -22.669 -0.5104E-09  0.1000E+02
    -22.499  0.0000E+00  0.1000E+02
    -22.329  0.0000E+00  0.1000E+02
    -22.159  0.0000E+00  0.1000E+02
    -21.989  0.0000E+00  0.1000E+02
    -21.819  0.0000E+00  0.1000E+02
    -21.649  0.0000E+00  0.1000E+02
    -21.479  0.0000E+00  0.1000E+02
    -21.309  0.0000E+00  0.1000E+02
    -21.139  0.0000E+00  0.1000E+02
    -20.969  0.0000E+00  0.1000E+02
    -20.799  0.0000E+00  0.1000E+02
    -20.630 -0.2317E-30  0.1000E+02
    -20.460 -0.2060E-19  0.1000E+02
    -20.290 -0.5759E-11  0.1000E+02
    -20.120 -0.5427E-05  0.1000E+02
    -19.950 -0.1756E-01  0.9997E+01
    -19.780  0.1925E+00  0.1003E+02
    -19.610  0.9784E+01  0.1169E+02
    -19.440  0.1873E+01  0.1201E+02
    -19.270 -0.6173E-01  0.1200E+02
    -19.100 -0.9988E-05  0.1200E+02
    -18.930 -0.4003E-11  0.1200E+02
    -18.761  0.0000E+00  0.1200E+02
    -18.591  0.0000E+00  0.1200E+02
    -18.421  0.0000E+00  0.1200E+02
    -18.251  0.0000E+00  0.1200E+02
    -18.081  0.0000E+00  0.1200E+02
    -17.911  0.0000E+00  0.1200E+02
    -17.741  0.0000E+00  0.1200E+02
    -17.571  0.0000E+00  0.1200E+02
    -17.401  0.0000E+00  0.1200E+02
    -17.231  0.0000E+00  0.1200E+02
    -17.061  0.0000E+00  0.1200E+02
    -16.892  0.0000E+00  0.1200E+02
    -16.722  0.0000E+00  0.1200E+02
    -16.552  0.0000E+00  0.1200E+02
    -16.382  0.0000E+00  0.1200E+02
    -16.212  0.0000E+00  0.1200E+02
    -16.042  0.0000E+00  0.1200E+02
    -15.872  0.0000E+00  0.1200E+02
    -15.702  0.0000E+00  0.1200E+02
    -15.532  0.0000E+00  0.1200E+02
    -15.362  0.0000E+00  0.1200E+02
    -15.192  0.0000E+00  0.1200E+02
    -15.022  0.0000E+00  0.1200E+02
    -14.853  0.0000E+00  0.1200E+02
    -14.683  0.0000E+00  0.1200E+02
    -14.513  0.0000E+00  0.1200E+02
    -14.343  0.0000E+00  0.1200E+02
    -14.173  0.0000E+00  0.1200E+02
    -14.003  0.0000E+00  0.1200E+02
    -13.833  0.0000E+00  0.1200E+02
    -13.663  0.0000E+00  0.1200E+02
    -13.493  0.0000E+00  0.1200E+02
    -13.323  0.0000E+00  0.1200E+02
    -13.153  0.0000E+00  0.1200E+02
    -12.984  0.0000E+00  0.1200E+02
    -12.814  0.0000E+00  0.1200E+02
    -12.644  0.0000E+00  0.1200E+02
    -12.474  0.0000E+00  0.1200E+02
    -12.304  0.0000E+00  0.1200E+02
    -12.134  0.0000E+00  0.1200E+02
    -11.964  0.0000E+00  0.1200E+02
    -11.794  0.0000E+00  0.1200E+02
    -11.624  0.0000E+00  0.1200E+02
    -11.454  0.0000E+00  0.1200E+02
    -11.284  0.0000E+00  0.1200E+02
    -11.114  0.0000E+00  0.1200E+02
    -10.945  0.0000E+00  0.1200E+02
    -10.775  0.0000E+00  0.1200E+02
    -10.605  0.0000E+00  0.1200E+02
    -10.435  0.0000E+00  0.1200E+02
    -10.265  0.0000E+00  0.1200E+02
    -10.095  0.0000E+00  0.1200E+02
     -9.925  0.0000E+00  0.1200E+02
     -9.755  0.0000E+00  0.1200E+02
     -9.585  0.0000E+00  0.1200E+02
     -9.415  0.0000E+00  0.1200E+02
     -9.245  0.0000E+00  0.1200E+02
     -9.076  0.0000E+00  0.1200E+02
     -8.906  0.0000E+00  0.1200E+02
     -8.736  0.0000E+00  0.1200E+02
     -8.566  0.0000E+00  0.1200E+02
     -8.396  0.0000E+00  0.1200E+02
     -8.226  0.0000E+00  0.1200E+02
     -8.056  0.0000E+00  0.1200E+02
     -7.886 -0.1300E-38  0.1200E+02
     -7.716 -0.6918E-26  0.1200E+02
     -7.546 -0.1135E-15  0.1200E+02
     -7.376 -0.5457E-08  0.1200E+02
     -7.207 -0.7758E-03  0.1200E+02
     -7.037 -0.1815E+00  0.1197E+02
     -6.867  0.5011E+01  0.1282E+02
     -6.697  0.5219E+01  0.1371E+02
     -6.527  0.1371E+01  0.1394E+02
     -6.357  0.3613E+00  0.1400E+02
     -6.187 -0.9443E-02  0.1400E+02
     -6.017 -0.1490E-03  0.1400E+02
     -5.847 -0.4568E-08  0.1400E+02
     -5.677 -0.5436E-15  0.1400E+02
     -5.507  0.0000E+00  0.1400E+02
     -5.337  0.0000E+00  0.1400E+02
     -5.168  0.0000E+00  0.1400E+02
     -4.998  0.0000E+00  0.1400E+02
     -4.828  0.0000E+00  0.1400E+02
     -4.658  0.0000E+00  0.1400E+02
     -4.488  0.0000E+00  0.1400E+02
     -4.318  0.0000E+00  0.1400E+02
     -4.148  0.0000E+00  0.1400E+02
     -3.978  0.0000E+00  0.1400E+02
     -3.808  0.0000E+00  0.1400E+02
     -3.638  0.0000E+00  0.1400E+02
     -3.468  0.0000E+00  0.1400E+02
     -3.299  0.0000E+00  0.1400E+02
     -3.129  0.0000E+00  0.1400E+02
     -2.959  0.0000E+00  0.1400E+02
     -2.789  0.0000E+00  0.1400E+02
     -2.619  0.0000E+00  0.1400E+02
     -2.449  0.0000E+00  0.1400E+02
     -2.279  0.0000E+00  0.1400E+02
     -2.109  0.0000E+00  0.1400E+02
     -1.939  0.0000E+00  0.1400E+02
     -1.769  0.0000E+00  0.1400E+02
     -1.599  0.0000E+00  0.1400E+02
     -1.429  0.0000E+00  0.1400E+02
     -1.260  0.0000E+00  0.1400E+02
     -1.090  0.0000E+00  0.1400E+02
     -0.920  0.0000E+00  0.1400E+02
     -0.750  0.0000E+00  0.1400E+02
     -0.580  0.0000E+00  0.1400E+02
     -0.410  0.0000E+00  0.1400E+02
     -0.240  0.0000E+00  0.1400E+02
     -0.070  0.0000E+00  0.1400E+02
      0.100 -0.4744E-40  0.1400E+02
      0.270 -0.3049E-27  0.1400E+02
      0.440 -0.5994E-17  0.1400E+02
      0.609 -0.3945E-09  0.1400E+02
      0.779 -0.9216E-04  0.1400E+02
      0.949 -0.6281E-01  0.1399E+02
      1.119  0.1670E+01  0.1427E+02
      1.289  0.5787E+01  0.1526E+02
      1.459  0.1384E+01  0.1549E+02
      1.629  0.1033E+01  0.1567E+02
      1.799  0.4166E+00  0.1574E+02
      1.969  0.4036E+00  0.1581E+02
      2.139  0.6037E+00  0.1591E+02
      2.309  0.5322E+00  0.1600E+02
      2.479  0.1368E+01  0.1623E+02
      2.648  0.1622E+01  0.1651E+02
      2.818  0.1461E+01  0.1676E+02
      2.988  0.8932E+00  0.1691E+02
      3.158  0.1162E+01  0.1710E+02
      3.328  0.1293E+01  0.1732E+02
      3.498  0.5197E+00  0.1741E+02
      3.668  0.9893E+00  0.1758E+02
      3.838  0.8202E+00  0.1772E+02
      4.008  0.5717E+00  0.1782E+02
      4.178  0.5260E+00  0.1791E+02
      4.348  0.2976E+00  0.1796E+02
      4.517  0.1829E+00  0.1799E+02
      4.687  0.8262E-01  0.1800E+02
      4.857 -0.2409E-02  0.1800E+02
      5.027 -0.2836E-04  0.1800E+02
      5.197 -0.2906E-05  0.1800E+02
      5.367 -0.2635E-02  0.1800E+02
      5.537  0.6580E-01  0.1801E+02
      5.707  0.3094E-01  0.1802E+02
      5.877  0.6954E-01  0.1803E+02
      6.047 -0.4336E-03  0.1803E+02
      6.217  0.4912E-01  0.1804E+02
      6.386  0.1568E+00  0.1806E+02
      6.556  0.1234E+00  0.1809E+02
      6.726  0.3762E+00  0.1815E+02
      6.896  0.1013E+00  0.1817E+02
      7.066  0.6913E+00  0.1828E+02
      7.236  0.1458E+01  0.1853E+02
      7.406  0.7954E+00  0.1867E+02
      7.576  0.8202E+00  0.1881E+02
      7.746  0.1433E+01  0.1905E+02
      7.916  0.2161E+01  0.1942E+02
      8.086  0.1449E+01  0.1966E+02
      8.256  0.1176E+01  0.1986E+02
      8.425  0.1027E+01  0.2004E+02
      8.595  0.1830E+00  0.2007E+02
      8.765  0.6050E+00  0.2017E+02
      8.935  0.1524E+00  0.2020E+02
      9.105  0.1861E+00  0.2023E+02
      9.275  0.1709E+01  0.2052E+02
      9.445  0.3307E+01  0.2108E+02
      9.615  0.1001E+01  0.2125E+02
      9.785  0.1128E+01  0.2144E+02
      9.955  0.1107E+01  0.2163E+02
     10.125  0.7547E+00  0.2176E+02
     10.294  0.2545E+01  0.2219E+02
     10.464  0.1133E+01  0.2238E+02
     10.634  0.8905E+00  0.2254E+02
     10.804  0.4964E+00  0.2262E+02
     10.974  0.1339E+01  0.2285E+02
     11.144  0.2465E+01  0.2327E+02
     11.314  0.1986E+01  0.2360E+02
     11.484  0.1343E+01  0.2383E+02
     11.654  0.1350E+01  0.2406E+02
     11.824  0.9331E+00  0.2422E+02
     11.994  0.1174E+01  0.2442E+02
     12.164  0.2347E+01  0.2482E+02
     12.333  0.9172E+00  0.2497E+02
     12.503  0.1265E+01  0.2519E+02
     12.673  0.2571E+01  0.2563E+02
     12.843  0.1680E+01  0.2591E+02
     13.013  0.1244E+01  0.2612E+02
     13.183  0.9298E+00  0.2628E+02
     13.353  0.1465E+01  0.2653E+02
     13.523  0.1190E+01  0.2673E+02
     13.693  0.1623E+01  0.2701E+02
     13.863  0.8707E+00  0.2716E+02
     14.033  0.8618E+00  0.2730E+02
     14.202  0.6219E+00  0.2741E+02
     14.372  0.5686E+00  0.2750E+02
     14.542  0.1473E+01  0.2775E+02
     14.712  0.4707E+00  0.2783E+02
     14.882  0.9682E-01  0.2785E+02
     15.052  0.1385E-01  0.2785E+02
     15.222  0.1190E+00  0.2787E+02
     15.392  0.4517E+00  0.2795E+02
     15.562  0.1475E+00  0.2798E+02
     15.732  0.3257E-01  0.2798E+02
     15.902  0.5708E-01  0.2799E+02
     16.071  0.3710E-01  0.2800E+02
     16.241  0.1054E-01  0.2800E+02
     16.411  0.7726E-02  0.2800E+02
     16.581 -0.2475E-03  0.2800E+02
     16.751 -0.1786E-05  0.2800E+02
     16.921 -0.1365E-10  0.2800E+02
     17.091  0.0000E+00  0.2800E+02
     17.261  0.0000E+00  0.2800E+02
     17.431  0.0000E+00  0.2800E+02
     17.601  0.0000E+00  0.2800E+02
     17.771  0.0000E+00  0.2800E+02
     17.941  0.0000E+00  0.2800E+02
     18.110  0.0000E+00  0.2800E+02
     18.280  0.0000E+00  0.2800E+02
     18.450  0.0000E+00  0.2800E+02
     18.620  0.0000E+00  0.2800E+02
