    1    1    1    1
  0.5469731E+02  0.4260825E-09  0.4260825E-09  0.4260825E-09  0.1000000E-15
  1.000000000000000E-004
  CAR 
 Og_FCC                                  
     18    504     28
