<?xml version="1.0" encoding="ISO-8859-1"?>
<modeling>
 <generator>
  <i name="program" type="string">vasp </i>
  <i name="version" type="string">5.4.4.18Apr17-6-g9f103f2a35  </i>
  <i name="subversion" type="string">(build Nov 03 2018 10:20:46) complex            parallel </i>
  <i name="platform" type="string">LinuxIFC </i>
  <i name="date" type="string">2018 11 29 </i>
  <i name="time" type="string">09:06:34 </i>
 </generator>
 <incar>
  <i type="string" name="SYSTEM">   Og_FCC</i>
  <i type="string" name="PREC">accurate</i>
  <i type="string" name="ALGO">   Fast</i>
  <i type="logical" name="ADDGRID"> T  </i>
  <i type="logical" name="LSORBIT"> T  </i>
  <i type="int" name="ISPIN">     1</i>
  <i type="int" name="MAXMIX">    50</i>
  <i type="int" name="NELM">   100</i>
  <i type="int" name="NELMDL">    -5</i>
  <i type="int" name="NELMIN">     5</i>
  <i type="int" name="IBRION">    -1</i>
  <i type="int" name="NFREE">     5</i>
  <i name="EDIFF">      0.00000010</i>
  <i name="EDIFFG">      0.00001000</i>
  <i type="int" name="NSW">     1</i>
  <i type="int" name="ISIF">     7</i>
  <i type="int" name="ISYM">     2</i>
  <i name="SYMPREC">      0.00000010</i>
  <i name="ENCUT">    600.00000000</i>
  <i name="POTIM">      0.10000000</i>
  <i type="logical" name="LREAL"> F  </i>
  <i type="int" name="ISMEAR">     1</i>
  <i name="SIGMA">      0.10000000</i>
  <i name="KSPACING">      0.20000000</i>
  <i type="int" name="NWRITE">     2</i>
  <i type="logical" name="LWAVE"> F  </i>
  <i type="logical" name="LCHARG"> F  </i>
  <i type="logical" name="LVTOT"> F  </i>
  <i type="logical" name="GGA_COMPAT"> F  </i>
  <v type="int" name="KPOINT_BSE">    -1     0     0     0</v>
  <i type="int" name="NELM">   100</i>
  <i type="string" name="GGA"> PE</i>
 </incar>
 <structure name="primitive_cell" >
  <crystal>
   <varray name="basis" >
    <v>       4.26082454       0.00000000       0.00000000 </v>
    <v>       2.13041227       3.68998229      -0.00000000 </v>
    <v>       2.13041227       1.22999410       3.47894867 </v>
   </varray>
   <i name="volume">     54.69730802 </i>
   <varray name="rec_basis" >
    <v>       0.23469636      -0.13550201      -0.09581439 </v>
    <v>       0.00000000       0.27100401      -0.09581439 </v>
    <v>      -0.00000000       0.00000000       0.28744316 </v>
   </varray>
  </crystal>
  <varray name="positions" >
   <v>       0.00000000       0.00000000       0.00000000 </v>
  </varray>
 </structure>
 <varray name="primitive_index" >
  <v type="int" >        1 </v>
 </varray>
 <kpoints>
  <generation param="Gamma">
   <v type="int" name="divisions">      10       10       10 </v>
   <v name="usershift">      0.00000000       0.00000000       0.00000000 </v>
   <v name="genvec1">      0.10000000       0.00000000       0.00000000 </v>
   <v name="genvec2">      0.00000000       0.10000000       0.00000000 </v>
   <v name="genvec3">      0.00000000      -0.00000000       0.10000000 </v>
   <v name="shift">      0.00000000       0.00000000       0.00000000 </v>
  </generation>
  <varray name="kpointlist" >
   <v>       0.00000000       0.00000000       0.00000000 </v>
   <v>       0.10000000       0.00000000       0.00000000 </v>
   <v>       0.20000000      -0.00000000       0.00000000 </v>
   <v>       0.30000000      -0.00000000       0.00000000 </v>
   <v>       0.40000000      -0.00000000       0.00000000 </v>
   <v>       0.50000000      -0.00000000       0.00000000 </v>
   <v>      -0.00000000       0.10000000      -0.00000000 </v>
   <v>       0.10000000       0.10000000      -0.00000000 </v>
   <v>       0.20000000       0.10000000       0.00000000 </v>
   <v>       0.30000000       0.10000000       0.00000000 </v>
   <v>       0.40000000       0.10000000       0.00000000 </v>
   <v>       0.50000000       0.10000000       0.00000000 </v>
   <v>      -0.40000000       0.10000000       0.00000000 </v>
   <v>      -0.30000000       0.10000000       0.00000000 </v>
   <v>      -0.20000000       0.10000000       0.00000000 </v>
   <v>      -0.10000000       0.10000000      -0.00000000 </v>
   <v>      -0.00000000       0.20000000      -0.00000000 </v>
   <v>       0.10000000       0.20000000      -0.00000000 </v>
   <v>       0.20000000       0.20000000      -0.00000000 </v>
   <v>       0.30000000       0.20000000      -0.00000000 </v>
   <v>       0.40000000       0.20000000       0.00000000 </v>
   <v>       0.50000000       0.20000000      -0.00000000 </v>
   <v>      -0.40000000       0.20000000      -0.00000000 </v>
   <v>      -0.30000000       0.20000000      -0.00000000 </v>
   <v>      -0.20000000       0.20000000      -0.00000000 </v>
   <v>      -0.10000000       0.20000000      -0.00000000 </v>
   <v>      -0.00000000       0.30000000      -0.00000000 </v>
   <v>       0.10000000       0.30000000      -0.00000000 </v>
   <v>       0.20000000       0.30000000      -0.00000000 </v>
   <v>       0.30000000       0.30000000      -0.00000000 </v>
   <v>       0.40000000       0.30000000      -0.00000000 </v>
   <v>       0.50000000       0.30000000      -0.00000000 </v>
   <v>      -0.40000000       0.30000000       0.00000000 </v>
   <v>      -0.30000000       0.30000000      -0.00000000 </v>
   <v>      -0.20000000       0.30000000      -0.00000000 </v>
   <v>      -0.10000000       0.30000000      -0.00000000 </v>
   <v>      -0.00000000       0.40000000      -0.00000000 </v>
   <v>       0.10000000       0.40000000      -0.00000000 </v>
   <v>       0.20000000       0.40000000      -0.00000000 </v>
   <v>       0.30000000       0.40000000      -0.00000000 </v>
   <v>       0.40000000       0.40000000      -0.00000000 </v>
   <v>       0.50000000       0.40000000      -0.00000000 </v>
   <v>      -0.40000000       0.40000000      -0.00000000 </v>
   <v>      -0.30000000       0.40000000      -0.00000000 </v>
   <v>      -0.20000000       0.40000000      -0.00000000 </v>
   <v>      -0.10000000       0.40000000      -0.00000000 </v>
   <v>       0.00000000       0.50000000      -0.00000000 </v>
   <v>       0.10000000       0.50000000      -0.00000000 </v>
   <v>       0.20000000       0.50000000       0.00000000 </v>
   <v>       0.30000000       0.50000000       0.00000000 </v>
   <v>       0.40000000       0.50000000       0.00000000 </v>
   <v>       0.50000000       0.50000000      -0.00000000 </v>
   <v>       0.00000000       0.00000000       0.10000000 </v>
   <v>       0.10000000       0.00000000       0.10000000 </v>
   <v>       0.20000000      -0.00000000       0.10000000 </v>
   <v>       0.30000000      -0.00000000       0.10000000 </v>
   <v>       0.40000000      -0.00000000       0.10000000 </v>
   <v>       0.50000000      -0.00000000       0.10000000 </v>
   <v>      -0.40000000       0.00000000       0.10000000 </v>
   <v>      -0.30000000       0.00000000       0.10000000 </v>
   <v>      -0.20000000       0.00000000       0.10000000 </v>
   <v>      -0.10000000       0.00000000       0.10000000 </v>
   <v>       0.00000000       0.10000000       0.10000000 </v>
   <v>       0.10000000       0.10000000       0.10000000 </v>
   <v>       0.20000000       0.10000000       0.10000000 </v>
   <v>       0.30000000       0.10000000       0.10000000 </v>
   <v>       0.40000000       0.10000000       0.10000000 </v>
   <v>       0.50000000       0.10000000       0.10000000 </v>
   <v>      -0.40000000       0.10000000       0.10000000 </v>
   <v>      -0.30000000       0.10000000       0.10000000 </v>
   <v>      -0.20000000       0.10000000       0.10000000 </v>
   <v>      -0.10000000       0.10000000       0.10000000 </v>
   <v>       0.00000000       0.20000000       0.10000000 </v>
   <v>       0.10000000       0.20000000       0.10000000 </v>
   <v>       0.20000000       0.20000000       0.10000000 </v>
   <v>       0.30000000       0.20000000       0.10000000 </v>
   <v>       0.40000000       0.20000000       0.10000000 </v>
   <v>       0.50000000       0.20000000       0.10000000 </v>
   <v>      -0.40000000       0.20000000       0.10000000 </v>
   <v>      -0.30000000       0.20000000       0.10000000 </v>
   <v>      -0.20000000       0.20000000       0.10000000 </v>
   <v>      -0.10000000       0.20000000       0.10000000 </v>
   <v>      -0.00000000       0.30000000       0.10000000 </v>
   <v>       0.10000000       0.30000000       0.10000000 </v>
   <v>       0.20000000       0.30000000       0.10000000 </v>
   <v>       0.30000000       0.30000000       0.10000000 </v>
   <v>       0.40000000       0.30000000       0.10000000 </v>
   <v>       0.50000000       0.30000000       0.10000000 </v>
   <v>      -0.40000000       0.30000000       0.10000000 </v>
   <v>      -0.30000000       0.30000000       0.10000000 </v>
   <v>      -0.20000000       0.30000000       0.10000000 </v>
   <v>      -0.10000000       0.30000000       0.10000000 </v>
   <v>       0.00000000       0.40000000       0.10000000 </v>
   <v>       0.10000000       0.40000000       0.10000000 </v>
   <v>       0.20000000       0.40000000       0.10000000 </v>
   <v>       0.30000000       0.40000000       0.10000000 </v>
   <v>       0.40000000       0.40000000       0.10000000 </v>
   <v>       0.50000000       0.40000000       0.10000000 </v>
   <v>      -0.40000000       0.40000000       0.10000000 </v>
   <v>      -0.30000000       0.40000000       0.10000000 </v>
   <v>      -0.20000000       0.40000000       0.10000000 </v>
   <v>      -0.10000000       0.40000000       0.10000000 </v>
   <v>       0.00000000       0.50000000       0.10000000 </v>
   <v>       0.10000000       0.50000000       0.10000000 </v>
   <v>       0.20000000       0.50000000       0.10000000 </v>
   <v>       0.30000000       0.50000000       0.10000000 </v>
   <v>       0.40000000       0.50000000       0.10000000 </v>
   <v>       0.50000000       0.50000000       0.10000000 </v>
   <v>      -0.40000000       0.50000000       0.10000000 </v>
   <v>      -0.30000000       0.50000000       0.10000000 </v>
   <v>      -0.20000000       0.50000000       0.10000000 </v>
   <v>      -0.10000000       0.50000000       0.10000000 </v>
   <v>       0.00000000      -0.40000000       0.10000000 </v>
   <v>       0.10000000      -0.40000000       0.10000000 </v>
   <v>       0.20000000      -0.40000000       0.10000000 </v>
   <v>       0.30000000      -0.40000000       0.10000000 </v>
   <v>       0.40000000      -0.40000000       0.10000000 </v>
   <v>       0.50000000      -0.40000000       0.10000000 </v>
   <v>      -0.40000000      -0.40000000       0.10000000 </v>
   <v>      -0.30000000      -0.40000000       0.10000000 </v>
   <v>      -0.20000000      -0.40000000       0.10000000 </v>
   <v>      -0.10000000      -0.40000000       0.10000000 </v>
   <v>       0.00000000      -0.30000000       0.10000000 </v>
   <v>       0.10000000      -0.30000000       0.10000000 </v>
   <v>       0.20000000      -0.30000000       0.10000000 </v>
   <v>       0.30000000      -0.30000000       0.10000000 </v>
   <v>       0.40000000      -0.30000000       0.10000000 </v>
   <v>       0.50000000      -0.30000000       0.10000000 </v>
   <v>      -0.40000000      -0.30000000       0.10000000 </v>
   <v>      -0.30000000      -0.30000000       0.10000000 </v>
   <v>      -0.20000000      -0.30000000       0.10000000 </v>
   <v>      -0.10000000      -0.30000000       0.10000000 </v>
   <v>       0.00000000      -0.20000000       0.10000000 </v>
   <v>       0.10000000      -0.20000000       0.10000000 </v>
   <v>       0.20000000      -0.20000000       0.10000000 </v>
   <v>       0.30000000      -0.20000000       0.10000000 </v>
   <v>       0.40000000      -0.20000000       0.10000000 </v>
   <v>       0.50000000      -0.20000000       0.10000000 </v>
   <v>      -0.40000000      -0.20000000       0.10000000 </v>
   <v>      -0.30000000      -0.20000000       0.10000000 </v>
   <v>      -0.20000000      -0.20000000       0.10000000 </v>
   <v>      -0.10000000      -0.20000000       0.10000000 </v>
   <v>       0.00000000      -0.10000000       0.10000000 </v>
   <v>       0.10000000      -0.10000000       0.10000000 </v>
   <v>       0.20000000      -0.10000000       0.10000000 </v>
   <v>       0.30000000      -0.10000000       0.10000000 </v>
   <v>       0.40000000      -0.10000000       0.10000000 </v>
   <v>       0.50000000      -0.10000000       0.10000000 </v>
   <v>      -0.40000000      -0.10000000       0.10000000 </v>
   <v>      -0.30000000      -0.10000000       0.10000000 </v>
   <v>      -0.20000000      -0.10000000       0.10000000 </v>
   <v>      -0.10000000      -0.10000000       0.10000000 </v>
   <v>       0.00000000       0.00000000       0.20000000 </v>
   <v>       0.10000000      -0.00000000       0.20000000 </v>
   <v>       0.20000000       0.00000000       0.20000000 </v>
   <v>       0.30000000      -0.00000000       0.20000000 </v>
   <v>       0.40000000      -0.00000000       0.20000000 </v>
   <v>       0.50000000      -0.00000000       0.20000000 </v>
   <v>      -0.40000000       0.00000000       0.20000000 </v>
   <v>      -0.30000000       0.00000000       0.20000000 </v>
   <v>      -0.20000000       0.00000000       0.20000000 </v>
   <v>      -0.10000000       0.00000000       0.20000000 </v>
   <v>       0.00000000       0.10000000       0.20000000 </v>
   <v>       0.10000000       0.10000000       0.20000000 </v>
   <v>       0.20000000       0.10000000       0.20000000 </v>
   <v>       0.30000000       0.10000000       0.20000000 </v>
   <v>       0.40000000       0.10000000       0.20000000 </v>
   <v>       0.50000000       0.10000000       0.20000000 </v>
   <v>      -0.40000000       0.10000000       0.20000000 </v>
   <v>      -0.30000000       0.10000000       0.20000000 </v>
   <v>      -0.20000000       0.10000000       0.20000000 </v>
   <v>      -0.10000000       0.10000000       0.20000000 </v>
   <v>       0.00000000       0.20000000       0.20000000 </v>
   <v>       0.10000000       0.20000000       0.20000000 </v>
   <v>       0.20000000       0.20000000       0.20000000 </v>
   <v>       0.30000000       0.20000000       0.20000000 </v>
   <v>       0.40000000       0.20000000       0.20000000 </v>
   <v>       0.50000000       0.20000000       0.20000000 </v>
   <v>      -0.40000000       0.20000000       0.20000000 </v>
   <v>      -0.30000000       0.20000000       0.20000000 </v>
   <v>      -0.20000000       0.20000000       0.20000000 </v>
   <v>      -0.10000000       0.20000000       0.20000000 </v>
   <v>       0.00000000       0.30000000       0.20000000 </v>
   <v>       0.10000000       0.30000000       0.20000000 </v>
   <v>       0.20000000       0.30000000       0.20000000 </v>
   <v>       0.30000000       0.30000000       0.20000000 </v>
   <v>       0.40000000       0.30000000       0.20000000 </v>
   <v>       0.50000000       0.30000000       0.20000000 </v>
   <v>      -0.40000000       0.30000000       0.20000000 </v>
   <v>      -0.30000000       0.30000000       0.20000000 </v>
   <v>      -0.20000000       0.30000000       0.20000000 </v>
   <v>      -0.10000000       0.30000000       0.20000000 </v>
   <v>       0.00000000       0.40000000       0.20000000 </v>
   <v>       0.10000000       0.40000000       0.20000000 </v>
   <v>       0.20000000       0.40000000       0.20000000 </v>
   <v>       0.30000000       0.40000000       0.20000000 </v>
   <v>       0.40000000       0.40000000       0.20000000 </v>
   <v>       0.50000000       0.40000000       0.20000000 </v>
   <v>      -0.40000000       0.40000000       0.20000000 </v>
   <v>      -0.30000000       0.40000000       0.20000000 </v>
   <v>      -0.20000000       0.40000000       0.20000000 </v>
   <v>      -0.10000000       0.40000000       0.20000000 </v>
   <v>       0.00000000       0.50000000       0.20000000 </v>
   <v>       0.10000000       0.50000000       0.20000000 </v>
   <v>       0.20000000       0.50000000       0.20000000 </v>
   <v>       0.30000000       0.50000000       0.20000000 </v>
   <v>       0.40000000       0.50000000       0.20000000 </v>
   <v>       0.50000000       0.50000000       0.20000000 </v>
   <v>      -0.40000000       0.50000000       0.20000000 </v>
   <v>      -0.30000000       0.50000000       0.20000000 </v>
   <v>      -0.20000000       0.50000000       0.20000000 </v>
   <v>      -0.10000000       0.50000000       0.20000000 </v>
   <v>       0.00000000      -0.40000000       0.20000000 </v>
   <v>       0.10000000      -0.40000000       0.20000000 </v>
   <v>       0.20000000      -0.40000000       0.20000000 </v>
   <v>       0.30000000      -0.40000000       0.20000000 </v>
   <v>       0.40000000      -0.40000000       0.20000000 </v>
   <v>       0.50000000      -0.40000000       0.20000000 </v>
   <v>      -0.40000000      -0.40000000       0.20000000 </v>
   <v>      -0.30000000      -0.40000000       0.20000000 </v>
   <v>      -0.20000000      -0.40000000       0.20000000 </v>
   <v>      -0.10000000      -0.40000000       0.20000000 </v>
   <v>       0.00000000      -0.30000000       0.20000000 </v>
   <v>       0.10000000      -0.30000000       0.20000000 </v>
   <v>       0.20000000      -0.30000000       0.20000000 </v>
   <v>       0.30000000      -0.30000000       0.20000000 </v>
   <v>       0.40000000      -0.30000000       0.20000000 </v>
   <v>       0.50000000      -0.30000000       0.20000000 </v>
   <v>      -0.40000000      -0.30000000       0.20000000 </v>
   <v>      -0.30000000      -0.30000000       0.20000000 </v>
   <v>      -0.20000000      -0.30000000       0.20000000 </v>
   <v>      -0.10000000      -0.30000000       0.20000000 </v>
   <v>       0.00000000      -0.20000000       0.20000000 </v>
   <v>       0.10000000      -0.20000000       0.20000000 </v>
   <v>       0.20000000      -0.20000000       0.20000000 </v>
   <v>       0.30000000      -0.20000000       0.20000000 </v>
   <v>       0.40000000      -0.20000000       0.20000000 </v>
   <v>       0.50000000      -0.20000000       0.20000000 </v>
   <v>      -0.40000000      -0.20000000       0.20000000 </v>
   <v>      -0.30000000      -0.20000000       0.20000000 </v>
   <v>      -0.20000000      -0.20000000       0.20000000 </v>
   <v>      -0.10000000      -0.20000000       0.20000000 </v>
   <v>       0.00000000      -0.10000000       0.20000000 </v>
   <v>       0.10000000      -0.10000000       0.20000000 </v>
   <v>       0.20000000      -0.10000000       0.20000000 </v>
   <v>       0.30000000      -0.10000000       0.20000000 </v>
   <v>       0.40000000      -0.10000000       0.20000000 </v>
   <v>       0.50000000      -0.10000000       0.20000000 </v>
   <v>      -0.40000000      -0.10000000       0.20000000 </v>
   <v>      -0.30000000      -0.10000000       0.20000000 </v>
   <v>      -0.20000000      -0.10000000       0.20000000 </v>
   <v>      -0.10000000      -0.10000000       0.20000000 </v>
   <v>       0.00000000       0.00000000       0.30000000 </v>
   <v>       0.10000000      -0.00000000       0.30000000 </v>
   <v>       0.20000000      -0.00000000       0.30000000 </v>
   <v>       0.30000000      -0.00000000       0.30000000 </v>
   <v>       0.40000000      -0.00000000       0.30000000 </v>
   <v>       0.50000000      -0.00000000       0.30000000 </v>
   <v>      -0.40000000       0.00000000       0.30000000 </v>
   <v>      -0.30000000       0.00000000       0.30000000 </v>
   <v>      -0.20000000       0.00000000       0.30000000 </v>
   <v>      -0.10000000      -0.00000000       0.30000000 </v>
   <v>       0.00000000       0.10000000       0.30000000 </v>
   <v>       0.10000000       0.10000000       0.30000000 </v>
   <v>       0.20000000       0.10000000       0.30000000 </v>
   <v>       0.30000000       0.10000000       0.30000000 </v>
   <v>       0.40000000       0.10000000       0.30000000 </v>
   <v>       0.50000000       0.10000000       0.30000000 </v>
   <v>      -0.40000000       0.10000000       0.30000000 </v>
   <v>      -0.30000000       0.10000000       0.30000000 </v>
   <v>      -0.20000000       0.10000000       0.30000000 </v>
   <v>      -0.10000000       0.10000000       0.30000000 </v>
   <v>       0.00000000       0.20000000       0.30000000 </v>
   <v>       0.10000000       0.20000000       0.30000000 </v>
   <v>       0.20000000       0.20000000       0.30000000 </v>
   <v>       0.30000000       0.20000000       0.30000000 </v>
   <v>       0.40000000       0.20000000       0.30000000 </v>
   <v>       0.50000000       0.20000000       0.30000000 </v>
   <v>      -0.40000000       0.20000000       0.30000000 </v>
   <v>      -0.30000000       0.20000000       0.30000000 </v>
   <v>      -0.20000000       0.20000000       0.30000000 </v>
   <v>      -0.10000000       0.20000000       0.30000000 </v>
   <v>       0.00000000       0.30000000       0.30000000 </v>
   <v>       0.10000000       0.30000000       0.30000000 </v>
   <v>       0.20000000       0.30000000       0.30000000 </v>
   <v>       0.30000000       0.30000000       0.30000000 </v>
   <v>       0.40000000       0.30000000       0.30000000 </v>
   <v>       0.50000000       0.30000000       0.30000000 </v>
   <v>      -0.40000000       0.30000000       0.30000000 </v>
   <v>      -0.30000000       0.30000000       0.30000000 </v>
   <v>      -0.20000000       0.30000000       0.30000000 </v>
   <v>      -0.10000000       0.30000000       0.30000000 </v>
   <v>       0.00000000       0.40000000       0.30000000 </v>
   <v>       0.10000000       0.40000000       0.30000000 </v>
   <v>       0.20000000       0.40000000       0.30000000 </v>
   <v>       0.30000000       0.40000000       0.30000000 </v>
   <v>       0.40000000       0.40000000       0.30000000 </v>
   <v>       0.50000000       0.40000000       0.30000000 </v>
   <v>      -0.40000000       0.40000000       0.30000000 </v>
   <v>      -0.30000000       0.40000000       0.30000000 </v>
   <v>      -0.20000000       0.40000000       0.30000000 </v>
   <v>      -0.10000000       0.40000000       0.30000000 </v>
   <v>       0.00000000       0.50000000       0.30000000 </v>
   <v>       0.10000000       0.50000000       0.30000000 </v>
   <v>       0.20000000       0.50000000       0.30000000 </v>
   <v>       0.30000000       0.50000000       0.30000000 </v>
   <v>       0.40000000       0.50000000       0.30000000 </v>
   <v>       0.50000000       0.50000000       0.30000000 </v>
   <v>      -0.40000000       0.50000000       0.30000000 </v>
   <v>      -0.30000000       0.50000000       0.30000000 </v>
   <v>      -0.20000000       0.50000000       0.30000000 </v>
   <v>      -0.10000000       0.50000000       0.30000000 </v>
   <v>       0.00000000      -0.40000000       0.30000000 </v>
   <v>       0.10000000      -0.40000000       0.30000000 </v>
   <v>       0.20000000      -0.40000000       0.30000000 </v>
   <v>       0.30000000      -0.40000000       0.30000000 </v>
   <v>       0.40000000      -0.40000000       0.30000000 </v>
   <v>       0.50000000      -0.40000000       0.30000000 </v>
   <v>      -0.40000000      -0.40000000       0.30000000 </v>
   <v>      -0.30000000      -0.40000000       0.30000000 </v>
   <v>      -0.20000000      -0.40000000       0.30000000 </v>
   <v>      -0.10000000      -0.40000000       0.30000000 </v>
   <v>       0.00000000      -0.30000000       0.30000000 </v>
   <v>       0.10000000      -0.30000000       0.30000000 </v>
   <v>       0.20000000      -0.30000000       0.30000000 </v>
   <v>       0.30000000      -0.30000000       0.30000000 </v>
   <v>       0.40000000      -0.30000000       0.30000000 </v>
   <v>       0.50000000      -0.30000000       0.30000000 </v>
   <v>      -0.40000000      -0.30000000       0.30000000 </v>
   <v>      -0.30000000      -0.30000000       0.30000000 </v>
   <v>      -0.20000000      -0.30000000       0.30000000 </v>
   <v>      -0.10000000      -0.30000000       0.30000000 </v>
   <v>       0.00000000      -0.20000000       0.30000000 </v>
   <v>       0.10000000      -0.20000000       0.30000000 </v>
   <v>       0.20000000      -0.20000000       0.30000000 </v>
   <v>       0.30000000      -0.20000000       0.30000000 </v>
   <v>       0.40000000      -0.20000000       0.30000000 </v>
   <v>       0.50000000      -0.20000000       0.30000000 </v>
   <v>      -0.40000000      -0.20000000       0.30000000 </v>
   <v>      -0.30000000      -0.20000000       0.30000000 </v>
   <v>      -0.20000000      -0.20000000       0.30000000 </v>
   <v>      -0.10000000      -0.20000000       0.30000000 </v>
   <v>       0.00000000      -0.10000000       0.30000000 </v>
   <v>       0.10000000      -0.10000000       0.30000000 </v>
   <v>       0.20000000      -0.10000000       0.30000000 </v>
   <v>       0.30000000      -0.10000000       0.30000000 </v>
   <v>       0.40000000      -0.10000000       0.30000000 </v>
   <v>       0.50000000      -0.10000000       0.30000000 </v>
   <v>      -0.40000000      -0.10000000       0.30000000 </v>
   <v>      -0.30000000      -0.10000000       0.30000000 </v>
   <v>      -0.20000000      -0.10000000       0.30000000 </v>
   <v>      -0.10000000      -0.10000000       0.30000000 </v>
   <v>       0.00000000       0.00000000       0.40000000 </v>
   <v>       0.10000000      -0.00000000       0.40000000 </v>
   <v>       0.20000000      -0.00000000       0.40000000 </v>
   <v>       0.30000000       0.00000000       0.40000000 </v>
   <v>       0.40000000       0.00000000       0.40000000 </v>
   <v>       0.50000000      -0.00000000       0.40000000 </v>
   <v>      -0.40000000       0.00000000       0.40000000 </v>
   <v>      -0.30000000       0.00000000       0.40000000 </v>
   <v>      -0.20000000       0.00000000       0.40000000 </v>
   <v>      -0.10000000       0.00000000       0.40000000 </v>
   <v>       0.00000000       0.10000000       0.40000000 </v>
   <v>       0.10000000       0.10000000       0.40000000 </v>
   <v>       0.20000000       0.10000000       0.40000000 </v>
   <v>       0.30000000       0.10000000       0.40000000 </v>
   <v>       0.40000000       0.10000000       0.40000000 </v>
   <v>       0.50000000       0.10000000       0.40000000 </v>
   <v>      -0.40000000       0.10000000       0.40000000 </v>
   <v>      -0.30000000       0.10000000       0.40000000 </v>
   <v>      -0.20000000       0.10000000       0.40000000 </v>
   <v>      -0.10000000       0.10000000       0.40000000 </v>
   <v>       0.00000000       0.20000000       0.40000000 </v>
   <v>       0.10000000       0.20000000       0.40000000 </v>
   <v>       0.20000000       0.20000000       0.40000000 </v>
   <v>       0.30000000       0.20000000       0.40000000 </v>
   <v>       0.40000000       0.20000000       0.40000000 </v>
   <v>       0.50000000       0.20000000       0.40000000 </v>
   <v>      -0.40000000       0.20000000       0.40000000 </v>
   <v>      -0.30000000       0.20000000       0.40000000 </v>
   <v>      -0.20000000       0.20000000       0.40000000 </v>
   <v>      -0.10000000       0.20000000       0.40000000 </v>
   <v>       0.00000000       0.30000000       0.40000000 </v>
   <v>       0.10000000       0.30000000       0.40000000 </v>
   <v>       0.20000000       0.30000000       0.40000000 </v>
   <v>       0.30000000       0.30000000       0.40000000 </v>
   <v>       0.40000000       0.30000000       0.40000000 </v>
   <v>       0.50000000       0.30000000       0.40000000 </v>
   <v>      -0.40000000       0.30000000       0.40000000 </v>
   <v>      -0.30000000       0.30000000       0.40000000 </v>
   <v>      -0.20000000       0.30000000       0.40000000 </v>
   <v>      -0.10000000       0.30000000       0.40000000 </v>
   <v>       0.00000000       0.40000000       0.40000000 </v>
   <v>       0.10000000       0.40000000       0.40000000 </v>
   <v>       0.20000000       0.40000000       0.40000000 </v>
   <v>       0.30000000       0.40000000       0.40000000 </v>
   <v>       0.40000000       0.40000000       0.40000000 </v>
   <v>       0.50000000       0.40000000       0.40000000 </v>
   <v>      -0.40000000       0.40000000       0.40000000 </v>
   <v>      -0.30000000       0.40000000       0.40000000 </v>
   <v>      -0.20000000       0.40000000       0.40000000 </v>
   <v>      -0.10000000       0.40000000       0.40000000 </v>
   <v>       0.00000000       0.50000000       0.40000000 </v>
   <v>       0.10000000       0.50000000       0.40000000 </v>
   <v>       0.20000000       0.50000000       0.40000000 </v>
   <v>       0.30000000       0.50000000       0.40000000 </v>
   <v>       0.40000000       0.50000000       0.40000000 </v>
   <v>       0.50000000       0.50000000       0.40000000 </v>
   <v>      -0.40000000       0.50000000       0.40000000 </v>
   <v>      -0.30000000       0.50000000       0.40000000 </v>
   <v>      -0.20000000       0.50000000       0.40000000 </v>
   <v>      -0.10000000       0.50000000       0.40000000 </v>
   <v>       0.00000000      -0.40000000       0.40000000 </v>
   <v>       0.10000000      -0.40000000       0.40000000 </v>
   <v>       0.20000000      -0.40000000       0.40000000 </v>
   <v>       0.30000000      -0.40000000       0.40000000 </v>
   <v>       0.40000000      -0.40000000       0.40000000 </v>
   <v>       0.50000000      -0.40000000       0.40000000 </v>
   <v>      -0.40000000      -0.40000000       0.40000000 </v>
   <v>      -0.30000000      -0.40000000       0.40000000 </v>
   <v>      -0.20000000      -0.40000000       0.40000000 </v>
   <v>      -0.10000000      -0.40000000       0.40000000 </v>
   <v>       0.00000000      -0.30000000       0.40000000 </v>
   <v>       0.10000000      -0.30000000       0.40000000 </v>
   <v>       0.20000000      -0.30000000       0.40000000 </v>
   <v>       0.30000000      -0.30000000       0.40000000 </v>
   <v>       0.40000000      -0.30000000       0.40000000 </v>
   <v>       0.50000000      -0.30000000       0.40000000 </v>
   <v>      -0.40000000      -0.30000000       0.40000000 </v>
   <v>      -0.30000000      -0.30000000       0.40000000 </v>
   <v>      -0.20000000      -0.30000000       0.40000000 </v>
   <v>      -0.10000000      -0.30000000       0.40000000 </v>
   <v>       0.00000000      -0.20000000       0.40000000 </v>
   <v>       0.10000000      -0.20000000       0.40000000 </v>
   <v>       0.20000000      -0.20000000       0.40000000 </v>
   <v>       0.30000000      -0.20000000       0.40000000 </v>
   <v>       0.40000000      -0.20000000       0.40000000 </v>
   <v>       0.50000000      -0.20000000       0.40000000 </v>
   <v>      -0.40000000      -0.20000000       0.40000000 </v>
   <v>      -0.30000000      -0.20000000       0.40000000 </v>
   <v>      -0.20000000      -0.20000000       0.40000000 </v>
   <v>      -0.10000000      -0.20000000       0.40000000 </v>
   <v>       0.00000000      -0.10000000       0.40000000 </v>
   <v>       0.10000000      -0.10000000       0.40000000 </v>
   <v>       0.20000000      -0.10000000       0.40000000 </v>
   <v>       0.30000000      -0.10000000       0.40000000 </v>
   <v>       0.40000000      -0.10000000       0.40000000 </v>
   <v>       0.50000000      -0.10000000       0.40000000 </v>
   <v>      -0.40000000      -0.10000000       0.40000000 </v>
   <v>      -0.30000000      -0.10000000       0.40000000 </v>
   <v>      -0.20000000      -0.10000000       0.40000000 </v>
   <v>      -0.10000000      -0.10000000       0.40000000 </v>
   <v>       0.00000000       0.00000000       0.50000000 </v>
   <v>       0.10000000      -0.00000000       0.50000000 </v>
   <v>       0.20000000       0.00000000       0.50000000 </v>
   <v>       0.30000000      -0.00000000       0.50000000 </v>
   <v>       0.40000000       0.00000000       0.50000000 </v>
   <v>       0.50000000      -0.00000000       0.50000000 </v>
   <v>       0.00000000       0.10000000       0.50000000 </v>
   <v>       0.10000000       0.10000000       0.50000000 </v>
   <v>       0.20000000       0.10000000       0.50000000 </v>
   <v>       0.30000000       0.10000000       0.50000000 </v>
   <v>       0.40000000       0.10000000       0.50000000 </v>
   <v>       0.50000000       0.10000000       0.50000000 </v>
   <v>      -0.40000000       0.10000000       0.50000000 </v>
   <v>      -0.30000000       0.10000000       0.50000000 </v>
   <v>      -0.20000000       0.10000000       0.50000000 </v>
   <v>      -0.10000000       0.10000000       0.50000000 </v>
   <v>       0.00000000       0.20000000       0.50000000 </v>
   <v>       0.10000000       0.20000000       0.50000000 </v>
   <v>       0.20000000       0.20000000       0.50000000 </v>
   <v>       0.30000000       0.20000000       0.50000000 </v>
   <v>       0.40000000       0.20000000       0.50000000 </v>
   <v>       0.50000000       0.20000000       0.50000000 </v>
   <v>      -0.40000000       0.20000000       0.50000000 </v>
   <v>      -0.30000000       0.20000000       0.50000000 </v>
   <v>      -0.20000000       0.20000000       0.50000000 </v>
   <v>      -0.10000000       0.20000000       0.50000000 </v>
   <v>       0.00000000       0.30000000       0.50000000 </v>
   <v>       0.10000000       0.30000000       0.50000000 </v>
   <v>       0.20000000       0.30000000       0.50000000 </v>
   <v>       0.30000000       0.30000000       0.50000000 </v>
   <v>       0.40000000       0.30000000       0.50000000 </v>
   <v>       0.50000000       0.30000000       0.50000000 </v>
   <v>      -0.40000000       0.30000000       0.50000000 </v>
   <v>      -0.30000000       0.30000000       0.50000000 </v>
   <v>      -0.20000000       0.30000000       0.50000000 </v>
   <v>      -0.10000000       0.30000000       0.50000000 </v>
   <v>       0.00000000       0.40000000       0.50000000 </v>
   <v>       0.10000000       0.40000000       0.50000000 </v>
   <v>       0.20000000       0.40000000       0.50000000 </v>
   <v>       0.30000000       0.40000000       0.50000000 </v>
   <v>       0.40000000       0.40000000       0.50000000 </v>
   <v>       0.50000000       0.40000000       0.50000000 </v>
   <v>      -0.40000000       0.40000000       0.50000000 </v>
   <v>      -0.30000000       0.40000000       0.50000000 </v>
   <v>      -0.20000000       0.40000000       0.50000000 </v>
   <v>      -0.10000000       0.40000000       0.50000000 </v>
   <v>       0.00000000       0.50000000       0.50000000 </v>
   <v>       0.10000000       0.50000000       0.50000000 </v>
   <v>       0.20000000       0.50000000       0.50000000 </v>
   <v>       0.30000000       0.50000000       0.50000000 </v>
   <v>       0.40000000       0.50000000       0.50000000 </v>
   <v>       0.50000000       0.50000000       0.50000000 </v>
  </varray>
  <varray name="weights" >
   <v>       0.00100000 </v>
   <v>       0.00200000 </v>
   <v>       0.00200000 </v>
   <v>       0.00200000 </v>
   <v>       0.00200000 </v>
   <v>       0.00100000 </v>
   <v>       0.00200000 </v>
   <v>       0.00200000 </v>
   <v>       0.00200000 </v>
   <v>       0.00200000 </v>
   <v>       0.00200000 </v>
   <v>       0.00200000 </v>
   <v>       0.00200000 </v>
   <v>       0.00200000 </v>
   <v>       0.00200000 </v>
   <v>       0.00200000 </v>
   <v>       0.00200000 </v>
   <v>       0.00200000 </v>
   <v>       0.00200000 </v>
   <v>       0.00200000 </v>
   <v>       0.00200000 </v>
   <v>       0.00200000 </v>
   <v>       0.00200000 </v>
   <v>       0.00200000 </v>
   <v>       0.00200000 </v>
   <v>       0.00200000 </v>
   <v>       0.00200000 </v>
   <v>       0.00200000 </v>
   <v>       0.00200000 </v>
   <v>       0.00200000 </v>
   <v>       0.00200000 </v>
   <v>       0.00200000 </v>
   <v>       0.00200000 </v>
   <v>       0.00200000 </v>
   <v>       0.00200000 </v>
   <v>       0.00200000 </v>
   <v>       0.00200000 </v>
   <v>       0.00200000 </v>
   <v>       0.00200000 </v>
   <v>       0.00200000 </v>
   <v>       0.00200000 </v>
   <v>       0.00200000 </v>
   <v>       0.00200000 </v>
   <v>       0.00200000 </v>
   <v>       0.00200000 </v>
   <v>       0.00200000 </v>
   <v>       0.00100000 </v>
   <v>       0.00200000 </v>
   <v>       0.00200000 </v>
   <v>       0.00200000 </v>
   <v>       0.00200000 </v>
   <v>       0.00100000 </v>
   <v>       0.00200000 </v>
   <v>       0.00200000 </v>
   <v>       0.00200000 </v>
   <v>       0.00200000 </v>
   <v>       0.00200000 </v>
   <v>       0.00200000 </v>
   <v>       0.00200000 </v>
   <v>       0.00200000 </v>
   <v>       0.00200000 </v>
   <v>       0.00200000 </v>
   <v>       0.00200000 </v>
   <v>       0.00200000 </v>
   <v>       0.00200000 </v>
   <v>       0.00200000 </v>
   <v>       0.00200000 </v>
   <v>       0.00200000 </v>
   <v>       0.00200000 </v>
   <v>       0.00200000 </v>
   <v>       0.00200000 </v>
   <v>       0.00200000 </v>
   <v>       0.00200000 </v>
   <v>       0.00200000 </v>
   <v>       0.00200000 </v>
   <v>       0.00200000 </v>
   <v>       0.00200000 </v>
   <v>       0.00200000 </v>
   <v>       0.00200000 </v>
   <v>       0.00200000 </v>
   <v>       0.00200000 </v>
   <v>       0.00200000 </v>
   <v>       0.00200000 </v>
   <v>       0.00200000 </v>
   <v>       0.00200000 </v>
   <v>       0.00200000 </v>
   <v>       0.00200000 </v>
   <v>       0.00200000 </v>
   <v>       0.00200000 </v>
   <v>       0.00200000 </v>
   <v>       0.00200000 </v>
   <v>       0.00200000 </v>
   <v>       0.00200000 </v>
   <v>       0.00200000 </v>
   <v>       0.00200000 </v>
   <v>       0.00200000 </v>
   <v>       0.00200000 </v>
   <v>       0.00200000 </v>
   <v>       0.00200000 </v>
   <v>       0.00200000 </v>
   <v>       0.00200000 </v>
   <v>       0.00200000 </v>
   <v>       0.00200000 </v>
   <v>       0.00200000 </v>
   <v>       0.00200000 </v>
   <v>       0.00200000 </v>
   <v>       0.00200000 </v>
   <v>       0.00200000 </v>
   <v>       0.00200000 </v>
   <v>       0.00200000 </v>
   <v>       0.00200000 </v>
   <v>       0.00200000 </v>
   <v>       0.00200000 </v>
   <v>       0.00200000 </v>
   <v>       0.00200000 </v>
   <v>       0.00200000 </v>
   <v>       0.00200000 </v>
   <v>       0.00200000 </v>
   <v>       0.00200000 </v>
   <v>       0.00200000 </v>
   <v>       0.00200000 </v>
   <v>       0.00200000 </v>
   <v>       0.00200000 </v>
   <v>       0.00200000 </v>
   <v>       0.00200000 </v>
   <v>       0.00200000 </v>
   <v>       0.00200000 </v>
   <v>       0.00200000 </v>
   <v>       0.00200000 </v>
   <v>       0.00200000 </v>
   <v>       0.00200000 </v>
   <v>       0.00200000 </v>
   <v>       0.00200000 </v>
   <v>       0.00200000 </v>
   <v>       0.00200000 </v>
   <v>       0.00200000 </v>
   <v>       0.00200000 </v>
   <v>       0.00200000 </v>
   <v>       0.00200000 </v>
   <v>       0.00200000 </v>
   <v>       0.00200000 </v>
   <v>       0.00200000 </v>
   <v>       0.00200000 </v>
   <v>       0.00200000 </v>
   <v>       0.00200000 </v>
   <v>       0.00200000 </v>
   <v>       0.00200000 </v>
   <v>       0.00200000 </v>
   <v>       0.00200000 </v>
   <v>       0.00200000 </v>
   <v>       0.00200000 </v>
   <v>       0.00200000 </v>
   <v>       0.00200000 </v>
   <v>       0.00200000 </v>
   <v>       0.00200000 </v>
   <v>       0.00200000 </v>
   <v>       0.00200000 </v>
   <v>       0.00200000 </v>
   <v>       0.00200000 </v>
   <v>       0.00200000 </v>
   <v>       0.00200000 </v>
   <v>       0.00200000 </v>
   <v>       0.00200000 </v>
   <v>       0.00200000 </v>
   <v>       0.00200000 </v>
   <v>       0.00200000 </v>
   <v>       0.00200000 </v>
   <v>       0.00200000 </v>
   <v>       0.00200000 </v>
   <v>       0.00200000 </v>
   <v>       0.00200000 </v>
   <v>       0.00200000 </v>
   <v>       0.00200000 </v>
   <v>       0.00200000 </v>
   <v>       0.00200000 </v>
   <v>       0.00200000 </v>
   <v>       0.00200000 </v>
   <v>       0.00200000 </v>
   <v>       0.00200000 </v>
   <v>       0.00200000 </v>
   <v>       0.00200000 </v>
   <v>       0.00200000 </v>
   <v>       0.00200000 </v>
   <v>       0.00200000 </v>
   <v>       0.00200000 </v>
   <v>       0.00200000 </v>
   <v>       0.00200000 </v>
   <v>       0.00200000 </v>
   <v>       0.00200000 </v>
   <v>       0.00200000 </v>
   <v>       0.00200000 </v>
   <v>       0.00200000 </v>
   <v>       0.00200000 </v>
   <v>       0.00200000 </v>
   <v>       0.00200000 </v>
   <v>       0.00200000 </v>
   <v>       0.00200000 </v>
   <v>       0.00200000 </v>
   <v>       0.00200000 </v>
   <v>       0.00200000 </v>
   <v>       0.00200000 </v>
   <v>       0.00200000 </v>
   <v>       0.00200000 </v>
   <v>       0.00200000 </v>
   <v>       0.00200000 </v>
   <v>       0.00200000 </v>
   <v>       0.00200000 </v>
   <v>       0.00200000 </v>
   <v>       0.00200000 </v>
   <v>       0.00200000 </v>
   <v>       0.00200000 </v>
   <v>       0.00200000 </v>
   <v>       0.00200000 </v>
   <v>       0.00200000 </v>
   <v>       0.00200000 </v>
   <v>       0.00200000 </v>
   <v>       0.00200000 </v>
   <v>       0.00200000 </v>
   <v>       0.00200000 </v>
   <v>       0.00200000 </v>
   <v>       0.00200000 </v>
   <v>       0.00200000 </v>
   <v>       0.00200000 </v>
   <v>       0.00200000 </v>
   <v>       0.00200000 </v>
   <v>       0.00200000 </v>
   <v>       0.00200000 </v>
   <v>       0.00200000 </v>
   <v>       0.00200000 </v>
   <v>       0.00200000 </v>
   <v>       0.00200000 </v>
   <v>       0.00200000 </v>
   <v>       0.00200000 </v>
   <v>       0.00200000 </v>
   <v>       0.00200000 </v>
   <v>       0.00200000 </v>
   <v>       0.00200000 </v>
   <v>       0.00200000 </v>
   <v>       0.00200000 </v>
   <v>       0.00200000 </v>
   <v>       0.00200000 </v>
   <v>       0.00200000 </v>
   <v>       0.00200000 </v>
   <v>       0.00200000 </v>
   <v>       0.00200000 </v>
   <v>       0.00200000 </v>
   <v>       0.00200000 </v>
   <v>       0.00200000 </v>
   <v>       0.00200000 </v>
   <v>       0.00200000 </v>
   <v>       0.00200000 </v>
   <v>       0.00200000 </v>
   <v>       0.00200000 </v>
   <v>       0.00200000 </v>
   <v>       0.00200000 </v>
   <v>       0.00200000 </v>
   <v>       0.00200000 </v>
   <v>       0.00200000 </v>
   <v>       0.00200000 </v>
   <v>       0.00200000 </v>
   <v>       0.00200000 </v>
   <v>       0.00200000 </v>
   <v>       0.00200000 </v>
   <v>       0.00200000 </v>
   <v>       0.00200000 </v>
   <v>       0.00200000 </v>
   <v>       0.00200000 </v>
   <v>       0.00200000 </v>
   <v>       0.00200000 </v>
   <v>       0.00200000 </v>
   <v>       0.00200000 </v>
   <v>       0.00200000 </v>
   <v>       0.00200000 </v>
   <v>       0.00200000 </v>
   <v>       0.00200000 </v>
   <v>       0.00200000 </v>
   <v>       0.00200000 </v>
   <v>       0.00200000 </v>
   <v>       0.00200000 </v>
   <v>       0.00200000 </v>
   <v>       0.00200000 </v>
   <v>       0.00200000 </v>
   <v>       0.00200000 </v>
   <v>       0.00200000 </v>
   <v>       0.00200000 </v>
   <v>       0.00200000 </v>
   <v>       0.00200000 </v>
   <v>       0.00200000 </v>
   <v>       0.00200000 </v>
   <v>       0.00200000 </v>
   <v>       0.00200000 </v>
   <v>       0.00200000 </v>
   <v>       0.00200000 </v>
   <v>       0.00200000 </v>
   <v>       0.00200000 </v>
   <v>       0.00200000 </v>
   <v>       0.00200000 </v>
   <v>       0.00200000 </v>
   <v>       0.00200000 </v>
   <v>       0.00200000 </v>
   <v>       0.00200000 </v>
   <v>       0.00200000 </v>
   <v>       0.00200000 </v>
   <v>       0.00200000 </v>
   <v>       0.00200000 </v>
   <v>       0.00200000 </v>
   <v>       0.00200000 </v>
   <v>       0.00200000 </v>
   <v>       0.00200000 </v>
   <v>       0.00200000 </v>
   <v>       0.00200000 </v>
   <v>       0.00200000 </v>
   <v>       0.00200000 </v>
   <v>       0.00200000 </v>
   <v>       0.00200000 </v>
   <v>       0.00200000 </v>
   <v>       0.00200000 </v>
   <v>       0.00200000 </v>
   <v>       0.00200000 </v>
   <v>       0.00200000 </v>
   <v>       0.00200000 </v>
   <v>       0.00200000 </v>
   <v>       0.00200000 </v>
   <v>       0.00200000 </v>
   <v>       0.00200000 </v>
   <v>       0.00200000 </v>
   <v>       0.00200000 </v>
   <v>       0.00200000 </v>
   <v>       0.00200000 </v>
   <v>       0.00200000 </v>
   <v>       0.00200000 </v>
   <v>       0.00200000 </v>
   <v>       0.00200000 </v>
   <v>       0.00200000 </v>
   <v>       0.00200000 </v>
   <v>       0.00200000 </v>
   <v>       0.00200000 </v>
   <v>       0.00200000 </v>
   <v>       0.00200000 </v>
   <v>       0.00200000 </v>
   <v>       0.00200000 </v>
   <v>       0.00200000 </v>
   <v>       0.00200000 </v>
   <v>       0.00200000 </v>
   <v>       0.00200000 </v>
   <v>       0.00200000 </v>
   <v>       0.00200000 </v>
   <v>       0.00200000 </v>
   <v>       0.00200000 </v>
   <v>       0.00200000 </v>
   <v>       0.00200000 </v>
   <v>       0.00200000 </v>
   <v>       0.00200000 </v>
   <v>       0.00200000 </v>
   <v>       0.00200000 </v>
   <v>       0.00200000 </v>
   <v>       0.00200000 </v>
   <v>       0.00200000 </v>
   <v>       0.00200000 </v>
   <v>       0.00200000 </v>
   <v>       0.00200000 </v>
   <v>       0.00200000 </v>
   <v>       0.00200000 </v>
   <v>       0.00200000 </v>
   <v>       0.00200000 </v>
   <v>       0.00200000 </v>
   <v>       0.00200000 </v>
   <v>       0.00200000 </v>
   <v>       0.00200000 </v>
   <v>       0.00200000 </v>
   <v>       0.00200000 </v>
   <v>       0.00200000 </v>
   <v>       0.00200000 </v>
   <v>       0.00200000 </v>
   <v>       0.00200000 </v>
   <v>       0.00200000 </v>
   <v>       0.00200000 </v>
   <v>       0.00200000 </v>
   <v>       0.00200000 </v>
   <v>       0.00200000 </v>
   <v>       0.00200000 </v>
   <v>       0.00200000 </v>
   <v>       0.00200000 </v>
   <v>       0.00200000 </v>
   <v>       0.00200000 </v>
   <v>       0.00200000 </v>
   <v>       0.00200000 </v>
   <v>       0.00200000 </v>
   <v>       0.00200000 </v>
   <v>       0.00200000 </v>
   <v>       0.00200000 </v>
   <v>       0.00200000 </v>
   <v>       0.00200000 </v>
   <v>       0.00200000 </v>
   <v>       0.00200000 </v>
   <v>       0.00200000 </v>
   <v>       0.00200000 </v>
   <v>       0.00200000 </v>
   <v>       0.00200000 </v>
   <v>       0.00200000 </v>
   <v>       0.00200000 </v>
   <v>       0.00200000 </v>
   <v>       0.00200000 </v>
   <v>       0.00200000 </v>
   <v>       0.00200000 </v>
   <v>       0.00200000 </v>
   <v>       0.00200000 </v>
   <v>       0.00200000 </v>
   <v>       0.00200000 </v>
   <v>       0.00200000 </v>
   <v>       0.00200000 </v>
   <v>       0.00200000 </v>
   <v>       0.00200000 </v>
   <v>       0.00200000 </v>
   <v>       0.00200000 </v>
   <v>       0.00200000 </v>
   <v>       0.00200000 </v>
   <v>       0.00200000 </v>
   <v>       0.00200000 </v>
   <v>       0.00200000 </v>
   <v>       0.00200000 </v>
   <v>       0.00200000 </v>
   <v>       0.00200000 </v>
   <v>       0.00200000 </v>
   <v>       0.00200000 </v>
   <v>       0.00200000 </v>
   <v>       0.00200000 </v>
   <v>       0.00200000 </v>
   <v>       0.00200000 </v>
   <v>       0.00200000 </v>
   <v>       0.00200000 </v>
   <v>       0.00200000 </v>
   <v>       0.00200000 </v>
   <v>       0.00200000 </v>
   <v>       0.00200000 </v>
   <v>       0.00200000 </v>
   <v>       0.00200000 </v>
   <v>       0.00200000 </v>
   <v>       0.00200000 </v>
   <v>       0.00200000 </v>
   <v>       0.00200000 </v>
   <v>       0.00200000 </v>
   <v>       0.00200000 </v>
   <v>       0.00200000 </v>
   <v>       0.00200000 </v>
   <v>       0.00200000 </v>
   <v>       0.00200000 </v>
   <v>       0.00200000 </v>
   <v>       0.00200000 </v>
   <v>       0.00200000 </v>
   <v>       0.00200000 </v>
   <v>       0.00200000 </v>
   <v>       0.00100000 </v>
   <v>       0.00200000 </v>
   <v>       0.00200000 </v>
   <v>       0.00200000 </v>
   <v>       0.00200000 </v>
   <v>       0.00100000 </v>
   <v>       0.00200000 </v>
   <v>       0.00200000 </v>
   <v>       0.00200000 </v>
   <v>       0.00200000 </v>
   <v>       0.00200000 </v>
   <v>       0.00200000 </v>
   <v>       0.00200000 </v>
   <v>       0.00200000 </v>
   <v>       0.00200000 </v>
   <v>       0.00200000 </v>
   <v>       0.00200000 </v>
   <v>       0.00200000 </v>
   <v>       0.00200000 </v>
   <v>       0.00200000 </v>
   <v>       0.00200000 </v>
   <v>       0.00200000 </v>
   <v>       0.00200000 </v>
   <v>       0.00200000 </v>
   <v>       0.00200000 </v>
   <v>       0.00200000 </v>
   <v>       0.00200000 </v>
   <v>       0.00200000 </v>
   <v>       0.00200000 </v>
   <v>       0.00200000 </v>
   <v>       0.00200000 </v>
   <v>       0.00200000 </v>
   <v>       0.00200000 </v>
   <v>       0.00200000 </v>
   <v>       0.00200000 </v>
   <v>       0.00200000 </v>
   <v>       0.00200000 </v>
   <v>       0.00200000 </v>
   <v>       0.00200000 </v>
   <v>       0.00200000 </v>
   <v>       0.00200000 </v>
   <v>       0.00200000 </v>
   <v>       0.00200000 </v>
   <v>       0.00200000 </v>
   <v>       0.00200000 </v>
   <v>       0.00200000 </v>
   <v>       0.00100000 </v>
   <v>       0.00200000 </v>
   <v>       0.00200000 </v>
   <v>       0.00200000 </v>
   <v>       0.00200000 </v>
   <v>       0.00100000 </v>
  </varray>
 </kpoints>
 <parameters>
  <separator name="general" >
   <i type="string" name="SYSTEM">Og_FCC</i>
   <i type="logical" name="LCOMPAT"> F  </i>
  </separator>
  <separator name="electronic" >
   <i type="string" name="PREC">accura</i>
   <i name="ENMAX">    600.00000000</i>
   <i name="ENAUG">    361.02500000</i>
   <i name="EDIFF">      0.00000010</i>
   <i type="int" name="IALGO">    68</i>
   <i type="int" name="IWAVPR">    10</i>
   <i type="int" name="NBANDS">    28</i>
   <i name="NELECT">     18.00000000</i>
   <i type="int" name="TURBO">     0</i>
   <i type="int" name="IRESTART">     0</i>
   <i type="int" name="NREBOOT">     0</i>
   <i type="int" name="NMIN">     0</i>
   <i name="EREF">      0.00000000</i>
   <separator name="electronic smearing" >
    <i type="int" name="ISMEAR">     1</i>
    <i name="SIGMA">      0.10000000</i>
    <i name="KSPACING">      0.20000000</i>
    <i type="logical" name="KGAMMA"> T  </i>
   </separator>
   <separator name="electronic projectors" >
    <i type="logical" name="LREAL"> F  </i>
    <v name="ROPT">      0.00000000</v>
    <i type="int" name="LMAXPAW">  -100</i>
    <i type="int" name="LMAXMIX">     2</i>
    <i type="logical" name="NLSPLINE"> F  </i>
   </separator>
   <separator name="electronic startup" >
    <i type="int" name="ISTART">     0</i>
    <i type="int" name="ICHARG">     2</i>
    <i type="int" name="INIWAV">     1</i>
   </separator>
   <separator name="electronic spin" >
    <i type="int" name="ISPIN">     1</i>
    <i type="logical" name="LNONCOLLINEAR"> T  </i>
    <v name="MAGMOM">      1.00000000      1.00000000      1.00000000</v>
    <i name="NUPDOWN">     -1.00000000</i>
    <i type="logical" name="LSORBIT"> T  </i>
    <v name="SAXIS">      0.00000000      0.00000000      1.00000000</v>
    <i type="logical" name="LSPIRAL"> F  </i>
    <v name="QSPIRAL">      0.00000000      0.00000000      0.00000000</v>
    <i type="logical" name="LZEROZ"> F  </i>
   </separator>
   <separator name="electronic exchange-correlation" >
    <i type="logical" name="LASPH"> F  </i>
    <i type="logical" name="LMETAGGA"> F  </i>
   </separator>
   <separator name="electronic convergence" >
    <i type="int" name="NELM">   100</i>
    <i type="int" name="NELMDL">    -5</i>
    <i type="int" name="NELMIN">     5</i>
    <i name="ENINI">    600.00000000</i>
    <separator name="electronic convergence detail" >
     <i type="logical" name="LDIAG"> T  </i>
     <i type="logical" name="LSUBROT"> F  </i>
     <i name="WEIMIN">      0.00000000</i>
     <i name="EBREAK">      0.00000000</i>
     <i name="DEPER">      0.30000000</i>
     <i type="int" name="NRMM">     4</i>
     <i name="TIME">      0.40000000</i>
    </separator>
   </separator>
   <separator name="electronic mixer" >
    <i name="AMIX">      0.40000000</i>
    <i name="BMIX">      1.00000000</i>
    <i name="AMIN">      0.10000000</i>
    <i name="AMIX_MAG">      1.60000000</i>
    <i name="BMIX_MAG">      1.00000000</i>
    <separator name="electronic mixer details" >
     <i type="int" name="IMIX">     4</i>
     <i type="logical" name="MIXFIRST"> F  </i>
     <i type="int" name="MAXMIX">    50</i>
     <i name="WC">    100.00000000</i>
     <i type="int" name="INIMIX">     1</i>
     <i type="int" name="MIXPRE">     1</i>
     <i type="int" name="MREMOVE">     5</i>
    </separator>
   </separator>
   <separator name="electronic dipolcorrection" >
    <i type="logical" name="LDIPOL"> F  </i>
    <i type="logical" name="LMONO"> F  </i>
    <i type="int" name="IDIPOL">     0</i>
    <i name="EPSILON">      1.00000000</i>
    <v name="DIPOL">   -100.00000000   -100.00000000   -100.00000000</v>
    <i name="EFIELD">      0.00000000</i>
   </separator>
  </separator>
  <separator name="grids" >
   <i type="int" name="NGX">    36</i>
   <i type="int" name="NGY">    36</i>
   <i type="int" name="NGZ">    36</i>
   <i type="int" name="NGXF">    72</i>
   <i type="int" name="NGYF">    72</i>
   <i type="int" name="NGZF">    72</i>
   <i type="logical" name="ADDGRID"> T  </i>
  </separator>
  <separator name="ionic" >
   <i type="int" name="NSW">     1</i>
   <i type="int" name="IBRION">    -1</i>
   <i type="int" name="MDALGO">     0</i>
   <i type="int" name="ISIF">     7</i>
   <i name="PSTRESS">      0.00000000</i>
   <i name="EDIFFG">      0.00001000</i>
   <i type="int" name="NFREE">     5</i>
   <i name="POTIM">      0.10000000</i>
   <i name="SMASS">     -3.00000000</i>
   <i name="SCALEE">      1.00000000</i>
  </separator>
  <separator name="ionic md" >
   <i name="TEBEG">      0.00010000</i>
   <i name="TEEND">      0.00010000</i>
   <i type="int" name="NBLOCK">     1</i>
   <i type="int" name="KBLOCK">     1</i>
   <i type="int" name="NPACO">   256</i>
   <i name="APACO">     16.00000000</i>
  </separator>
  <separator name="symmetry" >
   <i type="int" name="ISYM">     2</i>
   <i name="SYMPREC">      0.00000010</i>
  </separator>
  <separator name="dos" >
   <i type="int" name="LORBIT">     0</i>
   <v name="RWIGS">     -1.00000000</v>
   <i type="int" name="NEDOS">   301</i>
   <i name="EMIN">     10.00000000</i>
   <i name="EMAX">    -10.00000000</i>
   <i name="EFERMI">      0.00000000</i>
  </separator>
  <separator name="writing" >
   <i type="int" name="NWRITE">     2</i>
   <i type="logical" name="LWAVE"> F  </i>
   <i type="logical" name="LDOWNSAMPLE"> F  </i>
   <i type="logical" name="LCHARG"> F  </i>
   <i type="logical" name="LPARD"> F  </i>
   <i type="logical" name="LVTOT"> F  </i>
   <i type="logical" name="LVHAR"> F  </i>
   <i type="logical" name="LELF"> F  </i>
   <i type="logical" name="LOPTICS"> F  </i>
   <v name="STM">      0.00000000      0.00000000      0.00000000      0.00000000      0.00000000      0.00000000      0.00000000</v>
  </separator>
  <separator name="performance" >
   <i type="int" name="NPAR">     1</i>
   <i type="int" name="NSIM">     4</i>
   <i type="int" name="NBLK">    -1</i>
   <i type="logical" name="LPLANE"> T  </i>
   <i type="logical" name="LSCALAPACK"> T  </i>
   <i type="logical" name="LSCAAWARE"> F  </i>
   <i type="logical" name="LSCALU"> F  </i>
   <i type="logical" name="LASYNC"> F  </i>
   <i type="logical" name="LORBITALREAL"> F  </i>
  </separator>
  <separator name="miscellaneous" >
   <i type="int" name="IDIOT">     3</i>
   <i type="int" name="ISPECIAL">     0</i>
   <i type="logical" name="LMUSIC"> F  </i>
   <v name="POMASS">      0.01000000</v>
   <v name="DARWINR">      0.00000000</v>
   <v name="DARWINV">      1.00000000</v>
   <i type="logical" name="LCORR"> T  </i>
  </separator>
  <i type="logical" name="GGA_COMPAT"> F  </i>
  <i type="logical" name="LBERRY"> F  </i>
  <i type="int" name="ICORELEVEL">     0</i>
  <i type="logical" name="LDAU"> F  </i>
  <i type="int" name="I_CONSTRAINED_M">     0</i>
  <separator name="electronic exchange-correlation" >
   <i type="string" name="GGA">PE</i>
   <i type="int" name="VOSKOWN">     0</i>
   <i type="logical" name="LHFCALC"> F  </i>
   <i type="string" name="PRECFOCK"></i>
   <i type="logical" name="LSYMGRAD"> F  </i>
   <i type="logical" name="LHFONE"> F  </i>
   <i type="logical" name="LRHFCALC"> F  </i>
   <i type="logical" name="LTHOMAS"> F  </i>
   <i type="logical" name="LMODELHF"> F  </i>
   <i name="ENCUT4O">     -1.00000000</i>
   <i type="int" name="EXXOEP">     0</i>
   <i type="int" name="FOURORBIT">     0</i>
   <i name="AEXX">      0.00000000</i>
   <i name="HFALPHA">      0.00000000</i>
   <i name="MCALPHA">      0.00000000</i>
   <i name="ALDAX">      1.00000000</i>
   <i name="AGGAX">      1.00000000</i>
   <i name="ALDAC">      1.00000000</i>
   <i name="AGGAC">      1.00000000</i>
   <i type="int" name="NKREDX">     1</i>
   <i type="int" name="NKREDY">     1</i>
   <i type="int" name="NKREDZ">     1</i>
   <i type="logical" name="SHIFTRED"> F  </i>
   <i type="logical" name="ODDONLY"> F  </i>
   <i type="logical" name="EVENONLY"> F  </i>
   <i type="int" name="LMAXFOCK">     0</i>
   <i type="int" name="NMAXFOCKAE">     0</i>
   <i type="logical" name="LFOCKAEDFT"> F  </i>
   <i name="HFSCREEN">      0.00000000</i>
   <i name="HFSCREENC">      0.00000000</i>
   <i type="int" name="NBANDSGWLOW">     0</i>
  </separator>
  <separator name="vdW DFT" >
   <i type="logical" name="LUSE_VDW"> F  </i>
   <i name="Zab_VDW">     -0.84910000</i>
   <i name="PARAM1">      0.12340000</i>
   <i name="PARAM2">      1.00000000</i>
   <i name="PARAM3">      0.00000000</i>
  </separator>
  <separator name="model GW" >
   <i type="int" name="MODEL_GW">     0</i>
   <i name="MODEL_EPS0">     32.81838481</i>
   <i name="MODEL_ALPHA">      1.00000000</i>
  </separator>
  <separator name="linear response parameters" >
   <i type="logical" name="LEPSILON"> F  </i>
   <i type="logical" name="LRPA"> F  </i>
   <i type="logical" name="LNABLA"> F  </i>
   <i type="logical" name="LVEL"> F  </i>
   <i type="int" name="KINTER">     0</i>
   <i name="CSHIFT">      0.10000000</i>
   <i name="OMEGAMAX">     -1.00000000</i>
   <i name="DEG_THRESHOLD">      0.00200000</i>
   <i name="RTIME">     -0.10000000</i>
   <i name="WPLASMAI">      0.00000000</i>
   <v name="DFIELD">      0.00000000      0.00000000      0.00000000</v>
   <v name="WPLASMA">      0.00000000      0.00000000      0.00000000      0.00000000      0.00000000      0.00000000      0.00000000      0.00000000      0.00000000</v>
  </separator>
  <separator name="orbital magnetization" >
   <i type="logical" name="NUCIND"> F  </i>
   <v name="MAGPOS">      0.00000000      0.00000000      0.00000000</v>
   <i type="logical" name="LNICSALL"> T  </i>
   <i type="logical" name="ORBITALMAG"> F  </i>
   <i type="logical" name="LMAGBLOCH"> F  </i>
   <i type="logical" name="LCHIMAG"> F  </i>
   <i type="logical" name="LGAUGE"> T  </i>
   <i type="int" name="MAGATOM">     0</i>
   <v name="MAGDIPOL">      0.00000000      0.00000000      0.00000000</v>
   <v name="AVECCONST">      0.00000000      0.00000000      0.00000000</v>
  </separator>
  <separator name="response functions" >
   <i type="logical" name="LADDER"> F  </i>
   <i type="logical" name="LRPAFORCE"> F  </i>
   <i type="logical" name="LFXC"> F  </i>
   <i type="logical" name="LHARTREE"> T  </i>
   <i type="int" name="IBSE">     0</i>
   <v type="int" name="KPOINT">    -1     0     0     0</v>
   <i type="logical" name="LTCTE"> F  </i>
   <i type="logical" name="LTETE"> F  </i>
   <i type="logical" name="LTRIPLET"> F  </i>
   <i type="logical" name="LFXCEPS"> F  </i>
   <i type="logical" name="LFXHEG"> F  </i>
   <i type="int" name="NATURALO">     2</i>
   <i type="logical" name="L2ORDER"> F  </i>
   <i type="logical" name="LMP2LT"> F  </i>
   <i type="logical" name="LUSEW"> F  </i>
   <i name="ENCUTGW">     -2.00000000</i>
   <i name="ENCUTGWSOFT">     -2.00000000</i>
   <i name="ENCUTLF">     -1.00000000</i>
   <i type="int" name="LMAXMP2">    -1</i>
   <i name="SCISSOR">      0.00000000</i>
   <i type="int" name="NOMEGA">     0</i>
   <i type="int" name="NOMEGAR">     0</i>
   <i type="int" name="NBANDSGW">    -1</i>
   <i type="int" name="NBANDSO">    -1</i>
   <i type="int" name="NBANDSV">    -1</i>
   <i type="int" name="NELM">   100</i>
   <i type="int" name="NELMHF">     1</i>
   <i type="int" name="DIM">     3</i>
   <i type="int" name="ANTIRES">     0</i>
   <i name="OMEGAMAX">    -30.00000000</i>
   <i name="OMEGAMIN">    -30.00000000</i>
   <i name="OMEGATL">   -200.00000000</i>
   <i type="int" name="OMEGAGRID">   140</i>
   <i name="CSHIFT">     -0.10000000</i>
   <i type="logical" name="SELFENERGY"> F  </i>
   <i type="logical" name="LSPECTRAL"> F  </i>
   <i type="logical" name="LSPECTRALGW"> F  </i>
   <i type="logical" name="LSINGLES"> F  </i>
   <i type="logical" name="LFERMIGW"> F  </i>
   <i type="logical" name="ODDONLYGW"> F  </i>
   <i type="logical" name="EVENONLYGW"> F  </i>
   <i type="int" name="NKREDLFX">     1</i>
   <i type="int" name="NKREDLFY">     1</i>
   <i type="int" name="NKREDLFZ">     1</i>
   <i type="int" name="MAXMEM">  2800</i>
   <i type="int" name="TELESCOPE">     0</i>
   <i type="int" name="TAUPAR">     1</i>
   <i type="int" name="OMEGAPAR">    -1</i>
   <i name="LAMBDA">      1.00000000</i>
  </separator>
  <separator name="External order field" >
   <i name="OFIELD_KAPPA">      0.00000000</i>
   <v name="OFIELD_K">      0.00000000      0.00000000      0.00000000</v>
   <i name="OFIELD_Q6_NEAR">      0.00000000</i>
   <i name="OFIELD_Q6_FAR">      0.00000000</i>
   <i name="OFIELD_A">      0.00000000</i>
  </separator>
 </parameters>
 <atominfo>
  <atoms>       1 </atoms>
  <types>       1 </types>
  <array name="atoms" >
   <dimension dim="1">ion</dimension>
   <field type="string">element</field>
   <field type="int">atomtype</field>
   <set>
    <rc><c>Og</c><c>   1</c></rc>
   </set>
  </array>
  <array name="atomtypes" >
   <dimension dim="1">type</dimension>
   <field type="int">atomspertype</field>
   <field type="string">element</field>
   <field>mass</field>
   <field>valence</field>
   <field type="string">pseudopotential</field>
   <set>
    <rc><c>   1</c><c>Og</c><c>      0.01000000</c><c>     18.00000000</c><c>  PAW Og, JanMewes Oct 18               </c></rc>
   </set>
  </array>
 </atominfo>
 <structure name="initialpos" >
  <crystal>
   <varray name="basis" >
    <v>       4.26082454       0.00000000       0.00000000 </v>
    <v>       2.13041227       3.68998229      -0.00000000 </v>
    <v>       2.13041227       1.22999410       3.47894867 </v>
   </varray>
   <i name="volume">     54.69730802 </i>
   <varray name="rec_basis" >
    <v>       0.23469636      -0.13550201      -0.09581439 </v>
    <v>       0.00000000       0.27100401      -0.09581439 </v>
    <v>      -0.00000000       0.00000000       0.28744316 </v>
   </varray>
  </crystal>
  <varray name="positions" >
   <v>       0.00000000       0.00000000       0.00000000 </v>
  </varray>
  <varray name="velocities" >
   <v>       0.00000000       0.00000000       0.00000000 </v>
  </varray>
 </structure>
 <calculation>
  <scstep>
   <time name="dav">   20.69   20.68</time>
   <time name="total">   22.13   22.11</time>
   <energy>
    <i name="alphaZ">     69.75218229 </i>
    <i name="ewald">  -1774.96059114 </i>
    <i name="hartreedc">   -638.32718632 </i>
    <i name="XCdc">    -69.08752123 </i>
    <i name="pawpsdc">   2268.28454800 </i>
    <i name="pawaedc">  -2184.08492831 </i>
    <i name="eentropy">      0.00004803 </i>
    <i name="bandstr">     -7.01049364 </i>
    <i name="atom">   2640.52872706 </i>
    <i name="e_fr_energy">    305.09478474 </i>
    <i name="e_wo_entrp">    305.09473671 </i>
    <i name="e_0_energy">    305.09476873 </i>
   </energy>
  </scstep>
  <scstep>
   <time name="dav">   22.61   22.59</time>
   <time name="total">   22.62   22.60</time>
   <energy>
    <i name="e_fr_energy">      0.95462555 </i>
    <i name="e_wo_entrp">      0.95462413 </i>
    <i name="e_0_energy">      0.95462508 </i>
   </energy>
  </scstep>
  <scstep>
   <time name="dav">   21.42   21.41</time>
   <time name="total">   21.43   21.41</time>
   <energy>
    <i name="e_fr_energy">    -12.90307677 </i>
    <i name="e_wo_entrp">    -12.90308634 </i>
    <i name="e_0_energy">    -12.90307996 </i>
   </energy>
  </scstep>
  <scstep>
   <time name="dav">   27.36   27.34</time>
   <time name="total">   27.36   27.34</time>
   <energy>
    <i name="e_fr_energy">    -13.33460554 </i>
    <i name="e_wo_entrp">    -13.33460525 </i>
    <i name="e_0_energy">    -13.33460544 </i>
   </energy>
  </scstep>
  <scstep>
   <time name="dav">   25.23   25.21</time>
   <time name="total">   27.68   27.66</time>
   <energy>
    <i name="e_fr_energy">    -13.34900793 </i>
    <i name="e_wo_entrp">    -13.34900770 </i>
    <i name="e_0_energy">    -13.34900785 </i>
   </energy>
  </scstep>
  <scstep>
   <time name="diag">    4.32    4.32</time>
   <time name="diis">   27.42   27.40</time>
   <time name="orth">    0.10    0.10</time>
   <time name="total">   35.46   35.43</time>
   <energy>
    <i name="e_fr_energy">    -13.22732327 </i>
    <i name="e_wo_entrp">    -13.22730712 </i>
    <i name="e_0_energy">    -13.22731789 </i>
   </energy>
  </scstep>
  <scstep>
   <time name="diag">    4.33    4.32</time>
   <time name="diis">   26.05   26.03</time>
   <time name="orth">    0.10    0.10</time>
   <time name="total">   34.17   34.14</time>
   <energy>
    <i name="e_fr_energy">    -13.22625310 </i>
    <i name="e_wo_entrp">    -13.22623767 </i>
    <i name="e_0_energy">    -13.22624796 </i>
   </energy>
  </scstep>
  <scstep>
   <time name="diag">    3.88    3.88</time>
   <time name="diis">   27.52   27.50</time>
   <time name="orth">    0.10    0.10</time>
   <time name="total">   35.75   35.72</time>
   <energy>
    <i name="e_fr_energy">    -13.23812934 </i>
    <i name="e_wo_entrp">    -13.23810872 </i>
    <i name="e_0_energy">    -13.23812247 </i>
   </energy>
  </scstep>
  <scstep>
   <time name="diag">    4.38    4.38</time>
   <time name="diis">   29.81   29.79</time>
   <time name="orth">    0.10    0.10</time>
   <time name="total">   38.70   38.67</time>
   <energy>
    <i name="e_fr_energy">    -13.24391759 </i>
    <i name="e_wo_entrp">    -13.24389676 </i>
    <i name="e_0_energy">    -13.24391065 </i>
   </energy>
  </scstep>
  <scstep>
   <time name="diag">    4.32    4.32</time>
   <time name="diis">   30.44   30.41</time>
   <time name="orth">    0.10    0.10</time>
   <time name="total">   38.60   38.58</time>
   <energy>
    <i name="e_fr_energy">    -13.24527309 </i>
    <i name="e_wo_entrp">    -13.24525129 </i>
    <i name="e_0_energy">    -13.24526582 </i>
   </energy>
  </scstep>
  <scstep>
   <time name="diag">    4.58    4.57</time>
   <time name="diis">   28.76   28.73</time>
   <time name="orth">    0.09    0.09</time>
   <time name="total">   37.59   37.56</time>
   <energy>
    <i name="e_fr_energy">    -13.24534200 </i>
    <i name="e_wo_entrp">    -13.24532002 </i>
    <i name="e_0_energy">    -13.24533467 </i>
   </energy>
  </scstep>
  <scstep>
   <time name="diag">    4.25    4.25</time>
   <time name="diis">   28.77   28.75</time>
   <time name="orth">    0.10    0.10</time>
   <time name="total">   37.47   37.44</time>
   <energy>
    <i name="e_fr_energy">    -13.24539123 </i>
    <i name="e_wo_entrp">    -13.24536925 </i>
    <i name="e_0_energy">    -13.24538391 </i>
   </energy>
  </scstep>
  <scstep>
   <time name="diag">    4.31    4.31</time>
   <time name="diis">   30.14   30.12</time>
   <time name="orth">    0.10    0.10</time>
   <time name="total">   38.87   38.84</time>
   <energy>
    <i name="e_fr_energy">    -13.24539882 </i>
    <i name="e_wo_entrp">    -13.24537684 </i>
    <i name="e_0_energy">    -13.24539150 </i>
   </energy>
  </scstep>
  <scstep>
   <time name="diag">    4.14    4.14</time>
   <time name="diis">   29.96   29.94</time>
   <time name="orth">    0.10    0.10</time>
   <time name="total">   38.69   38.66</time>
   <energy>
    <i name="e_fr_energy">    -13.24540108 </i>
    <i name="e_wo_entrp">    -13.24537910 </i>
    <i name="e_0_energy">    -13.24539376 </i>
   </energy>
  </scstep>
  <scstep>
   <time name="diag">    5.12    5.11</time>
   <time name="diis">   32.47   32.45</time>
   <time name="orth">    0.10    0.10</time>
   <time name="total">   42.17   42.14</time>
   <energy>
    <i name="e_fr_energy">    -13.24540235 </i>
    <i name="e_wo_entrp">    -13.24538037 </i>
    <i name="e_0_energy">    -13.24539503 </i>
   </energy>
  </scstep>
  <scstep>
   <time name="diag">    4.32    4.32</time>
   <time name="diis">   28.39   28.36</time>
   <time name="orth">    0.10    0.10</time>
   <time name="total">   37.12   37.10</time>
   <energy>
    <i name="e_fr_energy">    -13.24540199 </i>
    <i name="e_wo_entrp">    -13.24538000 </i>
    <i name="e_0_energy">    -13.24539466 </i>
   </energy>
  </scstep>
  <scstep>
   <time name="diag">    4.08    4.07</time>
   <time name="diis">   23.41   23.39</time>
   <time name="orth">    0.10    0.10</time>
   <time name="total">   31.46   31.44</time>
   <energy>
    <i name="e_fr_energy">    -13.24540186 </i>
    <i name="e_wo_entrp">    -13.24537988 </i>
    <i name="e_0_energy">    -13.24539454 </i>
   </energy>
  </scstep>
  <scstep>
   <time name="diag">    4.47    4.47</time>
   <time name="diis">   20.30   20.29</time>
   <time name="orth">    0.10    0.10</time>
   <time name="total">   26.11   26.09</time>
   <energy>
    <i name="alphaZ">     69.75218229 </i>
    <i name="ewald">  -1774.96059114 </i>
    <i name="hartreedc">   -651.09907995 </i>
    <i name="XCdc">    -68.71113496 </i>
    <i name="pawpsdc">   2321.36947747 </i>
    <i name="pawaedc">  -2245.96769045 </i>
    <i name="eentropy">     -0.00002198 </i>
    <i name="bandstr">   -304.15727025 </i>
    <i name="atom">   2640.52872706 </i>
    <i name="e_fr_energy">    -13.24540190 </i>
    <i name="e_wo_entrp">    -13.24537992 </i>
    <i name="e_0_energy">    -13.24539457 </i>
   </energy>
  </scstep>
  <structure>
   <crystal>
    <varray name="basis" >
     <v>       4.26082454       0.00000000       0.00000000 </v>
     <v>       2.13041227       3.68998229      -0.00000000 </v>
     <v>       2.13041227       1.22999410       3.47894867 </v>
    </varray>
    <i name="volume">     54.69730802 </i>
    <varray name="rec_basis" >
     <v>       0.23469636      -0.13550201      -0.09581439 </v>
     <v>       0.00000000       0.27100401      -0.09581439 </v>
     <v>      -0.00000000       0.00000000       0.28744316 </v>
    </varray>
   </crystal>
   <varray name="positions" >
    <v>       0.00000000       0.00000000       0.00000000 </v>
   </varray>
  </structure>
  <varray name="forces" >
   <v>       0.00000000       0.00000000       0.00000000 </v>
  </varray>
  <varray name="stress" >
   <v>       7.40069478       0.00012914       0.00004142 </v>
   <v>       0.00012798       7.40069445       0.00005484 </v>
   <v>       0.00003874       0.00005771       7.40082828 </v>
  </varray>
  <energy>
   <i name="e_fr_energy">    -13.71138093 </i>
   <i name="e_wo_entrp">    -13.71137360 </i>
   <i name="e_0_energy">     -0.00002198 </i>
  </energy>
  <time name="totalsc">  618.42  617.96</time>
  <eigenvalues>
   <array>
    <dimension dim="1">band</dimension>
    <dimension dim="2">kpoint</dimension>
    <dimension dim="3">spin</dimension>
    <field>eigene</field>
    <field>occ</field>
    <set>
     <set comment="spin 1">
      <set comment="kpoint 1">
       <r>  -30.0365    1.0000 </r>
       <r>  -30.0365    1.0000 </r>
       <r>  -30.0365    1.0000 </r>
       <r>  -30.0365    1.0000 </r>
       <r>  -23.3513    1.0000 </r>
       <r>  -23.3513    1.0000 </r>
       <r>  -23.3461    1.0000 </r>
       <r>  -23.3461    1.0000 </r>
       <r>  -23.3461    1.0000 </r>
       <r>  -23.3461    1.0000 </r>
       <r>  -19.8061    1.0000 </r>
       <r>  -19.8061    1.0000 </r>
       <r>   -6.4059    1.0000 </r>
       <r>   -6.4059    1.0000 </r>
       <r>    4.1539    1.0000 </r>
       <r>    4.1539    1.0000 </r>
       <r>    4.6059    0.5647 </r>
       <r>    4.6059    0.5647 </r>
       <r>    4.6059    0.5647 </r>
       <r>    4.6059    0.5647 </r>
       <r>   11.4701    0.0000 </r>
       <r>   11.4701    0.0000 </r>
       <r>   11.4701    0.0000 </r>
       <r>   11.4701    0.0000 </r>
       <r>   11.5449    0.0000 </r>
       <r>   11.5449    0.0000 </r>
       <r>   11.9208    0.0000 </r>
       <r>   11.9208    0.0000 </r>
      </set>
      <set comment="kpoint 2">
       <r>  -30.0364    1.0000 </r>
       <r>  -30.0364    1.0000 </r>
       <r>  -30.0362    1.0000 </r>
       <r>  -30.0362    1.0000 </r>
       <r>  -23.3504    1.0000 </r>
       <r>  -23.3504    1.0000 </r>
       <r>  -23.3462    1.0000 </r>
       <r>  -23.3462    1.0000 </r>
       <r>  -23.3451    1.0000 </r>
       <r>  -23.3451    1.0000 </r>
       <r>  -19.7932    1.0000 </r>
       <r>  -19.7932    1.0000 </r>
       <r>   -6.4471    1.0000 </r>
       <r>   -6.4471    1.0000 </r>
       <r>    3.2638    1.0000 </r>
       <r>    3.2638    1.0000 </r>
       <r>    4.5369    0.9812 </r>
       <r>    4.5369    0.9812 </r>
       <r>    5.5162   -0.0000 </r>
       <r>    5.5162   -0.0000 </r>
       <r>   10.6166    0.0000 </r>
       <r>   10.6166    0.0000 </r>
       <r>   11.5813    0.0000 </r>
       <r>   11.5813    0.0000 </r>
       <r>   11.8708    0.0000 </r>
       <r>   11.8709    0.0000 </r>
       <r>   12.8110    0.0000 </r>
       <r>   13.3615    0.0000 </r>
      </set>
      <set comment="kpoint 3">
       <r>  -30.0362    1.0000 </r>
       <r>  -30.0362    1.0000 </r>
       <r>  -30.0352    1.0000 </r>
       <r>  -30.0352    1.0000 </r>
       <r>  -23.3489    1.0000 </r>
       <r>  -23.3489    1.0000 </r>
       <r>  -23.3460    1.0000 </r>
       <r>  -23.3460    1.0000 </r>
       <r>  -23.3427    1.0000 </r>
       <r>  -23.3427    1.0000 </r>
       <r>  -19.7591    1.0000 </r>
       <r>  -19.7591    1.0000 </r>
       <r>   -6.5555    1.0000 </r>
       <r>   -6.5555    1.0000 </r>
       <r>    2.3379    1.0000 </r>
       <r>    2.3379    1.0000 </r>
       <r>    4.3667    1.0013 </r>
       <r>    4.3667    1.0013 </r>
       <r>    6.3666   -0.0000 </r>
       <r>    6.3666   -0.0000 </r>
       <r>   10.3476    0.0000 </r>
       <r>   10.3476    0.0000 </r>
       <r>   11.6182    0.0000 </r>
       <r>   11.6182    0.0000 </r>
       <r>   11.9709    0.0000 </r>
       <r>   11.9710    0.0000 </r>
       <r>   12.4385    0.0000 </r>
       <r>   12.4785    0.0000 </r>
      </set>
      <set comment="kpoint 4">
       <r>  -30.0359    1.0000 </r>
       <r>  -30.0359    1.0000 </r>
       <r>  -30.0340    1.0000 </r>
       <r>  -30.0340    1.0000 </r>
       <r>  -23.3489    1.0000 </r>
       <r>  -23.3489    1.0000 </r>
       <r>  -23.3439    1.0000 </r>
       <r>  -23.3439    1.0000 </r>
       <r>  -23.3396    1.0000 </r>
       <r>  -23.3396    1.0000 </r>
       <r>  -19.7162    1.0000 </r>
       <r>  -19.7162    1.0000 </r>
       <r>   -6.6904    1.0000 </r>
       <r>   -6.6904    1.0000 </r>
       <r>    1.6346    1.0000 </r>
       <r>    1.6346    1.0000 </r>
       <r>    4.1741    1.0000 </r>
       <r>    4.1741    1.0000 </r>
       <r>    6.7030   -0.0000 </r>
       <r>    6.7030   -0.0000 </r>
       <r>   10.8735    0.0000 </r>
       <r>   10.8735    0.0000 </r>
       <r>   11.2931    0.0000 </r>
       <r>   11.2931    0.0000 </r>
       <r>   11.7426    0.0000 </r>
       <r>   11.7426    0.0000 </r>
       <r>   11.7976    0.0000 </r>
       <r>   11.7976    0.0000 </r>
      </set>
      <set comment="kpoint 5">
       <r>  -30.0357    1.0000 </r>
       <r>  -30.0357    1.0000 </r>
       <r>  -30.0330    1.0000 </r>
       <r>  -30.0330    1.0000 </r>
       <r>  -23.3494    1.0000 </r>
       <r>  -23.3494    1.0000 </r>
       <r>  -23.3416    1.0000 </r>
       <r>  -23.3416    1.0000 </r>
       <r>  -23.3371    1.0000 </r>
       <r>  -23.3371    1.0000 </r>
       <r>  -19.6810    1.0000 </r>
       <r>  -19.6810    1.0000 </r>
       <r>   -6.8003    1.0000 </r>
       <r>   -6.8003    1.0000 </r>
       <r>    1.1995    1.0000 </r>
       <r>    1.1995    1.0000 </r>
       <r>    4.0299    1.0000 </r>
       <r>    4.0299    1.0000 </r>
       <r>    6.7122   -0.0000 </r>
       <r>    6.7122   -0.0000 </r>
       <r>   10.9842    0.0000 </r>
       <r>   10.9842    0.0000 </r>
       <r>   11.1255    0.0000 </r>
       <r>   11.1255    0.0000 </r>
       <r>   11.4081    0.0000 </r>
       <r>   11.4081    0.0000 </r>
       <r>   12.2514    0.0000 </r>
       <r>   12.2514    0.0000 </r>
      </set>
      <set comment="kpoint 6">
       <r>  -30.0357    1.0000 </r>
       <r>  -30.0357    1.0000 </r>
       <r>  -30.0326    1.0000 </r>
       <r>  -30.0326    1.0000 </r>
       <r>  -23.3496    1.0000 </r>
       <r>  -23.3496    1.0000 </r>
       <r>  -23.3407    1.0000 </r>
       <r>  -23.3407    1.0000 </r>
       <r>  -23.3361    1.0000 </r>
       <r>  -23.3361    1.0000 </r>
       <r>  -19.6675    1.0000 </r>
       <r>  -19.6675    1.0000 </r>
       <r>   -6.8425    1.0000 </r>
       <r>   -6.8425    1.0000 </r>
       <r>    1.0525    1.0000 </r>
       <r>    1.0525    1.0000 </r>
       <r>    3.9772    1.0000 </r>
       <r>    3.9772    1.0000 </r>
       <r>    6.6864   -0.0000 </r>
       <r>    6.6864   -0.0000 </r>
       <r>   10.8708    0.0000 </r>
       <r>   10.8708    0.0000 </r>
       <r>   11.0329    0.0000 </r>
       <r>   11.0329    0.0000 </r>
       <r>   11.2982    0.0000 </r>
       <r>   11.2982    0.0000 </r>
       <r>   12.8190    0.0000 </r>
       <r>   12.8190    0.0000 </r>
      </set>
      <set comment="kpoint 7">
       <r>  -30.0364    1.0000 </r>
       <r>  -30.0364    1.0000 </r>
       <r>  -30.0362    1.0000 </r>
       <r>  -30.0362    1.0000 </r>
       <r>  -23.3504    1.0000 </r>
       <r>  -23.3504    1.0000 </r>
       <r>  -23.3462    1.0000 </r>
       <r>  -23.3462    1.0000 </r>
       <r>  -23.3451    1.0000 </r>
       <r>  -23.3451    1.0000 </r>
       <r>  -19.7932    1.0000 </r>
       <r>  -19.7932    1.0000 </r>
       <r>   -6.4471    1.0000 </r>
       <r>   -6.4471    1.0000 </r>
       <r>    3.2638    1.0000 </r>
       <r>    3.2638    1.0000 </r>
       <r>    4.5369    0.9812 </r>
       <r>    4.5369    0.9812 </r>
       <r>    5.5162   -0.0000 </r>
       <r>    5.5162   -0.0000 </r>
       <r>   10.6166    0.0000 </r>
       <r>   10.6166    0.0000 </r>
       <r>   11.5813    0.0000 </r>
       <r>   11.5813    0.0000 </r>
       <r>   11.8708    0.0000 </r>
       <r>   11.8708    0.0000 </r>
       <r>   12.8115    0.0000 </r>
       <r>   12.9304    0.0000 </r>
      </set>
      <set comment="kpoint 8">
       <r>  -30.0363    1.0000 </r>
       <r>  -30.0363    1.0000 </r>
       <r>  -30.0361    1.0000 </r>
       <r>  -30.0361    1.0000 </r>
       <r>  -23.3503    1.0000 </r>
       <r>  -23.3503    1.0000 </r>
       <r>  -23.3457    1.0000 </r>
       <r>  -23.3457    1.0000 </r>
       <r>  -23.3453    1.0000 </r>
       <r>  -23.3453    1.0000 </r>
       <r>  -19.7889    1.0000 </r>
       <r>  -19.7889    1.0000 </r>
       <r>   -6.4604    1.0000 </r>
       <r>   -6.4604    1.0000 </r>
       <r>    3.1534    1.0000 </r>
       <r>    3.1534    1.0000 </r>
[...]
       <r>     3.8378     0.0000     0.0000 </r>
       <r>     4.0077     0.0000     0.0000 </r>
       <r>     4.1776     0.0000     0.0000 </r>
       <r>     4.3475     0.0000     0.0000 </r>
       <r>     4.5174     0.0000     0.0000 </r>
       <r>     4.6874     0.0000     0.0000 </r>
       <r>     4.8573     0.0000     0.0000 </r>
       <r>     5.0272     0.0000     0.0000 </r>
       <r>     5.1971     0.0000     0.0000 </r>
       <r>     5.3670     0.0000     0.0000 </r>
       <r>     5.5369     0.0000     0.0000 </r>
       <r>     5.7068     0.0000     0.0000 </r>
       <r>     5.8767     0.0000     0.0000 </r>
       <r>     6.0467     0.0000     0.0000 </r>
       <r>     6.2166     0.0000     0.0000 </r>
       <r>     6.3865     0.0000     0.0000 </r>
       <r>     6.5564     0.0000     0.0000 </r>
       <r>     6.7263     0.0000     0.0000 </r>
       <r>     6.8962     0.0000     0.0000 </r>
       <r>     7.0661     0.0000     0.0000 </r>
       <r>     7.2360     0.0000     0.0000 </r>
       <r>     7.4060     0.0000     0.0000 </r>
       <r>     7.5759     0.0000     0.0000 </r>
       <r>     7.7458     0.0000     0.0000 </r>
       <r>     7.9157     0.0000     0.0000 </r>
       <r>     8.0856     0.0000     0.0000 </r>
       <r>     8.2555     0.0000     0.0000 </r>
       <r>     8.4254     0.0000     0.0000 </r>
       <r>     8.5953     0.0000     0.0000 </r>
       <r>     8.7653     0.0000     0.0000 </r>
       <r>     8.9352     0.0000     0.0000 </r>
       <r>     9.1051     0.0000     0.0000 </r>
       <r>     9.2750     0.0000     0.0000 </r>
       <r>     9.4449     0.0000     0.0000 </r>
       <r>     9.6148     0.0000     0.0000 </r>
       <r>     9.7847     0.0000     0.0000 </r>
       <r>     9.9546     0.0000     0.0000 </r>
       <r>    10.1246     0.0000     0.0000 </r>
       <r>    10.2945     0.0000     0.0000 </r>
       <r>    10.4644     0.0000     0.0000 </r>
       <r>    10.6343     0.0000     0.0000 </r>
       <r>    10.8042     0.0000     0.0000 </r>
       <r>    10.9741     0.0000     0.0000 </r>
       <r>    11.1440     0.0000     0.0000 </r>
       <r>    11.3139     0.0000     0.0000 </r>
       <r>    11.4839     0.0000     0.0000 </r>
       <r>    11.6538     0.0000     0.0000 </r>
       <r>    11.8237     0.0000     0.0000 </r>
       <r>    11.9936     0.0000     0.0000 </r>
       <r>    12.1635     0.0000     0.0000 </r>
       <r>    12.3334     0.0000     0.0000 </r>
       <r>    12.5033     0.0000     0.0000 </r>
       <r>    12.6732     0.0000     0.0000 </r>
       <r>    12.8432     0.0000     0.0000 </r>
       <r>    13.0131     0.0000     0.0000 </r>
       <r>    13.1830     0.0000     0.0000 </r>
       <r>    13.3529     0.0000     0.0000 </r>
       <r>    13.5228     0.0000     0.0000 </r>
       <r>    13.6927     0.0000     0.0000 </r>
       <r>    13.8626     0.0000     0.0000 </r>
       <r>    14.0325     0.0000     0.0000 </r>
       <r>    14.2024     0.0000     0.0000 </r>
       <r>    14.3724     0.0000     0.0000 </r>
       <r>    14.5423     0.0000     0.0000 </r>
       <r>    14.7122     0.0000     0.0000 </r>
       <r>    14.8821     0.0000     0.0000 </r>
       <r>    15.0520     0.0000     0.0000 </r>
       <r>    15.2219     0.0000     0.0000 </r>
       <r>    15.3918     0.0000     0.0000 </r>
       <r>    15.5617     0.0000     0.0000 </r>
       <r>    15.7317     0.0000     0.0000 </r>
       <r>    15.9016     0.0000     0.0000 </r>
       <r>    16.0715     0.0000     0.0000 </r>
       <r>    16.2414     0.0000     0.0000 </r>
       <r>    16.4113     0.0000     0.0000 </r>
       <r>    16.5812     0.0000     0.0000 </r>
       <r>    16.7511     0.0000     0.0000 </r>
       <r>    16.9210     0.0000     0.0000 </r>
       <r>    17.0910     0.0000     0.0000 </r>
       <r>    17.2609     0.0000     0.0000 </r>
       <r>    17.4308     0.0000     0.0000 </r>
       <r>    17.6007     0.0000     0.0000 </r>
       <r>    17.7706     0.0000     0.0000 </r>
       <r>    17.9405     0.0000     0.0000 </r>
       <r>    18.1104     0.0000     0.0000 </r>
       <r>    18.2803     0.0000     0.0000 </r>
       <r>    18.4503     0.0000     0.0000 </r>
       <r>    18.6202     0.0000     0.0000 </r>
      </set>
      <set comment="spin 4">
       <r>   -32.3535     0.0000     0.0000 </r>
       <r>   -32.1836     0.0000     0.0000 </r>
       <r>   -32.0137     0.0000     0.0000 </r>
       <r>   -31.8438     0.0000     0.0000 </r>
       <r>   -31.6739     0.0000     0.0000 </r>
       <r>   -31.5040     0.0000     0.0000 </r>
       <r>   -31.3340     0.0000     0.0000 </r>
       <r>   -31.1641     0.0000     0.0000 </r>
       <r>   -30.9942     0.0000     0.0000 </r>
       <r>   -30.8243     0.0000     0.0000 </r>
       <r>   -30.6544     0.0000     0.0000 </r>
       <r>   -30.4845     0.0000     0.0000 </r>
       <r>   -30.3146     0.0000     0.0000 </r>
       <r>   -30.1447     0.0000     0.0000 </r>
       <r>   -29.9747     0.0000     0.0000 </r>
       <r>   -29.8048     0.0000     0.0000 </r>
       <r>   -29.6349     0.0000     0.0000 </r>
       <r>   -29.4650     0.0000     0.0000 </r>
       <r>   -29.2951     0.0000     0.0000 </r>
       <r>   -29.1252     0.0000     0.0000 </r>
       <r>   -28.9553     0.0000     0.0000 </r>
       <r>   -28.7854     0.0000     0.0000 </r>
       <r>   -28.6155     0.0000     0.0000 </r>
       <r>   -28.4455     0.0000     0.0000 </r>
       <r>   -28.2756     0.0000     0.0000 </r>
       <r>   -28.1057     0.0000     0.0000 </r>
       <r>   -27.9358     0.0000     0.0000 </r>
       <r>   -27.7659     0.0000     0.0000 </r>
       <r>   -27.5960     0.0000     0.0000 </r>
       <r>   -27.4261     0.0000     0.0000 </r>
       <r>   -27.2562     0.0000     0.0000 </r>
       <r>   -27.0862     0.0000     0.0000 </r>
       <r>   -26.9163     0.0000     0.0000 </r>
       <r>   -26.7464     0.0000     0.0000 </r>
       <r>   -26.5765     0.0000     0.0000 </r>
       <r>   -26.4066     0.0000     0.0000 </r>
       <r>   -26.2367     0.0000     0.0000 </r>
       <r>   -26.0668     0.0000     0.0000 </r>
       <r>   -25.8969     0.0000     0.0000 </r>
       <r>   -25.7269     0.0000     0.0000 </r>
       <r>   -25.5570     0.0000     0.0000 </r>
       <r>   -25.3871     0.0000     0.0000 </r>
       <r>   -25.2172     0.0000     0.0000 </r>
       <r>   -25.0473     0.0000     0.0000 </r>
       <r>   -24.8774     0.0000     0.0000 </r>
       <r>   -24.7075     0.0000     0.0000 </r>
       <r>   -24.5376     0.0000     0.0000 </r>
       <r>   -24.3676     0.0000     0.0000 </r>
       <r>   -24.1977     0.0000     0.0000 </r>
       <r>   -24.0278     0.0000     0.0000 </r>
       <r>   -23.8579     0.0000     0.0000 </r>
       <r>   -23.6880     0.0000     0.0000 </r>
       <r>   -23.5181     0.0000     0.0000 </r>
       <r>   -23.3482     0.0000     0.0000 </r>
       <r>   -23.1783     0.0000     0.0000 </r>
       <r>   -23.0083     0.0000     0.0000 </r>
       <r>   -22.8384     0.0000     0.0000 </r>
       <r>   -22.6685     0.0000     0.0000 </r>
       <r>   -22.4986     0.0000     0.0000 </r>
       <r>   -22.3287     0.0000     0.0000 </r>
       <r>   -22.1588     0.0000     0.0000 </r>
       <r>   -21.9889     0.0000     0.0000 </r>
       <r>   -21.8190     0.0000     0.0000 </r>
       <r>   -21.6490     0.0000     0.0000 </r>
       <r>   -21.4791     0.0000     0.0000 </r>
       <r>   -21.3092     0.0000     0.0000 </r>
       <r>   -21.1393     0.0000     0.0000 </r>
       <r>   -20.9694     0.0000     0.0000 </r>
       <r>   -20.7995     0.0000     0.0000 </r>
       <r>   -20.6296     0.0000     0.0000 </r>
       <r>   -20.4597     0.0000     0.0000 </r>
       <r>   -20.2897     0.0000     0.0000 </r>
       <r>   -20.1198     0.0000     0.0000 </r>
       <r>   -19.9499     0.0000     0.0000 </r>
       <r>   -19.7800     0.0000     0.0000 </r>
       <r>   -19.6101     0.0000     0.0000 </r>
       <r>   -19.4402     0.0000     0.0000 </r>
       <r>   -19.2703     0.0000     0.0000 </r>
       <r>   -19.1004     0.0000     0.0000 </r>
       <r>   -18.9305     0.0000     0.0000 </r>
       <r>   -18.7605     0.0000     0.0000 </r>
       <r>   -18.5906     0.0000     0.0000 </r>
       <r>   -18.4207     0.0000     0.0000 </r>
       <r>   -18.2508     0.0000     0.0000 </r>
       <r>   -18.0809     0.0000     0.0000 </r>
       <r>   -17.9110     0.0000     0.0000 </r>
       <r>   -17.7411     0.0000     0.0000 </r>
       <r>   -17.5712     0.0000     0.0000 </r>
       <r>   -17.4012     0.0000     0.0000 </r>
       <r>   -17.2313     0.0000     0.0000 </r>
       <r>   -17.0614     0.0000     0.0000 </r>
       <r>   -16.8915     0.0000     0.0000 </r>
       <r>   -16.7216     0.0000     0.0000 </r>
       <r>   -16.5517     0.0000     0.0000 </r>
       <r>   -16.3818     0.0000     0.0000 </r>
       <r>   -16.2119     0.0000     0.0000 </r>
       <r>   -16.0419     0.0000     0.0000 </r>
       <r>   -15.8720     0.0000     0.0000 </r>
       <r>   -15.7021     0.0000     0.0000 </r>
       <r>   -15.5322     0.0000     0.0000 </r>
       <r>   -15.3623     0.0000     0.0000 </r>
       <r>   -15.1924     0.0000     0.0000 </r>
       <r>   -15.0225     0.0000     0.0000 </r>
       <r>   -14.8526     0.0000     0.0000 </r>
       <r>   -14.6826     0.0000     0.0000 </r>
       <r>   -14.5127     0.0000     0.0000 </r>
       <r>   -14.3428     0.0000     0.0000 </r>
       <r>   -14.1729     0.0000     0.0000 </r>
       <r>   -14.0030     0.0000     0.0000 </r>
       <r>   -13.8331     0.0000     0.0000 </r>
       <r>   -13.6632     0.0000     0.0000 </r>
       <r>   -13.4933     0.0000     0.0000 </r>
       <r>   -13.3233     0.0000     0.0000 </r>
       <r>   -13.1534     0.0000     0.0000 </r>
       <r>   -12.9835     0.0000     0.0000 </r>
       <r>   -12.8136     0.0000     0.0000 </r>
       <r>   -12.6437     0.0000     0.0000 </r>
       <r>   -12.4738     0.0000     0.0000 </r>
       <r>   -12.3039     0.0000     0.0000 </r>
       <r>   -12.1340     0.0000     0.0000 </r>
       <r>   -11.9640     0.0000     0.0000 </r>
       <r>   -11.7941     0.0000     0.0000 </r>
       <r>   -11.6242     0.0000     0.0000 </r>
       <r>   -11.4543     0.0000     0.0000 </r>
       <r>   -11.2844     0.0000     0.0000 </r>
       <r>   -11.1145     0.0000     0.0000 </r>
       <r>   -10.9446     0.0000     0.0000 </r>
       <r>   -10.7747     0.0000     0.0000 </r>
       <r>   -10.6047     0.0000     0.0000 </r>
       <r>   -10.4348     0.0000     0.0000 </r>
       <r>   -10.2649     0.0000     0.0000 </r>
       <r>   -10.0950     0.0000     0.0000 </r>
       <r>    -9.9251     0.0000     0.0000 </r>
       <r>    -9.7552     0.0000     0.0000 </r>
       <r>    -9.5853     0.0000     0.0000 </r>
       <r>    -9.4154     0.0000     0.0000 </r>
       <r>    -9.2454     0.0000     0.0000 </r>
       <r>    -9.0755     0.0000     0.0000 </r>
       <r>    -8.9056     0.0000     0.0000 </r>
       <r>    -8.7357     0.0000     0.0000 </r>
       <r>    -8.5658     0.0000     0.0000 </r>
       <r>    -8.3959     0.0000     0.0000 </r>
       <r>    -8.2260     0.0000     0.0000 </r>
       <r>    -8.0561     0.0000     0.0000 </r>
       <r>    -7.8862     0.0000     0.0000 </r>
       <r>    -7.7162     0.0000     0.0000 </r>
       <r>    -7.5463     0.0000     0.0000 </r>
       <r>    -7.3764     0.0000     0.0000 </r>
       <r>    -7.2065     0.0000     0.0000 </r>
       <r>    -7.0366     0.0000     0.0000 </r>
       <r>    -6.8667     0.0000     0.0000 </r>
       <r>    -6.6968     0.0000     0.0000 </r>
       <r>    -6.5269     0.0000     0.0000 </r>
       <r>    -6.3569     0.0000     0.0000 </r>
       <r>    -6.1870     0.0000     0.0000 </r>
       <r>    -6.0171     0.0000     0.0000 </r>
       <r>    -5.8472     0.0000     0.0000 </r>
       <r>    -5.6773     0.0000     0.0000 </r>
       <r>    -5.5074     0.0000     0.0000 </r>
       <r>    -5.3375     0.0000     0.0000 </r>
       <r>    -5.1676     0.0000     0.0000 </r>
       <r>    -4.9976     0.0000     0.0000 </r>
       <r>    -4.8277     0.0000     0.0000 </r>
       <r>    -4.6578     0.0000     0.0000 </r>
       <r>    -4.4879     0.0000     0.0000 </r>
       <r>    -4.3180     0.0000     0.0000 </r>
       <r>    -4.1481     0.0000     0.0000 </r>
       <r>    -3.9782     0.0000     0.0000 </r>
       <r>    -3.8083     0.0000     0.0000 </r>
       <r>    -3.6383     0.0000     0.0000 </r>
       <r>    -3.4684     0.0000     0.0000 </r>
       <r>    -3.2985     0.0000     0.0000 </r>
       <r>    -3.1286     0.0000     0.0000 </r>
       <r>    -2.9587     0.0000     0.0000 </r>
       <r>    -2.7888     0.0000     0.0000 </r>
       <r>    -2.6189     0.0000     0.0000 </r>
       <r>    -2.4490     0.0000     0.0000 </r>
       <r>    -2.2790     0.0000     0.0000 </r>
       <r>    -2.1091     0.0000     0.0000 </r>
       <r>    -1.9392     0.0000     0.0000 </r>
       <r>    -1.7693     0.0000     0.0000 </r>
       <r>    -1.5994     0.0000     0.0000 </r>
       <r>    -1.4295     0.0000     0.0000 </r>
       <r>    -1.2596     0.0000     0.0000 </r>
       <r>    -1.0897     0.0000     0.0000 </r>
       <r>    -0.9197     0.0000     0.0000 </r>
       <r>    -0.7498     0.0000     0.0000 </r>
       <r>    -0.5799     0.0000     0.0000 </r>
       <r>    -0.4100     0.0000     0.0000 </r>
       <r>    -0.2401     0.0000     0.0000 </r>
       <r>    -0.0702     0.0000     0.0000 </r>
       <r>     0.0997     0.0000     0.0000 </r>
       <r>     0.2696     0.0000     0.0000 </r>
       <r>     0.4396     0.0000     0.0000 </r>
       <r>     0.6095     0.0000     0.0000 </r>
       <r>     0.7794     0.0000     0.0000 </r>
       <r>     0.9493     0.0000     0.0000 </r>
       <r>     1.1192     0.0000     0.0000 </r>
       <r>     1.2891     0.0000     0.0000 </r>
       <r>     1.4590     0.0000     0.0000 </r>
       <r>     1.6289     0.0000     0.0000 </r>
       <r>     1.7989     0.0000     0.0000 </r>
       <r>     1.9688     0.0000     0.0000 </r>
       <r>     2.1387     0.0000     0.0000 </r>
       <r>     2.3086     0.0000     0.0000 </r>
       <r>     2.4785     0.0000     0.0000 </r>
       <r>     2.6484     0.0000     0.0000 </r>
       <r>     2.8183     0.0000     0.0000 </r>
       <r>     2.9882     0.0000     0.0000 </r>
       <r>     3.1581     0.0000     0.0000 </r>
       <r>     3.3281     0.0000     0.0000 </r>
       <r>     3.4980     0.0000     0.0000 </r>
       <r>     3.6679     0.0000     0.0000 </r>
       <r>     3.8378     0.0000     0.0000 </r>
       <r>     4.0077     0.0000     0.0000 </r>
       <r>     4.1776     0.0000     0.0000 </r>
       <r>     4.3475     0.0000     0.0000 </r>
       <r>     4.5174     0.0000     0.0000 </r>
       <r>     4.6874     0.0000     0.0000 </r>
       <r>     4.8573     0.0000     0.0000 </r>
       <r>     5.0272     0.0000     0.0000 </r>
       <r>     5.1971     0.0000     0.0000 </r>
       <r>     5.3670     0.0000     0.0000 </r>
       <r>     5.5369     0.0000     0.0000 </r>
       <r>     5.7068     0.0000     0.0000 </r>
       <r>     5.8767     0.0000     0.0000 </r>
       <r>     6.0467     0.0000     0.0000 </r>
       <r>     6.2166     0.0000     0.0000 </r>
       <r>     6.3865     0.0000     0.0000 </r>
       <r>     6.5564     0.0000     0.0000 </r>
       <r>     6.7263     0.0000     0.0000 </r>
       <r>     6.8962     0.0000     0.0000 </r>
       <r>     7.0661     0.0000     0.0000 </r>
       <r>     7.2360     0.0000     0.0000 </r>
       <r>     7.4060     0.0000     0.0000 </r>
       <r>     7.5759     0.0000     0.0000 </r>
       <r>     7.7458     0.0000     0.0000 </r>
       <r>     7.9157     0.0000     0.0000 </r>
       <r>     8.0856     0.0000     0.0000 </r>
       <r>     8.2555     0.0000     0.0000 </r>
       <r>     8.4254     0.0000     0.0000 </r>
       <r>     8.5953     0.0000     0.0000 </r>
       <r>     8.7653     0.0000     0.0000 </r>
       <r>     8.9352     0.0000     0.0000 </r>
       <r>     9.1051     0.0000     0.0000 </r>
       <r>     9.2750     0.0000     0.0000 </r>
       <r>     9.4449     0.0000     0.0000 </r>
       <r>     9.6148     0.0000     0.0000 </r>
       <r>     9.7847     0.0000     0.0000 </r>
       <r>     9.9546     0.0000     0.0000 </r>
       <r>    10.1246     0.0000     0.0000 </r>
       <r>    10.2945     0.0000     0.0000 </r>
       <r>    10.4644     0.0000     0.0000 </r>
       <r>    10.6343     0.0000     0.0000 </r>
       <r>    10.8042     0.0000     0.0000 </r>
       <r>    10.9741     0.0000     0.0000 </r>
       <r>    11.1440     0.0000     0.0000 </r>
       <r>    11.3139     0.0000     0.0000 </r>
       <r>    11.4839     0.0000     0.0000 </r>
       <r>    11.6538     0.0000     0.0000 </r>
       <r>    11.8237     0.0000     0.0000 </r>
       <r>    11.9936     0.0000     0.0000 </r>
       <r>    12.1635     0.0000     0.0000 </r>
       <r>    12.3334     0.0000     0.0000 </r>
       <r>    12.5033     0.0000     0.0000 </r>
       <r>    12.6732     0.0000     0.0000 </r>
       <r>    12.8432     0.0000     0.0000 </r>
       <r>    13.0131     0.0000     0.0000 </r>
       <r>    13.1830     0.0000     0.0000 </r>
       <r>    13.3529     0.0000     0.0000 </r>
       <r>    13.5228     0.0000     0.0000 </r>
       <r>    13.6927     0.0000     0.0000 </r>
       <r>    13.8626     0.0000     0.0000 </r>
       <r>    14.0325     0.0000     0.0000 </r>
       <r>    14.2024     0.0000     0.0000 </r>
       <r>    14.3724     0.0000     0.0000 </r>
       <r>    14.5423     0.0000     0.0000 </r>
       <r>    14.7122     0.0000     0.0000 </r>
       <r>    14.8821     0.0000     0.0000 </r>
       <r>    15.0520     0.0000     0.0000 </r>
       <r>    15.2219     0.0000     0.0000 </r>
       <r>    15.3918     0.0000     0.0000 </r>
       <r>    15.5617     0.0000     0.0000 </r>
       <r>    15.7317     0.0000     0.0000 </r>
       <r>    15.9016     0.0000     0.0000 </r>
       <r>    16.0715     0.0000     0.0000 </r>
       <r>    16.2414     0.0000     0.0000 </r>
       <r>    16.4113     0.0000     0.0000 </r>
       <r>    16.5812     0.0000     0.0000 </r>
       <r>    16.7511     0.0000     0.0000 </r>
       <r>    16.9210     0.0000     0.0000 </r>
       <r>    17.0910     0.0000     0.0000 </r>
       <r>    17.2609     0.0000     0.0000 </r>
       <r>    17.4308     0.0000     0.0000 </r>
       <r>    17.6007     0.0000     0.0000 </r>
       <r>    17.7706     0.0000     0.0000 </r>
       <r>    17.9405     0.0000     0.0000 </r>
       <r>    18.1104     0.0000     0.0000 </r>
       <r>    18.2803     0.0000     0.0000 </r>
       <r>    18.4503     0.0000     0.0000 </r>
       <r>    18.6202     0.0000     0.0000 </r>
      </set>
     </set>
    </array>
   </total>
  </dos>
 </calculation>
 <structure name="finalpos" >
  <crystal>
   <varray name="basis" >
    <v>       4.26082454       0.00000000       0.00000000 </v>
    <v>       2.13041227       3.68998229      -0.00000000 </v>
    <v>       2.13041227       1.22999410       3.47894867 </v>
   </varray>
   <i name="volume">     54.69730802 </i>
   <varray name="rec_basis" >
    <v>       0.23469636      -0.13550201      -0.09581439 </v>
    <v>       0.00000000       0.27100401      -0.09581439 </v>
    <v>      -0.00000000       0.00000000       0.28744316 </v>
   </varray>
  </crystal>
  <varray name="positions" >
   <v>       0.00000000       0.00000000       0.00000000 </v>
  </varray>
  <varray name="velocities" >
   <v>       0.00000000       0.00000000       0.00000000 </v>
  </varray>
 </structure>
</modeling>
