Og_FCC                                  
           1
     4.267144    0.000000    0.000000
     2.133572    3.695455   -0.000000
     2.133572    1.231818    3.484109
   Og
   1
Direct configuration=     1
   0.00000000  0.00000000  0.00000000
