   1   1   0   0
  0.5789729E+02  0.4342346E-09  0.4342346E-09  0.4342346E-09  0.1000000E-15
  1.000000000000000E-004
  CAR 
 Og_FCC                                  
     58.06342495    -34.69327946  301      3.96099061      1.00000000
    -34.693  0.0000E+00  0.0000E+00
    -34.384  0.0000E+00  0.0000E+00
    -34.075  0.0000E+00  0.0000E+00
    -33.766  0.0000E+00  0.0000E+00
    -33.457  0.0000E+00  0.0000E+00
    -33.147  0.0000E+00  0.0000E+00
    -32.838  0.0000E+00  0.0000E+00
    -32.529  0.0000E+00  0.0000E+00
    -32.220  0.0000E+00  0.0000E+00
    -31.911  0.0000E+00  0.0000E+00
    -31.601  0.0000E+00  0.0000E+00
    -31.292  0.0000E+00  0.0000E+00
    -30.983  0.0000E+00  0.0000E+00
    -30.674  0.0000E+00  0.0000E+00
    -30.365  0.0000E+00  0.4000E+01
    -30.055  0.0000E+00  0.4000E+01
    -29.746  0.0000E+00  0.4000E+01
    -29.437  0.0000E+00  0.4000E+01
    -29.128  0.0000E+00  0.4000E+01
    -28.819  0.0000E+00  0.4000E+01
    -28.509  0.0000E+00  0.4000E+01
    -28.200  0.0000E+00  0.4000E+01
    -27.891  0.0000E+00  0.4000E+01
    -27.582  0.0000E+00  0.4000E+01
    -27.273  0.0000E+00  0.4000E+01
    -26.964  0.0000E+00  0.4000E+01
    -26.654  0.0000E+00  0.4000E+01
    -26.345  0.0000E+00  0.4000E+01
    -26.036  0.0000E+00  0.4000E+01
    -25.727  0.0000E+00  0.4000E+01
    -25.418  0.0000E+00  0.4000E+01
    -25.108  0.0000E+00  0.4000E+01
    -24.799  0.0000E+00  0.4000E+01
    -24.490  0.0000E+00  0.4000E+01
    -24.181  0.0000E+00  0.4000E+01
    -23.872  0.0000E+00  0.4000E+01
    -23.562  0.0000E+00  0.1000E+02
    -23.253  0.0000E+00  0.1000E+02
    -22.944  0.0000E+00  0.1000E+02
    -22.635  0.0000E+00  0.1000E+02
    -22.326  0.0000E+00  0.1000E+02
    -22.017  0.0000E+00  0.1000E+02
    -21.707  0.0000E+00  0.1000E+02
    -21.398  0.0000E+00  0.1000E+02
    -21.089  0.0000E+00  0.1000E+02
    -20.780  0.0000E+00  0.1000E+02
    -20.471  0.0000E+00  0.1000E+02
    -20.161  0.0000E+00  0.1014E+02
    -19.852  0.0000E+00  0.1200E+02
    -19.543  0.0000E+00  0.1200E+02
    -19.234  0.0000E+00  0.1200E+02
    -18.925  0.0000E+00  0.1200E+02
    -18.615  0.0000E+00  0.1200E+02
    -18.306  0.0000E+00  0.1200E+02
    -17.997  0.0000E+00  0.1200E+02
    -17.688  0.0000E+00  0.1200E+02
    -17.379  0.0000E+00  0.1200E+02
    -17.070  0.0000E+00  0.1200E+02
    -16.760  0.0000E+00  0.1200E+02
    -16.451  0.0000E+00  0.1200E+02
    -16.142  0.0000E+00  0.1200E+02
    -15.833  0.0000E+00  0.1200E+02
    -15.524  0.0000E+00  0.1200E+02
    -15.214  0.0000E+00  0.1200E+02
    -14.905  0.0000E+00  0.1200E+02
    -14.596  0.0000E+00  0.1200E+02
    -14.287  0.0000E+00  0.1200E+02
    -13.978  0.0000E+00  0.1200E+02
    -13.668  0.0000E+00  0.1200E+02
    -13.359  0.0000E+00  0.1200E+02
    -13.050  0.0000E+00  0.1200E+02
    -12.741  0.0000E+00  0.1200E+02
    -12.432  0.0000E+00  0.1200E+02
    -12.122  0.0000E+00  0.1200E+02
    -11.813  0.0000E+00  0.1200E+02
    -11.504  0.0000E+00  0.1200E+02
    -11.195  0.0000E+00  0.1200E+02
    -10.886  0.0000E+00  0.1200E+02
    -10.577  0.0000E+00  0.1200E+02
    -10.267  0.0000E+00  0.1200E+02
     -9.958  0.0000E+00  0.1200E+02
     -9.649  0.0000E+00  0.1200E+02
     -9.340  0.0000E+00  0.1200E+02
     -9.031  0.0000E+00  0.1200E+02
     -8.721  0.0000E+00  0.1200E+02
     -8.412  0.0000E+00  0.1200E+02
     -8.103  0.0000E+00  0.1200E+02
     -7.794  0.0000E+00  0.1200E+02
     -7.485  0.0000E+00  0.1200E+02
     -7.175  0.7187E+00  0.1375E+02
     -6.866  0.0000E+00  0.1400E+02
     -6.557  0.0000E+00  0.1400E+02
     -6.248  0.0000E+00  0.1400E+02
     -5.939  0.0000E+00  0.1400E+02
     -5.630  0.0000E+00  0.1400E+02
     -5.320  0.0000E+00  0.1400E+02
     -5.011  0.0000E+00  0.1400E+02
     -4.702  0.0000E+00  0.1400E+02
     -4.393  0.0000E+00  0.1400E+02
     -4.084  0.0000E+00  0.1400E+02
     -3.774  0.0000E+00  0.1400E+02
     -3.465  0.0000E+00  0.1400E+02
     -3.156  0.0000E+00  0.1400E+02
     -2.847  0.0000E+00  0.1400E+02
     -2.538  0.0000E+00  0.1400E+02
     -2.228  0.0000E+00  0.1400E+02
     -1.919  0.0000E+00  0.1400E+02
     -1.610  0.0000E+00  0.1400E+02
     -1.301  0.0000E+00  0.1400E+02
     -0.992  0.0000E+00  0.1400E+02
     -0.682  0.0000E+00  0.1400E+02
     -0.373  0.0000E+00  0.1400E+02
     -0.064  0.0000E+00  0.1400E+02
      0.245  0.0000E+00  0.1400E+02
      0.554  0.0000E+00  0.1400E+02
      0.863  0.0000E+00  0.1484E+02
      1.173  0.0000E+00  0.1553E+02
      1.482  0.0000E+00  0.1575E+02
      1.791  0.1291E-06  0.1586E+02
      2.100  0.0000E+00  0.1636E+02
      2.409  0.0000E+00  0.1691E+02
      2.719  0.0000E+00  0.1719E+02
      3.028  0.7187E+00  0.1763E+02
      3.337  0.0000E+00  0.1774E+02
      3.646  0.0000E+00  0.1791E+02
      3.955  0.8948E-07  0.1799E+02
      4.265  0.0000E+00  0.1801E+02
      4.574  0.0000E+00  0.1801E+02
      4.883  0.0000E+00  0.1801E+02
      5.192  0.0000E+00  0.1801E+02
      5.501  0.0000E+00  0.1801E+02
      5.810  0.0000E+00  0.1808E+02
      6.120  0.0000E+00  0.1814E+02
      6.429  0.0000E+00  0.1828E+02
      6.738  0.0000E+00  0.1839E+02
      7.047  0.0000E+00  0.1889E+02
      7.356  0.0000E+00  0.1944E+02
      7.666  0.0000E+00  0.1978E+02
      7.975  0.0000E+00  0.2003E+02
      8.284  0.0000E+00  0.2008E+02
      8.593  0.0000E+00  0.2031E+02
      8.902  0.0000E+00  0.2097E+02
      9.212  0.8797E-09  0.2164E+02
      9.521  0.0000E+00  0.2203E+02
      9.830  0.0000E+00  0.2232E+02
     10.139  0.0000E+00  0.2238E+02
     10.448  0.0000E+00  0.2294E+02
     10.758  0.0000E+00  0.2358E+02
     11.067  0.0000E+00  0.2400E+02
     11.376  0.2058E+00  0.2438E+02
     11.685  0.0000E+00  0.2544E+02
     11.994  0.0000E+00  0.2567E+02
     12.303  0.0000E+00  0.2606E+02
     12.613  0.0000E+00  0.2624E+02
     12.922  0.0000E+00  0.2681E+02
     13.231  0.0000E+00  0.2749E+02
     13.540  0.0000E+00  0.2825E+02
     13.849  0.0000E+00  0.2890E+02
     14.159  0.0000E+00  0.2968E+02
     14.468  0.0000E+00  0.3019E+02
     14.777  0.1193E+00  0.3055E+02
     15.086  0.0000E+00  0.3085E+02
     15.395  0.6816E-16  0.3121E+02
     15.705  0.0000E+00  0.3182E+02
     16.014  0.0000E+00  0.3229E+02
     16.323  0.0000E+00  0.3307E+02
     16.632  0.0000E+00  0.3346E+02
     16.941  0.7187E+00  0.3431E+02
     17.250  0.0000E+00  0.3457E+02
     17.560  0.0000E+00  0.3514E+02
     17.869  0.8941E-01  0.3635E+02
     18.178  0.1608E-14  0.3728E+02
     18.487  0.0000E+00  0.3910E+02
     18.796  0.1437E+01  0.4094E+02
     19.106  0.0000E+00  0.4158E+02
     19.415  0.0000E+00  0.4208E+02
     19.724  0.0000E+00  0.4325E+02
     20.033  0.0000E+00  0.4394E+02
     20.342  0.1797E+00  0.4490E+02
     20.652  0.0000E+00  0.4552E+02
     20.961  0.0000E+00  0.4600E+02
     21.270  0.0000E+00  0.4641E+02
     21.579  0.0000E+00  0.4646E+02
     21.888  0.0000E+00  0.4670E+02
     22.197  0.0000E+00  0.4718E+02
     22.507  0.2116E-04  0.4773E+02
     22.816  0.0000E+00  0.4806E+02
     23.125  0.5986E-01  0.4837E+02
     23.434  0.0000E+00  0.4911E+02
     23.743  0.7476E-05  0.5000E+02
     24.053  0.2275E-13  0.5050E+02
     24.362  0.0000E+00  0.5133E+02
     24.671  0.0000E+00  0.5214E+02
     24.980  0.0000E+00  0.5347E+02
     25.289  0.0000E+00  0.5440E+02
     25.599  0.6960E+00  0.5558E+02
     25.908  0.0000E+00  0.5644E+02
     26.217  0.0000E+00  0.5673E+02
     26.526  0.0000E+00  0.5750E+02
     26.835  0.0000E+00  0.5767E+02
     27.145  0.7187E+00  0.5836E+02
     27.454  0.0000E+00  0.5942E+02
     27.763  0.8312E-18  0.5977E+02
     28.072  0.0000E+00  0.6035E+02
     28.381  0.1198E+00  0.6094E+02
     28.690  0.0000E+00  0.6161E+02
     29.000  0.0000E+00  0.6224E+02
     29.309  0.0000E+00  0.6224E+02
     29.618  0.0000E+00  0.6321E+02
     29.927  0.0000E+00  0.6426E+02
     30.236  0.0000E+00  0.6473E+02
     30.546  0.8984E-01  0.6510E+02
     30.855  0.0000E+00  0.6581E+02
     31.164  0.1396E-15  0.6638E+02
     31.473  0.0000E+00  0.6706E+02
     31.782  0.0000E+00  0.6806E+02
     32.092  0.1777E+00  0.6952E+02
     32.401  0.0000E+00  0.6993E+02
     32.710  0.6660E+00  0.7117E+02
     33.019  0.0000E+00  0.7227E+02
     33.328  0.0000E+00  0.7286E+02
     33.637  0.0000E+00  0.7325E+02
     33.947  0.3490E-13  0.7398E+02
     34.256  0.0000E+00  0.7444E+02
     34.565  0.5556E-04  0.7511E+02
     34.874  0.0000E+00  0.7594E+02
     35.183  0.2695E+00  0.7719E+02
     35.493  0.1249E-12  0.7811E+02
     35.802  0.7187E+00  0.7913E+02
     36.111  0.0000E+00  0.7996E+02
     36.420  0.3540E+00  0.8068E+02
     36.729  0.0000E+00  0.8142E+02
     37.039  0.6254E-02  0.8263E+02
     37.348  0.0000E+00  0.8330E+02
     37.657  0.0000E+00  0.8377E+02
     37.966  0.0000E+00  0.8463E+02
     38.275  0.7187E+00  0.8549E+02
     38.585  0.7844E-03  0.8601E+02
     38.894  0.0000E+00  0.8619E+02
     39.203  0.0000E+00  0.8693E+02
     39.512  0.0000E+00  0.8809E+02
     39.821  0.8822E-01  0.8882E+02
     40.130  0.0000E+00  0.8965E+02
     40.440  0.0000E+00  0.9026E+02
     40.749  0.0000E+00  0.9111E+02
     41.058  0.0000E+00  0.9169E+02
     41.367  0.7187E+00  0.9294E+02
     41.676  0.0000E+00  0.9364E+02
     41.986  0.0000E+00  0.9495E+02
     42.295  0.0000E+00  0.9573E+02
     42.604  0.0000E+00  0.9627E+02
     42.913  0.0000E+00  0.9735E+02
     43.222  0.0000E+00  0.9816E+02
     43.532  0.0000E+00  0.9856E+02
     43.841  0.0000E+00  0.9951E+02
     44.150  0.5216E-10  0.1002E+03
     44.459  0.0000E+00  0.1010E+03
     44.768  0.5468E-04  0.1018E+03
     45.077  0.1612E-01  0.1026E+03
     45.387  0.0000E+00  0.1037E+03
     45.696  0.0000E+00  0.1047E+03
     46.005  0.2396E+00  0.1056E+03
     46.314  0.0000E+00  0.1063E+03
     46.623  0.0000E+00  0.1076E+03
     46.933  0.0000E+00  0.1082E+03
     47.242  0.7187E+00  0.1095E+03
     47.551  0.5210E-02  0.1103E+03
     47.860  0.7041E+00  0.1113E+03
     48.169  0.5955E-05  0.1116E+03
     48.479  0.8433E-01  0.1128E+03
     48.788  0.0000E+00  0.1133E+03
     49.097  0.0000E+00  0.1142E+03
     49.406  0.0000E+00  0.1153E+03
     49.715  0.3781E-01  0.1162E+03
     50.025  0.0000E+00  0.1171E+03
     50.334  0.0000E+00  0.1177E+03
     50.643  0.0000E+00  0.1189E+03
     50.952  0.1198E+00  0.1194E+03
     51.261  0.0000E+00  0.1206E+03
     51.570  0.0000E+00  0.1218E+03
     51.880  0.0000E+00  0.1229E+03
     52.189  0.0000E+00  0.1243E+03
     52.498  0.0000E+00  0.1251E+03
     52.807  0.0000E+00  0.1261E+03
     53.116  0.5635E-04  0.1262E+03
     53.426  0.0000E+00  0.1271E+03
     53.735  0.0000E+00  0.1273E+03
     54.044  0.0000E+00  0.1280E+03
     54.353  0.0000E+00  0.1280E+03
     54.662  0.0000E+00  0.1280E+03
     54.972  0.0000E+00  0.1280E+03
     55.281  0.0000E+00  0.1280E+03
     55.590  0.0000E+00  0.1280E+03
     55.899  0.0000E+00  0.1280E+03
     56.208  0.0000E+00  0.1280E+03
     56.517  0.0000E+00  0.1280E+03
     56.827  0.0000E+00  0.1280E+03
     57.136  0.0000E+00  0.1280E+03
     57.445  0.0000E+00  0.1280E+03
     57.754  0.0000E+00  0.1280E+03
     58.063  0.0000E+00  0.1280E+03
