<?xml version="1.0" encoding="ISO-8859-1"?>
<modeling>
 <generator>
  <i name="program" type="string">vasp </i>
  <i name="version" type="string">5.4.4.18Apr17-6-g9f103f2a35  </i>
  <i name="subversion" type="string">(build Nov 03 2018 10:20:46) complex            parallel </i>
  <i name="platform" type="string">LinuxIFC </i>
  <i name="date" type="string">2018 11 15 </i>
  <i name="time" type="string">00:10:44 </i>
 </generator>
 <incar>
  <i type="string" name="SYSTEM">   Og_FCC</i>
  <i type="string" name="PREC">accurate</i>
  <i type="string" name="ALGO">   EXACT</i>
  <i type="logical" name="ADDGRID"> T  </i>
  <i type="logical" name="LSORBIT"> T  </i>
  <i type="int" name="ISPIN">     1</i>
  <i type="int" name="MAXMIX">    50</i>
  <i type="int" name="NELM">    50</i>
  <i type="int" name="NELMDL">    -5</i>
  <i type="int" name="NELMIN">     2</i>
  <i type="int" name="IBRION">    -1</i>
  <i type="int" name="NFREE">     5</i>
  <i name="EDIFF">      0.00000001</i>
  <i name="EDIFFG">      0.00001000</i>
  <i type="int" name="NSW">     1</i>
  <i type="int" name="ISIF">     3</i>
  <i type="int" name="ISYM">     0</i>
  <i name="SYMPREC">      0.00000010</i>
  <i name="ENCUT">    300.00000000</i>
  <i type="int" name="NBANDS">   128</i>
  <i name="POTIM">      0.10000000</i>
  <i type="logical" name="LREAL"> F  </i>
  <i type="int" name="ISMEAR">     0</i>
  <i name="SIGMA">      0.00100000</i>
  <i type="int" name="NWRITE">     2</i>
  <i type="logical" name="LWAVE"> T  </i>
  <i type="logical" name="LCHARG"> F  </i>
  <i type="logical" name="LVTOT"> F  </i>
  <i type="logical" name="LOPTICS"> T  </i>
  <i type="logical" name="GGA_COMPAT"> F  </i>
  <v type="int" name="KPOINT_BSE">    -1     0     0     0</v>
  <i type="int" name="NELM">    50</i>
  <i type="string" name="GGA"> PE</i>
 </incar>
 <structure name="primitive_cell" >
  <crystal>
   <varray name="basis" >
    <v>       4.34234588       0.00000000       0.00000000 </v>
    <v>       2.17117294       3.76058184      -0.00000000 </v>
    <v>       2.17117294       1.25352728       3.54551056 </v>
   </varray>
   <i name="volume">     57.89729060 </i>
   <varray name="rec_basis" >
    <v>       0.23029027      -0.13295815      -0.09401561 </v>
    <v>       0.00000000       0.26591630      -0.09401561 </v>
    <v>      -0.00000000       0.00000000       0.28204683 </v>
   </varray>
  </crystal>
  <varray name="positions" >
   <v>       0.00000000       0.00000000       0.00000000 </v>
  </varray>
 </structure>
 <varray name="primitive_index" >
  <v type="int" >        1 </v>
 </varray>
 <kpoints>
  <generation param="Gamma">
   <v type="int" name="divisions">       6        6        6 </v>
   <v name="usershift">      0.00000000       0.00000000       0.00000000 </v>
   <v name="genvec1">      0.16666667       0.00000000       0.00000000 </v>
   <v name="genvec2">     -0.00000000       0.16666667      -0.00000000 </v>
   <v name="genvec3">      0.00000000      -0.00000000       0.16666667 </v>
   <v name="shift">      0.00000000       0.00000000       0.00000000 </v>
  </generation>
  <varray name="kpointlist" >
   <v>       0.00000000       0.00000000       0.00000000 </v>
   <v>       0.16666667       0.00000000       0.00000000 </v>
   <v>       0.33333333       0.00000000       0.00000000 </v>
   <v>       0.50000000       0.00000000       0.00000000 </v>
   <v>      -0.33333333      -0.00000000       0.00000000 </v>
   <v>      -0.16666667      -0.00000000      -0.00000000 </v>
   <v>      -0.00000000       0.16666667      -0.00000000 </v>
   <v>       0.16666667       0.16666667       0.00000000 </v>
   <v>       0.33333333       0.16666667      -0.00000000 </v>
   <v>       0.50000000       0.16666667       0.00000000 </v>
   <v>      -0.33333333       0.16666667      -0.00000000 </v>
   <v>      -0.16666667       0.16666667      -0.00000000 </v>
   <v>       0.00000000       0.33333333      -0.00000000 </v>
   <v>       0.16666667       0.33333333       0.00000000 </v>
   <v>       0.33333333       0.33333333       0.00000000 </v>
   <v>       0.50000000       0.33333333       0.00000000 </v>
   <v>      -0.33333333       0.33333333      -0.00000000 </v>
   <v>      -0.16666667       0.33333333      -0.00000000 </v>
   <v>       0.00000000       0.50000000      -0.00000000 </v>
   <v>       0.16666667       0.50000000       0.00000000 </v>
   <v>       0.33333333       0.50000000       0.00000000 </v>
   <v>       0.50000000       0.50000000       0.00000000 </v>
   <v>      -0.33333333       0.50000000      -0.00000000 </v>
   <v>      -0.16666667       0.50000000      -0.00000000 </v>
   <v>      -0.00000000      -0.33333333       0.00000000 </v>
   <v>       0.16666667      -0.33333333       0.00000000 </v>
   <v>       0.33333333      -0.33333333       0.00000000 </v>
   <v>       0.50000000      -0.33333333       0.00000000 </v>
   <v>      -0.33333333      -0.33333333      -0.00000000 </v>
   <v>      -0.16666667      -0.33333333       0.00000000 </v>
   <v>       0.00000000      -0.16666667       0.00000000 </v>
   <v>       0.16666667      -0.16666667       0.00000000 </v>
   <v>       0.33333333      -0.16666667       0.00000000 </v>
   <v>       0.50000000      -0.16666667       0.00000000 </v>
   <v>      -0.33333333      -0.16666667       0.00000000 </v>
   <v>      -0.16666667      -0.16666667       0.00000000 </v>
   <v>       0.00000000       0.00000000       0.16666667 </v>
   <v>       0.16666667       0.00000000       0.16666667 </v>
   <v>       0.33333333      -0.00000000       0.16666667 </v>
   <v>       0.50000000      -0.00000000       0.16666667 </v>
   <v>      -0.33333333      -0.00000000       0.16666667 </v>
   <v>      -0.16666667       0.00000000       0.16666667 </v>
   <v>      -0.00000000       0.16666667       0.16666667 </v>
   <v>       0.16666667       0.16666667       0.16666667 </v>
   <v>       0.33333333       0.16666667       0.16666667 </v>
   <v>       0.50000000       0.16666667       0.16666667 </v>
   <v>      -0.33333333       0.16666667       0.16666667 </v>
   <v>      -0.16666667       0.16666667       0.16666667 </v>
   <v>      -0.00000000       0.33333333       0.16666667 </v>
   <v>       0.16666667       0.33333333       0.16666667 </v>
   <v>       0.33333333       0.33333333       0.16666667 </v>
   <v>       0.50000000       0.33333333       0.16666667 </v>
   <v>      -0.33333333       0.33333333       0.16666667 </v>
   <v>      -0.16666667       0.33333333       0.16666667 </v>
   <v>      -0.00000000       0.50000000       0.16666667 </v>
   <v>       0.16666667       0.50000000       0.16666667 </v>
   <v>       0.33333333       0.50000000       0.16666667 </v>
   <v>       0.50000000       0.50000000       0.16666667 </v>
   <v>      -0.33333333       0.50000000       0.16666667 </v>
   <v>      -0.16666667       0.50000000       0.16666667 </v>
   <v>      -0.00000000      -0.33333333       0.16666667 </v>
   <v>       0.16666667      -0.33333333       0.16666667 </v>
   <v>       0.33333333      -0.33333333       0.16666667 </v>
   <v>       0.50000000      -0.33333333       0.16666667 </v>
   <v>      -0.33333333      -0.33333333       0.16666667 </v>
   <v>      -0.16666667      -0.33333333       0.16666667 </v>
   <v>       0.00000000      -0.16666667       0.16666667 </v>
   <v>       0.16666667      -0.16666667       0.16666667 </v>
   <v>       0.33333333      -0.16666667       0.16666667 </v>
   <v>       0.50000000      -0.16666667       0.16666667 </v>
   <v>      -0.33333333      -0.16666667       0.16666667 </v>
   <v>      -0.16666667      -0.16666667       0.16666667 </v>
   <v>       0.00000000       0.00000000       0.33333333 </v>
   <v>       0.16666667       0.00000000       0.33333333 </v>
   <v>       0.33333333       0.00000000       0.33333333 </v>
   <v>       0.50000000      -0.00000000       0.33333333 </v>
   <v>      -0.33333333       0.00000000       0.33333333 </v>
   <v>      -0.16666667       0.00000000       0.33333333 </v>
   <v>      -0.00000000       0.16666667       0.33333333 </v>
   <v>       0.16666667       0.16666667       0.33333333 </v>
   <v>       0.33333333       0.16666667       0.33333333 </v>
   <v>       0.50000000       0.16666667       0.33333333 </v>
   <v>      -0.33333333       0.16666667       0.33333333 </v>
   <v>      -0.16666667       0.16666667       0.33333333 </v>
   <v>      -0.00000000       0.33333333       0.33333333 </v>
   <v>       0.16666667       0.33333333       0.33333333 </v>
   <v>       0.33333333       0.33333333       0.33333333 </v>
   <v>       0.50000000       0.33333333       0.33333333 </v>
   <v>      -0.33333333       0.33333333       0.33333333 </v>
   <v>      -0.16666667       0.33333333       0.33333333 </v>
   <v>       0.00000000       0.50000000       0.33333333 </v>
   <v>       0.16666667       0.50000000       0.33333333 </v>
   <v>       0.33333333       0.50000000       0.33333333 </v>
   <v>       0.50000000       0.50000000       0.33333333 </v>
   <v>      -0.33333333       0.50000000       0.33333333 </v>
   <v>      -0.16666667       0.50000000       0.33333333 </v>
   <v>       0.00000000      -0.33333333       0.33333333 </v>
   <v>       0.16666667      -0.33333333       0.33333333 </v>
   <v>       0.33333333      -0.33333333       0.33333333 </v>
   <v>       0.50000000      -0.33333333       0.33333333 </v>
   <v>      -0.33333333      -0.33333333       0.33333333 </v>
   <v>      -0.16666667      -0.33333333       0.33333333 </v>
   <v>       0.00000000      -0.16666667       0.33333333 </v>
   <v>       0.16666667      -0.16666667       0.33333333 </v>
   <v>       0.33333333      -0.16666667       0.33333333 </v>
   <v>       0.50000000      -0.16666667       0.33333333 </v>
   <v>      -0.33333333      -0.16666667       0.33333333 </v>
   <v>      -0.16666667      -0.16666667       0.33333333 </v>
   <v>       0.00000000       0.00000000       0.50000000 </v>
   <v>       0.16666667       0.00000000       0.50000000 </v>
   <v>       0.33333333       0.00000000       0.50000000 </v>
   <v>       0.50000000      -0.00000000       0.50000000 </v>
   <v>      -0.33333333       0.00000000       0.50000000 </v>
   <v>      -0.16666667       0.00000000       0.50000000 </v>
   <v>      -0.00000000       0.16666667       0.50000000 </v>
   <v>       0.16666667       0.16666667       0.50000000 </v>
   <v>       0.33333333       0.16666667       0.50000000 </v>
   <v>       0.50000000       0.16666667       0.50000000 </v>
   <v>      -0.33333333       0.16666667       0.50000000 </v>
   <v>      -0.16666667       0.16666667       0.50000000 </v>
   <v>       0.00000000       0.33333333       0.50000000 </v>
   <v>       0.16666667       0.33333333       0.50000000 </v>
   <v>       0.33333333       0.33333333       0.50000000 </v>
   <v>       0.50000000       0.33333333       0.50000000 </v>
   <v>      -0.33333333       0.33333333       0.50000000 </v>
   <v>      -0.16666667       0.33333333       0.50000000 </v>
   <v>      -0.00000000       0.50000000       0.50000000 </v>
   <v>       0.16666667       0.50000000       0.50000000 </v>
   <v>       0.33333333       0.50000000       0.50000000 </v>
   <v>       0.50000000       0.50000000       0.50000000 </v>
   <v>      -0.33333333       0.50000000       0.50000000 </v>
   <v>      -0.16666667       0.50000000       0.50000000 </v>
   <v>       0.00000000      -0.33333333       0.50000000 </v>
   <v>       0.16666667      -0.33333333       0.50000000 </v>
   <v>       0.33333333      -0.33333333       0.50000000 </v>
   <v>       0.50000000      -0.33333333       0.50000000 </v>
   <v>      -0.33333333      -0.33333333       0.50000000 </v>
   <v>      -0.16666667      -0.33333333       0.50000000 </v>
   <v>       0.00000000      -0.16666667       0.50000000 </v>
   <v>       0.16666667      -0.16666667       0.50000000 </v>
   <v>       0.33333333      -0.16666667       0.50000000 </v>
   <v>       0.50000000      -0.16666667       0.50000000 </v>
   <v>      -0.33333333      -0.16666667       0.50000000 </v>
   <v>      -0.16666667      -0.16666667       0.50000000 </v>
   <v>       0.00000000       0.00000000      -0.33333333 </v>
   <v>       0.16666667      -0.00000000      -0.33333333 </v>
   <v>       0.33333333      -0.00000000      -0.33333333 </v>
   <v>       0.50000000       0.00000000      -0.33333333 </v>
   <v>      -0.33333333      -0.00000000      -0.33333333 </v>
   <v>      -0.16666667      -0.00000000      -0.33333333 </v>
   <v>      -0.00000000       0.16666667      -0.33333333 </v>
   <v>       0.16666667       0.16666667      -0.33333333 </v>
   <v>       0.33333333       0.16666667      -0.33333333 </v>
   <v>       0.50000000       0.16666667      -0.33333333 </v>
   <v>      -0.33333333       0.16666667      -0.33333333 </v>
   <v>      -0.16666667       0.16666667      -0.33333333 </v>
   <v>       0.00000000       0.33333333      -0.33333333 </v>
   <v>       0.16666667       0.33333333      -0.33333333 </v>
   <v>       0.33333333       0.33333333      -0.33333333 </v>
   <v>       0.50000000       0.33333333      -0.33333333 </v>
   <v>      -0.33333333       0.33333333      -0.33333333 </v>
   <v>      -0.16666667       0.33333333      -0.33333333 </v>
   <v>      -0.00000000       0.50000000      -0.33333333 </v>
   <v>       0.16666667       0.50000000      -0.33333333 </v>
   <v>       0.33333333       0.50000000      -0.33333333 </v>
   <v>       0.50000000       0.50000000      -0.33333333 </v>
   <v>      -0.33333333       0.50000000      -0.33333333 </v>
   <v>      -0.16666667       0.50000000      -0.33333333 </v>
   <v>       0.00000000      -0.33333333      -0.33333333 </v>
   <v>       0.16666667      -0.33333333      -0.33333333 </v>
   <v>       0.33333333      -0.33333333      -0.33333333 </v>
   <v>       0.50000000      -0.33333333      -0.33333333 </v>
   <v>      -0.33333333      -0.33333333      -0.33333333 </v>
   <v>      -0.16666667      -0.33333333      -0.33333333 </v>
   <v>       0.00000000      -0.16666667      -0.33333333 </v>
   <v>       0.16666667      -0.16666667      -0.33333333 </v>
   <v>       0.33333333      -0.16666667      -0.33333333 </v>
   <v>       0.50000000      -0.16666667      -0.33333333 </v>
   <v>      -0.33333333      -0.16666667      -0.33333333 </v>
   <v>      -0.16666667      -0.16666667      -0.33333333 </v>
   <v>      -0.00000000      -0.00000000      -0.16666667 </v>
   <v>       0.16666667      -0.00000000      -0.16666667 </v>
   <v>       0.33333333       0.00000000      -0.16666667 </v>
   <v>       0.50000000       0.00000000      -0.16666667 </v>
   <v>      -0.33333333       0.00000000      -0.16666667 </v>
   <v>      -0.16666667      -0.00000000      -0.16666667 </v>
   <v>      -0.00000000       0.16666667      -0.16666667 </v>
   <v>       0.16666667       0.16666667      -0.16666667 </v>
   <v>       0.33333333       0.16666667      -0.16666667 </v>
   <v>       0.50000000       0.16666667      -0.16666667 </v>
   <v>      -0.33333333       0.16666667      -0.16666667 </v>
   <v>      -0.16666667       0.16666667      -0.16666667 </v>
   <v>       0.00000000       0.33333333      -0.16666667 </v>
   <v>       0.16666667       0.33333333      -0.16666667 </v>
   <v>       0.33333333       0.33333333      -0.16666667 </v>
   <v>       0.50000000       0.33333333      -0.16666667 </v>
   <v>      -0.33333333       0.33333333      -0.16666667 </v>
   <v>      -0.16666667       0.33333333      -0.16666667 </v>
   <v>      -0.00000000       0.50000000      -0.16666667 </v>
   <v>       0.16666667       0.50000000      -0.16666667 </v>
   <v>       0.33333333       0.50000000      -0.16666667 </v>
   <v>       0.50000000       0.50000000      -0.16666667 </v>
   <v>      -0.33333333       0.50000000      -0.16666667 </v>
   <v>      -0.16666667       0.50000000      -0.16666667 </v>
   <v>       0.00000000      -0.33333333      -0.16666667 </v>
   <v>       0.16666667      -0.33333333      -0.16666667 </v>
   <v>       0.33333333      -0.33333333      -0.16666667 </v>
   <v>       0.50000000      -0.33333333      -0.16666667 </v>
   <v>      -0.33333333      -0.33333333      -0.16666667 </v>
   <v>      -0.16666667      -0.33333333      -0.16666667 </v>
   <v>       0.00000000      -0.16666667      -0.16666667 </v>
   <v>       0.16666667      -0.16666667      -0.16666667 </v>
   <v>       0.33333333      -0.16666667      -0.16666667 </v>
   <v>       0.50000000      -0.16666667      -0.16666667 </v>
   <v>      -0.33333333      -0.16666667      -0.16666667 </v>
   <v>      -0.16666667      -0.16666667      -0.16666667 </v>
  </varray>
  <varray name="weights" >
   <v>       0.00462963 </v>
   <v>       0.00462963 </v>
   <v>       0.00462963 </v>
   <v>       0.00462963 </v>
   <v>       0.00462963 </v>
   <v>       0.00462963 </v>
   <v>       0.00462963 </v>
   <v>       0.00462963 </v>
   <v>       0.00462963 </v>
   <v>       0.00462963 </v>
   <v>       0.00462963 </v>
   <v>       0.00462963 </v>
   <v>       0.00462963 </v>
   <v>       0.00462963 </v>
   <v>       0.00462963 </v>
   <v>       0.00462963 </v>
   <v>       0.00462963 </v>
   <v>       0.00462963 </v>
   <v>       0.00462963 </v>
   <v>       0.00462963 </v>
   <v>       0.00462963 </v>
   <v>       0.00462963 </v>
   <v>       0.00462963 </v>
   <v>       0.00462963 </v>
   <v>       0.00462963 </v>
   <v>       0.00462963 </v>
   <v>       0.00462963 </v>
   <v>       0.00462963 </v>
   <v>       0.00462963 </v>
   <v>       0.00462963 </v>
   <v>       0.00462963 </v>
   <v>       0.00462963 </v>
   <v>       0.00462963 </v>
   <v>       0.00462963 </v>
   <v>       0.00462963 </v>
   <v>       0.00462963 </v>
   <v>       0.00462963 </v>
   <v>       0.00462963 </v>
   <v>       0.00462963 </v>
   <v>       0.00462963 </v>
   <v>       0.00462963 </v>
   <v>       0.00462963 </v>
   <v>       0.00462963 </v>
   <v>       0.00462963 </v>
   <v>       0.00462963 </v>
   <v>       0.00462963 </v>
   <v>       0.00462963 </v>
   <v>       0.00462963 </v>
   <v>       0.00462963 </v>
   <v>       0.00462963 </v>
   <v>       0.00462963 </v>
   <v>       0.00462963 </v>
   <v>       0.00462963 </v>
   <v>       0.00462963 </v>
   <v>       0.00462963 </v>
   <v>       0.00462963 </v>
   <v>       0.00462963 </v>
   <v>       0.00462963 </v>
   <v>       0.00462963 </v>
   <v>       0.00462963 </v>
   <v>       0.00462963 </v>
   <v>       0.00462963 </v>
   <v>       0.00462963 </v>
   <v>       0.00462963 </v>
   <v>       0.00462963 </v>
   <v>       0.00462963 </v>
   <v>       0.00462963 </v>
   <v>       0.00462963 </v>
   <v>       0.00462963 </v>
   <v>       0.00462963 </v>
   <v>       0.00462963 </v>
   <v>       0.00462963 </v>
   <v>       0.00462963 </v>
   <v>       0.00462963 </v>
   <v>       0.00462963 </v>
   <v>       0.00462963 </v>
   <v>       0.00462963 </v>
   <v>       0.00462963 </v>
   <v>       0.00462963 </v>
   <v>       0.00462963 </v>
   <v>       0.00462963 </v>
   <v>       0.00462963 </v>
   <v>       0.00462963 </v>
   <v>       0.00462963 </v>
   <v>       0.00462963 </v>
   <v>       0.00462963 </v>
   <v>       0.00462963 </v>
   <v>       0.00462963 </v>
   <v>       0.00462963 </v>
   <v>       0.00462963 </v>
   <v>       0.00462963 </v>
   <v>       0.00462963 </v>
   <v>       0.00462963 </v>
   <v>       0.00462963 </v>
   <v>       0.00462963 </v>
   <v>       0.00462963 </v>
   <v>       0.00462963 </v>
   <v>       0.00462963 </v>
   <v>       0.00462963 </v>
   <v>       0.00462963 </v>
   <v>       0.00462963 </v>
   <v>       0.00462963 </v>
   <v>       0.00462963 </v>
   <v>       0.00462963 </v>
   <v>       0.00462963 </v>
   <v>       0.00462963 </v>
   <v>       0.00462963 </v>
   <v>       0.00462963 </v>
   <v>       0.00462963 </v>
   <v>       0.00462963 </v>
   <v>       0.00462963 </v>
   <v>       0.00462963 </v>
   <v>       0.00462963 </v>
   <v>       0.00462963 </v>
   <v>       0.00462963 </v>
   <v>       0.00462963 </v>
   <v>       0.00462963 </v>
   <v>       0.00462963 </v>
   <v>       0.00462963 </v>
   <v>       0.00462963 </v>
   <v>       0.00462963 </v>
   <v>       0.00462963 </v>
   <v>       0.00462963 </v>
   <v>       0.00462963 </v>
   <v>       0.00462963 </v>
   <v>       0.00462963 </v>
   <v>       0.00462963 </v>
   <v>       0.00462963 </v>
   <v>       0.00462963 </v>
   <v>       0.00462963 </v>
   <v>       0.00462963 </v>
   <v>       0.00462963 </v>
   <v>       0.00462963 </v>
   <v>       0.00462963 </v>
   <v>       0.00462963 </v>
   <v>       0.00462963 </v>
   <v>       0.00462963 </v>
   <v>       0.00462963 </v>
   <v>       0.00462963 </v>
   <v>       0.00462963 </v>
   <v>       0.00462963 </v>
   <v>       0.00462963 </v>
   <v>       0.00462963 </v>
   <v>       0.00462963 </v>
   <v>       0.00462963 </v>
   <v>       0.00462963 </v>
   <v>       0.00462963 </v>
   <v>       0.00462963 </v>
   <v>       0.00462963 </v>
   <v>       0.00462963 </v>
   <v>       0.00462963 </v>
   <v>       0.00462963 </v>
   <v>       0.00462963 </v>
   <v>       0.00462963 </v>
   <v>       0.00462963 </v>
   <v>       0.00462963 </v>
   <v>       0.00462963 </v>
   <v>       0.00462963 </v>
   <v>       0.00462963 </v>
   <v>       0.00462963 </v>
   <v>       0.00462963 </v>
   <v>       0.00462963 </v>
   <v>       0.00462963 </v>
   <v>       0.00462963 </v>
   <v>       0.00462963 </v>
   <v>       0.00462963 </v>
   <v>       0.00462963 </v>
   <v>       0.00462963 </v>
   <v>       0.00462963 </v>
   <v>       0.00462963 </v>
   <v>       0.00462963 </v>
   <v>       0.00462963 </v>
   <v>       0.00462963 </v>
   <v>       0.00462963 </v>
   <v>       0.00462963 </v>
   <v>       0.00462963 </v>
   <v>       0.00462963 </v>
   <v>       0.00462963 </v>
   <v>       0.00462963 </v>
   <v>       0.00462963 </v>
   <v>       0.00462963 </v>
   <v>       0.00462963 </v>
   <v>       0.00462963 </v>
   <v>       0.00462963 </v>
   <v>       0.00462963 </v>
   <v>       0.00462963 </v>
   <v>       0.00462963 </v>
   <v>       0.00462963 </v>
   <v>       0.00462963 </v>
   <v>       0.00462963 </v>
   <v>       0.00462963 </v>
   <v>       0.00462963 </v>
   <v>       0.00462963 </v>
   <v>       0.00462963 </v>
   <v>       0.00462963 </v>
   <v>       0.00462963 </v>
   <v>       0.00462963 </v>
   <v>       0.00462963 </v>
   <v>       0.00462963 </v>
   <v>       0.00462963 </v>
   <v>       0.00462963 </v>
   <v>       0.00462963 </v>
   <v>       0.00462963 </v>
   <v>       0.00462963 </v>
   <v>       0.00462963 </v>
   <v>       0.00462963 </v>
   <v>       0.00462963 </v>
   <v>       0.00462963 </v>
   <v>       0.00462963 </v>
   <v>       0.00462963 </v>
   <v>       0.00462963 </v>
   <v>       0.00462963 </v>
   <v>       0.00462963 </v>
   <v>       0.00462963 </v>
   <v>       0.00462963 </v>
   <v>       0.00462963 </v>
  </varray>
 </kpoints>
 <parameters>
  <separator name="general" >
   <i type="string" name="SYSTEM">Og_FCC</i>
   <i type="logical" name="LCOMPAT"> F  </i>
  </separator>
  <separator name="electronic" >
   <i type="string" name="PREC">accura</i>
   <i name="ENMAX">    300.00000000</i>
   <i name="ENAUG">    361.02500000</i>
   <i name="EDIFF">      0.00000001</i>
   <i type="int" name="IALGO">    90</i>
   <i type="int" name="IWAVPR">    10</i>
   <i type="int" name="NBANDS">   128</i>
   <i name="NELECT">     18.00000000</i>
   <i type="int" name="TURBO">     0</i>
   <i type="int" name="IRESTART">     0</i>
   <i type="int" name="NREBOOT">     0</i>
   <i type="int" name="NMIN">     0</i>
   <i name="EREF">      0.00000000</i>
   <separator name="electronic smearing" >
    <i type="int" name="ISMEAR">     0</i>
    <i name="SIGMA">      0.00100000</i>
    <i name="KSPACING">      0.50000000</i>
    <i type="logical" name="KGAMMA"> T  </i>
   </separator>
   <separator name="electronic projectors" >
    <i type="logical" name="LREAL"> F  </i>
    <v name="ROPT">      0.00000000</v>
    <i type="int" name="LMAXPAW">  -100</i>
    <i type="int" name="LMAXMIX">     2</i>
    <i type="logical" name="NLSPLINE"> F  </i>
   </separator>
   <separator name="electronic startup" >
    <i type="int" name="ISTART">     1</i>
    <i type="int" name="ICHARG">     0</i>
    <i type="int" name="INIWAV">     1</i>
   </separator>
   <separator name="electronic spin" >
    <i type="int" name="ISPIN">     1</i>
    <i type="logical" name="LNONCOLLINEAR"> T  </i>
    <v name="MAGMOM">      1.00000000      1.00000000      1.00000000</v>
    <i name="NUPDOWN">     -1.00000000</i>
    <i type="logical" name="LSORBIT"> T  </i>
    <v name="SAXIS">      0.00000000      0.00000000      1.00000000</v>
    <i type="logical" name="LSPIRAL"> F  </i>
    <v name="QSPIRAL">      0.00000000      0.00000000      0.00000000</v>
    <i type="logical" name="LZEROZ"> F  </i>
   </separator>
   <separator name="electronic exchange-correlation" >
    <i type="logical" name="LASPH"> F  </i>
    <i type="logical" name="LMETAGGA"> F  </i>
   </separator>
   <separator name="electronic convergence" >
    <i type="int" name="NELM">    50</i>
    <i type="int" name="NELMDL">    -5</i>
    <i type="int" name="NELMIN">     2</i>
    <i name="ENINI">    300.00000000</i>
    <separator name="electronic convergence detail" >
     <i type="logical" name="LDIAG"> T  </i>
     <i type="logical" name="LSUBROT"> F  </i>
     <i name="WEIMIN">      0.00000000</i>
     <i name="EBREAK">      0.00000000</i>
     <i name="DEPER">      0.30000000</i>
     <i type="int" name="NRMM">     4</i>
     <i name="TIME">      0.40000000</i>
    </separator>
   </separator>
   <separator name="electronic mixer" >
    <i name="AMIX">      0.40000000</i>
    <i name="BMIX">      1.00000000</i>
    <i name="AMIN">      0.10000000</i>
    <i name="AMIX_MAG">      1.60000000</i>
    <i name="BMIX_MAG">      1.00000000</i>
    <separator name="electronic mixer details" >
     <i type="int" name="IMIX">     4</i>
     <i type="logical" name="MIXFIRST"> F  </i>
     <i type="int" name="MAXMIX">    50</i>
     <i name="WC">    100.00000000</i>
     <i type="int" name="INIMIX">     1</i>
     <i type="int" name="MIXPRE">     1</i>
     <i type="int" name="MREMOVE">     5</i>
    </separator>
   </separator>
   <separator name="electronic dipolcorrection" >
    <i type="logical" name="LDIPOL"> F  </i>
    <i type="logical" name="LMONO"> F  </i>
    <i type="int" name="IDIPOL">     0</i>
    <i name="EPSILON">      1.00000000</i>
    <v name="DIPOL">   -100.00000000   -100.00000000   -100.00000000</v>
    <i name="EFIELD">      0.00000000</i>
   </separator>
  </separator>
  <separator name="grids" >
   <i type="int" name="NGX">    28</i>
   <i type="int" name="NGY">    28</i>
   <i type="int" name="NGZ">    28</i>
   <i type="int" name="NGXF">    56</i>
   <i type="int" name="NGYF">    56</i>
   <i type="int" name="NGZF">    56</i>
   <i type="logical" name="ADDGRID"> T  </i>
  </separator>
  <separator name="ionic" >
   <i type="int" name="NSW">     1</i>
   <i type="int" name="IBRION">    -1</i>
   <i type="int" name="MDALGO">     0</i>
   <i type="int" name="ISIF">     3</i>
   <i name="PSTRESS">      0.00000000</i>
   <i name="EDIFFG">      0.00001000</i>
   <i type="int" name="NFREE">     5</i>
   <i name="POTIM">      0.10000000</i>
   <i name="SMASS">     -3.00000000</i>
   <i name="SCALEE">      1.00000000</i>
  </separator>
  <separator name="ionic md" >
   <i name="TEBEG">      0.00010000</i>
   <i name="TEEND">      0.00010000</i>
   <i type="int" name="NBLOCK">     1</i>
   <i type="int" name="KBLOCK">     1</i>
   <i type="int" name="NPACO">   256</i>
   <i name="APACO">     16.00000000</i>
  </separator>
  <separator name="symmetry" >
   <i type="int" name="ISYM">     0</i>
   <i name="SYMPREC">      0.00000010</i>
  </separator>
  <separator name="dos" >
   <i type="int" name="LORBIT">     0</i>
   <v name="RWIGS">     -1.00000000</v>
   <i type="int" name="NEDOS">   301</i>
   <i name="EMIN">     10.00000000</i>
   <i name="EMAX">    -10.00000000</i>
   <i name="EFERMI">      0.00000000</i>
  </separator>
  <separator name="writing" >
   <i type="int" name="NWRITE">     2</i>
   <i type="logical" name="LWAVE"> T  </i>
   <i type="logical" name="LDOWNSAMPLE"> F  </i>
   <i type="logical" name="LCHARG"> F  </i>
   <i type="logical" name="LPARD"> F  </i>
   <i type="logical" name="LVTOT"> F  </i>
   <i type="logical" name="LVHAR"> F  </i>
   <i type="logical" name="LELF"> F  </i>
   <i type="logical" name="LOPTICS"> T  </i>
   <v name="STM">      0.00000000      0.00000000      0.00000000      0.00000000      0.00000000      0.00000000      0.00000000</v>
  </separator>
  <separator name="performance" >
   <i type="int" name="NPAR">     4</i>
   <i type="int" name="NSIM">     4</i>
   <i type="int" name="NBLK">    -1</i>
   <i type="logical" name="LPLANE"> T  </i>
   <i type="logical" name="LSCALAPACK"> T  </i>
   <i type="logical" name="LSCAAWARE"> T  </i>
   <i type="logical" name="LSCALU"> F  </i>
   <i type="logical" name="LASYNC"> F  </i>
   <i type="logical" name="LORBITALREAL"> F  </i>
  </separator>
  <separator name="miscellaneous" >
   <i type="int" name="IDIOT">     3</i>
   <i type="int" name="ISPECIAL">     0</i>
   <i type="logical" name="LMUSIC"> F  </i>
   <v name="POMASS">      0.01000000</v>
   <v name="DARWINR">      0.00000000</v>
   <v name="DARWINV">      1.00000000</v>
   <i type="logical" name="LCORR"> T  </i>
  </separator>
  <i type="logical" name="GGA_COMPAT"> F  </i>
  <i type="logical" name="LBERRY"> F  </i>
  <i type="int" name="ICORELEVEL">     0</i>
  <i type="logical" name="LDAU"> F  </i>
  <i type="int" name="I_CONSTRAINED_M">     0</i>
  <separator name="electronic exchange-correlation" >
   <i type="string" name="GGA">PE</i>
   <i type="int" name="VOSKOWN">     0</i>
   <i type="logical" name="LHFCALC"> F  </i>
   <i type="string" name="PRECFOCK"></i>
   <i type="logical" name="LSYMGRAD"> F  </i>
   <i type="logical" name="LHFONE"> F  </i>
   <i type="logical" name="LRHFCALC"> F  </i>
   <i type="logical" name="LTHOMAS"> F  </i>
   <i type="logical" name="LMODELHF"> F  </i>
   <i name="ENCUT4O">     -1.00000000</i>
   <i type="int" name="EXXOEP">     0</i>
   <i type="int" name="FOURORBIT">     0</i>
   <i name="AEXX">      0.00000000</i>
   <i name="HFALPHA">      0.00000000</i>
   <i name="MCALPHA">      0.00000000</i>
   <i name="ALDAX">      1.00000000</i>
   <i name="AGGAX">      1.00000000</i>
   <i name="ALDAC">      1.00000000</i>
   <i name="AGGAC">      1.00000000</i>
   <i type="int" name="NKREDX">     1</i>
   <i type="int" name="NKREDY">     1</i>
   <i type="int" name="NKREDZ">     1</i>
   <i type="logical" name="SHIFTRED"> F  </i>
   <i type="logical" name="ODDONLY"> F  </i>
   <i type="logical" name="EVENONLY"> F  </i>
   <i type="int" name="LMAXFOCK">     0</i>
   <i type="int" name="NMAXFOCKAE">     0</i>
   <i type="logical" name="LFOCKAEDFT"> F  </i>
   <i name="HFSCREEN">      0.00000000</i>
   <i name="HFSCREENC">      0.00000000</i>
   <i type="int" name="NBANDSGWLOW">     0</i>
  </separator>
  <separator name="vdW DFT" >
   <i type="logical" name="LUSE_VDW"> F  </i>
   <i name="Zab_VDW">     -0.84910000</i>
   <i name="PARAM1">      0.12340000</i>
   <i name="PARAM2">      1.00000000</i>
   <i name="PARAM3">      0.00000000</i>
  </separator>
  <separator name="model GW" >
   <i type="int" name="MODEL_GW">     0</i>
   <i name="MODEL_EPS0">     34.73837436</i>
   <i name="MODEL_ALPHA">      1.00000000</i>
  </separator>
  <separator name="linear response parameters" >
   <i type="logical" name="LEPSILON"> F  </i>
   <i type="logical" name="LRPA"> F  </i>
   <i type="logical" name="LNABLA"> F  </i>
   <i type="logical" name="LVEL"> F  </i>
   <i type="int" name="KINTER">     0</i>
   <i name="CSHIFT">      0.10000000</i>
   <i name="OMEGAMAX">     -1.00000000</i>
   <i name="DEG_THRESHOLD">      0.00200000</i>
   <i name="RTIME">     -0.10000000</i>
   <i name="WPLASMAI">      0.00000000</i>
   <v name="DFIELD">      0.00000000      0.00000000      0.00000000</v>
   <v name="WPLASMA">      0.00000000      0.00000000      0.00000000      0.00000000      0.00000000      0.00000000      0.00000000      0.00000000      0.00000000</v>
  </separator>
  <separator name="orbital magnetization" >
   <i type="logical" name="NUCIND"> F  </i>
   <v name="MAGPOS">      0.00000000      0.00000000      0.00000000</v>
   <i type="logical" name="LNICSALL"> T  </i>
   <i type="logical" name="ORBITALMAG"> F  </i>
   <i type="logical" name="LMAGBLOCH"> F  </i>
   <i type="logical" name="LCHIMAG"> F  </i>
   <i type="logical" name="LGAUGE"> T  </i>
   <i type="int" name="MAGATOM">     0</i>
   <v name="MAGDIPOL">      0.00000000      0.00000000      0.00000000</v>
   <v name="AVECCONST">      0.00000000      0.00000000      0.00000000</v>
  </separator>
  <separator name="response functions" >
   <i type="logical" name="LADDER"> F  </i>
   <i type="logical" name="LRPAFORCE"> F  </i>
   <i type="logical" name="LFXC"> F  </i>
   <i type="logical" name="LHARTREE"> T  </i>
   <i type="int" name="IBSE">     0</i>
   <v type="int" name="KPOINT">    -1     0     0     0</v>
   <i type="logical" name="LTCTE"> F  </i>
   <i type="logical" name="LTETE"> F  </i>
   <i type="logical" name="LTRIPLET"> F  </i>
   <i type="logical" name="LFXCEPS"> F  </i>
   <i type="logical" name="LFXHEG"> F  </i>
   <i type="int" name="NATURALO">     2</i>
   <i type="logical" name="L2ORDER"> F  </i>
   <i type="logical" name="LMP2LT"> F  </i>
   <i type="logical" name="LUSEW"> F  </i>
   <i name="ENCUTGW">     -2.00000000</i>
   <i name="ENCUTGWSOFT">     -2.00000000</i>
   <i name="ENCUTLF">     -1.00000000</i>
   <i type="int" name="LMAXMP2">    -1</i>
   <i name="SCISSOR">      0.00000000</i>
   <i type="int" name="NOMEGA">     0</i>
   <i type="int" name="NOMEGAR">     0</i>
   <i type="int" name="NBANDSGW">    -1</i>
   <i type="int" name="NBANDSO">    -1</i>
   <i type="int" name="NBANDSV">    -1</i>
   <i type="int" name="NELM">    50</i>
   <i type="int" name="NELMHF">     1</i>
   <i type="int" name="DIM">     3</i>
   <i type="int" name="ANTIRES">     0</i>
   <i name="OMEGAMAX">    -30.00000000</i>
   <i name="OMEGAMIN">    -30.00000000</i>
   <i name="OMEGATL">   -200.00000000</i>
   <i type="int" name="OMEGAGRID">   140</i>
   <i name="CSHIFT">     -0.10000000</i>
   <i type="logical" name="SELFENERGY"> F  </i>
   <i type="logical" name="LSPECTRAL"> F  </i>
   <i type="logical" name="LSPECTRALGW"> F  </i>
   <i type="logical" name="LSINGLES"> F  </i>
   <i type="logical" name="LFERMIGW"> F  </i>
   <i type="logical" name="ODDONLYGW"> F  </i>
   <i type="logical" name="EVENONLYGW"> F  </i>
   <i type="int" name="NKREDLFX">     1</i>
   <i type="int" name="NKREDLFY">     1</i>
   <i type="int" name="NKREDLFZ">     1</i>
   <i type="int" name="MAXMEM">  2800</i>
   <i type="int" name="TELESCOPE">     0</i>
   <i type="int" name="TAUPAR">     1</i>
   <i type="int" name="OMEGAPAR">    -1</i>
   <i name="LAMBDA">      1.00000000</i>
  </separator>
  <separator name="External order field" >
   <i name="OFIELD_KAPPA">      0.00000000</i>
   <v name="OFIELD_K">      0.00000000      0.00000000      0.00000000</v>
   <i name="OFIELD_Q6_NEAR">      0.00000000</i>
   <i name="OFIELD_Q6_FAR">      0.00000000</i>
   <i name="OFIELD_A">      0.00000000</i>
  </separator>
 </parameters>
 <atominfo>
  <atoms>       1 </atoms>
  <types>       1 </types>
  <array name="atoms" >
   <dimension dim="1">ion</dimension>
   <field type="string">element</field>
   <field type="int">atomtype</field>
   <set>
    <rc><c>Og</c><c>   1</c></rc>
   </set>
  </array>
  <array name="atomtypes" >
   <dimension dim="1">type</dimension>
   <field type="int">atomspertype</field>
   <field type="string">element</field>
   <field>mass</field>
   <field>valence</field>
   <field type="string">pseudopotential</field>
   <set>
    <rc><c>   1</c><c>Og</c><c>      0.01000000</c><c>     18.00000000</c><c>  PAW Og, JanMewes Oct 18               </c></rc>
   </set>
  </array>
 </atominfo>
 <structure name="initialpos" >
  <crystal>
   <varray name="basis" >
    <v>       4.34234588       0.00000000       0.00000000 </v>
    <v>       2.17117294       3.76058184      -0.00000000 </v>
    <v>       2.17117294       1.25352728       3.54551056 </v>
   </varray>
   <i name="volume">     57.89729060 </i>
   <varray name="rec_basis" >
    <v>       0.23029027      -0.13295815      -0.09401561 </v>
    <v>       0.00000000       0.26591630      -0.09401561 </v>
    <v>      -0.00000000       0.00000000       0.28204683 </v>
   </varray>
  </crystal>
  <varray name="positions" >
   <v>       0.00000000       0.00000000       0.00000000 </v>
  </varray>
  <varray name="velocities" >
   <v>       0.00000000       0.00000000       0.00000000 </v>
  </varray>
 </structure>
 <calculation>
  <scstep>
   <time name="diag">  184.22  184.16</time>
   <time name="total">  184.30  184.24</time>
   <energy>
    <i name="alphaZ">     65.89697999 </i>
    <i name="ewald">  -1741.63824267 </i>
    <i name="hartreedc">   -672.03596811 </i>
    <i name="XCdc">    -68.73380321 </i>
    <i name="pawpsdc">   2336.01599491 </i>
    <i name="pawaedc">  -2260.61969282 </i>
    <i name="eentropy">     -0.00000001 </i>
    <i name="bandstr">   -311.97047911 </i>
    <i name="atom">   2639.90492407 </i>
    <i name="e_fr_energy">    -13.18028696 </i>
    <i name="e_wo_entrp">    -13.18028695 </i>
    <i name="e_0_energy">    -13.18028695 </i>
   </energy>
  </scstep>
  <scstep>
   <time name="diag">  184.09  184.01</time>
   <time name="total">  184.10  184.03</time>
   <energy>
    <i name="e_fr_energy">    -13.18028696 </i>
    <i name="e_wo_entrp">    -13.18028695 </i>
    <i name="e_0_energy">    -13.18028695 </i>
   </energy>
  </scstep>
  <scstep>
   <time name="diag">  184.77  184.71</time>
   <time name="total">  184.79  184.72</time>
   <energy>
    <i name="e_fr_energy">    -13.18028696 </i>
    <i name="e_wo_entrp">    -13.18028695 </i>
    <i name="e_0_energy">    -13.18028695 </i>
   </energy>
  </scstep>
  <scstep>
   <time name="diag">  184.70  184.65</time>
   <time name="total">  184.72  184.66</time>
   <energy>
    <i name="e_fr_energy">    -13.18028696 </i>
    <i name="e_wo_entrp">    -13.18028695 </i>
    <i name="e_0_energy">    -13.18028695 </i>
   </energy>
  </scstep>
  <scstep>
   <time name="diag">  184.79  184.76</time>
   <time name="total">  184.93  184.90</time>
   <energy>
    <i name="e_fr_energy">    -13.18028696 </i>
    <i name="e_wo_entrp">    -13.18028695 </i>
    <i name="e_0_energy">    -13.18028695 </i>
   </energy>
  </scstep>
  <scstep>
   <time name="diag">  184.85  184.79</time>
   <time name="total">  184.92  184.87</time>
   <energy>
    <i name="alphaZ">     65.89697999 </i>
    <i name="ewald">  -1741.63824267 </i>
    <i name="hartreedc">   -672.03596888 </i>
    <i name="XCdc">    -68.73380318 </i>
    <i name="pawpsdc">   2336.01599150 </i>
    <i name="pawaedc">  -2260.61969039 </i>
    <i name="eentropy">     -0.00000001 </i>
    <i name="bandstr">   -311.97047739 </i>
    <i name="atom">   2639.90492407 </i>
    <i name="e_fr_energy">    -13.18028697 </i>
    <i name="e_wo_entrp">    -13.18028695 </i>
    <i name="e_0_energy">    -13.18028696 </i>
   </energy>
  </scstep>
  <structure>
   <crystal>
    <varray name="basis" >
     <v>       4.34234588       0.00000000       0.00000000 </v>
     <v>       2.17117294       3.76058184      -0.00000000 </v>
     <v>       2.17117294       1.25352728       3.54551056 </v>
    </varray>
    <i name="volume">     57.89729060 </i>
    <varray name="rec_basis" >
     <v>       0.23029027      -0.13295815      -0.09401561 </v>
     <v>       0.00000000       0.26591630      -0.09401561 </v>
     <v>      -0.00000000       0.00000000       0.28204683 </v>
    </varray>
   </crystal>
   <varray name="positions" >
    <v>       0.00000000       0.00000000       0.00000000 </v>
   </varray>
  </structure>
  <varray name="forces" >
   <v>      -0.00000001      -0.00000000       0.00000000 </v>
  </varray>
  <varray name="stress" >
   <v>    -146.28732332       0.00008976       0.00004462 </v>
   <v>       0.00008965    -146.28724962      -0.00002489 </v>
   <v>       0.00004457      -0.00002551    -146.28723112 </v>
  </varray>
  <energy>
   <i name="e_fr_energy">    -13.62024906 </i>
   <i name="e_wo_entrp">    -13.62024905 </i>
   <i name="e_0_energy">     -0.00000001 </i>
  </energy>
  <time name="totalsc"> 1112.17 1112.99</time>
  <eigenvalues>
   <array>
    <dimension dim="1">band</dimension>
    <dimension dim="2">kpoint</dimension>
    <dimension dim="3">spin</dimension>
    <field>eigene</field>
    <field>occ</field>
    <set>
     <set comment="spin 1">
      <set comment="kpoint 1">
       <r>  -30.4710    1.0000 </r>
       <r>  -30.4710    1.0000 </r>
       <r>  -30.4708    1.0000 </r>
       <r>  -30.4708    1.0000 </r>
       <r>  -23.8047    1.0000 </r>
       <r>  -23.8043    1.0000 </r>
       <r>  -23.8040    1.0000 </r>
       <r>  -23.8036    1.0000 </r>
       <r>  -23.8034    1.0000 </r>
       <r>  -23.8027    1.0000 </r>
       <r>  -20.2095    1.0000 </r>
       <r>  -20.2088    1.0000 </r>
       <r>   -6.9156    1.0000 </r>
       <r>   -6.9145    1.0000 </r>
       <r>    3.7122    1.0000 </r>
       <r>    3.7127    1.0000 </r>
       <r>    3.9585    0.9998 </r>
       <r>    3.9586    0.9997 </r>
       <r>    3.9634    0.0003 </r>
       <r>    3.9635    0.0002 </r>
       <r>   10.8782    0.0000 </r>
       <r>   10.8784    0.0000 </r>
       <r>   10.8790    0.0000 </r>
       <r>   10.8792    0.0000 </r>
       <r>   11.1157    0.0000 </r>
       <r>   11.1162    0.0000 </r>
       <r>   11.3024    0.0000 </r>
       <r>   11.3039    0.0000 </r>
       <r>   13.2149    0.0000 </r>
       <r>   13.2179    0.0000 </r>
       <r>   13.5196    0.0000 </r>
       <r>   13.5197    0.0000 </r>
       <r>   13.5207    0.0000 </r>
       <r>   13.5208    0.0000 </r>
       <r>   14.3539    0.0000 </r>
       <r>   14.3553    0.0000 </r>
       <r>   14.3563    0.0000 </r>
       <r>   14.3577    0.0000 </r>
       <r>   16.2605    0.0000 </r>
       <r>   16.2608    0.0000 </r>
       <r>   20.3961    0.0000 </r>
       <r>   20.3964    0.0000 </r>
       <r>   20.3971    0.0000 </r>
       <r>   20.3974    0.0000 </r>
       <r>   20.3981    0.0000 </r>
       <r>   20.3984    0.0000 </r>
       <r>   22.9568    0.0000 </r>
       <r>   22.9576    0.0000 </r>
       <r>   26.2446    0.0000 </r>
       <r>   26.2447    0.0000 </r>
       <r>   26.2466    0.0000 </r>
       <r>   26.2468    0.0000 </r>
       <r>   26.4495    0.0000 </r>
       <r>   26.4502    0.0000 </r>
       <r>   27.7688    0.0000 </r>
       <r>   27.7705    0.0000 </r>
       <r>   29.4160    0.0000 </r>
       <r>   29.4169    0.0000 </r>
       <r>   29.4176    0.0000 </r>
       <r>   29.4185    0.0000 </r>
       <r>   30.1781    0.0000 </r>
       <r>   30.1788    0.0000 </r>
       <r>   30.3431    0.0000 </r>
       <r>   30.3435    0.0000 </r>
       <r>   30.3442    0.0000 </r>
       <r>   30.3446    0.0000 </r>
       <r>   30.7877    0.0000 </r>
       <r>   30.7879    0.0000 </r>
       <r>   31.6109    0.0000 </r>
       <r>   31.6110    0.0000 </r>
       <r>   31.6121    0.0000 </r>
       <r>   31.6122    0.0000 </r>
       <r>   37.7909    0.0000 </r>
       <r>   37.7914    0.0000 </r>
       <r>   37.7916    0.0000 </r>
       <r>   37.7920    0.0000 </r>
       <r>   37.7922    0.0000 </r>
       <r>   37.7928    0.0000 </r>
       <r>   38.5857    0.0000 </r>
       <r>   38.5871    0.0000 </r>
       <r>   38.6185    0.0000 </r>
       <r>   38.6187    0.0000 </r>
       <r>   38.6191    0.0000 </r>
       <r>   38.6217    0.0000 </r>
       <r>   38.6221    0.0000 </r>
       <r>   38.6223    0.0000 </r>
       <r>   41.1202    0.0000 </r>
       <r>   41.1205    0.0000 </r>
       <r>   41.1208    0.0000 </r>
       <r>   41.1211    0.0000 </r>
       <r>   41.3056    0.0000 </r>
       <r>   41.3061    0.0000 </r>
       <r>   42.5777    0.0000 </r>
       <r>   42.5785    0.0000 </r>
       <r>   42.8567    0.0000 </r>
       <r>   42.8578    0.0000 </r>
       <r>   42.8585    0.0000 </r>
       <r>   42.8596    0.0000 </r>
       <r>   43.1691    0.0000 </r>
       <r>   43.1695    0.0000 </r>
       <r>   43.1700    0.0000 </r>
       <r>   43.1704    0.0000 </r>
       <r>   44.0611    0.0000 </r>
       <r>   44.0611    0.0000 </r>
       <r>   44.0633    0.0000 </r>
       <r>   44.0634    0.0000 </r>
       <r>   44.1394    0.0000 </r>
       <r>   44.1400    0.0000 </r>
       <r>   44.1409    0.0000 </r>
       <r>   44.1415    0.0000 </r>
       <r>   44.3317    0.0000 </r>
       <r>   44.3327    0.0000 </r>
       <r>   45.2765    0.0000 </r>
       <r>   45.2773    0.0000 </r>
       <r>   45.6842    0.0000 </r>
       <r>   45.6857    0.0000 </r>
       <r>   46.1397    0.0000 </r>
       <r>   46.1398    0.0000 </r>
       <r>   46.1410    0.0000 </r>
       <r>   46.1411    0.0000 </r>
       <r>   46.6655    0.0000 </r>
       <r>   46.6657    0.0000 </r>
       <r>   47.0263    0.0000 </r>
       <r>   47.0265    0.0000 </r>
       <r>   47.0269    0.0000 </r>
       <r>   47.0271    0.0000 </r>
       <r>   47.1556    0.0000 </r>
       <r>   47.1568    0.0000 </r>
      </set>
      <set comment="kpoint 2">
       <r>  -30.4496    1.0000 </r>
       <r>  -30.4495    1.0000 </r>
       <r>  -30.4476    1.0000 </r>
       <r>  -30.4474    1.0000 </r>
       <r>  -23.7898    1.0000 </r>
       <r>  -23.7887    1.0000 </r>
       <r>  -23.7884    1.0000 </r>
       <r>  -23.7882    1.0000 </r>
       <r>  -23.7873    1.0000 </r>
       <r>  -23.7865    1.0000 </r>
       <r>  -20.1818    1.0000 </r>
       <r>  -20.1811    1.0000 </r>
       <r>   -7.0066    1.0000 </r>
       <r>   -7.0056    1.0000 </r>
       <r>    2.1913    1.0000 </r>
       <r>    2.1944    1.0000 </r>
       <r>    3.8022    1.0000 </r>
       <r>    3.8067    1.0000 </r>
       <r>    5.5283    0.0000 </r>
       <r>    5.5298    0.0000 </r>
       <r>    9.8152    0.0000 </r>
       <r>    9.8164    0.0000 </r>
       <r>   11.0518    0.0000 </r>
       <r>   11.0524    0.0000 </r>
       <r>   11.3750    0.0000 </r>
       <r>   11.3752    0.0000 </r>
       <r>   12.1621    0.0000 </r>
       <r>   12.1627    0.0000 </r>
       <r>   12.5034    0.0000 </r>
       <r>   12.5051    0.0000 </r>
       <r>   12.6747    0.0000 </r>
       <r>   12.6768    0.0000 </r>
       <r>   13.7744    0.0000 </r>
       <r>   13.7762    0.0000 </r>
       <r>   15.8867    0.0000 </r>
       <r>   15.8880    0.0000 </r>
       <r>   16.0378    0.0000 </r>
       <r>   16.0406    0.0000 </r>
       <r>   18.0378    0.0000 </r>
       <r>   18.0380    0.0000 </r>
       <r>   19.9161    0.0000 </r>
       <r>   19.9179    0.0000 </r>
       <r>   20.0497    0.0000 </r>
       <r>   20.0518    0.0000 </r>
       <r>   20.4849    0.0000 </r>
       <r>   20.4853    0.0000 </r>
       <r>   21.8005    0.0000 </r>
       <r>   21.8008    0.0000 </r>
       <r>   25.0344    0.0000 </r>
       <r>   25.0355    0.0000 </r>
       <r>   25.6602    0.0000 </r>
       <r>   25.6624    0.0000 </r>
       <r>   25.9675    0.0000 </r>
       <r>   25.9692    0.0000 </r>
       <r>   27.1715    0.0000 </r>
       <r>   27.1729    0.0000 </r>
       <r>   27.8413    0.0000 </r>
       <r>   27.8416    0.0000 </r>
       <r>   28.7068    0.0000 </r>
       <r>   28.7076    0.0000 </r>
       <r>   30.1964    0.0000 </r>
       <r>   30.1988    0.0000 </r>
       <r>   30.2824    0.0000 </r>
       <r>   30.2835    0.0000 </r>
       <r>   30.9063    0.0000 </r>
       <r>   30.9073    0.0000 </r>
       <r>   31.0000    0.0000 </r>
       <r>   31.0003    0.0000 </r>
       <r>   32.9249    0.0000 </r>
       <r>   32.9268    0.0000 </r>
       <r>   35.3266    0.0000 </r>
       <r>   35.3272    0.0000 </r>
       <r>   35.4690    0.0000 </r>
       <r>   35.4703    0.0000 </r>
       <r>   36.5292    0.0000 </r>
       <r>   36.5305    0.0000 </r>
       <r>   36.5427    0.0000 </r>
       <r>   36.5428    0.0000 </r>
       <r>   36.9433    0.0000 </r>
       <r>   36.9442    0.0000 </r>
       <r>   38.3467    0.0000 </r>
       <r>   38.3474    0.0000 </r>
       <r>   39.1446    0.0000 </r>
       <r>   39.1475    0.0000 </r>
       <r>   39.3422    0.0000 </r>
       <r>   39.3429    0.0000 </r>
       <r>   39.5324    0.0000 </r>
       <r>   39.5327    0.0000 </r>
       <r>   39.5463    0.0000 </r>
       <r>   39.5469    0.0000 </r>
       <r>   40.4281    0.0000 </r>
       <r>   40.4283    0.0000 </r>
       <r>   40.5747    0.0000 </r>
       <r>   40.5757    0.0000 </r>
       <r>   41.3887    0.0000 </r>
       <r>   41.3899    0.0000 </r>
       <r>   41.5898    0.0000 </r>
       <r>   41.5907    0.0000 </r>
       <r>   42.7230    0.0000 </r>
       <r>   42.7235    0.0000 </r>
       <r>   43.2137    0.0000 </r>
       <r>   43.2139    0.0000 </r>
       <r>   43.3237    0.0000 </r>
       <r>   43.3241    0.0000 </r>
       <r>   44.1543    0.0000 </r>
       <r>   44.1549    0.0000 </r>
       <r>   44.6758    0.0000 </r>
       <r>   44.6760    0.0000 </r>
       <r>   44.7704    0.0000 </r>
       <r>   44.7720    0.0000 </r>
       <r>   44.9083    0.0000 </r>
       <r>   44.9093    0.0000 </r>
       <r>   46.5572    0.0000 </r>
       <r>   46.5585    0.0000 </r>
       <r>   47.1332    0.0000 </r>
       <r>   47.1337    0.0000 </r>
       <r>   47.5521    0.0000 </r>
       <r>   47.5530    0.0000 </r>
       <r>   48.4446    0.0000 </r>
       <r>   48.4454    0.0000 </r>
       <r>   49.3535    0.0000 </r>
       <r>   49.3539    0.0000 </r>
       <r>   49.3860    0.0000 </r>
       <r>   49.3872    0.0000 </r>
       <r>   50.4110    0.0000 </r>
       <r>   50.4122    0.0000 </r>
       <r>   51.5871    0.0000 </r>
       <r>   51.5872    0.0000 </r>
      </set>
      <set comment="kpoint 3">
       <r>  -30.4606    1.0000 </r>
       <r>  -30.4605    1.0000 </r>
       <r>  -30.4550    1.0000 </r>
       <r>  -30.4547    1.0000 </r>
       <r>  -23.7946    1.0000 </r>
       <r>  -23.7940    1.0000 </r>
       <r>  -23.7928    1.0000 </r>
       <r>  -23.7927    1.0000 </r>
       <r>  -23.7912    1.0000 </r>
       <r>  -23.7901    1.0000 </r>
       <r>  -20.1265    1.0000 </r>
       <r>  -20.1257    1.0000 </r>
       <r>   -7.1896    1.0000 </r>
       <r>   -7.1886    1.0000 </r>
       <r>    1.0956    1.0000 </r>
       <r>    1.0990    1.0000 </r>
       <r>    3.5219    1.0000 </r>
       <r>    3.5261    1.0000 </r>
       <r>    6.2113    0.0000 </r>
       <r>    6.2116    0.0000 </r>
       <r>   10.4119    0.0000 </r>
       <r>   10.4128    0.0000 </r>
       <r>   10.6062    0.0000 </r>
       <r>   10.6070    0.0000 </r>
       <r>   11.0392    0.0000 </r>
       <r>   11.0396    0.0000 </r>
       <r>   11.2776    0.0000 </r>
       <r>   11.2779    0.0000 </r>
       <r>   13.3054    0.0000 </r>
       <r>   13.3058    0.0000 </r>
       <r>   13.5742    0.0000 </r>
       <r>   13.5756    0.0000 </r>
       <r>   16.6523    0.0000 </r>
       <r>   16.6542    0.0000 </r>
       <r>   17.7049    0.0000 </r>
       <r>   17.7067    0.0000 </r>
       <r>   17.9564    0.0000 </r>
       <r>   17.9594    0.0000 </r>
       <r>   18.3221    0.0000 </r>
       <r>   18.3238    0.0000 </r>
       <r>   18.7581    0.0000 </r>
       <r>   18.7602    0.0000 </r>
       <r>   19.0584    0.0000 </r>
       <r>   19.0606    0.0000 </r>
       <r>   20.6197    0.0000 </r>
       <r>   20.6201    0.0000 </r>
       <r>   21.1514    0.0000 </r>
       <r>   21.1516    0.0000 </r>
       <r>   23.9841    0.0000 </r>
       <r>   23.9845    0.0000 </r>
       <r>   25.2306    0.0000 </r>
       <r>   25.2322    0.0000 </r>
       <r>   25.3239    0.0000 </r>
       <r>   25.3255    0.0000 </r>
       <r>   26.3984    0.0000 </r>
       <r>   26.3994    0.0000 </r>
       <r>   27.0831    0.0000 </r>
       <r>   27.0834    0.0000 </r>
       <r>   27.6397    0.0000 </r>
       <r>   27.6405    0.0000 </r>
       <r>   29.6272    0.0000 </r>
       <r>   29.6274    0.0000 </r>
       <r>   31.0248    0.0000 </r>
       <r>   31.0274    0.0000 </r>
       <r>   31.4623    0.0000 </r>
       <r>   31.4625    0.0000 </r>
       <r>   31.9040    0.0000 </r>
       <r>   31.9048    0.0000 </r>
       <r>   32.0629    0.0000 </r>
       <r>   32.0647    0.0000 </r>
       <r>   32.1859    0.0000 </r>
       <r>   32.1865    0.0000 </r>
       <r>   33.6894    0.0000 </r>
       <r>   33.6907    0.0000 </r>
       <r>   33.8479    0.0000 </r>
       <r>   33.8486    0.0000 </r>
       <r>   34.9235    0.0000 </r>
       <r>   34.9249    0.0000 </r>
       <r>   35.7060    0.0000 </r>
       <r>   35.7083    0.0000 </r>
       <r>   36.0274    0.0000 </r>
       <r>   36.0281    0.0000 </r>
       <r>   36.4735    0.0000 </r>
       <r>   36.4749    0.0000 </r>
       <r>   39.3377    0.0000 </r>
       <r>   39.3395    0.0000 </r>
       <r>   39.3716    0.0000 </r>
       <r>   39.3724    0.0000 </r>
       <r>   40.1108    0.0000 </r>
       <r>   40.1110    0.0000 </r>
       <r>   40.6870    0.0000 </r>
       <r>   40.6875    0.0000 </r>
       <r>   40.9006    0.0000 </r>
       <r>   40.9016    0.0000 </r>
       <r>   42.0977    0.0000 </r>
       <r>   42.0982    0.0000 </r>
       <r>   42.8535    0.0000 </r>
       <r>   42.8537    0.0000 </r>
       <r>   43.0860    0.0000 </r>
       <r>   43.0873    0.0000 </r>
       <r>   43.8859    0.0000 </r>
       <r>   43.8872    0.0000 </r>
       <r>   44.7083    0.0000 </r>
       <r>   44.7085    0.0000 </r>
       <r>   44.9486    0.0000 </r>
       <r>   44.9493    0.0000 </r>
       <r>   46.0021    0.0000 </r>
       <r>   46.0023    0.0000 </r>
       <r>   46.4576    0.0000 </r>
       <r>   46.4590    0.0000 </r>
       <r>   46.5199    0.0000 </r>
       <r>   46.5213    0.0000 </r>
       <r>   47.0960    0.0000 </r>
       <r>   47.0968    0.0000 </r>
       <r>   49.7054    0.0000 </r>
       <r>   49.7059    0.0000 </r>
       <r>   51.1729    0.0000 </r>
       <r>   51.1736    0.0000 </r>
       <r>   51.4344    0.0000 </r>
       <r>   51.4355    0.0000 </r>
       <r>   51.9589    0.0000 </r>
       <r>   51.9593    0.0000 </r>
       <r>   52.0122    0.0000 </r>
       <r>   52.0126    0.0000 </r>
       <r>   52.2779    0.0000 </r>
       <r>   52.2784    0.0000 </r>
       <r>   52.5976    0.0000 </r>
       <r>   52.5982    0.0000 </r>
      </set>
      <set comment="kpoint 4">
       <r>  -30.4771    1.0000 </r>
       <r>  -30.4769    1.0000 </r>
       <r>  -30.4655    1.0000 </r>
       <r>  -30.4652    1.0000 </r>
       <r>  -23.8045    1.0000 </r>
       <r>  -23.8038    1.0000 </r>
       <r>  -23.8001    1.0000 </r>
       <r>  -23.7990    1.0000 </r>
       <r>  -23.7983    1.0000 </r>
       <r>  -23.7981    1.0000 </r>
       <r>  -20.0984    1.0000 </r>
       <r>  -20.0976    1.0000 </r>
       <r>   -7.2816    1.0000 </r>
       <r>   -7.2807    1.0000 </r>
       <r>    0.7153    1.0000 </r>
       <r>    0.7187    1.0000 </r>
       <r>    3.3948    1.0000 </r>
       <r>    3.3989    1.0000 </r>
       <r>    6.2115    0.0000 </r>
       <r>    6.2118    0.0000 </r>
       <r>   10.3158    0.0000 </r>
       <r>   10.3168    0.0000 </r>
       <r>   10.5287    0.0000 </r>
       <r>   10.5293    0.0000 </r>
       <r>   10.7192    0.0000 </r>
       <r>   10.7197    0.0000 </r>
       <r>   12.1021    0.0000 </r>
       <r>   12.1026    0.0000 </r>
       <r>   14.6877    0.0000 </r>
       <r>   14.6878    0.0000 </r>
       <r>   14.7744    0.0000 </r>
       <r>   14.7755    0.0000 </r>
       <r>   16.1086    0.0000 </r>
       <r>   16.1099    0.0000 </r>
       <r>   17.0991    0.0000 </r>
       <r>   17.0992    0.0000 </r>
       <r>   17.2692    0.0000 </r>
       <r>   17.2716    0.0000 </r>
       <r>   18.5284    0.0000 </r>
       <r>   18.5307    0.0000 </r>
       <r>   19.0327    0.0000 </r>
       <r>   19.0360    0.0000 </r>
       <r>   19.0874    0.0000 </r>
       <r>   19.0893    0.0000 </r>
       <r>   20.6888    0.0000 </r>
       <r>   20.6893    0.0000 </r>
       <r>   23.2743    0.0000 </r>
       <r>   23.2755    0.0000 </r>
       <r>   23.9786    0.0000 </r>
       <r>   23.9799    0.0000 </r>
       <r>   25.3314    0.0000 </r>
       <r>   25.3318    0.0000 </r>
       <r>   25.4793    0.0000 </r>
       <r>   25.4801    0.0000 </r>
       <r>   25.5310    0.0000 </r>
       <r>   25.5319    0.0000 </r>
       <r>   27.0121    0.0000 </r>
       <r>   27.0124    0.0000 </r>
       <r>   27.2924    0.0000 </r>
       <r>   27.2936    0.0000 </r>
       <r>   28.3735    0.0000 </r>
       <r>   28.3740    0.0000 </r>
       <r>   29.4883    0.0000 </r>
       <r>   29.4892    0.0000 </r>
       <r>   30.8443    0.0000 </r>
       <r>   30.8446    0.0000 </r>
       <r>   30.8733    0.0000 </r>
       <r>   30.8753    0.0000 </r>
       <r>   31.7239    0.0000 </r>
       <r>   31.7264    0.0000 </r>
       <r>   32.4526    0.0000 </r>
       <r>   32.4529    0.0000 </r>
       <r>   32.8601    0.0000 </r>
       <r>   32.8606    0.0000 </r>
       <r>   33.0572    0.0000 </r>
       <r>   33.0586    0.0000 </r>
       <r>   33.9516    0.0000 </r>
       <r>   33.9534    0.0000 </r>
       <r>   34.0412    0.0000 </r>
       <r>   34.0436    0.0000 </r>
       <r>   35.8750    0.0000 </r>
       <r>   35.8756    0.0000 </r>
       <r>   36.6870    0.0000 </r>
       <r>   36.6884    0.0000 </r>
       <r>   39.5479    0.0000 </r>
       <r>   39.5489    0.0000 </r>
       <r>   39.6776    0.0000 </r>
       <r>   39.6800    0.0000 </r>
       <r>   39.7734    0.0000 </r>
       <r>   39.7739    0.0000 </r>
       <r>   40.2413    0.0000 </r>
       <r>   40.2421    0.0000 </r>
       <r>   40.5600    0.0000 </r>
       <r>   40.5609    0.0000 </r>
       <r>   41.9389    0.0000 </r>
       <r>   41.9399    0.0000 </r>
       <r>   42.1890    0.0000 </r>
       <r>   42.1893    0.0000 </r>
       <r>   44.8972    0.0000 </r>
       <r>   44.8977    0.0000 </r>
       <r>   46.0937    0.0000 </r>
       <r>   46.0944    0.0000 </r>
       <r>   46.2483    0.0000 </r>
       <r>   46.2493    0.0000 </r>
       <r>   46.4378    0.0000 </r>
       <r>   46.4385    0.0000 </r>
       <r>   46.5884    0.0000 </r>
       <r>   46.5887    0.0000 </r>
       <r>   47.7282    0.0000 </r>
       <r>   47.7289    0.0000 </r>
       <r>   49.4534    0.0000 </r>
       <r>   49.4544    0.0000 </r>
       <r>   50.0392    0.0000 </r>
       <r>   50.0400    0.0000 </r>
       <r>   50.2206    0.0000 </r>
       <r>   50.2216    0.0000 </r>
       <r>   50.9478    0.0000 </r>
       <r>   50.9494    0.0000 </r>
       <r>   51.3024    0.0000 </r>
       <r>   51.3031    0.0000 </r>
       <r>   51.5028    0.0000 </r>
       <r>   51.5028    0.0000 </r>
       <r>   52.6444    0.0000 </r>
       <r>   52.6461    0.0000 </r>
       <r>   52.6957    0.0000 </r>
       <r>   52.6967    0.0000 </r>
       <r>   52.8456    0.0000 </r>
       <r>   52.8474    0.0000 </r>
      </set>
      <set comment="kpoint 5">
       <r>  -30.4606    1.0000 </r>
       <r>  -30.4605    1.0000 </r>
       <r>  -30.4550    1.0000 </r>
       <r>  -30.4547    1.0000 </r>
       <r>  -23.7946    1.0000 </r>
       <r>  -23.7940    1.0000 </r>
       <r>  -23.7928    1.0000 </r>
       <r>  -23.7927    1.0000 </r>
       <r>  -23.7912    1.0000 </r>
       <r>  -23.7901    1.0000 </r>
       <r>  -20.1265    1.0000 </r>
       <r>  -20.1257    1.0000 </r>
       <r>   -7.1896    1.0000 </r>
       <r>   -7.1886    1.0000 </r>
       <r>    1.0956    1.0000 </r>
       <r>    1.0990    1.0000 </r>
       <r>    3.5219    1.0000 </r>
       <r>    3.5261    1.0000 </r>
       <r>    6.2113    0.0000 </r>
       <r>    6.2116    0.0000 </r>
       <r>   10.4119    0.0000 </r>
       <r>   10.4128    0.0000 </r>
       <r>   10.6062    0.0000 </r>
       <r>   10.6070    0.0000 </r>
       <r>   11.0392    0.0000 </r>
       <r>   11.0396    0.0000 </r>
       <r>   11.2776    0.0000 </r>
       <r>   11.2779    0.0000 </r>
       <r>   13.3054    0.0000 </r>
       <r>   13.3058    0.0000 </r>
       <r>   13.5742    0.0000 </r>
       <r>   13.5756    0.0000 </r>
       <r>   16.6523    0.0000 </r>
       <r>   16.6542    0.0000 </r>
       <r>   17.7049    0.0000 </r>
       <r>   17.7067    0.0000 </r>
       <r>   17.9564    0.0000 </r>
       <r>   17.9594    0.0000 </r>
       <r>   18.3221    0.0000 </r>
       <r>   18.3238    0.0000 </r>
       <r>   18.7581    0.0000 </r>
       <r>   18.7602    0.0000 </r>
       <r>   19.0584    0.0000 </r>
       <r>   19.0606    0.0000 </r>
       <r>   20.6197    0.0000 </r>
       <r>   20.6201    0.0000 </r>
       <r>   21.1514    0.0000 </r>
       <r>   21.1516    0.0000 </r>
       <r>   23.9841    0.0000 </r>
       <r>   23.9845    0.0000 </r>
       <r>   25.2306    0.0000 </r>
       <r>   25.2322    0.0000 </r>
       <r>   25.3239    0.0000 </r>
       <r>   25.3255    0.0000 </r>
       <r>   26.3984    0.0000 </r>
       <r>   26.3994    0.0000 </r>
       <r>   27.0831    0.0000 </r>
       <r>   27.0834    0.0000 </r>
       <r>   27.6397    0.0000 </r>
       <r>   27.6405    0.0000 </r>
       <r>   29.6272    0.0000 </r>
       <r>   29.6274    0.0000 </r>
       <r>   31.0248    0.0000 </r>
       <r>   31.0274    0.0000 </r>
       <r>   31.4623    0.0000 </r>
       <r>   31.4625    0.0000 </r>
       <r>   31.9040    0.0000 </r>
       <r>   31.9048    0.0000 </r>
       <r>   32.0629    0.0000 </r>
       <r>   32.0647    0.0000 </r>
       <r>   32.1859    0.0000 </r>
       <r>   32.1865    0.0000 </r>
       <r>   33.6894    0.0000 </r>
       <r>   33.6907    0.0000 </r>
       <r>   33.8479    0.0000 </r>
       <r>   33.8486    0.0000 </r>
       <r>   34.9235    0.0000 </r>
       <r>   34.9249    0.0000 </r>
       <r>   35.7060    0.0000 </r>
       <r>   35.7083    0.0000 </r>
       <r>   36.0274    0.0000 </r>
       <r>   36.0281    0.0000 </r>
       <r>   36.4735    0.0000 </r>
       <r>   36.4749    0.0000 </r>
       <r>   39.3377    0.0000 </r>
       <r>   39.3395    0.0000 </r>
       <r>   39.3716    0.0000 </r>
       <r>   39.3724    0.0000 </r>
       <r>   40.1108    0.0000 </r>
       <r>   40.1110    0.0000 </r>
       <r>   40.6870    0.0000 </r>
       <r>   40.6875    0.0000 </r>
       <r>   40.9006    0.0000 </r>
       <r>   40.9016    0.0000 </r>
       <r>   42.0977    0.0000 </r>
       <r>   42.0982    0.0000 </r>
       <r>   42.8535    0.0000 </r>
       <r>   42.8537    0.0000 </r>
       <r>   43.0860    0.0000 </r>
       <r>   43.0873    0.0000 </r>
       <r>   43.8859    0.0000 </r>
       <r>   43.8872    0.0000 </r>
       <r>   44.7083    0.0000 </r>
       <r>   44.7085    0.0000 </r>
       <r>   44.9486    0.0000 </r>
       <r>   44.9493    0.0000 </r>
       <r>   46.0021    0.0000 </r>
       <r>   46.0023    0.0000 </r>
       <r>   46.4576    0.0000 </r>
       <r>   46.4590    0.0000 </r>
       <r>   46.5199    0.0000 </r>
       <r>   46.5213    0.0000 </r>
       <r>   47.0960    0.0000 </r>
       <r>   47.0968    0.0000 </r>
       <r>   49.7054    0.0000 </r>
       <r>   49.7059    0.0000 </r>
       <r>   51.1729    0.0000 </r>
       <r>   51.1736    0.0000 </r>
       <r>   51.4344    0.0000 </r>
       <r>   51.4355    0.0000 </r>
       <r>   51.9589    0.0000 </r>
       <r>   51.9593    0.0000 </r>
       <r>   52.0122    0.0000 </r>
       <r>   52.0126    0.0000 </r>
       <r>   52.2779    0.0000 </r>
       <r>   52.2784    0.0000 </r>
       <r>   52.5976    0.0000 </r>
       <r>   52.5982    0.0000 </r>
      </set>
      <set comment="kpoint 6">
       <r>  -30.4496    1.0000 </r>
       <r>  -30.4495    1.0000 </r>
       <r>  -30.4476    1.0000 </r>
       <r>  -30.4474    1.0000 </r>
       <r>  -23.7898    1.0000 </r>
       <r>  -23.7887    1.0000 </r>
       <r>  -23.7884    1.0000 </r>
       <r>  -23.7882    1.0000 </r>
       <r>  -23.7873    1.0000 </r>
       <r>  -23.7865    1.0000 </r>
       <r>  -20.1818    1.0000 </r>
       <r>  -20.1811    1.0000 </r>
       <r>   -7.0066    1.0000 </r>
       <r>   -7.0056    1.0000 </r>
       <r>    2.1913    1.0000 </r>
       <r>    2.1944    1.0000 </r>
       <r>    3.8022    1.0000 </r>
       <r>    3.8067    1.0000 </r>
       <r>    5.5283    0.0000 </r>
       <r>    5.5298    0.0000 </r>
       <r>    9.8152    0.0000 </r>
       <r>    9.8164    0.0000 </r>
       <r>   11.0518    0.0000 </r>
       <r>   11.0524    0.0000 </r>
       <r>   11.3750    0.0000 </r>
       <r>   11.3752    0.0000 </r>
       <r>   12.1621    0.0000 </r>
       <r>   12.1627    0.0000 </r>
       <r>   12.5034    0.0000 </r>
       <r>   12.5051    0.0000 </r>
       <r>   12.6747    0.0000 </r>
       <r>   12.6768    0.0000 </r>
       <r>   13.7744    0.0000 </r>
       <r>   13.7762    0.0000 </r>
       <r>   15.8867    0.0000 </r>
       <r>   15.8880    0.0000 </r>
       <r>   16.0378    0.0000 </r>
       <r>   16.0406    0.0000 </r>
       <r>   18.0378    0.0000 </r>
       <r>   18.0380    0.0000 </r>
       <r>   19.9161    0.0000 </r>
       <r>   19.9179    0.0000 </r>
       <r>   20.0497    0.0000 </r>
       <r>   20.0518    0.0000 </r>
       <r>   20.4849    0.0000 </r>
       <r>   20.4853    0.0000 </r>
       <r>   21.8005    0.0000 </r>
       <r>   21.8008    0.0000 </r>
       <r>   25.0344    0.0000 </r>
       <r>   25.0355    0.0000 </r>
       <r>   25.6602    0.0000 </r>
       <r>   25.6624    0.0000 </r>
       <r>   25.9675    0.0000 </r>
       <r>   25.9692    0.0000 </r>
       <r>   27.1715    0.0000 </r>
       <r>   27.1729    0.0000 </r>
       <r>   27.8413    0.0000 </r>
       <r>   27.8416    0.0000 </r>
       <r>   28.7068    0.0000 </r>
       <r>   28.7076    0.0000 </r>
       <r>   30.1964    0.0000 </r>
       <r>   30.1988    0.0000 </r>
       <r>   30.2824    0.0000 </r>
       <r>   30.2835    0.0000 </r>
       <r>   30.9063    0.0000 </r>
       <r>   30.9073    0.0000 </r>
       <r>   31.0000    0.0000 </r>
       <r>   31.0003    0.0000 </r>
       <r>   32.9249    0.0000 </r>
       <r>   32.9268    0.0000 </r>
       <r>   35.3266    0.0000 </r>
       <r>   35.3272    0.0000 </r>
       <r>   35.4690    0.0000 </r>
       <r>   35.4703    0.0000 </r>
       <r>   36.5292    0.0000 </r>
       <r>   36.5305    0.0000 </r>
       <r>   36.5427    0.0000 </r>
       <r>   36.5428    0.0000 </r>
       <r>   36.9433    0.0000 </r>
       <r>   36.9442    0.0000 </r>
       <r>   38.3467    0.0000 </r>
       <r>   38.3474    0.0000 </r>
       <r>   39.1446    0.0000 </r>
       <r>   39.1475    0.0000 </r>
       <r>   39.3422    0.0000 </r>
       <r>   39.3429    0.0000 </r>
       <r>   39.5324    0.0000 </r>
       <r>   39.5327    0.0000 </r>
       <r>   39.5463    0.0000 </r>
       <r>   39.5469    0.0000 </r>
       <r>   40.4281    0.0000 </r>
       <r>   40.4283    0.0000 </r>
       <r>   40.5747    0.0000 </r>
       <r>   40.5757    0.0000 </r>
       <r>   41.3887    0.0000 </r>
       <r>   41.3899    0.0000 </r>
       <r>   41.5898    0.0000 </r>
       <r>   41.5907    0.0000 </r>
       <r>   42.7230    0.0000 </r>
       <r>   42.7235    0.0000 </r>
       <r>   43.2137    0.0000 </r>
       <r>   43.2139    0.0000 </r>
       <r>   43.3237    0.0000 </r>
       <r>   43.3241    0.0000 </r>
       <r>   44.1543    0.0000 </r>
       <r>   44.1549    0.0000 </r>
       <r>   44.6758    0.0000 </r>
       <r>   44.6760    0.0000 </r>
       <r>   44.7704    0.0000 </r>
       <r>   44.7720    0.0000 </r>
       <r>   44.9083    0.0000 </r>
       <r>   44.9093    0.0000 </r>
       <r>   46.5572    0.0000 </r>
       <r>   46.5585    0.0000 </r>
       <r>   47.1332    0.0000 </r>
       <r>   47.1337    0.0000 </r>
       <r>   47.5521    0.0000 </r>
       <r>   47.5530    0.0000 </r>
       <r>   48.4446    0.0000 </r>
       <r>   48.4454    0.0000 </r>
       <r>   49.3535    0.0000 </r>
       <r>   49.3539    0.0000 </r>
       <r>   49.3860    0.0000 </r>
       <r>   49.3872    0.0000 </r>
       <r>   50.4110    0.0000 </r>
       <r>   50.4122    0.0000 </r>
       <r>   51.5871    0.0000 </r>
       <r>   51.5872    0.0000 </r>
      </set>
      <set comment="kpoint 7">
       <r>  -30.4496    1.0000 </r>
       <r>  -30.4495    1.0000 </r>
       <r>  -30.4475    1.0000 </r>
       <r>  -30.4475    1.0000 </r>
       <r>  -23.7895    1.0000 </r>
       <r>  -23.7892    1.0000 </r>
       <r>  -23.7885    1.0000 </r>
       <r>  -23.7878    1.0000 </r>
       <r>  -23.7873    1.0000 </r>
       <r>  -23.7865    1.0000 </r>
       <r>  -20.1818    1.0000 </r>
       <r>  -20.1811    1.0000 </r>
       <r>   -7.0066    1.0000 </r>
       <r>   -7.0056    1.0000 </r>
       <r>    2.1924    1.0000 </r>
       <r>    2.1932    1.0000 </r>
       <r>    3.8037    1.0000 </r>
       <r>    3.8052    1.0000 </r>
       <r>    5.5288    0.0000 </r>
       <r>    5.5293    0.0000 </r>
       <r>    9.8156    0.0000 </r>
       <r>    9.8159    0.0000 </r>
       <r>   11.0521    0.0000 </r>
       <r>   11.0521    0.0000 </r>
       <r>   11.3749    0.0000 </r>
       <r>   11.3753    0.0000 </r>
       <r>   12.1618    0.0000 </r>
       <r>   12.1629    0.0000 </r>
       <r>   12.5034    0.0000 </r>
       <r>   12.5051    0.0000 </r>
       <r>   12.6755    0.0000 </r>
       <r>   12.6760    0.0000 </r>
       <r>   13.7751    0.0000 </r>
       <r>   13.7755    0.0000 </r>
       <r>   15.8862    0.0000 </r>
       <r>   15.8886    0.0000 </r>
       <r>   16.0388    0.0000 </r>
       <r>   16.0396    0.0000 </r>
       <r>   18.0376    0.0000 </r>
       <r>   18.0382    0.0000 </r>
       <r>   19.9166    0.0000 </r>
       <r>   19.9175    0.0000 </r>
       <r>   20.0505    0.0000 </r>
       <r>   20.0511    0.0000 </r>
       <r>   20.4843    0.0000 </r>
       <r>   20.4859    0.0000 </r>
       <r>   21.8004    0.0000 </r>
       <r>   21.8009    0.0000 </r>
       <r>   25.0347    0.0000 </r>
       <r>   25.0353    0.0000 </r>
       <r>   25.6611    0.0000 </r>
       <r>   25.6616    0.0000 </r>
       <r>   25.9681    0.0000 </r>
       <r>   25.9686    0.0000 </r>
       <r>   27.1715    0.0000 </r>
       <r>   27.1729    0.0000 </r>
       <r>   27.8414    0.0000 </r>
       <r>   27.8415    0.0000 </r>
       <r>   28.7070    0.0000 </r>
       <r>   28.7074    0.0000 </r>
       <r>   30.1972    0.0000 </r>
       <r>   30.1979    0.0000 </r>
       <r>   30.2823    0.0000 </r>
       <r>   30.2837    0.0000 </r>
       <r>   30.9067    0.0000 </r>
       <r>   30.9070    0.0000 </r>
       <r>   30.9996    0.0000 </r>
       <r>   31.0006    0.0000 </r>
       <r>   32.9255    0.0000 </r>
       <r>   32.9262    0.0000 </r>
       <r>   35.3262    0.0000 </r>
       <r>   35.3276    0.0000 </r>
       <r>   35.4693    0.0000 </r>
       <r>   35.4700    0.0000 </r>
       <r>   36.5296    0.0000 </r>
       <r>   36.5300    0.0000 </r>
       <r>   36.5426    0.0000 </r>
       <r>   36.5429    0.0000 </r>
       <r>   36.9436    0.0000 </r>
       <r>   36.9439    0.0000 </r>
       <r>   38.3468    0.0000 </r>
       <r>   38.3473    0.0000 </r>
       <r>   39.1457    0.0000 </r>
       <r>   39.1464    0.0000 </r>
       <r>   39.3419    0.0000 </r>
       <r>   39.3432    0.0000 </r>
       <r>   39.5323    0.0000 </r>
       <r>   39.5327    0.0000 </r>
       <r>   39.5465    0.0000 </r>
       <r>   39.5467    0.0000 </r>
       <r>   40.4279    0.0000 </r>
       <r>   40.4285    0.0000 </r>
       <r>   40.5751    0.0000 </r>
       <r>   40.5753    0.0000 </r>
       <r>   41.3891    0.0000 </r>
       <r>   41.3895    0.0000 </r>
       <r>   41.5898    0.0000 </r>
       <r>   41.5907    0.0000 </r>
       <r>   42.7231    0.0000 </r>
       <r>   42.7234    0.0000 </r>
       <r>   43.2133    0.0000 </r>
       <r>   43.2143    0.0000 </r>
       <r>   43.3234    0.0000 </r>
       <r>   43.3244    0.0000 </r>
       <r>   44.1542    0.0000 </r>
       <r>   44.1550    0.0000 </r>
       <r>   44.6754    0.0000 </r>
       <r>   44.6763    0.0000 </r>
       <r>   44.7710    0.0000 </r>
       <r>   44.7714    0.0000 </r>
       <r>   44.9083    0.0000 </r>
       <r>   44.9094    0.0000 </r>
       <r>   46.5577    0.0000 </r>
       <r>   46.5580    0.0000 </r>
       <r>   47.1332    0.0000 </r>
       <r>   47.1336    0.0000 </r>
       <r>   47.5524    0.0000 </r>
       <r>   47.5527    0.0000 </r>
       <r>   48.4448    0.0000 </r>
       <r>   48.4452    0.0000 </r>
       <r>   49.3534    0.0000 </r>
       <r>   49.3540    0.0000 </r>
       <r>   49.3864    0.0000 </r>
       <r>   49.3868    0.0000 </r>
       <r>   50.4114    0.0000 </r>
       <r>   50.4118    0.0000 </r>
       <r>   51.5867    0.0000 </r>
       <r>   51.5876    0.0000 </r>
      </set>
      <set comment="kpoint 8">
       <r>  -30.4609    1.0000 </r>
       <r>  -30.4607    1.0000 </r>
       <r>  -30.4558    1.0000 </r>
       <r>  -30.4556    1.0000 </r>
       <r>  -23.7977    1.0000 </r>
       <r>  -23.7970    1.0000 </r>
       <r>  -23.7942    1.0000 </r>
       <r>  -23.7934    1.0000 </r>
       <r>  -23.7922    1.0000 </r>
       <r>  -23.7916    1.0000 </r>
       <r>  -20.1728    1.0000 </r>
       <r>  -20.1720    1.0000 </r>
       <r>   -7.0345    1.0000 </r>
       <r>   -7.0335    1.0000 </r>
       <r>    2.0783    1.0000 </r>
       <r>    2.0813    1.0000 </r>
       <r>    3.4437    1.0000 </r>
       <r>    3.4482    1.0000 </r>
       <r>    6.0612    0.0000 </r>
       <r>    6.0625    0.0000 </r>
       <r>    9.2155    0.0000 </r>
       <r>    9.2165    0.0000 </r>
       <r>   10.6038    0.0000 </r>
       <r>   10.6050    0.0000 </r>
       <r>   11.3892    0.0000 </r>
       <r>   11.3905    0.0000 </r>
       <r>   12.0890    0.0000 </r>
       <r>   12.0903    0.0000 </r>
       <r>   13.5865    0.0000 </r>
       <r>   13.5875    0.0000 </r>
       <r>   14.1447    0.0000 </r>
       <r>   14.1470    0.0000 </r>
       <r>   14.2254    0.0000 </r>
       <r>   14.2268    0.0000 </r>
       <r>   14.5608    0.0000 </r>
       <r>   14.5628    0.0000 </r>
       <r>   15.7227    0.0000 </r>
       <r>   15.7247    0.0000 </r>
       <r>   18.9215    0.0000 </r>
       <r>   18.9222    0.0000 </r>
       <r>   19.7610    0.0000 </r>
       <r>   19.7625    0.0000 </r>
       <r>   20.2095    0.0000 </r>
       <r>   20.2104    0.0000 </r>
       <r>   20.3389    0.0000 </r>
       <r>   20.3394    0.0000 </r>
       <r>   21.4890    0.0000 </r>
       <r>   21.4900    0.0000 </r>
       <r>   24.8081    0.0000 </r>
       <r>   24.8100    0.0000 </r>
       <r>   25.7562    0.0000 </r>
       <r>   25.7569    0.0000 </r>
       <r>   25.8087    0.0000 </r>
       <r>   25.8109    0.0000 </r>
       <r>   26.5630    0.0000 </r>
       <r>   26.5644    0.0000 </r>
       <r>   27.1486    0.0000 </r>
       <r>   27.1491    0.0000 </r>
       <r>   27.9941    0.0000 </r>
       <r>   27.9952    0.0000 </r>
       <r>   29.8890    0.0000 </r>
       <r>   29.8903    0.0000 </r>
       <r>   30.5369    0.0000 </r>
       <r>   30.5379    0.0000 </r>
       <r>   31.3623    0.0000 </r>
       <r>   31.3630    0.0000 </r>
       <r>   31.4229    0.0000 </r>
       <r>   31.4235    0.0000 </r>
       <r>   34.5073    0.0000 </r>
       <r>   34.5079    0.0000 </r>
       <r>   35.0253    0.0000 </r>
       <r>   35.0256    0.0000 </r>
       <r>   35.4690    0.0000 </r>
       <r>   35.4705    0.0000 </r>
       <r>   35.4976    0.0000 </r>
       <r>   35.4996    0.0000 </r>
       <r>   36.3364    0.0000 </r>
       <r>   36.3370    0.0000 </r>
       <r>   36.8982    0.0000 </r>
       <r>   36.8995    0.0000 </r>
       <r>   37.8316    0.0000 </r>
       <r>   37.8346    0.0000 </r>
       <r>   38.0360    0.0000 </r>
       <r>   38.0373    0.0000 </r>
       <r>   39.1500    0.0000 </r>
       <r>   39.1506    0.0000 </r>
       <r>   39.3513    0.0000 </r>
       <r>   39.3523    0.0000 </r>
       <r>   40.5379    0.0000 </r>
       <r>   40.5391    0.0000 </r>
       <r>   41.0386    0.0000 </r>
       <r>   41.0395    0.0000 </r>
       <r>   41.1009    0.0000 </r>
       <r>   41.1020    0.0000 </r>
       <r>   41.7987    0.0000 </r>
       <r>   41.7994    0.0000 </r>
       <r>   42.0148    0.0000 </r>
       <r>   42.0158    0.0000 </r>
       <r>   42.1157    0.0000 </r>
       <r>   42.1164    0.0000 </r>
       <r>   42.3842    0.0000 </r>
       <r>   42.3846    0.0000 </r>
       <r>   43.0845    0.0000 </r>
       <r>   43.0852    0.0000 </r>
       <r>   44.1877    0.0000 </r>
       <r>   44.1885    0.0000 </r>
       <r>   44.2106    0.0000 </r>
       <r>   44.2114    0.0000 </r>
       <r>   44.6194    0.0000 </r>
       <r>   44.6199    0.0000 </r>
       <r>   44.8213    0.0000 </r>
       <r>   44.8226    0.0000 </r>
       <r>   45.4479    0.0000 </r>
       <r>   45.4486    0.0000 </r>
       <r>   47.4192    0.0000 </r>
       <r>   47.4209    0.0000 </r>
       <r>   48.1721    0.0000 </r>
       <r>   48.1727    0.0000 </r>
       <r>   48.5435    0.0000 </r>
       <r>   48.5450    0.0000 </r>
       <r>   50.1485    0.0000 </r>
       <r>   50.1493    0.0000 </r>
       <r>   51.4003    0.0000 </r>
       <r>   51.4012    0.0000 </r>
       <r>   51.4028    0.0000 </r>
       <r>   51.4040    0.0000 </r>
       <r>   51.4681    0.0000 </r>
       <r>   51.4696    0.0000 </r>
      </set>
      <set comment="kpoint 9">
       <r>  -30.4564    1.0000 </r>
       <r>  -30.4562    1.0000 </r>
       <r>  -30.4543    1.0000 </r>
       <r>  -30.4541    1.0000 </r>
       <r>  -23.7946    1.0000 </r>
       <r>  -23.7943    1.0000 </r>
       <r>  -23.7911    1.0000 </r>
       <r>  -23.7904    1.0000 </r>
       <r>  -23.7880    1.0000 </r>
       <r>  -23.7873    1.0000 </r>
       <r>  -20.1268    1.0000 </r>
       <r>  -20.1260    1.0000 </r>
       <r>   -7.1812    1.0000 </r>
       <r>   -7.1802    1.0000 </r>
       <r>    1.2718    1.0000 </r>
       <r>    1.2749    1.0000 </r>
       <r>    3.0210    1.0000 </r>
       <r>    3.0249    1.0000 </r>
       <r>    6.9344    0.0000 </r>
       <r>    6.9350    0.0000 </r>
       <r>    9.1321    0.0000 </r>
       <r>    9.1336    0.0000 </r>
       <r>    9.6537    0.0000 </r>
       <r>    9.6549    0.0000 </r>
       <r>   11.6537    0.0000 </r>
       <r>   11.6544    0.0000 </r>
       <r>   12.9287    0.0000 </r>
       <r>   12.9299    0.0000 </r>
       <r>   13.5722    0.0000 </r>
       <r>   13.5726    0.0000 </r>
       <r>   14.3541    0.0000 </r>
       <r>   14.3554    0.0000 </r>
       <r>   16.0340    0.0000 </r>
       <r>   16.0358    0.0000 </r>
       <r>   16.4815    0.0000 </r>
       <r>   16.4831    0.0000 </r>
       <r>   17.6291    0.0000 </r>
       <r>   17.6306    0.0000 </r>
       <r>   18.2904    0.0000 </r>
       <r>   18.2916    0.0000 </r>
       <r>   18.7388    0.0000 </r>
       <r>   18.7395    0.0000 </r>
       <r>   20.3160    0.0000 </r>
       <r>   20.3163    0.0000 </r>
       <r>   20.7527    0.0000 </r>
       <r>   20.7538    0.0000 </r>
       <r>   21.0272    0.0000 </r>
[...]
       <r>    31.1640     0.0000     0.0000 </r>
       <r>    31.4732     0.0000     0.0000 </r>
       <r>    31.7824     0.0000     0.0000 </r>
       <r>    32.0915     0.0000     0.0000 </r>
       <r>    32.4007     0.0000     0.0000 </r>
       <r>    32.7099     0.0000     0.0000 </r>
       <r>    33.0191     0.0000     0.0000 </r>
       <r>    33.3283     0.0000     0.0000 </r>
       <r>    33.6375     0.0000     0.0000 </r>
       <r>    33.9467     0.0000     0.0000 </r>
       <r>    34.2559     0.0000     0.0000 </r>
       <r>    34.5651     0.0000     0.0000 </r>
       <r>    34.8742     0.0000     0.0000 </r>
       <r>    35.1834     0.0000     0.0000 </r>
       <r>    35.4926     0.0000     0.0000 </r>
       <r>    35.8018     0.0000     0.0000 </r>
       <r>    36.1110     0.0000     0.0000 </r>
       <r>    36.4202     0.0000     0.0000 </r>
       <r>    36.7294     0.0000     0.0000 </r>
       <r>    37.0386     0.0000     0.0000 </r>
       <r>    37.3478     0.0000     0.0000 </r>
       <r>    37.6569     0.0000     0.0000 </r>
       <r>    37.9661     0.0000     0.0000 </r>
       <r>    38.2753     0.0000     0.0000 </r>
       <r>    38.5845     0.0000     0.0000 </r>
       <r>    38.8937     0.0000     0.0000 </r>
       <r>    39.2029     0.0000     0.0000 </r>
       <r>    39.5121     0.0000     0.0000 </r>
       <r>    39.8213     0.0000     0.0000 </r>
       <r>    40.1305     0.0000     0.0000 </r>
       <r>    40.4397     0.0000     0.0000 </r>
       <r>    40.7488     0.0000     0.0000 </r>
       <r>    41.0580     0.0000     0.0000 </r>
       <r>    41.3672     0.0000     0.0000 </r>
       <r>    41.6764     0.0000     0.0000 </r>
       <r>    41.9856     0.0000     0.0000 </r>
       <r>    42.2948     0.0000     0.0000 </r>
       <r>    42.6040     0.0000     0.0000 </r>
       <r>    42.9132     0.0000     0.0000 </r>
       <r>    43.2224     0.0000     0.0000 </r>
       <r>    43.5315     0.0000     0.0000 </r>
       <r>    43.8407     0.0000     0.0000 </r>
       <r>    44.1499     0.0000     0.0000 </r>
       <r>    44.4591     0.0000     0.0000 </r>
       <r>    44.7683     0.0000     0.0000 </r>
       <r>    45.0775     0.0000     0.0000 </r>
       <r>    45.3867     0.0000     0.0000 </r>
       <r>    45.6959     0.0000     0.0000 </r>
       <r>    46.0051     0.0000     0.0000 </r>
       <r>    46.3142     0.0000     0.0000 </r>
       <r>    46.6234     0.0000     0.0000 </r>
       <r>    46.9326     0.0000     0.0000 </r>
       <r>    47.2418     0.0000     0.0000 </r>
       <r>    47.5510     0.0000     0.0000 </r>
       <r>    47.8602     0.0000     0.0000 </r>
       <r>    48.1694     0.0000     0.0000 </r>
       <r>    48.4786     0.0000     0.0000 </r>
       <r>    48.7878     0.0000     0.0000 </r>
       <r>    49.0969     0.0000     0.0000 </r>
       <r>    49.4061     0.0000     0.0000 </r>
       <r>    49.7153     0.0000     0.0000 </r>
       <r>    50.0245     0.0000     0.0000 </r>
       <r>    50.3337     0.0000     0.0000 </r>
       <r>    50.6429     0.0000     0.0000 </r>
       <r>    50.9521     0.0000     0.0000 </r>
       <r>    51.2613     0.0000     0.0000 </r>
       <r>    51.5705     0.0000     0.0000 </r>
       <r>    51.8796     0.0000     0.0000 </r>
       <r>    52.1888     0.0000     0.0000 </r>
       <r>    52.4980     0.0000     0.0000 </r>
       <r>    52.8072     0.0000     0.0000 </r>
       <r>    53.1164     0.0000     0.0000 </r>
       <r>    53.4256     0.0000     0.0000 </r>
       <r>    53.7348     0.0000     0.0000 </r>
       <r>    54.0440     0.0000     0.0000 </r>
       <r>    54.3532     0.0000     0.0000 </r>
       <r>    54.6623     0.0000     0.0000 </r>
       <r>    54.9715     0.0000     0.0000 </r>
       <r>    55.2807     0.0000     0.0000 </r>
       <r>    55.5899     0.0000     0.0000 </r>
       <r>    55.8991     0.0000     0.0000 </r>
       <r>    56.2083     0.0000     0.0000 </r>
       <r>    56.5175     0.0000     0.0000 </r>
       <r>    56.8267     0.0000     0.0000 </r>
       <r>    57.1359     0.0000     0.0000 </r>
       <r>    57.4450     0.0000     0.0000 </r>
       <r>    57.7542     0.0000     0.0000 </r>
       <r>    58.0634     0.0000     0.0000 </r>
      </set>
      <set comment="spin 4">
       <r>   -34.6933     0.0000     0.0000 </r>
       <r>   -34.3841     0.0000     0.0000 </r>
       <r>   -34.0749     0.0000     0.0000 </r>
       <r>   -33.7657     0.0000     0.0000 </r>
       <r>   -33.4565     0.0000     0.0000 </r>
       <r>   -33.1473     0.0000     0.0000 </r>
       <r>   -32.8381     0.0000     0.0000 </r>
       <r>   -32.5290     0.0000     0.0000 </r>
       <r>   -32.2198     0.0000     0.0000 </r>
       <r>   -31.9106     0.0000     0.0000 </r>
       <r>   -31.6014     0.0000     0.0000 </r>
       <r>   -31.2922     0.0000     0.0000 </r>
       <r>   -30.9830     0.0000     0.0000 </r>
       <r>   -30.6738     0.0000     0.0000 </r>
       <r>   -30.3646     0.0000     0.0000 </r>
       <r>   -30.0554     0.0000     0.0000 </r>
       <r>   -29.7463     0.0000     0.0000 </r>
       <r>   -29.4371     0.0000     0.0000 </r>
       <r>   -29.1279     0.0000     0.0000 </r>
       <r>   -28.8187     0.0000     0.0000 </r>
       <r>   -28.5095     0.0000     0.0000 </r>
       <r>   -28.2003     0.0000     0.0000 </r>
       <r>   -27.8911     0.0000     0.0000 </r>
       <r>   -27.5819     0.0000     0.0000 </r>
       <r>   -27.2727     0.0000     0.0000 </r>
       <r>   -26.9636     0.0000     0.0000 </r>
       <r>   -26.6544     0.0000     0.0000 </r>
       <r>   -26.3452     0.0000     0.0000 </r>
       <r>   -26.0360     0.0000     0.0000 </r>
       <r>   -25.7268     0.0000     0.0000 </r>
       <r>   -25.4176     0.0000     0.0000 </r>
       <r>   -25.1084     0.0000     0.0000 </r>
       <r>   -24.7992     0.0000     0.0000 </r>
       <r>   -24.4900     0.0000     0.0000 </r>
       <r>   -24.1809     0.0000     0.0000 </r>
       <r>   -23.8717     0.0000     0.0000 </r>
       <r>   -23.5625     0.0000     0.0000 </r>
       <r>   -23.2533     0.0000     0.0000 </r>
       <r>   -22.9441     0.0000     0.0000 </r>
       <r>   -22.6349     0.0000     0.0000 </r>
       <r>   -22.3257     0.0000     0.0000 </r>
       <r>   -22.0165     0.0000     0.0000 </r>
       <r>   -21.7073     0.0000     0.0000 </r>
       <r>   -21.3982     0.0000     0.0000 </r>
       <r>   -21.0890     0.0000     0.0000 </r>
       <r>   -20.7798     0.0000     0.0000 </r>
       <r>   -20.4706     0.0000     0.0000 </r>
       <r>   -20.1614     0.0000     0.0000 </r>
       <r>   -19.8522     0.0000     0.0000 </r>
       <r>   -19.5430     0.0000     0.0000 </r>
       <r>   -19.2338     0.0000     0.0000 </r>
       <r>   -18.9246     0.0000     0.0000 </r>
       <r>   -18.6155     0.0000     0.0000 </r>
       <r>   -18.3063     0.0000     0.0000 </r>
       <r>   -17.9971     0.0000     0.0000 </r>
       <r>   -17.6879     0.0000     0.0000 </r>
       <r>   -17.3787     0.0000     0.0000 </r>
       <r>   -17.0695     0.0000     0.0000 </r>
       <r>   -16.7603     0.0000     0.0000 </r>
       <r>   -16.4511     0.0000     0.0000 </r>
       <r>   -16.1419     0.0000     0.0000 </r>
       <r>   -15.8327     0.0000     0.0000 </r>
       <r>   -15.5236     0.0000     0.0000 </r>
       <r>   -15.2144     0.0000     0.0000 </r>
       <r>   -14.9052     0.0000     0.0000 </r>
       <r>   -14.5960     0.0000     0.0000 </r>
       <r>   -14.2868     0.0000     0.0000 </r>
       <r>   -13.9776     0.0000     0.0000 </r>
       <r>   -13.6684     0.0000     0.0000 </r>
       <r>   -13.3592     0.0000     0.0000 </r>
       <r>   -13.0500     0.0000     0.0000 </r>
       <r>   -12.7409     0.0000     0.0000 </r>
       <r>   -12.4317     0.0000     0.0000 </r>
       <r>   -12.1225     0.0000     0.0000 </r>
       <r>   -11.8133     0.0000     0.0000 </r>
       <r>   -11.5041     0.0000     0.0000 </r>
       <r>   -11.1949     0.0000     0.0000 </r>
       <r>   -10.8857     0.0000     0.0000 </r>
       <r>   -10.5765     0.0000     0.0000 </r>
       <r>   -10.2673     0.0000     0.0000 </r>
       <r>    -9.9582     0.0000     0.0000 </r>
       <r>    -9.6490     0.0000     0.0000 </r>
       <r>    -9.3398     0.0000     0.0000 </r>
       <r>    -9.0306     0.0000     0.0000 </r>
       <r>    -8.7214     0.0000     0.0000 </r>
       <r>    -8.4122     0.0000     0.0000 </r>
       <r>    -8.1030     0.0000     0.0000 </r>
       <r>    -7.7938     0.0000     0.0000 </r>
       <r>    -7.4846     0.0000     0.0000 </r>
       <r>    -7.1755     0.0000     0.0000 </r>
       <r>    -6.8663     0.0000     0.0000 </r>
       <r>    -6.5571     0.0000     0.0000 </r>
       <r>    -6.2479     0.0000     0.0000 </r>
       <r>    -5.9387     0.0000     0.0000 </r>
       <r>    -5.6295     0.0000     0.0000 </r>
       <r>    -5.3203     0.0000     0.0000 </r>
       <r>    -5.0111     0.0000     0.0000 </r>
       <r>    -4.7019     0.0000     0.0000 </r>
       <r>    -4.3928     0.0000     0.0000 </r>
       <r>    -4.0836     0.0000     0.0000 </r>
       <r>    -3.7744     0.0000     0.0000 </r>
       <r>    -3.4652     0.0000     0.0000 </r>
       <r>    -3.1560     0.0000     0.0000 </r>
       <r>    -2.8468     0.0000     0.0000 </r>
       <r>    -2.5376     0.0000     0.0000 </r>
       <r>    -2.2284     0.0000     0.0000 </r>
       <r>    -1.9192     0.0000     0.0000 </r>
       <r>    -1.6101     0.0000     0.0000 </r>
       <r>    -1.3009     0.0000     0.0000 </r>
       <r>    -0.9917     0.0000     0.0000 </r>
       <r>    -0.6825     0.0000     0.0000 </r>
       <r>    -0.3733     0.0000     0.0000 </r>
       <r>    -0.0641     0.0000     0.0000 </r>
       <r>     0.2451     0.0000     0.0000 </r>
       <r>     0.5543     0.0000     0.0000 </r>
       <r>     0.8635     0.0000     0.0000 </r>
       <r>     1.1726     0.0000     0.0000 </r>
       <r>     1.4818     0.0000     0.0000 </r>
       <r>     1.7910     0.0000     0.0000 </r>
       <r>     2.1002     0.0000     0.0000 </r>
       <r>     2.4094     0.0000     0.0000 </r>
       <r>     2.7186     0.0000     0.0000 </r>
       <r>     3.0278     0.0000     0.0000 </r>
       <r>     3.3370     0.0000     0.0000 </r>
       <r>     3.6462     0.0000     0.0000 </r>
       <r>     3.9553     0.0000     0.0000 </r>
       <r>     4.2645     0.0000     0.0000 </r>
       <r>     4.5737     0.0000     0.0000 </r>
       <r>     4.8829     0.0000     0.0000 </r>
       <r>     5.1921     0.0000     0.0000 </r>
       <r>     5.5013     0.0000     0.0000 </r>
       <r>     5.8105     0.0000     0.0000 </r>
       <r>     6.1197     0.0000     0.0000 </r>
       <r>     6.4289     0.0000     0.0000 </r>
       <r>     6.7380     0.0000     0.0000 </r>
       <r>     7.0472     0.0000     0.0000 </r>
       <r>     7.3564     0.0000     0.0000 </r>
       <r>     7.6656     0.0000     0.0000 </r>
       <r>     7.9748     0.0000     0.0000 </r>
       <r>     8.2840     0.0000     0.0000 </r>
       <r>     8.5932     0.0000     0.0000 </r>
       <r>     8.9024     0.0000     0.0000 </r>
       <r>     9.2116     0.0000     0.0000 </r>
       <r>     9.5207     0.0000     0.0000 </r>
       <r>     9.8299     0.0000     0.0000 </r>
       <r>    10.1391     0.0000     0.0000 </r>
       <r>    10.4483     0.0000     0.0000 </r>
       <r>    10.7575     0.0000     0.0000 </r>
       <r>    11.0667     0.0000     0.0000 </r>
       <r>    11.3759     0.0000     0.0000 </r>
       <r>    11.6851     0.0000     0.0000 </r>
       <r>    11.9943     0.0000     0.0000 </r>
       <r>    12.3035     0.0000     0.0000 </r>
       <r>    12.6126     0.0000     0.0000 </r>
       <r>    12.9218     0.0000     0.0000 </r>
       <r>    13.2310     0.0000     0.0000 </r>
       <r>    13.5402     0.0000     0.0000 </r>
       <r>    13.8494     0.0000     0.0000 </r>
       <r>    14.1586     0.0000     0.0000 </r>
       <r>    14.4678     0.0000     0.0000 </r>
       <r>    14.7770     0.0000     0.0000 </r>
       <r>    15.0862     0.0000     0.0000 </r>
       <r>    15.3953     0.0000     0.0000 </r>
       <r>    15.7045     0.0000     0.0000 </r>
       <r>    16.0137     0.0000     0.0000 </r>
       <r>    16.3229     0.0000     0.0000 </r>
       <r>    16.6321     0.0000     0.0000 </r>
       <r>    16.9413     0.0000     0.0000 </r>
       <r>    17.2505     0.0000     0.0000 </r>
       <r>    17.5597     0.0000     0.0000 </r>
       <r>    17.8689     0.0000     0.0000 </r>
       <r>    18.1780     0.0000     0.0000 </r>
       <r>    18.4872     0.0000     0.0000 </r>
       <r>    18.7964     0.0000     0.0000 </r>
       <r>    19.1056     0.0000     0.0000 </r>
       <r>    19.4148     0.0000     0.0000 </r>
       <r>    19.7240     0.0000     0.0000 </r>
       <r>    20.0332     0.0000     0.0000 </r>
       <r>    20.3424     0.0000     0.0000 </r>
       <r>    20.6516     0.0000     0.0000 </r>
       <r>    20.9607     0.0000     0.0000 </r>
       <r>    21.2699     0.0000     0.0000 </r>
       <r>    21.5791     0.0000     0.0000 </r>
       <r>    21.8883     0.0000     0.0000 </r>
       <r>    22.1975     0.0000     0.0000 </r>
       <r>    22.5067     0.0000     0.0000 </r>
       <r>    22.8159     0.0000     0.0000 </r>
       <r>    23.1251     0.0000     0.0000 </r>
       <r>    23.4343     0.0000     0.0000 </r>
       <r>    23.7434     0.0000     0.0000 </r>
       <r>    24.0526     0.0000     0.0000 </r>
       <r>    24.3618     0.0000     0.0000 </r>
       <r>    24.6710     0.0000     0.0000 </r>
       <r>    24.9802     0.0000     0.0000 </r>
       <r>    25.2894     0.0000     0.0000 </r>
       <r>    25.5986     0.0000     0.0000 </r>
       <r>    25.9078     0.0000     0.0000 </r>
       <r>    26.2170     0.0000     0.0000 </r>
       <r>    26.5261     0.0000     0.0000 </r>
       <r>    26.8353     0.0000     0.0000 </r>
       <r>    27.1445     0.0000     0.0000 </r>
       <r>    27.4537     0.0000     0.0000 </r>
       <r>    27.7629     0.0000     0.0000 </r>
       <r>    28.0721     0.0000     0.0000 </r>
       <r>    28.3813     0.0000     0.0000 </r>
       <r>    28.6905     0.0000     0.0000 </r>
       <r>    28.9997     0.0000     0.0000 </r>
       <r>    29.3088     0.0000     0.0000 </r>
       <r>    29.6180     0.0000     0.0000 </r>
       <r>    29.9272     0.0000     0.0000 </r>
       <r>    30.2364     0.0000     0.0000 </r>
       <r>    30.5456     0.0000     0.0000 </r>
       <r>    30.8548     0.0000     0.0000 </r>
       <r>    31.1640     0.0000     0.0000 </r>
       <r>    31.4732     0.0000     0.0000 </r>
       <r>    31.7824     0.0000     0.0000 </r>
       <r>    32.0915     0.0000     0.0000 </r>
       <r>    32.4007     0.0000     0.0000 </r>
       <r>    32.7099     0.0000     0.0000 </r>
       <r>    33.0191     0.0000     0.0000 </r>
       <r>    33.3283     0.0000     0.0000 </r>
       <r>    33.6375     0.0000     0.0000 </r>
       <r>    33.9467     0.0000     0.0000 </r>
       <r>    34.2559     0.0000     0.0000 </r>
       <r>    34.5651     0.0000     0.0000 </r>
       <r>    34.8742     0.0000     0.0000 </r>
       <r>    35.1834     0.0000     0.0000 </r>
       <r>    35.4926     0.0000     0.0000 </r>
       <r>    35.8018     0.0000     0.0000 </r>
       <r>    36.1110     0.0000     0.0000 </r>
       <r>    36.4202     0.0000     0.0000 </r>
       <r>    36.7294     0.0000     0.0000 </r>
       <r>    37.0386     0.0000     0.0000 </r>
       <r>    37.3478     0.0000     0.0000 </r>
       <r>    37.6569     0.0000     0.0000 </r>
       <r>    37.9661     0.0000     0.0000 </r>
       <r>    38.2753     0.0000     0.0000 </r>
       <r>    38.5845     0.0000     0.0000 </r>
       <r>    38.8937     0.0000     0.0000 </r>
       <r>    39.2029     0.0000     0.0000 </r>
       <r>    39.5121     0.0000     0.0000 </r>
       <r>    39.8213     0.0000     0.0000 </r>
       <r>    40.1305     0.0000     0.0000 </r>
       <r>    40.4397     0.0000     0.0000 </r>
       <r>    40.7488     0.0000     0.0000 </r>
       <r>    41.0580     0.0000     0.0000 </r>
       <r>    41.3672     0.0000     0.0000 </r>
       <r>    41.6764     0.0000     0.0000 </r>
       <r>    41.9856     0.0000     0.0000 </r>
       <r>    42.2948     0.0000     0.0000 </r>
       <r>    42.6040     0.0000     0.0000 </r>
       <r>    42.9132     0.0000     0.0000 </r>
       <r>    43.2224     0.0000     0.0000 </r>
       <r>    43.5315     0.0000     0.0000 </r>
       <r>    43.8407     0.0000     0.0000 </r>
       <r>    44.1499     0.0000     0.0000 </r>
       <r>    44.4591     0.0000     0.0000 </r>
       <r>    44.7683     0.0000     0.0000 </r>
       <r>    45.0775     0.0000     0.0000 </r>
       <r>    45.3867     0.0000     0.0000 </r>
       <r>    45.6959     0.0000     0.0000 </r>
       <r>    46.0051     0.0000     0.0000 </r>
       <r>    46.3142     0.0000     0.0000 </r>
       <r>    46.6234     0.0000     0.0000 </r>
       <r>    46.9326     0.0000     0.0000 </r>
       <r>    47.2418     0.0000     0.0000 </r>
       <r>    47.5510     0.0000     0.0000 </r>
       <r>    47.8602     0.0000     0.0000 </r>
       <r>    48.1694     0.0000     0.0000 </r>
       <r>    48.4786     0.0000     0.0000 </r>
       <r>    48.7878     0.0000     0.0000 </r>
       <r>    49.0969     0.0000     0.0000 </r>
       <r>    49.4061     0.0000     0.0000 </r>
       <r>    49.7153     0.0000     0.0000 </r>
       <r>    50.0245     0.0000     0.0000 </r>
       <r>    50.3337     0.0000     0.0000 </r>
       <r>    50.6429     0.0000     0.0000 </r>
       <r>    50.9521     0.0000     0.0000 </r>
       <r>    51.2613     0.0000     0.0000 </r>
       <r>    51.5705     0.0000     0.0000 </r>
       <r>    51.8796     0.0000     0.0000 </r>
       <r>    52.1888     0.0000     0.0000 </r>
       <r>    52.4980     0.0000     0.0000 </r>
       <r>    52.8072     0.0000     0.0000 </r>
       <r>    53.1164     0.0000     0.0000 </r>
       <r>    53.4256     0.0000     0.0000 </r>
       <r>    53.7348     0.0000     0.0000 </r>
       <r>    54.0440     0.0000     0.0000 </r>
       <r>    54.3532     0.0000     0.0000 </r>
       <r>    54.6623     0.0000     0.0000 </r>
       <r>    54.9715     0.0000     0.0000 </r>
       <r>    55.2807     0.0000     0.0000 </r>
       <r>    55.5899     0.0000     0.0000 </r>
       <r>    55.8991     0.0000     0.0000 </r>
       <r>    56.2083     0.0000     0.0000 </r>
       <r>    56.5175     0.0000     0.0000 </r>
       <r>    56.8267     0.0000     0.0000 </r>
       <r>    57.1359     0.0000     0.0000 </r>
       <r>    57.4450     0.0000     0.0000 </r>
       <r>    57.7542     0.0000     0.0000 </r>
       <r>    58.0634     0.0000     0.0000 </r>
      </set>
     </set>
    </array>
   </total>
  </dos>
 </calculation>
 <structure name="finalpos" >
  <crystal>
   <varray name="basis" >
    <v>       4.34234588       0.00000000       0.00000000 </v>
    <v>       2.17117294       3.76058184      -0.00000000 </v>
    <v>       2.17117294       1.25352728       3.54551056 </v>
   </varray>
   <i name="volume">     57.89729060 </i>
   <varray name="rec_basis" >
    <v>       0.23029027      -0.13295815      -0.09401561 </v>
    <v>       0.00000000       0.26591630      -0.09401561 </v>
    <v>      -0.00000000       0.00000000       0.28204683 </v>
   </varray>
  </crystal>
  <varray name="positions" >
   <v>       0.00000000       0.00000000       0.00000000 </v>
  </varray>
  <varray name="velocities" >
   <v>       0.00000000       0.00000000       0.00000000 </v>
  </varray>
 </structure>
</modeling>
