   1   1   0   0
  0.6083477E+02  0.4414576E-09  0.4414576E-09  0.4414576E-09  0.1000000E-15
  1.000000000000000E-004
  CAR 
 Og_FCC                                  
     62.08612612   -227.40318283  301     -2.08400403      1.00000000
   -227.403  0.0000E+00  0.0000E+00
   -226.438  0.0000E+00  0.0000E+00
   -225.473  0.0000E+00  0.0000E+00
   -224.508  0.0000E+00  0.0000E+00
   -223.543  0.0000E+00  0.0000E+00
   -222.578  0.0000E+00  0.0000E+00
   -221.613  0.0000E+00  0.0000E+00
   -220.648  0.0000E+00  0.0000E+00
   -219.683  0.0000E+00  0.0000E+00
   -218.719  0.0000E+00  0.0000E+00
   -217.754  0.0000E+00  0.0000E+00
   -216.789  0.0000E+00  0.0000E+00
   -215.824  0.0000E+00  0.0000E+00
   -214.859  0.0000E+00  0.0000E+00
   -213.894  0.0000E+00  0.2000E+01
   -212.929  0.0000E+00  0.2000E+01
   -211.964  0.0000E+00  0.2000E+01
   -210.999  0.0000E+00  0.2000E+01
   -210.034  0.0000E+00  0.2000E+01
   -209.069  0.0000E+00  0.2000E+01
   -208.104  0.0000E+00  0.2000E+01
   -207.139  0.0000E+00  0.2000E+01
   -206.174  0.0000E+00  0.2000E+01
   -205.209  0.0000E+00  0.2000E+01
   -204.244  0.0000E+00  0.2000E+01
   -203.279  0.0000E+00  0.2000E+01
   -202.314  0.0000E+00  0.2000E+01
   -201.349  0.0000E+00  0.2000E+01
   -200.384  0.0000E+00  0.2000E+01
   -199.419  0.0000E+00  0.2000E+01
   -198.454  0.0000E+00  0.2000E+01
   -197.489  0.0000E+00  0.2000E+01
   -196.524  0.0000E+00  0.2000E+01
   -195.559  0.0000E+00  0.2000E+01
   -194.594  0.0000E+00  0.2000E+01
   -193.629  0.0000E+00  0.2000E+01
   -192.664  0.0000E+00  0.2000E+01
   -191.700  0.0000E+00  0.2000E+01
   -190.735  0.0000E+00  0.2000E+01
   -189.770  0.0000E+00  0.2000E+01
   -188.805  0.0000E+00  0.2000E+01
   -187.840  0.0000E+00  0.2000E+01
   -186.875  0.0000E+00  0.2000E+01
   -185.910  0.0000E+00  0.2000E+01
   -184.945  0.0000E+00  0.2000E+01
   -183.980  0.0000E+00  0.2000E+01
   -183.015  0.0000E+00  0.2000E+01
   -182.050  0.0000E+00  0.2000E+01
   -181.085  0.0000E+00  0.2000E+01
   -180.120  0.0000E+00  0.2000E+01
   -179.155  0.0000E+00  0.2000E+01
   -178.190  0.0000E+00  0.2000E+01
   -177.225  0.0000E+00  0.2000E+01
   -176.260  0.0000E+00  0.2000E+01
   -175.295  0.0000E+00  0.2000E+01
   -174.330  0.0000E+00  0.2000E+01
   -173.365  0.0000E+00  0.2000E+01
   -172.400  0.0000E+00  0.2000E+01
   -171.435  0.0000E+00  0.2000E+01
   -170.470  0.0000E+00  0.2000E+01
   -169.505  0.0000E+00  0.2000E+01
   -168.540  0.0000E+00  0.2000E+01
   -167.575  0.0000E+00  0.2000E+01
   -166.610  0.0000E+00  0.2000E+01
   -165.645  0.0000E+00  0.2000E+01
   -164.680  0.0000E+00  0.2000E+01
   -163.716  0.4432E+00  0.2428E+01
   -162.751  0.0000E+00  0.4000E+01
   -161.786  0.0000E+00  0.4000E+01
   -160.821  0.0000E+00  0.4000E+01
   -159.856  0.0000E+00  0.4000E+01
   -158.891  0.0000E+00  0.4000E+01
   -157.926  0.0000E+00  0.4000E+01
   -156.961  0.0000E+00  0.4000E+01
   -155.996  0.0000E+00  0.4000E+01
   -155.031  0.0000E+00  0.4000E+01
   -154.066  0.0000E+00  0.4000E+01
   -153.101  0.0000E+00  0.4000E+01
   -152.136  0.0000E+00  0.4000E+01
   -151.171  0.0000E+00  0.4000E+01
   -150.206  0.0000E+00  0.4000E+01
   -149.241  0.0000E+00  0.4000E+01
   -148.276  0.0000E+00  0.4000E+01
   -147.311  0.0000E+00  0.4000E+01
   -146.346  0.0000E+00  0.4000E+01
   -145.381  0.0000E+00  0.4000E+01
   -144.416  0.0000E+00  0.4000E+01
   -143.451  0.0000E+00  0.4000E+01
   -142.486  0.0000E+00  0.4000E+01
   -141.521  0.0000E+00  0.4000E+01
   -140.556  0.0000E+00  0.4000E+01
   -139.591  0.0000E+00  0.4000E+01
   -138.626  0.0000E+00  0.4000E+01
   -137.661  0.0000E+00  0.4000E+01
   -136.697  0.0000E+00  0.4000E+01
   -135.732  0.0000E+00  0.4000E+01
   -134.767  0.0000E+00  0.4000E+01
   -133.802  0.0000E+00  0.4000E+01
   -132.837  0.0000E+00  0.4000E+01
   -131.872  0.0000E+00  0.4000E+01
   -130.907  0.0000E+00  0.4000E+01
   -129.942  0.0000E+00  0.4000E+01
   -128.977  0.0000E+00  0.4000E+01
   -128.012  0.0000E+00  0.4000E+01
   -127.047  0.0000E+00  0.4000E+01
   -126.082  0.0000E+00  0.4000E+01
   -125.117  0.0000E+00  0.8000E+01
   -124.152  0.0000E+00  0.8000E+01
   -123.187  0.0000E+00  0.8000E+01
   -122.222  0.0000E+00  0.8000E+01
   -121.257  0.0000E+00  0.8000E+01
   -120.292  0.0000E+00  0.8000E+01
   -119.327  0.0000E+00  0.8000E+01
   -118.362  0.0000E+00  0.8000E+01
   -117.397  0.0000E+00  0.8000E+01
   -116.432  0.0000E+00  0.8000E+01
   -115.467  0.0000E+00  0.8000E+01
   -114.502  0.0000E+00  0.8000E+01
   -113.537  0.0000E+00  0.8000E+01
   -112.572  0.0000E+00  0.8000E+01
   -111.607  0.0000E+00  0.8000E+01
   -110.642  0.0000E+00  0.8000E+01
   -109.678  0.0000E+00  0.8000E+01
   -108.713  0.0000E+00  0.8000E+01
   -107.748  0.0000E+00  0.8000E+01
   -106.783  0.0000E+00  0.8000E+01
   -105.818  0.0000E+00  0.8000E+01
   -104.853  0.0000E+00  0.8000E+01
   -103.888  0.0000E+00  0.8000E+01
   -102.923  0.0000E+00  0.8000E+01
   -101.958  0.0000E+00  0.8000E+01
   -100.993  0.0000E+00  0.8000E+01
   -100.028  0.0000E+00  0.8000E+01
    -99.063  0.0000E+00  0.8000E+01
    -98.098  0.0000E+00  0.8000E+01
    -97.133  0.0000E+00  0.8000E+01
    -96.168  0.0000E+00  0.8000E+01
    -95.203  0.0000E+00  0.8000E+01
    -94.238  0.0000E+00  0.8000E+01
    -93.273  0.0000E+00  0.8000E+01
    -92.308  0.0000E+00  0.8000E+01
    -91.343  0.0000E+00  0.8000E+01
    -90.378  0.0000E+00  0.8000E+01
    -89.413  0.0000E+00  0.8000E+01
    -88.448  0.0000E+00  0.8000E+01
    -87.483  0.0000E+00  0.8000E+01
    -86.518  0.0000E+00  0.8000E+01
    -85.553  0.0000E+00  0.8000E+01
    -84.588  0.0000E+00  0.8000E+01
    -83.623  0.0000E+00  0.8000E+01
    -82.659  0.0000E+00  0.8000E+01
    -81.694  0.0000E+00  0.8000E+01
    -80.729  0.0000E+00  0.8000E+01
    -79.764  0.0000E+00  0.8000E+01
    -78.799  0.0000E+00  0.8000E+01
    -77.834  0.0000E+00  0.8000E+01
    -76.869  0.0000E+00  0.8000E+01
    -75.904  0.0000E+00  0.8000E+01
    -74.939  0.0000E+00  0.8000E+01
    -73.974  0.0000E+00  0.8000E+01
    -73.009  0.0000E+00  0.8000E+01
    -72.044  0.0000E+00  0.8000E+01
    -71.079  0.0000E+00  0.8000E+01
    -70.114  0.0000E+00  0.8000E+01
    -69.149  0.0000E+00  0.8000E+01
    -68.184  0.0000E+00  0.8000E+01
    -67.219  0.0000E+00  0.8000E+01
    -66.254  0.0000E+00  0.8000E+01
    -65.289  0.0000E+00  0.8000E+01
    -64.324  0.0000E+00  0.8000E+01
    -63.359  0.0000E+00  0.8000E+01
    -62.394  0.0000E+00  0.8000E+01
    -61.429  0.0000E+00  0.8000E+01
    -60.464  0.0000E+00  0.8000E+01
    -59.499  0.0000E+00  0.8000E+01
    -58.534  0.0000E+00  0.8000E+01
    -57.569  0.0000E+00  0.8000E+01
    -56.604  0.0000E+00  0.8000E+01
    -55.640  0.0000E+00  0.8000E+01
    -54.675  0.0000E+00  0.8000E+01
    -53.710  0.0000E+00  0.8000E+01
    -52.745  0.0000E+00  0.8000E+01
    -51.780  0.0000E+00  0.8000E+01
    -50.815  0.0000E+00  0.8000E+01
    -49.850  0.0000E+00  0.1200E+02
    -48.885  0.0000E+00  0.1200E+02
    -47.920  0.0000E+00  0.1200E+02
    -46.955  0.0000E+00  0.1200E+02
    -45.990  0.0000E+00  0.1200E+02
    -45.025  0.0000E+00  0.1800E+02
    -44.060  0.0000E+00  0.1800E+02
    -43.095  0.0000E+00  0.1800E+02
    -42.130  0.0000E+00  0.1800E+02
    -41.165  0.0000E+00  0.1800E+02
    -40.200  0.0000E+00  0.1800E+02
    -39.235  0.0000E+00  0.1800E+02
    -38.270  0.0000E+00  0.1800E+02
    -37.305  0.0000E+00  0.1800E+02
    -36.340  0.0000E+00  0.1800E+02
    -35.375  0.0000E+00  0.1800E+02
    -34.410  0.0000E+00  0.1800E+02
    -33.445  0.0000E+00  0.1800E+02
    -32.480  0.0000E+00  0.1800E+02
    -31.515  0.0000E+00  0.1800E+02
    -30.550  0.0000E+00  0.1800E+02
    -29.585  0.0000E+00  0.1800E+02
    -28.621  0.0000E+00  0.1800E+02
    -27.656  0.0000E+00  0.1800E+02
    -26.691  0.0000E+00  0.1800E+02
    -25.726  0.0000E+00  0.1800E+02
    -24.761  0.0000E+00  0.1800E+02
    -23.796  0.0000E+00  0.1800E+02
    -22.831  0.0000E+00  0.1800E+02
    -21.866  0.0000E+00  0.1800E+02
    -20.901  0.0000E+00  0.1800E+02
    -19.936  0.1466E+01  0.1966E+02
    -18.971  0.0000E+00  0.2000E+02
    -18.006  0.0000E+00  0.2000E+02
    -17.041  0.0000E+00  0.2000E+02
    -16.076  0.0000E+00  0.2000E+02
    -15.111  0.0000E+00  0.2000E+02
    -14.146  0.0000E+00  0.2000E+02
    -13.181  0.0000E+00  0.2000E+02
    -12.216  0.0000E+00  0.2000E+02
    -11.251  0.0000E+00  0.2000E+02
    -10.286  0.0000E+00  0.2000E+02
     -9.321  0.0000E+00  0.2000E+02
     -8.356  0.0000E+00  0.2000E+02
     -7.391  0.5730E-03  0.2000E+02
     -6.426  0.1343E+00  0.2199E+02
     -5.461  0.0000E+00  0.2200E+02
     -4.496  0.7183E+00  0.2280E+02
     -3.531  0.3826E+00  0.2456E+02
     -2.566  0.7678E-01  0.2598E+02
     -1.602  0.0000E+00  0.2600E+02
     -0.637  0.0000E+00  0.2600E+02
      0.328  0.0000E+00  0.2600E+02
      1.293  0.0000E+00  0.2600E+02
      2.258  0.0000E+00  0.2600E+02
      3.223  0.0000E+00  0.2600E+02
      4.188  0.0000E+00  0.2600E+02
      5.153  0.0000E+00  0.2601E+02
      6.118  0.5757E-01  0.2614E+02
      7.083  0.1948E-01  0.2669E+02
      8.048  0.2862E+00  0.2808E+02
      9.013  0.8245E+00  0.2943E+02
      9.978  0.2730E-06  0.3032E+02
     10.943  0.4290E+00  0.3204E+02
     11.908  0.4984E-03  0.3350E+02
     12.873  0.5497E+00  0.3473E+02
     13.838  0.2035E-02  0.3593E+02
     14.803  0.1919E-01  0.3750E+02
     15.768  0.1077E-02  0.3870E+02
     16.733  0.3992E+00  0.4010E+02
     17.698  0.1727E+00  0.4304E+02
     18.663  0.4130E-02  0.4375E+02
     19.628  0.2804E+00  0.4530E+02
     20.593  0.7181E+00  0.4928E+02
     21.558  0.1035E+01  0.5359E+02
     22.523  0.7891E+00  0.5734E+02
     23.488  0.8259E+00  0.6184E+02
     24.453  0.3257E+00  0.6567E+02
     25.417  0.6844E+00  0.6761E+02
     26.382  0.1629E+00  0.6947E+02
     27.347  0.3201E+00  0.7169E+02
     28.312  0.1167E+00  0.7406E+02
     29.277  0.1079E+01  0.7807E+02
     30.242  0.6932E-01  0.7981E+02
     31.207  0.3027E+00  0.8148E+02
     32.172  0.7003E+00  0.8369E+02
     33.137  0.4012E+00  0.8711E+02
     34.102  0.7419E+00  0.9034E+02
     35.067  0.3232E+00  0.9215E+02
     36.032  0.7266E+00  0.9484E+02
     36.997  0.1437E+00  0.9697E+02
     37.962  0.2523E+00  0.9917E+02
     38.927  0.1186E+00  0.1019E+03
     39.892  0.8726E+00  0.1052E+03
     40.857  0.1152E+00  0.1068E+03
     41.822  0.8199E+00  0.1104E+03
     42.787  0.9943E+00  0.1137E+03
     43.752  0.8576E-01  0.1165E+03
     44.717  0.1909E+00  0.1187E+03
     45.682  0.6752E+00  0.1219E+03
     46.647  0.1045E+00  0.1246E+03
     47.612  0.6333E+00  0.1268E+03
     48.577  0.2303E+00  0.1279E+03
     49.542  0.0000E+00  0.1280E+03
     50.507  0.0000E+00  0.1280E+03
     51.472  0.0000E+00  0.1280E+03
     52.436  0.0000E+00  0.1280E+03
     53.401  0.0000E+00  0.1280E+03
     54.366  0.0000E+00  0.1280E+03
     55.331  0.0000E+00  0.1280E+03
     56.296  0.0000E+00  0.1280E+03
     57.261  0.0000E+00  0.1280E+03
     58.226  0.0000E+00  0.1280E+03
     59.191  0.0000E+00  0.1280E+03
     60.156  0.0000E+00  0.1280E+03
     61.121  0.0000E+00  0.1280E+03
     62.086  0.0000E+00  0.1280E+03
