    1    1    1    1
  0.6083477E+02  0.4414576E-09  0.4414576E-09  0.4414576E-09  0.1000000E-15
  1.000000000000000E-004
  CAR 
 Og_FCC                                  
     26    216    128
 
  0.0000000E+00  0.0000000E+00  0.0000000E+00  0.4629630E-02
    1     -214.225206   1.000000
    2     -214.225203   1.000000
    3     -163.717681   1.000000
    4     -163.717681   1.000000
    5     -125.958522   1.000000
    6     -125.958498   1.000000
    7     -125.957646   1.000000
    8     -125.957644   1.000000
    9      -50.331650   1.000000
   10      -50.331650   1.000000
   11      -50.324693   1.000000
   12      -50.324692   1.000000
   13      -45.529555   1.000000
   14      -45.529555   1.000000
   15      -45.522192   1.000000
   16      -45.522191   1.000000
   17      -45.520780   1.000000
   18      -45.520780   1.000000
   19      -20.257436   1.000000
   20      -20.257435   1.000000
   21       -6.266264   1.000000
   22       -6.266263   1.000000
   23       -2.523164   1.000000
   24       -2.523158   1.000000
   25       -2.522620   1.000000
   26       -2.522620   1.000000
   27        4.672369   0.000000
   28        4.672369   0.000000
   29       10.629408   0.000000
   30       10.629408   0.000000
   31       10.629712   0.000000
   32       10.629712   0.000000
   33       10.713232   0.000000
   34       10.713232   0.000000
   35       12.241798   0.000000
   36       12.241798   0.000000
   37       13.646663   0.000000
   38       13.646663   0.000000
   39       13.646735   0.000000
   40       13.646736   0.000000
   41       14.510901   0.000000
   42       14.510901   0.000000
   43       14.712857   0.000000
   44       14.712857   0.000000
   45       14.712875   0.000000
   46       14.712875   0.000000
   47       16.493797   0.000000
   48       16.493797   0.000000
   49       24.102766   0.000000
   50       24.102766   0.000000
   51       24.121450   0.000000
   52       24.121450   0.000000
   53       24.122190   0.000000
   54       24.122190   0.000000
   55       26.478830   0.000000
   56       26.478830   0.000000
   57       23.828783   0.000000
   58       23.828783   0.000000
   59       23.828784   0.000000
   60       23.828784   0.000000
   61       24.600473   0.000000
   62       24.600474   0.000000
   63       26.180535   0.000000
   64       26.180535   0.000000
   65       26.180536   0.000000
   66       26.180537   0.000000
   67       26.309620   0.000000
   68       26.309620   0.000000
   69       26.538465   0.000000
   70       26.538465   0.000000
   71       27.067887   0.000000
   72       27.067887   0.000000
   73       27.067888   0.000000
   74       27.067888   0.000000
   75       27.496009   0.000000
   76       27.496009   0.000000
   77       27.496010   0.000000
   78       27.496011   0.000000
   79       29.004772   0.000000
   80       29.004773   0.000000
   81       35.142078   0.000000
   82       35.142078   0.000000
   83       35.166605   0.000000
   84       35.166605   0.000000
   85       35.166606   0.000000
   86       35.166606   0.000000
   87       37.077917   0.000000
   88       37.077917   0.000000
   89       37.077917   0.000000
   90       37.077918   0.000000
   91       37.382194   0.000000
   92       37.382194   0.000000
   93       37.482001   0.000000
   94       37.482001   0.000000
   95       37.482001   0.000000
   96       37.482001   0.000000
   97       37.482001   0.000000
   98       37.482001   0.000000
   99       38.219099   0.000000
  100       38.219099   0.000000
  101       38.219101   0.000000
  102       38.219101   0.000000
  103       38.399510   0.000000
  104       38.399510   0.000000
  105       38.896133   0.000000
  106       38.896133   0.000000
  107       38.896137   0.000000
  108       38.896137   0.000000
  109       40.526047   0.000000
  110       40.526047   0.000000
  111       40.526049   0.000000
  112       40.526049   0.000000
  113       40.565373   0.000000
  114       40.565373   0.000000
  115       41.234266   0.000000
  116       41.234267   0.000000
  117       41.290080   0.000000
  118       41.290080   0.000000
  119       41.290080   0.000000
  120       41.290081   0.000000
  121       43.485271   0.000000
  122       43.485272   0.000000
  123       43.516500   0.000000
  124       43.516500   0.000000
  125       43.516503   0.000000
  126       43.516503   0.000000
  127       43.777352   0.000000
  128       43.777352   0.000000
 
  0.1666667E+00  0.1538294E-16  0.3469447E-16  0.4629630E-02
    1     -214.219842   1.000000
    2     -214.219787   1.000000
    3     -163.690533   1.000000
    4     -163.690528   1.000000
    5     -125.957857   1.000000
    6     -125.957849   1.000000
    7     -125.957085   1.000000
    8     -125.957084   1.000000
    9      -50.324721   1.000000
   10      -50.324720   1.000000
   11      -50.316456   1.000000
   12      -50.316455   1.000000
   13      -45.524929   1.000000
   14      -45.524927   1.000000
   15      -45.519650   1.000000
   16      -45.519648   1.000000
   17      -45.515951   1.000000
   18      -45.515949   1.000000
   19      -20.196034   1.000000
   20      -20.196008   1.000000
   21       -6.492360   1.000000
   22       -6.492356   1.000000
   23       -3.224355   1.000000
   24       -3.224353   1.000000
   25       -2.625609   1.000000
   26       -2.625607   1.000000
   27        5.668981   0.000000
   28        5.668991   0.000000
   29        9.748494   0.000000
   30        9.748495   0.000000
   31       10.863781   0.000000
   32       10.863784   0.000000
   33       10.931237   0.000000
   34       10.931238   0.000000
   35       12.590265   0.000000
   36       12.590266   0.000000
   37       12.651484   0.000000
   38       12.651497   0.000000
   39       13.040278   0.000000
   40       13.040279   0.000000
   41       14.594649   0.000000
   42       14.594649   0.000000
   43       16.699936   0.000000
   44       16.699936   0.000000
   45       16.785894   0.000000
   46       16.785911   0.000000
   47       18.685481   0.000000
   48       18.685482   0.000000
   49       22.527403   0.000000
   50       22.527403   0.000000
   51       22.692053   0.000000
   52       22.692059   0.000000
   53       23.779985   0.000000
   54       23.779988   0.000000
   55       24.211089   0.000000
   56       24.211089   0.000000
   57       22.654352   0.000000
   58       22.654352   0.000000
   59       23.206879   0.000000
   60       23.206879   0.000000
   61       24.232504   0.000000
   62       24.232504   0.000000
   63       25.261336   0.000000
   64       25.261336   0.000000
   65       25.380470   0.000000
   66       25.380470   0.000000
   67       25.506123   0.000000
   68       25.506123   0.000000
   69       26.870112   0.000000
   70       26.870112   0.000000
   71       27.114512   0.000000
   72       27.114512   0.000000
   73       27.958525   0.000000
   74       27.958525   0.000000
   75       28.493030   0.000000
   76       28.493030   0.000000
   77       29.197500   0.000000
   78       29.197500   0.000000
   79       32.124389   0.000000
   80       32.124389   0.000000
   81       33.743527   0.000000
   82       33.743527   0.000000
   83       33.807128   0.000000
   84       33.807128   0.000000
   85       34.076874   0.000000
   86       34.076874   0.000000
   87       34.083886   0.000000
   88       34.083886   0.000000
   89       34.887943   0.000000
   90       34.887943   0.000000
   91       35.122757   0.000000
   92       35.122757   0.000000
   93       37.105064   0.000000
   94       37.105064   0.000000
   95       37.276599   0.000000
   96       37.276599   0.000000
   97       37.522008   0.000000
   98       37.522008   0.000000
   99       37.719591   0.000000
  100       37.719591   0.000000
  101       37.778102   0.000000
  102       37.778102   0.000000
  103       38.690804   0.000000
  104       38.690804   0.000000
  105       38.746583   0.000000
  106       38.746583   0.000000
  107       39.029814   0.000000
  108       39.029814   0.000000
  109       39.186878   0.000000
  110       39.186878   0.000000
  111       40.899619   0.000000
  112       40.899619   0.000000
  113       40.994368   0.000000
  114       40.994368   0.000000
  115       41.585658   0.000000
  116       41.585658   0.000000
  117       42.313343   0.000000
  118       42.313344   0.000000
  119       42.608583   0.000000
  120       42.608583   0.000000
  121       42.613222   0.000000
  122       42.613222   0.000000
  123       44.755230   0.000000
  124       44.755230   0.000000
  125       44.814901   0.000000
  126       44.814901   0.000000
  127       45.733815   0.000000
  128       45.733815   0.000000
 
  0.3333333E+00  0.5852146E-16  0.6938894E-16  0.4629630E-02
    1     -214.244014   1.000000
    2     -214.244001   1.000000
    3     -163.731763   1.000000
    4     -163.731760   1.000000
    5     -125.958750   1.000000
    6     -125.958748   1.000000
    7     -125.957323   1.000000
    8     -125.957313   1.000000
    9      -50.338396   1.000000
   10      -50.338396   1.000000
   11      -50.330505   1.000000
   12      -50.330498   1.000000
   13      -45.531233   1.000000
   14      -45.531229   1.000000
   15      -45.524137   1.000000
   16      -45.524134   1.000000
   17      -45.521553   1.000000
   18      -45.521552   1.000000
   19      -20.069399   1.000000
   20      -20.069389   1.000000
   21       -7.023809   1.000000
   22       -7.023806   1.000000
   23       -4.113375   1.000000
   24       -4.113371   1.000000
   25       -2.822596   1.000000
   26       -2.822592   1.000000
   27        6.633352   0.000000
   28        6.633354   0.000000
   29       10.094235   0.000000
   30       10.094237   0.000000
   31       10.455039   0.000000
   32       10.455079   0.000000
   33       10.537698   0.000000
   34       10.537698   0.000000
   35       12.208420   0.000000
   36       12.208420   0.000000
   37       13.538515   0.000000
   38       13.538515   0.000000
   39       13.658568   0.000000
   40       13.658580   0.000000
   41       18.018008   0.000000
   42       18.018010   0.000000
   43       19.027723   0.000000
   44       19.027724   0.000000
   45       19.375434   0.000000
   46       19.375440   0.000000
   47       19.549106   0.000000
   48       19.549107   0.000000
   49       19.819096   0.000000
   50       19.819097   0.000000
   51       19.881652   0.000000
   52       19.881661   0.000000
   53       22.531651   0.000000
   54       22.531651   0.000000
   55       24.409529   0.000000
   56       24.409529   0.000000
   57       22.334009   0.000000
   58       22.334009   0.000000
   59       22.823324   0.000000
   60       22.823324   0.000000
   61       23.090872   0.000000
   62       23.090873   0.000000
   63       24.159051   0.000000
   64       24.159051   0.000000
   65       24.544268   0.000000
   66       24.544268   0.000000
   67       25.197793   0.000000
   68       25.197793   0.000000
   69       27.238706   0.000000
   70       27.238706   0.000000
   71       27.360902   0.000000
   72       27.360902   0.000000
   73       27.740798   0.000000
   74       27.740799   0.000000
   75       28.705282   0.000000
   76       28.705282   0.000000
   77       29.007240   0.000000
   78       29.007240   0.000000
   79       29.697627   0.000000
   80       29.697627   0.000000
   81       32.114732   0.000000
   82       32.114732   0.000000
   83       32.242751   0.000000
   84       32.242752   0.000000
   85       32.266688   0.000000
   86       32.266688   0.000000
   87       32.367699   0.000000
   88       32.367699   0.000000
   89       33.355481   0.000000
   90       33.355481   0.000000
   91       33.639306   0.000000
   92       33.639306   0.000000
   93       36.770565   0.000000
   94       36.770565   0.000000
   95       36.822338   0.000000
   96       36.822339   0.000000
   97       36.892253   0.000000
   98       36.892254   0.000000
   99       37.266769   0.000000
  100       37.266769   0.000000
  101       37.396061   0.000000
  102       37.396061   0.000000
  103       39.282587   0.000000
  104       39.282587   0.000000
  105       39.749932   0.000000
  106       39.749932   0.000000
  107       39.758170   0.000000
  108       39.758170   0.000000
  109       40.504001   0.000000
  110       40.504001   0.000000
  111       41.211572   0.000000
  112       41.211572   0.000000
  113       42.469392   0.000000
  114       42.469392   0.000000
  115       42.648885   0.000000
  116       42.648885   0.000000
  117       43.054184   0.000000
  118       43.054185   0.000000
  119       44.068198   0.000000
  120       44.068198   0.000000
  121       44.194847   0.000000
  122       44.194847   0.000000
  123       46.648148   0.000000
  124       46.648148   0.000000
  125       48.227838   0.000000
  126       48.227838   0.000000
  127       48.325457   0.000000
  128       48.325457   0.000000
 
  0.5000000E+00  0.3227103E-16  0.5551115E-16  0.4629630E-02
    1     -214.231225   1.000000
    2     -214.231220   1.000000
    3     -163.698729   1.000000
    4     -163.698727   1.000000
    5     -125.957812   1.000000
    6     -125.957801   1.000000
    7     -125.956118   1.000000
    8     -125.956092   1.000000
    9      -50.327364   1.000000
   10      -50.327359   1.000000
   11      -50.319556   1.000000
   12      -50.319544   1.000000
   13      -45.526361   1.000000
   14      -45.526356   1.000000
   15      -45.518584   1.000000
   16      -45.518582   1.000000
   17      -45.516459   1.000000
   18      -45.516457   1.000000
   19      -20.001283   1.000000
   20      -20.001279   1.000000
   21       -7.318024   1.000000
   22       -7.318021   1.000000
   23       -4.406732   1.000000
   24       -4.406727   1.000000
   25       -2.911559   1.000000
   26       -2.911554   1.000000
   27        6.671370   0.000000
   28        6.671371   0.000000
   29       10.154371   0.000000
   30       10.154424   0.000000
   31       10.227097   0.000000
   32       10.227097   0.000000
   33       10.651499   0.000000
   34       10.651502   0.000000
   35       12.796982   0.000000
   36       12.796984   0.000000
   37       15.889621   0.000000
   38       15.889623   0.000000
   39       16.119529   0.000000
   40       16.119531   0.000000
   41       16.134716   0.000000
   42       16.134716   0.000000
   43       16.241854   0.000000
   44       16.241871   0.000000
   45       16.915995   0.000000
   46       16.915996   0.000000
   47       21.373278   0.000000
   48       21.373280   0.000000
   49       22.042425   0.000000
   50       22.042426   0.000000
   51       22.101062   0.000000
   52       22.101080   0.000000
   53       23.708001   0.000000
   54       23.708001   0.000000
   55       24.523681   0.000000
   56       24.523681   0.000000
   57       22.282776   0.000000
   58       22.282776   0.000000
   59       22.569939   0.000000
   60       22.569939   0.000000
   61       22.618004   0.000000
   62       22.618004   0.000000
   63       23.083478   0.000000
   64       23.083478   0.000000
   65       23.979449   0.000000
   66       23.979449   0.000000
   67       25.614846   0.000000
   68       25.614846   0.000000
   69       26.301135   0.000000
   70       26.301136   0.000000
   71       27.394424   0.000000
   72       27.394424   0.000000
   73       27.678652   0.000000
   74       27.678653   0.000000
   75       27.993649   0.000000
   76       27.993650   0.000000
   77       28.357239   0.000000
   78       28.357240   0.000000
   79       28.810431   0.000000
   80       28.810432   0.000000
   81       29.850784   0.000000
   82       29.850784   0.000000
   83       31.679860   0.000000
   84       31.679860   0.000000
   85       31.690354   0.000000
   86       31.690354   0.000000
   87       31.732155   0.000000
   88       31.732155   0.000000
   89       33.167270   0.000000
   90       33.167270   0.000000
   91       33.484660   0.000000
   92       33.484660   0.000000
   93       36.578317   0.000000
   94       36.578317   0.000000
   95       36.639886   0.000000
   96       36.639886   0.000000
   97       37.110321   0.000000
   98       37.110321   0.000000
   99       37.219510   0.000000
  100       37.219510   0.000000
  101       37.274398   0.000000
  102       37.274398   0.000000
  103       39.782720   0.000000
  104       39.782720   0.000000
  105       39.910821   0.000000
  106       39.910821   0.000000
  107       40.526698   0.000000
  108       40.526698   0.000000
  109       41.169173   0.000000
  110       41.169173   0.000000
  111       43.729616   0.000000
  112       43.729616   0.000000
  113       43.746180   0.000000
  114       43.746180   0.000000
  115       44.512756   0.000000
  116       44.512756   0.000000
  117       44.586637   0.000000
  118       44.586637   0.000000
  119       45.977084   0.000000
  120       45.977084   0.000000
  121       46.340710   0.000000
  122       46.340710   0.000000
  123       46.439675   0.000000
  124       46.439675   0.000000
  125       47.739835   0.000000
  126       47.739835   0.000000
  127       47.862819   0.000000
  128       47.862819   0.000000
 
 -0.3333333E+00 -0.5852146E-16 -0.6938894E-16  0.4629630E-02
    1     -214.243869   1.000000
    2     -214.243866   1.000000
    3     -163.731413   1.000000
    4     -163.731412   1.000000
    5     -125.958332   1.000000
    6     -125.958319   1.000000
    7     -125.956828   1.000000
    8     -125.956806   1.000000
    9      -50.337951   1.000000
   10      -50.337948   1.000000
   11      -50.329791   1.000000
   12      -50.329785   1.000000
   13      -45.530915   1.000000
   14      -45.530911   1.000000
   15      -45.523495   1.000000
   16      -45.523494   1.000000
   17      -45.520787   1.000000
   18      -45.520787   1.000000
   19      -20.069330   1.000000
   20      -20.069324   1.000000
   21       -7.023710   1.000000
   22       -7.023708   1.000000
   23       -4.113320   1.000000
   24       -4.113313   1.000000
   25       -2.822559   1.000000
   26       -2.822553   1.000000
   27        6.633376   0.000000
   28        6.633381   0.000000
   29       10.094183   0.000000
   30       10.094186   0.000000
   31       10.455059   0.000000
   32       10.455099   0.000000
   33       10.537717   0.000000
   34       10.537717   0.000000
   35       12.208418   0.000000
   36       12.208418   0.000000
   37       13.538544   0.000000
   38       13.538545   0.000000
   39       13.658599   0.000000
   40       13.658610   0.000000
   41       18.018018   0.000000
   42       18.018020   0.000000
   43       19.027824   0.000000
   44       19.027824   0.000000
   45       19.375470   0.000000
   46       19.375475   0.000000
   47       19.549253   0.000000
   48       19.549255   0.000000
   49       19.819156   0.000000
   50       19.819157   0.000000
   51       19.881697   0.000000
   52       19.881707   0.000000
   53       22.531657   0.000000
   54       22.531657   0.000000
   55       24.409546   0.000000
   56       24.409546   0.000000
   57       22.334009   0.000000
   58       22.334009   0.000000
   59       22.823324   0.000000
   60       22.823324   0.000000
   61       23.090872   0.000000
   62       23.090873   0.000000
   63       24.159051   0.000000
   64       24.159051   0.000000
   65       24.544268   0.000000
   66       24.544268   0.000000
   67       25.197793   0.000000
   68       25.197793   0.000000
   69       27.238706   0.000000
   70       27.238706   0.000000
   71       27.360902   0.000000
   72       27.360902   0.000000
   73       27.740798   0.000000
   74       27.740799   0.000000
   75       28.705282   0.000000
   76       28.705282   0.000000
   77       29.007240   0.000000
   78       29.007240   0.000000
   79       29.697627   0.000000
   80       29.697627   0.000000
   81       32.114732   0.000000
   82       32.114732   0.000000
   83       32.242751   0.000000
   84       32.242752   0.000000
   85       32.266688   0.000000
   86       32.266688   0.000000
   87       32.367699   0.000000
   88       32.367699   0.000000
   89       33.355481   0.000000
   90       33.355481   0.000000
   91       33.639306   0.000000
   92       33.639306   0.000000
   93       36.770565   0.000000
   94       36.770565   0.000000
   95       36.822338   0.000000
   96       36.822339   0.000000
   97       36.892253   0.000000
   98       36.892254   0.000000
   99       37.266769   0.000000
  100       37.266769   0.000000
  101       37.396061   0.000000
  102       37.396061   0.000000
  103       39.282587   0.000000
  104       39.282587   0.000000
  105       39.749932   0.000000
  106       39.749932   0.000000
  107       39.758170   0.000000
  108       39.758170   0.000000
  109       40.504001   0.000000
  110       40.504001   0.000000
  111       41.211572   0.000000
  112       41.211572   0.000000
  113       42.469392   0.000000
  114       42.469392   0.000000
  115       42.648885   0.000000
  116       42.648885   0.000000
  117       43.054184   0.000000
  118       43.054185   0.000000
  119       44.068198   0.000000
  120       44.068198   0.000000
  121       44.194847   0.000000
  122       44.194847   0.000000
  123       46.648148   0.000000
  124       46.648148   0.000000
  125       48.227838   0.000000
  126       48.227838   0.000000
  127       48.325457   0.000000
  128       48.325457   0.000000
 
 -0.1666667E+00 -0.1538294E-16 -0.3469447E-16  0.4629630E-02
    1     -214.219773   1.000000
    2     -214.219742   1.000000
    3     -163.690368   1.000000
    4     -163.690362   1.000000
    5     -125.957696   1.000000
    6     -125.957657   1.000000
    7     -125.956804   1.000000
    8     -125.956799   1.000000
    9      -50.324579   1.000000
   10      -50.324578   1.000000
   11      -50.316023   1.000000
   12      -50.316022   1.000000
   13      -45.524817   1.000000
   14      -45.524814   1.000000
   15      -45.519374   1.000000
   16      -45.519371   1.000000
   17      -45.515465   1.000000
   18      -45.515463   1.000000
   19      -20.196001   1.000000
   20      -20.195980   1.000000
   21       -6.492296   1.000000
   22       -6.492292   1.000000
   23       -3.224305   1.000000
   24       -3.224293   1.000000
   25       -2.625589   1.000000
   26       -2.625586   1.000000
   27        5.668967   0.000000
   28        5.668975   0.000000
   29        9.748441   0.000000
   30        9.748441   0.000000
   31       10.863784   0.000000
   32       10.863786   0.000000
   33       10.931237   0.000000
   34       10.931238   0.000000
   35       12.590282   0.000000
   36       12.590283   0.000000
   37       12.651498   0.000000
   38       12.651510   0.000000
   39       13.040279   0.000000
   40       13.040280   0.000000
   41       14.594669   0.000000
   42       14.594670   0.000000
   43       16.699947   0.000000
   44       16.699948   0.000000
   45       16.785907   0.000000
   46       16.785925   0.000000
   47       18.685486   0.000000
   48       18.685487   0.000000
   49       22.527401   0.000000
   50       22.527402   0.000000
   51       22.692033   0.000000
   52       22.692040   0.000000
   53       23.780119   0.000000
   54       23.780122   0.000000
   55       24.211097   0.000000
   56       24.211097   0.000000
   57       22.654352   0.000000
   58       22.654352   0.000000
   59       23.206879   0.000000
   60       23.206879   0.000000
   61       24.232504   0.000000
   62       24.232504   0.000000
   63       25.261336   0.000000
   64       25.261336   0.000000
   65       25.380470   0.000000
   66       25.380470   0.000000
   67       25.506123   0.000000
   68       25.506123   0.000000
   69       26.870112   0.000000
   70       26.870112   0.000000
   71       27.114512   0.000000
   72       27.114512   0.000000
   73       27.958525   0.000000
   74       27.958525   0.000000
   75       28.493030   0.000000
   76       28.493030   0.000000
   77       29.197500   0.000000
   78       29.197500   0.000000
   79       32.124389   0.000000
   80       32.124389   0.000000
   81       33.743527   0.000000
   82       33.743527   0.000000
   83       33.807128   0.000000
   84       33.807128   0.000000
   85       34.076874   0.000000
   86       34.076874   0.000000
   87       34.083886   0.000000
   88       34.083886   0.000000
   89       34.887943   0.000000
   90       34.887943   0.000000
   91       35.122757   0.000000
   92       35.122757   0.000000
   93       37.105064   0.000000
   94       37.105064   0.000000
   95       37.276599   0.000000
   96       37.276599   0.000000
   97       37.522008   0.000000
   98       37.522008   0.000000
   99       37.719591   0.000000
  100       37.719591   0.000000
  101       37.778102   0.000000
  102       37.778102   0.000000
  103       38.690804   0.000000
  104       38.690804   0.000000
  105       38.746583   0.000000
  106       38.746583   0.000000
  107       39.029814   0.000000
  108       39.029814   0.000000
  109       39.186878   0.000000
  110       39.186878   0.000000
  111       40.899619   0.000000
  112       40.899619   0.000000
  113       40.994368   0.000000
  114       40.994368   0.000000
  115       41.585658   0.000000
  116       41.585658   0.000000
  117       42.313343   0.000000
  118       42.313344   0.000000
  119       42.608583   0.000000
  120       42.608583   0.000000
  121       42.613222   0.000000
  122       42.613222   0.000000
  123       44.755230   0.000000
  124       44.755230   0.000000
  125       44.814901   0.000000
  126       44.814901   0.000000
  127       45.733815   0.000000
  128       45.733815   0.000000
 
  0.0000000E+00  0.1666667E+00 -0.6938894E-17  0.4629630E-02
    1     -214.219819   1.000000
    2     -214.219794   1.000000
    3     -163.690535   1.000000
    4     -163.690525   1.000000
    5     -125.957864   1.000000
    6     -125.957849   1.000000
    7     -125.957085   1.000000
    8     -125.957078   1.000000
    9      -50.324721   1.000000
   10      -50.324720   1.000000
   11      -50.316456   1.000000
   12      -50.316455   1.000000
   13      -45.524929   1.000000
   14      -45.524927   1.000000
   15      -45.519649   1.000000
   16      -45.519647   1.000000
   17      -45.515952   1.000000
   18      -45.515950   1.000000
   19      -20.196022   1.000000
   20      -20.196002   1.000000
   21       -6.492360   1.000000
   22       -6.492356   1.000000
   23       -3.224352   1.000000
   24       -3.224349   1.000000
   25       -2.625612   1.000000
   26       -2.625610   1.000000
   27        5.668978   0.000000
   28        5.668984   0.000000
   29        9.748494   0.000000
   30        9.748495   0.000000
   31       10.863781   0.000000
   32       10.863784   0.000000
   33       10.931237   0.000000
   34       10.931238   0.000000
   35       12.590265   0.000000
   36       12.590266   0.000000
   37       12.651484   0.000000
   38       12.651497   0.000000
   39       13.040278   0.000000
   40       13.040278   0.000000
   41       14.594648   0.000000
   42       14.594649   0.000000
   43       16.699936   0.000000
   44       16.699936   0.000000
   45       16.785894   0.000000
   46       16.785911   0.000000
   47       18.685481   0.000000
   48       18.685481   0.000000
   49       22.527403   0.000000
   50       22.527403   0.000000
   51       22.692053   0.000000
   52       22.692059   0.000000
   53       23.779985   0.000000
   54       23.779986   0.000000
   55       24.211089   0.000000
   56       24.211089   0.000000
   57       22.654351   0.000000
   58       22.654351   0.000000
   59       23.206879   0.000000
   60       23.206879   0.000000
   61       24.232504   0.000000
   62       24.232504   0.000000
   63       25.261336   0.000000
   64       25.261336   0.000000
   65       25.380470   0.000000
   66       25.380470   0.000000
   67       25.506123   0.000000
   68       25.506123   0.000000
   69       26.870113   0.000000
   70       26.870113   0.000000
   71       27.114513   0.000000
   72       27.114513   0.000000
   73       27.958524   0.000000
   74       27.958525   0.000000
   75       28.493030   0.000000
   76       28.493030   0.000000
   77       29.197500   0.000000
   78       29.197500   0.000000
   79       32.124389   0.000000
   80       32.124390   0.000000
   81       33.743526   0.000000
   82       33.743526   0.000000
   83       33.807128   0.000000
   84       33.807128   0.000000
   85       34.076874   0.000000
   86       34.076874   0.000000
   87       34.083886   0.000000
   88       34.083886   0.000000
   89       34.887943   0.000000
   90       34.887943   0.000000
   91       35.122756   0.000000
   92       35.122757   0.000000
   93       37.105064   0.000000
   94       37.105065   0.000000
   95       37.276600   0.000000
   96       37.276600   0.000000
   97       37.522008   0.000000
   98       37.522008   0.000000
   99       37.719591   0.000000
  100       37.719591   0.000000
  101       37.778102   0.000000
  102       37.778102   0.000000
  103       38.690804   0.000000
  104       38.690804   0.000000
  105       38.746584   0.000000
  106       38.746584   0.000000
  107       39.029814   0.000000
  108       39.029814   0.000000
  109       39.186878   0.000000
  110       39.186878   0.000000
  111       40.899619   0.000000
  112       40.899620   0.000000
  113       40.994367   0.000000
  114       40.994368   0.000000
  115       41.585658   0.000000
  116       41.585658   0.000000
  117       42.313344   0.000000
  118       42.313344   0.000000
  119       42.608582   0.000000
  120       42.608582   0.000000
  121       42.613221   0.000000