 vasp.5.4.4.18Apr17-6-g9f103f2a35 (build Nov 03 2018 10:20:46) complex          
  
 executed on             LinuxIFC date 2018.12.31  10:39:56
 running on   64 total cores
 distrk:  each k-point on    4 cores,   16 groups
 distr:  one band on NCORES_PER_BAND=   1 cores,    4 groups


--------------------------------------------------------------------------------------------------------


 INCAR:
 POTCAR:    PAW_PBE Rn_sv_GW 14Apr2014            

 ----------------------------------------------------------------------------- 
|                                                                             |
|           W    W    AA    RRRRR   N    N  II  N    N   GGGG   !!!           |
|           W    W   A  A   R    R  NN   N  II  NN   N  G    G  !!!           |
|           W    W  A    A  R    R  N N  N  II  N N  N  G       !!!           |
|           W WW W  AAAAAA  RRRRR   N  N N  II  N  N N  G  GGG   !            |
|           WW  WW  A    A  R   R   N   NN  II  N   NN  G    G                |
|           W    W  A    A  R    R  N    N  II  N    N   GGGG   !!!           |
|                                                                             |
|      For optimal performance we recommend to set                            |
|        NCORE= 4 - approx SQRT( number of cores)                             |
|      NCORE specifies how many cores store one orbital (NPAR=cpu/NCORE).     |
|      This setting can  greatly improve the performance of VASP for DFT.     |
|      The default,   NCORE=1            might be grossly inefficient         |
|      on modern multi-core architectures or massively parallel machines.     |
|      Do your own testing !!!!                                               |
|      Unfortunately you need to use the default for GW and RPA calculations. |
|      (for HF NCORE is supported but not extensively tested yet)             |
|                                                                             |
 ----------------------------------------------------------------------------- 


 ----------------------------------------------------------------------------- 
|                                                                             |
|           W    W    AA    RRRRR   N    N  II  N    N   GGGG   !!!           |
|           W    W   A  A   R    R  NN   N  II  NN   N  G    G  !!!           |
|           W    W  A    A  R    R  N N  N  II  N N  N  G       !!!           |
|           W WW W  AAAAAA  RRRRR   N  N N  II  N  N N  G  GGG   !            |
|           WW  WW  A    A  R   R   N   NN  II  N   NN  G    G                |
|           W    W  A    A  R    R  N    N  II  N    N   GGGG   !!!           |
|                                                                             |
|      You have enabled k-point parallelism (KPAR>1).                         |
|      This developmental code was originally  written by Paul Kent at ORNL,  |
|      and carefully double checked in Vienna.                                |
|      GW as well as linear response parallelism added by Martijn Marsman     |
|      and Georg Kresse.                                                      |
|      Carefully verify results versus KPAR=1.                                |
|      Report problems to Paul Kent and Vienna.                               |
|                                                                             |
 ----------------------------------------------------------------------------- 

 POTCAR:    PAW_PBE Rn_sv_GW 14Apr2014            
  local pseudopotential read in
  partial core-charges read in
  partial kinetic energy density read in
  kinetic energy density of atom read in
  atomic valenz-charges read in
  non local Contribution for L=           0  read in
    real space projection operators read in
  non local Contribution for L=           0  read in
    real space projection operators read in
  non local Contribution for L=           1  read in
    real space projection operators read in
  non local Contribution for L=           1  read in
    real space projection operators read in
  non local Contribution for L=           1  read in
    real space projection operators read in
  non local Contribution for L=           2  read in
    real space projection operators read in
  non local Contribution for L=           2  read in
    real space projection operators read in
  non local Contribution for L=           2  read in
    real space projection operators read in
  non local Contribution for L=           3  read in
    real space projection operators read in
  non local Contribution for L=           3  read in
    real space projection operators read in
    PAW grid and wavefunctions read in
 
   number of l-projection  operators is LMAX  =          10
   number of lm-projection operators is LMMAX =          40
 
  PAW_PBE Rn_sv_GW 14Apr2014            :
 energy of atom  1       EATOM=-7927.0395
 kinetic energy error for atom=    0.5356 (will be added to EATOM!!)
 
 
 POSCAR: Rn_FCC                                  
  positions in direct lattice
  velocities in cartesian coordinates
 exchange correlation table for  LEXCH =        8
   RHO(1)=    0.500       N(1)  =     2000
   RHO(2)=  100.500       N(2)  =     4000
 


--------------------------------------------------------------------------------------------------------


 ion  position               nearest neighbor table
   1  0.000  0.000  0.000-
 

IMPORTANT INFORMATION: All symmetrisations will be switched off!
NOSYMM: (Re-)initialisation of all symmetry stuff for point group C_1.

 
 
 KPOINTS: k-points                                

Automatic generation of k-mesh.
Space group operators:
 irot       det(A)        alpha          n_x          n_y          n_z        tau_x        tau_y        tau_z
    1     1.000000     0.000000     1.000000     0.000000     0.000000     0.000000     0.000000     0.000000
 
 Subroutine IBZKPT returns following result:
 ===========================================
 
 Found    216 irreducible k-points:
 
 Following reciprocal coordinates:
            Coordinates               Weight
  0.000000  0.000000  0.000000      1.000000
  0.166667  0.000000  0.000000      1.000000
  0.333333  0.000000  0.000000      1.000000
  0.500000  0.000000  0.000000      1.000000
 -0.333333 -0.000000 -0.000000      1.000000
 -0.166667 -0.000000 -0.000000      1.000000
  0.000000  0.166667 -0.000000      1.000000
  0.166667  0.166667  0.000000      1.000000
  0.333333  0.166667  0.000000      1.000000
  0.500000  0.166667  0.000000      1.000000
 -0.333333  0.166667 -0.000000      1.000000
 -0.166667  0.166667 -0.000000      1.000000
  0.000000  0.333333  0.000000      1.000000
  0.166667  0.333333  0.000000      1.000000
  0.333333  0.333333  0.000000      1.000000
  0.500000  0.333333  0.000000      1.000000
 -0.333333  0.333333 -0.000000      1.000000
 -0.166667  0.333333 -0.000000      1.000000
  0.000000  0.500000  0.000000      1.000000
  0.166667  0.500000  0.000000      1.000000
  0.333333  0.500000  0.000000      1.000000
  0.500000  0.500000  0.000000      1.000000
 -0.333333  0.500000 -0.000000      1.000000
 -0.166667  0.500000 -0.000000      1.000000
  0.000000 -0.333333  0.000000      1.000000
  0.166667 -0.333333  0.000000      1.000000
  0.333333 -0.333333  0.000000      1.000000
  0.500000 -0.333333  0.000000      1.000000
 -0.333333 -0.333333 -0.000000      1.000000
 -0.166667 -0.333333 -0.000000      1.000000
  0.000000 -0.166667  0.000000      1.000000
  0.166667 -0.166667  0.000000      1.000000
  0.333333 -0.166667  0.000000      1.000000
  0.500000 -0.166667  0.000000      1.000000
 -0.333333 -0.166667 -0.000000      1.000000
 -0.166667 -0.166667 -0.000000      1.000000
  0.000000 -0.000000  0.166667      1.000000
  0.166667  0.000000  0.166667      1.000000
  0.333333  0.000000  0.166667      1.000000
  0.500000  0.000000  0.166667      1.000000
 -0.333333 -0.000000  0.166667      1.000000
 -0.166667 -0.000000  0.166667      1.000000
  0.000000  0.166667  0.166667      1.000000
  0.166667  0.166667  0.166667      1.000000
  0.333333  0.166667  0.166667      1.000000
  0.500000  0.166667  0.166667      1.000000
 -0.333333  0.166667  0.166667      1.000000
 -0.166667  0.166667  0.166667      1.000000
  0.000000  0.333333  0.166667      1.000000
  0.166667  0.333333  0.166667      1.000000
  0.333333  0.333333  0.166667      1.000000
  0.500000  0.333333  0.166667      1.000000
 -0.333333  0.333333  0.166667      1.000000
 -0.166667  0.333333  0.166667      1.000000
  0.000000  0.500000  0.166667      1.000000
  0.166667  0.500000  0.166667      1.000000
  0.333333  0.500000  0.166667      1.000000
  0.500000  0.500000  0.166667      1.000000
 -0.333333  0.500000  0.166667      1.000000
 -0.166667  0.500000  0.166667      1.000000
 -0.000000 -0.333333  0.166667      1.000000
  0.166667 -0.333333  0.166667      1.000000
  0.333333 -0.333333  0.166667      1.000000
  0.500000 -0.333333  0.166667      1.000000
 -0.333333 -0.333333  0.166667      1.000000
 -0.166667 -0.333333  0.166667      1.000000
 -0.000000 -0.166667  0.166667      1.000000
  0.166667 -0.166667  0.166667      1.000000
  0.333333 -0.166667  0.166667      1.000000
  0.500000 -0.166667  0.166667      1.000000
 -0.333333 -0.166667  0.166667      1.000000
 -0.166667 -0.166667  0.166667      1.000000
 -0.000000 -0.000000  0.333333      1.000000
  0.166667  0.000000  0.333333      1.000000
  0.333333  0.000000  0.333333      1.000000
  0.500000  0.000000  0.333333      1.000000
 -0.333333 -0.000000  0.333333      1.000000
 -0.166667 -0.000000  0.333333      1.000000
 -0.000000  0.166667  0.333333      1.000000
  0.166667  0.166667  0.333333      1.000000
  0.333333  0.166667  0.333333      1.000000
  0.500000  0.166667  0.333333      1.000000
 -0.333333  0.166667  0.333333      1.000000
 -0.166667  0.166667  0.333333      1.000000
 -0.000000  0.333333  0.333333      1.000000
  0.166667  0.333333  0.333333      1.000000
  0.333333  0.333333  0.333333      1.000000
  0.500000  0.333333  0.333333      1.000000
 -0.333333  0.333333  0.333333      1.000000
 -0.166667  0.333333  0.333333      1.000000
  0.000000  0.500000  0.333333      1.000000
  0.166667  0.500000  0.333333      1.000000
  0.333333  0.500000  0.333333      1.000000
  0.500000  0.500000  0.333333      1.000000
 -0.333333  0.500000  0.333333      1.000000
 -0.166667  0.500000  0.333333      1.000000
 -0.000000 -0.333333  0.333333      1.000000
  0.166667 -0.333333  0.333333      1.000000
  0.333333 -0.333333  0.333333      1.000000
  0.500000 -0.333333  0.333333      1.000000
 -0.333333 -0.333333  0.333333      1.000000
 -0.166667 -0.333333  0.333333      1.000000
 -0.000000 -0.166667  0.333333      1.000000
  0.166667 -0.166667  0.333333      1.000000
  0.333333 -0.166667  0.333333      1.000000
  0.500000 -0.166667  0.333333      1.000000
 -0.333333 -0.166667  0.333333      1.000000
 -0.166667 -0.166667  0.333333      1.000000
 -0.000000 -0.000000  0.500000      1.000000
  0.166667  0.000000  0.500000      1.000000
  0.333333  0.000000  0.500000      1.000000
  0.500000  0.000000  0.500000      1.000000
 -0.333333 -0.000000  0.500000      1.000000
 -0.166667 -0.000000  0.500000      1.000000
 -0.000000  0.166667  0.500000      1.000000
  0.166667  0.166667  0.500000      1.000000
  0.333333  0.166667  0.500000      1.000000
  0.500000  0.166667  0.500000      1.000000
 -0.333333  0.166667  0.500000      1.000000
 -0.166667  0.166667  0.500000      1.000000
 -0.000000  0.333333  0.500000      1.000000
  0.166667  0.333333  0.500000      1.000000
  0.333333  0.333333  0.500000      1.000000
  0.500000  0.333333  0.500000      1.000000
 -0.333333  0.333333  0.500000      1.000000
 -0.166667  0.333333  0.500000      1.000000
 -0.000000  0.500000  0.500000      1.000000
  0.166667  0.500000  0.500000      1.000000
  0.333333  0.500000  0.500000      1.000000
  0.500000  0.500000  0.500000      1.000000
 -0.333333  0.500000  0.500000      1.000000
 -0.166667  0.500000  0.500000      1.000000
  0.000000 -0.333333  0.500000      1.000000
  0.166667 -0.333333  0.500000      1.000000
  0.333333 -0.333333  0.500000      1.000000
  0.500000 -0.333333  0.500000      1.000000
 -0.333333 -0.333333  0.500000      1.000000
 -0.166667 -0.333333  0.500000      1.000000
  0.000000 -0.166667  0.500000      1.000000
  0.166667 -0.166667  0.500000      1.000000
  0.333333 -0.166667  0.500000      1.000000
  0.500000 -0.166667  0.500000      1.000000
 -0.333333 -0.166667  0.500000      1.000000
 -0.166667 -0.166667  0.500000      1.000000
  0.000000  0.000000 -0.333333      1.000000
  0.166667  0.000000 -0.333333      1.000000
  0.333333  0.000000 -0.333333      1.000000
  0.500000  0.000000 -0.333333      1.000000
 -0.333333 -0.000000 -0.333333      1.000000
 -0.166667 -0.000000 -0.333333      1.000000
  0.000000  0.166667 -0.333333      1.000000
  0.166667  0.166667 -0.333333      1.000000
  0.333333  0.166667 -0.333333      1.000000
  0.500000  0.166667 -0.333333      1.000000
 -0.333333  0.166667 -0.333333      1.000000
 -0.166667  0.166667 -0.333333      1.000000
  0.000000  0.333333 -0.333333      1.000000
  0.166667  0.333333 -0.333333      1.000000
  0.333333  0.333333 -0.333333      1.000000
  0.500000  0.333333 -0.333333      1.000000
 -0.333333  0.333333 -0.333333      1.000000
 -0.166667  0.333333 -0.333333      1.000000
  0.000000  0.500000 -0.333333      1.000000
  0.166667  0.500000 -0.333333      1.000000
  0.333333  0.500000 -0.333333      1.000000
  0.500000  0.500000 -0.333333      1.000000
 -0.333333  0.500000 -0.333333      1.000000
 -0.166667  0.500000 -0.333333      1.000000
  0.000000 -0.333333 -0.333333      1.000000
  0.166667 -0.333333 -0.333333      1.000000
  0.333333 -0.333333 -0.333333      1.000000
  0.500000 -0.333333 -0.333333      1.000000
 -0.333333 -0.333333 -0.333333      1.000000
 -0.166667 -0.333333 -0.333333      1.000000
  0.000000 -0.166667 -0.333333      1.000000
  0.166667 -0.166667 -0.333333      1.000000
  0.333333 -0.166667 -0.333333      1.000000
  0.500000 -0.166667 -0.333333      1.000000
 -0.333333 -0.166667 -0.333333      1.000000
 -0.166667 -0.166667 -0.333333      1.000000
  0.000000  0.000000 -0.166667      1.000000
  0.166667  0.000000 -0.166667      1.000000
  0.333333  0.000000 -0.166667      1.000000
  0.500000  0.000000 -0.166667      1.000000
 -0.333333 -0.000000 -0.166667      1.000000
 -0.166667 -0.000000 -0.166667      1.000000
  0.000000  0.166667 -0.166667      1.000000
  0.166667  0.166667 -0.166667      1.000000
  0.333333  0.166667 -0.166667      1.000000
  0.500000  0.166667 -0.166667      1.000000
 -0.333333  0.166667 -0.166667      1.000000
 -0.166667  0.166667 -0.166667      1.000000
  0.000000  0.333333 -0.166667      1.000000
  0.166667  0.333333 -0.166667      1.000000
  0.333333  0.333333 -0.166667      1.000000
  0.500000  0.333333 -0.166667      1.000000
 -0.333333  0.333333 -0.166667      1.000000
 -0.166667  0.333333 -0.166667      1.000000
 -0.000000  0.500000 -0.166667      1.000000
  0.166667  0.500000 -0.166667      1.000000
  0.333333  0.500000 -0.166667      1.000000
  0.500000  0.500000 -0.166667      1.000000
 -0.333333  0.500000 -0.166667      1.000000
 -0.166667  0.500000 -0.166667      1.000000
 -0.000000 -0.333333 -0.166667      1.000000
  0.166667 -0.333333 -0.166667      1.000000
  0.333333 -0.333333 -0.166667      1.000000
  0.500000 -0.333333 -0.166667      1.000000
 -0.333333 -0.333333 -0.166667      1.000000
 -0.166667 -0.333333 -0.166667      1.000000
 -0.000000 -0.166667 -0.166667      1.000000
  0.166667 -0.166667 -0.166667      1.000000
  0.333333 -0.166667 -0.166667      1.000000
  0.500000 -0.166667 -0.166667      1.000000
 -0.333333 -0.166667 -0.166667      1.000000
 -0.166667 -0.166667 -0.166667      1.000000
 
 Following cartesian coordinates:
            Coordinates               Weight
  0.000000  0.000000  0.000000      1.000000
  0.036869 -0.021286 -0.015052      1.000000
  0.073737 -0.042572 -0.030103      1.000000
  0.110606 -0.063858 -0.045155      1.000000
 -0.073737  0.042572  0.030103      1.000000
 -0.036869  0.021286  0.015052      1.000000
  0.000000  0.042572 -0.015052      1.000000
  0.036869  0.021286 -0.030103      1.000000
  0.073737  0.000000 -0.045155      1.000000
  0.110606 -0.021286 -0.060206      1.000000
 -0.073737  0.085144  0.015052      1.000000
 -0.036869  0.063858  0.000000      1.000000
  0.000000  0.085144 -0.030103      1.000000
  0.036869  0.063858 -0.045155      1.000000
  0.073737  0.042572 -0.060206      1.000000
  0.110606  0.021286 -0.075258      1.000000
 -0.073737  0.127716  0.000000      1.000000
 -0.036869  0.106430 -0.015052      1.000000
  0.000000  0.127716 -0.045155      1.000000
  0.036869  0.106430 -0.060206      1.000000
  0.073737  0.085144 -0.075258      1.000000
  0.110606  0.063858 -0.090309      1.000000
 -0.073737  0.170289 -0.015052      1.000000
 -0.036869  0.149002 -0.030103      1.000000
 -0.000000 -0.085144  0.030103      1.000000
  0.036869 -0.106430  0.015052      1.000000
  0.073737 -0.127716 -0.000000      1.000000
  0.110606 -0.149002 -0.015052      1.000000
 -0.073737 -0.042572  0.060206      1.000000
 -0.036869 -0.063858  0.045155      1.000000
 -0.000000 -0.042572  0.015052      1.000000
  0.036869 -0.063858 -0.000000      1.000000
  0.073737 -0.085144 -0.015052      1.000000
  0.110606 -0.106430 -0.030103      1.000000
 -0.073737 -0.000000  0.045155      1.000000
 -0.036869 -0.021286  0.030103      1.000000
 -0.000000  0.000000  0.045155      1.000000
  0.036869 -0.021286  0.030103      1.000000
  0.073737 -0.042572  0.015052      1.000000
  0.110606 -0.063858 -0.000000      1.000000
 -0.073737  0.042572  0.075258      1.000000
 -0.036869  0.021286  0.060206      1.000000
 -0.000000  0.042572  0.030103      1.000000
  0.036869  0.021286  0.015052      1.000000
  0.073737  0.000000  0.000000      1.000000
  0.110606 -0.021286 -0.015052      1.000000
 -0.073737  0.085144  0.060206      1.000000
 -0.036869  0.063858  0.045155      1.000000
 -0.000000  0.085144  0.015052      1.000000
  0.036869  0.063858  0.000000      1.000000
  0.073737  0.042572 -0.015052      1.000000
  0.110606  0.021286 -0.030103      1.000000
 -0.073737  0.127716  0.045155      1.000000
 -0.036869  0.106430  0.030103      1.000000
 -0.000000  0.127716  0.000000      1.000000
  0.036869  0.106430 -0.015052      1.000000
  0.073737  0.085144 -0.030103      1.000000
  0.110606  0.063858 -0.045155      1.000000
 -0.073737  0.170289  0.030103      1.000000
 -0.036869  0.149002  0.015052      1.000000
 -0.000000 -0.085144  0.075258      1.000000
  0.036869 -0.106430  0.060206      1.000000
  0.073737 -0.127716  0.045155      1.000000
  0.110606 -0.149002  0.030103      1.000000
 -0.073737 -0.042572  0.105361      1.000000
 -0.036869 -0.063858  0.090309      1.000000
 -0.000000 -0.042572  0.060206      1.000000
  0.036869 -0.063858  0.045155      1.000000
  0.073737 -0.085144  0.030103      1.000000
  0.110606 -0.106430  0.015052      1.000000
 -0.073737 -0.000000  0.090309      1.000000
 -0.036869 -0.021286  0.075258      1.000000
 -0.000000  0.000000  0.090309      1.000000
  0.036869 -0.021286  0.075258      1.000000
  0.073737 -0.042572  0.060206      1.000000
  0.110606 -0.063858  0.045155      1.000000
 -0.073737  0.042572  0.120412      1.000000
 -0.036869  0.021286  0.105361      1.000000
 -0.000000  0.042572  0.075258      1.000000
  0.036869  0.021286  0.060206      1.000000
  0.073737  0.000000  0.045155      1.000000
  0.110606 -0.021286  0.030103      1.000000
 -0.073737  0.085144  0.105361      1.000000
 -0.036869  0.063858  0.090309      1.000000
 -0.000000  0.085144  0.060206      1.000000
  0.036869  0.063858  0.045155      1.000000
  0.073737  0.042572  0.030103      1.000000
  0.110606  0.021286  0.015052      1.000000
 -0.073737  0.127716  0.090309      1.000000
 -0.036869  0.106430  0.075258      1.000000
 -0.000000  0.127716  0.045155      1.000000
  0.036869  0.106430  0.030103      1.000000
  0.073737  0.085144  0.015052      1.000000
  0.110606  0.063858  0.000000      1.000000
 -0.073737  0.170289  0.075258      1.000000
 -0.036869  0.149002  0.060206      1.000000
 -0.000000 -0.085144  0.120412      1.000000
  0.036869 -0.106430  0.105361      1.000000
  0.073737 -0.127716  0.090309      1.000000
  0.110606 -0.149002  0.075258      1.000000
 -0.073737 -0.042572  0.150515      1.000000
 -0.036869 -0.063858  0.135464      1.000000
 -0.000000 -0.042572  0.105361      1.000000
  0.036869 -0.063858  0.090309      1.000000
  0.073737 -0.085144  0.075258      1.000000
  0.110606 -0.106430  0.060206      1.000000
 -0.073737 -0.000000  0.135464      1.000000
 -0.036869 -0.021286  0.120412      1.000000
 -0.000000  0.000000  0.135464      1.000000
  0.036869 -0.021286  0.120412      1.000000
  0.073737 -0.042572  0.105361      1.000000
  0.110606 -0.063858  0.090309      1.000000
 -0.073737  0.042572  0.165567      1.000000
 -0.036869  0.021286  0.150515      1.000000
 -0.000000  0.042572  0.120412      1.000000
  0.036869  0.021286  0.105361      1.000000
  0.073737  0.000000  0.090309      1.000000
  0.110606 -0.021286  0.075258      1.000000
 -0.073737  0.085144  0.150515      1.000000
 -0.036869  0.063858  0.135464      1.000000
 -0.000000  0.085144  0.105361      1.000000
  0.036869  0.063858  0.090309      1.000000
  0.073737  0.042572  0.075258      1.000000
  0.110606  0.021286  0.060206      1.000000
 -0.073737  0.127716  0.135464      1.000000
 -0.036869  0.106430  0.120412      1.000000
 -0.000000  0.127716  0.090309      1.000000
  0.036869  0.106430  0.075258      1.000000
  0.073737  0.085144  0.060206      1.000000
  0.110606  0.063858  0.045155      1.000000
 -0.073737  0.170289  0.120412      1.000000
 -0.036869  0.149002  0.105361      1.000000
 -0.000000 -0.085144  0.165567      1.000000
  0.036869 -0.106430  0.150515      1.000000
  0.073737 -0.127716  0.135464      1.000000
  0.110606 -0.149002  0.120412      1.000000
 -0.073737 -0.042572  0.195670      1.000000
 -0.036869 -0.063858  0.180618      1.000000
 -0.000000 -0.042572  0.150515      1.000000
  0.036869 -0.063858  0.135464      1.000000
  0.073737 -0.085144  0.120412      1.000000
  0.110606 -0.106430  0.105361      1.000000
 -0.073737 -0.000000  0.180618      1.000000
 -0.036869 -0.021286  0.165567      1.000000
  0.000000 -0.000000 -0.090309      1.000000
  0.036869 -0.021286 -0.105361      1.000000
  0.073737 -0.042572 -0.120412      1.000000
  0.110606 -0.063858 -0.135464      1.000000
 -0.073737  0.042572 -0.060206      1.000000
 -0.036869  0.021286 -0.075258      1.000000
  0.000000  0.042572 -0.105361      1.000000
  0.036869  0.021286 -0.120412      1.000000
  0.073737  0.000000 -0.135464      1.000000
  0.110606 -0.021286 -0.150515      1.000000
 -0.073737  0.085144 -0.075258      1.000000
 -0.036869  0.063858 -0.090309      1.000000
  0.000000  0.085144 -0.120412      1.000000
  0.036869  0.063858 -0.135464      1.000000
  0.073737  0.042572 -0.150515      1.000000
  0.110606  0.021286 -0.165567      1.000000
 -0.073737  0.127716 -0.090309      1.000000
 -0.036869  0.106430 -0.105361      1.000000
  0.000000  0.127716 -0.135464      1.000000
  0.036869  0.106430 -0.150515      1.000000
  0.073737  0.085144 -0.165567      1.000000
  0.110606  0.063858 -0.180618      1.000000
 -0.073737  0.170289 -0.105361      1.000000
 -0.036869  0.149002 -0.120412      1.000000
  0.000000 -0.085144 -0.060206      1.000000
  0.036869 -0.106430 -0.075258      1.000000
  0.073737 -0.127716 -0.090309      1.000000
  0.110606 -0.149002 -0.105361      1.000000
 -0.073737 -0.042572 -0.030103      1.000000
 -0.036869 -0.063858 -0.045155      1.000000
  0.000000 -0.042572 -0.075258      1.000000
  0.036869 -0.063858 -0.090309      1.000000
  0.073737 -0.085144 -0.105361      1.000000
  0.110606 -0.106430 -0.120412      1.000000
 -0.073737 -0.000000 -0.045155      1.000000
 -0.036869 -0.021286 -0.060206      1.000000
  0.000000 -0.000000 -0.045155      1.000000
  0.036869 -0.021286 -0.060206      1.000000
  0.073737 -0.042572 -0.075258      1.000000
  0.110606 -0.063858 -0.090309      1.000000
 -0.073737  0.042572 -0.015052      1.000000
 -0.036869  0.021286 -0.030103      1.000000
  0.000000  0.042572 -0.060206      1.000000
  0.036869  0.021286 -0.075258      1.000000
  0.073737  0.000000 -0.090309      1.000000
  0.110606 -0.021286 -0.105361      1.000000
 -0.073737  0.085144 -0.030103      1.000000
 -0.036869  0.063858 -0.045155      1.000000
  0.000000  0.085144 -0.075258      1.000000
  0.036869  0.063858 -0.090309      1.000000
  0.073737  0.042572 -0.105361      1.000000
  0.110606  0.021286 -0.120412      1.000000
 -0.073737  0.127716 -0.045155      1.000000
 -0.036869  0.106430 -0.060206      1.000000
  0.000000  0.127716 -0.090309      1.000000
  0.036869  0.106430 -0.105361      1.000000
  0.073737  0.085144 -0.120412      1.000000
  0.110606  0.063858 -0.135464      1.000000
 -0.073737  0.170289 -0.060206      1.000000
 -0.036869  0.149002 -0.075258      1.000000
  0.000000 -0.085144 -0.015052      1.000000
  0.036869 -0.106430 -0.030103      1.000000
  0.073737 -0.127716 -0.045155      1.000000
  0.110606 -0.149002 -0.060206      1.000000
 -0.073737 -0.042572  0.015052      1.000000
 -0.036869 -0.063858 -0.000000      1.000000
  0.000000 -0.042572 -0.030103      1.000000
  0.036869 -0.063858 -0.045155      1.000000
  0.073737 -0.085144 -0.060206      1.000000
  0.110606 -0.106430 -0.075258      1.000000
 -0.073737 -0.000000 -0.000000      1.000000
 -0.036869 -0.021286 -0.015052      1.000000
 
 
 Subroutine IBZKPT_HF returns following result:
 ==============================================
 
 Found    216 k-points in 1st BZ
 the following    216 k-points will be used (e.g. in the exchange kernel)
 Following reciprocal coordinates:   # in IRBZ
  0.000000  0.000000  0.000000    0.00462963   1 t-inv F
  0.166667  0.000000  0.000000    0.00462963   2 t-inv F
  0.333333  0.000000  0.000000    0.00462963   3 t-inv F
  0.500000  0.000000  0.000000    0.00462963   4 t-inv F
 -0.333333 -0.000000 -0.000000    0.00462963   5 t-inv F
 -0.166667 -0.000000 -0.000000    0.00462963   6 t-inv F
  0.000000  0.166667 -0.000000    0.00462963   7 t-inv F
  0.166667  0.166667  0.000000    0.00462963   8 t-inv F
  0.333333  0.166667  0.000000    0.00462963   9 t-inv F
  0.500000  0.166667  0.000000    0.00462963  10 t-inv F
 -0.333333  0.166667 -0.000000    0.00462963  11 t-inv F
 -0.166667  0.166667 -0.000000    0.00462963  12 t-inv F
  0.000000  0.333333  0.000000    0.00462963  13 t-inv F
  0.166667  0.333333  0.000000    0.00462963  14 t-inv F
  0.333333  0.333333  0.000000    0.00462963  15 t-inv F
  0.500000  0.333333  0.000000    0.00462963  16 t-inv F
 -0.333333  0.333333 -0.000000    0.00462963  17 t-inv F
 -0.166667  0.333333 -0.000000    0.00462963  18 t-inv F
  0.000000  0.500000  0.000000    0.00462963  19 t-inv F
  0.166667  0.500000  0.000000    0.00462963  20 t-inv F
  0.333333  0.500000  0.000000    0.00462963  21 t-inv F
  0.500000  0.500000  0.000000    0.00462963  22 t-inv F
 -0.333333  0.500000 -0.000000    0.00462963  23 t-inv F
 -0.166667  0.500000 -0.000000    0.00462963  24 t-inv F
  0.000000 -0.333333  0.000000    0.00462963  25 t-inv F
  0.166667 -0.333333  0.000000    0.00462963  26 t-inv F
  0.333333 -0.333333  0.000000    0.00462963  27 t-inv F
  0.500000 -0.333333  0.000000    0.00462963  28 t-inv F
 -0.333333 -0.333333 -0.000000    0.00462963  29 t-inv F
 -0.166667 -0.333333 -0.000000    0.00462963  30 t-inv F
  0.000000 -0.166667  0.000000    0.00462963  31 t-inv F
  0.166667 -0.166667  0.000000    0.00462963  32 t-inv F
  0.333333 -0.166667  0.000000    0.00462963  33 t-inv F
  0.500000 -0.166667  0.000000    0.00462963  34 t-inv F
 -0.333333 -0.166667 -0.000000    0.00462963  35 t-inv F
 -0.166667 -0.166667 -0.000000    0.00462963  36 t-inv F
  0.000000 -0.000000  0.166667    0.00462963  37 t-inv F
  0.166667  0.000000  0.166667    0.00462963  38 t-inv F
  0.333333  0.000000  0.166667    0.00462963  39 t-inv F
  0.500000  0.000000  0.166667    0.00462963  40 t-inv F
 -0.333333 -0.000000  0.166667    0.00462963  41 t-inv F
 -0.166667 -0.000000  0.166667    0.00462963  42 t-inv F
  0.000000  0.166667  0.166667    0.00462963  43 t-inv F
  0.166667  0.166667  0.166667    0.00462963  44 t-inv F
  0.333333  0.166667  0.166667    0.00462963  45 t-inv F
  0.500000  0.166667  0.166667    0.00462963  46 t-inv F
 -0.333333  0.166667  0.166667    0.00462963  47 t-inv F
 -0.166667  0.166667  0.166667    0.00462963  48 t-inv F
  0.000000  0.333333  0.166667    0.00462963  49 t-inv F
  0.166667  0.333333  0.166667    0.00462963  50 t-inv F
  0.333333  0.333333  0.166667    0.00462963  51 t-inv F
  0.500000  0.333333  0.166667    0.00462963  52 t-inv F
 -0.333333  0.333333  0.166667    0.00462963  53 t-inv F
 -0.166667  0.333333  0.166667    0.00462963  54 t-inv F
  0.000000  0.500000  0.166667    0.00462963  55 t-inv F
  0.166667  0.500000  0.166667    0.00462963  56 t-inv F
  0.333333  0.500000  0.166667    0.00462963  57 t-inv F
  0.500000  0.500000  0.166667    0.00462963  58 t-inv F
 -0.333333  0.500000  0.166667    0.00462963  59 t-inv F
 -0.166667  0.500000  0.166667    0.00462963  60 t-inv F
 -0.000000 -0.333333  0.166667    0.00462963  61 t-inv F
  0.166667 -0.333333  0.166667    0.00462963  62 t-inv F
  0.333333 -0.333333  0.166667    0.00462963  63 t-inv F
  0.500000 -0.333333  0.166667    0.00462963  64 t-inv F
 -0.333333 -0.333333  0.166667    0.00462963  65 t-inv F
 -0.166667 -0.333333  0.166667    0.00462963  66 t-inv F
 -0.000000 -0.166667  0.166667    0.00462963  67 t-inv F
  0.166667 -0.166667  0.166667    0.00462963  68 t-inv F
  0.333333 -0.166667  0.166667    0.00462963  69 t-inv F
  0.500000 -0.166667  0.166667    0.00462963  70 t-inv F
 -0.333333 -0.166667  0.166667    0.00462963  71 t-inv F
 -0.166667 -0.166667  0.166667    0.00462963  72 t-inv F
 -0.000000 -0.000000  0.333333    0.00462963  73 t-inv F
  0.166667  0.000000  0.333333    0.00462963  74 t-inv F
  0.333333  0.000000  0.333333    0.00462963  75 t-inv F
  0.500000  0.000000  0.333333    0.00462963  76 t-inv F
 -0.333333 -0.000000  0.333333    0.00462963  77 t-inv F
 -0.166667 -0.000000  0.333333    0.00462963  78 t-inv F
 -0.000000  0.166667  0.333333    0.00462963  79 t-inv F
  0.166667  0.166667  0.333333    0.00462963  80 t-inv F
  0.333333  0.166667  0.333333    0.00462963  81 t-inv F
  0.500000  0.166667  0.333333    0.00462963  82 t-inv F
 -0.333333  0.166667  0.333333    0.00462963  83 t-inv F
 -0.166667  0.166667  0.333333    0.00462963  84 t-inv F
 -0.000000  0.333333  0.333333    0.00462963  85 t-inv F
  0.166667  0.333333  0.333333    0.00462963  86 t-inv F
  0.333333  0.333333  0.333333    0.00462963  87 t-inv F
  0.500000  0.333333  0.333333    0.00462963  88 t-inv F
 -0.333333  0.333333  0.333333    0.00462963  89 t-inv F
 -0.166667  0.333333  0.333333    0.00462963  90 t-inv F
  0.000000  0.500000  0.333333    0.00462963  91 t-inv F
  0.166667  0.500000  0.333333    0.00462963  92 t-inv F
  0.333333  0.500000  0.333333    0.00462963  93 t-inv F
  0.500000  0.500000  0.333333    0.00462963  94 t-inv F
 -0.333333  0.500000  0.333333    0.00462963  95 t-inv F
 -0.166667  0.500000  0.333333    0.00462963  96 t-inv F
 -0.000000 -0.333333  0.333333    0.00462963  97 t-inv F
  0.166667 -0.333333  0.333333    0.00462963  98 t-inv F
  0.333333 -0.333333  0.333333    0.00462963  99 t-inv F
  0.500000 -0.333333  0.333333    0.00462963 100 t-inv F
 -0.333333 -0.333333  0.333333    0.00462963 101 t-inv F
 -0.166667 -0.333333  0.333333    0.00462963 102 t-inv F
 -0.000000 -0.166667  0.333333    0.00462963 103 t-inv F
  0.166667 -0.166667  0.333333    0.00462963 104 t-inv F
  0.333333 -0.166667  0.333333    0.00462963 105 t-inv F
  0.500000 -0.166667  0.333333    0.00462963 106 t-inv F
 -0.333333 -0.166667  0.333333    0.00462963 107 t-inv F
 -0.166667 -0.166667  0.333333    0.00462963 108 t-inv F
 -0.000000 -0.000000  0.500000    0.00462963 109 t-inv F
  0.166667  0.000000  0.500000    0.00462963 110 t-inv F
  0.333333  0.000000  0.500000    0.00462963 111 t-inv F
  0.500000  0.000000  0.500000    0.00462963 112 t-inv F
 -0.333333 -0.000000  0.500000    0.00462963 113 t-inv F
 -0.166667 -0.000000  0.500000    0.00462963 114 t-inv F
 -0.000000  0.166667  0.500000    0.00462963 115 t-inv F
  0.166667  0.166667  0.500000    0.00462963 116 t-inv F
  0.333333  0.166667  0.500000    0.00462963 117 t-inv F
  0.500000  0.166667  0.500000    0.00462963 118 t-inv F
 -0.333333  0.166667  0.500000    0.00462963 119 t-inv F
 -0.166667  0.166667  0.500000    0.00462963 120 t-inv F
 -0.000000  0.333333  0.500000    0.00462963 121 t-inv F
  0.166667  0.333333  0.500000    0.00462963 122 t-inv F
  0.333333  0.333333  0.500000    0.00462963 123 t-inv F
  0.500000  0.333333  0.500000    0.00462963 124 t-inv F
 -0.333333  0.333333  0.500000    0.00462963 125 t-inv F
 -0.166667  0.333333  0.500000    0.00462963 126 t-inv F
 -0.000000  0.500000  0.500000    0.00462963 127 t-inv F
  0.166667  0.500000  0.500000    0.00462963 128 t-inv F
  0.333333  0.500000  0.500000    0.00462963 129 t-inv F
  0.500000  0.500000  0.500000    0.00462963 130 t-inv F
 -0.333333  0.500000  0.500000    0.00462963 131 t-inv F
 -0.166667  0.500000  0.500000    0.00462963 132 t-inv F
  0.000000 -0.333333  0.500000    0.00462963 133 t-inv F
  0.166667 -0.333333  0.500000    0.00462963 134 t-inv F
  0.333333 -0.333333  0.500000    0.00462963 135 t-inv F
  0.500000 -0.333333  0.500000    0.00462963 136 t-inv F
 -0.333333 -0.333333  0.500000    0.00462963 137 t-inv F
 -0.166667 -0.333333  0.500000    0.00462963 138 t-inv F
  0.000000 -0.166667  0.500000    0.00462963 139 t-inv F
  0.166667 -0.166667  0.500000    0.00462963 140 t-inv F
  0.333333 -0.166667  0.500000    0.00462963 141 t-inv F
  0.500000 -0.166667  0.500000    0.00462963 142 t-inv F
 -0.333333 -0.166667  0.500000    0.00462963 143 t-inv F
 -0.166667 -0.166667  0.500000    0.00462963 144 t-inv F
  0.000000  0.000000 -0.333333    0.00462963 145 t-inv F
  0.166667  0.000000 -0.333333    0.00462963 146 t-inv F
  0.333333  0.000000 -0.333333    0.00462963 147 t-inv F
  0.500000  0.000000 -0.333333    0.00462963 148 t-inv F
 -0.333333 -0.000000 -0.333333    0.00462963 149 t-inv F
 -0.166667 -0.000000 -0.333333    0.00462963 150 t-inv F
  0.000000  0.166667 -0.333333    0.00462963 151 t-inv F
  0.166667  0.166667 -0.333333    0.00462963 152 t-inv F
  0.333333  0.166667 -0.333333    0.00462963 153 t-inv F
  0.500000  0.166667 -0.333333    0.00462963 154 t-inv F
 -0.333333  0.166667 -0.333333    0.00462963 155 t-inv F
 -0.166667  0.166667 -0.333333    0.00462963 156 t-inv F
  0.000000  0.333333 -0.333333    0.00462963 157 t-inv F
  0.166667  0.333333 -0.333333    0.00462963 158 t-inv F
  0.333333  0.333333 -0.333333    0.00462963 159 t-inv F
  0.500000  0.333333 -0.333333    0.00462963 160 t-inv F
 -0.333333  0.333333 -0.333333    0.00462963 161 t-inv F
 -0.166667  0.333333 -0.333333    0.00462963 162 t-inv F
  0.000000  0.500000 -0.333333    0.00462963 163 t-inv F
  0.166667  0.500000 -0.333333    0.00462963 164 t-inv F
  0.333333  0.500000 -0.333333    0.00462963 165 t-inv F
  0.500000  0.500000 -0.333333    0.00462963 166 t-inv F
 -0.333333  0.500000 -0.333333    0.00462963 167 t-inv F
 -0.166667  0.500000 -0.333333    0.00462963 168 t-inv F
  0.000000 -0.333333 -0.333333    0.00462963 169 t-inv F
  0.166667 -0.333333 -0.333333    0.00462963 170 t-inv F
  0.333333 -0.333333 -0.333333    0.00462963 171 t-inv F
  0.500000 -0.333333 -0.333333    0.00462963 172 t-inv F
 -0.333333 -0.333333 -0.333333    0.00462963 173 t-inv F
 -0.166667 -0.333333 -0.333333    0.00462963 174 t-inv F
  0.000000 -0.166667 -0.333333    0.00462963 175 t-inv F
  0.166667 -0.166667 -0.333333    0.00462963 176 t-inv F
  0.333333 -0.166667 -0.333333    0.00462963 177 t-inv F
  0.500000 -0.166667 -0.333333    0.00462963 178 t-inv F
 -0.333333 -0.166667 -0.333333    0.00462963 179 t-inv F
 -0.166667 -0.166667 -0.333333    0.00462963 180 t-inv F
  0.000000  0.000000 -0.166667    0.00462963 181 t-inv F
  0.166667  0.000000 -0.166667    0.00462963 182 t-inv F
  0.333333  0.000000 -0.166667    0.00462963 183 t-inv F
  0.500000  0.000000 -0.166667    0.00462963 184 t-inv F
 -0.333333 -0.000000 -0.166667    0.00462963 185 t-inv F
 -0.166667 -0.000000 -0.166667    0.00462963 186 t-inv F
  0.000000  0.166667 -0.166667    0.00462963 187 t-inv F
  0.166667  0.166667 -0.166667    0.00462963 188 t-inv F
  0.333333  0.166667 -0.166667    0.00462963 189 t-inv F
  0.500000  0.166667 -0.166667    0.00462963 190 t-inv F
 -0.333333  0.166667 -0.166667    0.00462963 191 t-inv F
 -0.166667  0.166667 -0.166667    0.00462963 192 t-inv F
  0.000000  0.333333 -0.166667    0.00462963 193 t-inv F
  0.166667  0.333333 -0.166667    0.00462963 194 t-inv F
  0.333333  0.333333 -0.166667    0.00462963 195 t-inv F
  0.500000  0.333333 -0.166667    0.00462963 196 t-inv F
 -0.333333  0.333333 -0.166667    0.00462963 197 t-inv F
 -0.166667  0.333333 -0.166667    0.00462963 198 t-inv F
 -0.000000  0.500000 -0.166667    0.00462963 199 t-inv F
  0.166667  0.500000 -0.166667    0.00462963 200 t-inv F
  0.333333  0.500000 -0.166667    0.00462963 201 t-inv F
  0.500000  0.500000 -0.166667    0.00462963 202 t-inv F
 -0.333333  0.500000 -0.166667    0.00462963 203 t-inv F
 -0.166667  0.500000 -0.166667    0.00462963 204 t-inv F
 -0.000000 -0.333333 -0.166667    0.00462963 205 t-inv F
  0.166667 -0.333333 -0.166667    0.00462963 206 t-inv F
  0.333333 -0.333333 -0.166667    0.00462963 207 t-inv F
  0.500000 -0.333333 -0.166667    0.00462963 208 t-inv F
 -0.333333 -0.333333 -0.166667    0.00462963 209 t-inv F
 -0.166667 -0.333333 -0.166667    0.00462963 210 t-inv F
 -0.000000 -0.166667 -0.166667    0.00462963 211 t-inv F
  0.166667 -0.166667 -0.166667    0.00462963 212 t-inv F
  0.333333 -0.166667 -0.166667    0.00462963 213 t-inv F
  0.500000 -0.166667 -0.166667    0.00462963 214 t-inv F
 -0.333333 -0.166667 -0.166667    0.00462963 215 t-inv F
 -0.166667 -0.166667 -0.166667    0.00462963 216 t-inv F


--------------------------------------------------------------------------------------------------------




 Dimension of arrays:
   k-points           NKPTS =    216   k-points in BZ     NKDIM =    216   number of bands    NBANDS=    128
   number of dos      NEDOS =    301   number of ions     NIONS =      1
   non local maximal  LDIM  =     10   non local SUM 2l+1 LMDIM =     40
   total plane-waves  NPLWV =  21952
   max r-space proj   IRMAX =      1   max aug-charges    IRDMAX=  91868
   dimension x,y,z NGX =    28 NGY =   28 NGZ =   28
   dimension x,y,z NGXF=    56 NGYF=   56 NGZF=   56
   support grid    NGXF=   112 NGYF=  112 NGZF=  112
   ions per type =               1
   NGX,Y,Z   is equivalent  to a cutoff of  10.54, 10.54, 10.54 a.u.
   NGXF,Y,Z  is equivalent  to a cutoff of  21.09, 21.09, 21.09 a.u.

 SYSTEM =  Og_FCC                                  
 POSCAR =  Rn_FCC                                  

 Startparameter for this run:
   NWRITE =      1    write-flag & timer
   PREC   = accura    normal or accurate (medium, high low for compatibility)
   ISTART =      1    job   : 0-new  1-cont  2-samecut
   ICHARG =      0    charge: 1-file 2-atom 10-const
   ISPIN  =      1    spin polarized calculation?
   LNONCOLLINEAR =      T non collinear calculations
   LSORBIT =      T    spin-orbit coupling
   INIWAV =      1    electr: 0-lowe 1-rand  2-diag
   LASPH  =      F    aspherical Exc in radial PAW
   METAGGA=      F    non-selfconsistent MetaGGA calc.

 Electronic Relaxation 1
   ENCUT  =  300.0 eV  22.05 Ry    4.70 a.u.   6.23  6.23  6.23*2*pi/ulx,y,z
   ENINI  =  300.0     initial cutoff
   ENAUG  =  813.3 eV  augmentation charge cutoff
   NELM   =      1;   NELMIN=  2; NELMDL=  0     # of ELM steps 
   EDIFF  = 0.1E-07   stopping-criterion for ELM
   LREAL  =      F    real-space projection
   NLSPLINE    = F    spline interpolate recip. space projectors
   LCOMPAT=      F    compatible to vasp.4.4
   GGA_COMPAT  = F    GGA compatible to vasp.4.4-vasp.4.6
   LMAXPAW     = -100 max onsite density
   LMAXMIX     =    2 max onsite mixed and CHGCAR
   VOSKOWN=      0    Vosko Wilk Nusair interpolation
   ROPT   =    0.00000
 Ionic relaxation
   EDIFFG = 0.1E-04   stopping-criterion for IOM
   NSW    =      1    number of steps for IOM
   NBLOCK =      1;   KBLOCK =      1    inner block; outer block 
   IBRION =     -1    ionic relax: 0-MD 1-quasi-New 2-CG
   NFREE  =      5    steps in history (QN), initial steepest desc. (CG)
   ISIF   =      3    stress and relaxation
   IWAVPR =     10    prediction:  0-non 1-charg 2-wave 3-comb
   ISYM   =      0    0-nonsym 1-usesym 2-fastsym
   LCORR  =      T    Harris-Foulkes like correction to forces

   POTIM  = 0.1000    time-step for ionic-motion
   TEIN   =    0.0    initial temperature
   TEBEG  =    0.0;   TEEND  =   0.0 temperature during run
   SMASS  =  -3.00    Nose mass-parameter (am)
   estimated Nose-frequenzy (Omega)   =  0.10E-29 period in steps =****** mass=  -0.445E-27a.u.
   SCALEE = 1.0000    scale energy and forces
   NPACO  =    256;   APACO  = 16.0  distance and # of slots for P.C.
   PSTRESS=    0.0 pullay stress

  Mass of Ions in am
   POMASS =  22.02
  Ionic Valenz
   ZVAL   =  26.00
  Atomic Wigner-Seitz radii
   RWIGS  =  -1.00
  virtual crystal weights 
   VCA    =   1.00
   NELECT =      26.0000    total number of electrons
   NUPDOWN=      -1.0000    fix difference up-down

 DOS related values:
   EMIN   =  10.00;   EMAX   =-10.00  energy-range for DOS
   EFERMI =   0.00
   ISMEAR =     0;   SIGMA  =   0.02  broadening in eV -4-tet -1-fermi 0-gaus

 Electronic relaxation 2 (details)
   IALGO  =     38    algorithm
   LDIAG  =      T    sub-space diagonalisation (order eigenvalues)
   LSUBROT=      F    optimize rotation matrix (better conditioning)
   TURBO    =      0    0=normal 1=particle mesh
   IRESTART =      0    0=no restart 2=restart with 2 vectors
   NREBOOT  =      0    no. of reboots
   NMIN     =      0    reboot dimension
   EREF     =   0.00    reference energy to select bands
   IMIX   =      1    mixing-type and parameters
     AMIX     =   0.40;   BMIX     =  1.00
     AMIX_MAG =   1.60;   BMIX_MAG =  1.00
     AMIN     =   0.10
     WC   =   100.;   INIMIX=   1;  MIXPRE=   1;  MAXMIX=  50

 Intra band minimization:
   WEIMIN = 0.0000     energy-eigenvalue tresh-hold
   EBREAK =  0.20E-10  absolut break condition
   DEPER  =   0.30     relativ break condition  

   TIME   =   0.40     timestep for ELM

  volume/ion in A,a.u.               =      60.83       410.53
  Fermi-wavevector in a.u.,A,eV,Ry     =   1.233148  2.330312 20.689765  1.520655
  Thomas-Fermi vector in A             =   2.367890
 
 Write flags
   LWAVE        =      T    write WAVECAR
   LDOWNSAMPLE  =      F    k-point downsampling of WAVECAR
   LCHARG       =      F    write CHGCAR
   LVTOT        =      F    write LOCPOT, total local potential
   LVHAR        =      F    write LOCPOT, Hartree potential only
   LELF         =      F    write electronic localiz. function (ELF)
   LORBIT       =      0    0 simple, 1 ext, 2 COOP (PROOUT), +10 PAW based schemes


 Dipole corrections
   LMONO  =      F    monopole corrections only (constant potential shift)
   LDIPOL =      F    correct potential (dipole corrections)
   IDIPOL =      0    1-x, 2-y, 3-z, 4-all directions 
   EPSILON=  1.0000000 bulk dielectric constant

 Exchange correlation treatment:
   GGA     =    PE    GGA type
   LEXCH   =     8    internal setting for exchange type
   VOSKOWN=      0    Vosko Wilk Nusair interpolation
   EXXOEP  =     0    0=HF, 1=EXX-LHF (local Hartree Fock) 2=EXX OEP
   LHFCALC =     T    Hartree Fock is set to
   LSYMGRAD=     F    symmetrize gradient (conserves proper symmetry)
   PRECFOCK=normal    Normal, Fast or Accurate (Low or Medium for compatibility)
   LRHFCALC=     F    long range Hartree Fock
   LRSCOR  =     F    long range correlation only (use DFT for short range part)
   LTHOMAS =     F    Thomas Fermi screening in HF
   LMODELHF=     F    short range full HF, long range fraction AEXX
   ENCUT4O =  -1.0   cutoff for four orbital integrals eV
   LMAXFOCK=     4    L truncation for augmentation on plane wave grid
   LMAXFOCKAE=   4    L truncation for all-electron charge restoration on plane wave grid
   NMAXFOCKAE=   1    number of basis functions for all-electron charge restoration
   LFOCKAEDFT=     F  apply the AE augmentation even for DFT
   NKREDX  =     1    reduce k-point grid by
   NKREDY  =     1    reduce k-point grid by
   NKREDZ  =     1    reduce k-point grid by
   SHIFTRED=     F    shift reduced grid of Gamma
   HFKIDENT=     F    idential grid for each k-point
   ODDONLY =     F    use only odd q-grid points
   EVENONLY=     F    use only even q-grid points
   HFALPHA =   -1.0000 decay constant for conv. correction
   MCALPHA =    0.0000 extent of test-charge in conv. correction in multipole expansion
   AEXX    =    1.0000 exact exchange contribution
   HFSCREEN=    0.0000 screening length (either q_TF or 0.3 A-1)
   HFSCREENC=   0.0000 screening length for correlation (either q_TF or 0.3 A-1)
   HFRCUT  =    0.0000 spherical cutoff for potential kernel
   ALDAX   =    0.0000 LDA exchange part
   AGGAX   =    0.0000 GGA exchange part
   ALDAC   =    0.0000 LDA correlation
   AGGAC   =    0.0000 GGA correlation
   ENCUTFOCK=  -1.0 apply spherical cutoff to Coloumb kernel
   NBANDSGWLOW=     1    first orbital included in HF term
   NBLOCK_FOCK=    64    blocking factor in FOCK_ACC
 Linear response parameters
   LEPSILON=     F    determine dielectric tensor
   LRPA    =     F    only Hartree local field effects (RPA)
   LNABLA  =     F    use nabla operator in PAW spheres
   LVEL    =     F    velocity operator in full k-point grid
   LINTERFAST=   F  fast interpolation
   KINTER  =     0    interpolate to denser k-point grid
   CSHIFT  =0.1000    complex shift for real part using Kramers Kronig
   OMEGAMAX=  -1.0    maximum frequency
   DEG_THRESHOLD= 0.2000000E-02 threshold for treating states as degnerate
   RTIME   =   -0.100 relaxation time in fs
  (WPLASMAI=    0.000 imaginary part of plasma frequency in eV, 0.658/RTIME)
   DFIELD  = 0.0000000 0.0000000 0.0000000 field for delta impulse in time
 
 Orbital magnetization related:
   ORBITALMAG=     F  switch on orbital magnetization
   LCHIMAG   =     F  perturbation theory with respect to B field
   DQ        =  0.001000  dq finite difference perturbation B field
   LLRAUG    =     F  two centre corrections for induced B field

 Response functions by sum over occupied states:
   ALGO    =QPGW       execute GW part
   LFXC    =     F    include DFT xc kernel in TD-HF and W
   LADDER  =     F    particle hole ladder diagrams for BSE/TD-HF and W (Nano-quanta)
   LRPAFORCE=     F   calculate RPA forces
   LHARTREE=     T    include Hartree terms (bubbles-RPA) in BSE/TD-HF
   IBSE    =     0    BSE modus: 0 exact, 1 time-evolution (store matrix), 10 time-evolution (implicit)
   KPOINT  =    -1   0   0   0    k-point index at which BSE equation is solved (and G at which response is eval.)
   LTRIPLET=     F    triplet instead of singlet excitation (BSE only)
   LRSRPA  =     F    range separated RPA (total - short) in ACFDT
   LTCTE   =     F    use test-charge test-electron dielectric function
   LTETE   =     F    use test-electron test-electron dielectric function
   LFXCEPS =     F    determine f_xc=epsilon-1/Xi Sharma and Gross kernel
   LFXHEG  =     F    model exchange using f_x(G,k_F) from free electron gas
   NATURALO=     2    0 natural orbitals, 1 only virtual, 2 only occupied-virtual rotation
   L2ORDER =     F    2nd order terms only
   LMP2LT   =     F    use LT MP2
   LUSEW   =     F    use screened W from WXXXX.tmp files instead of (screened) HF kernel
   ENCUTGW = 200.0    cutoff for response function in eV
   ENCUTGWSOFT = 200.0 soft cutoff for Coulomb kernel in GW response function in eV
   ENCUTLF =  -1.0    cutoff for local field effects
   LMAXMP2 =    -1    maximum L for one center terms
   SCISSOR =   0.0    scissor correction
   NOMEGA  =    50    number of frequencies
   NOMEGAR =    50    number of frequencies along real axis
   NBANDSGW=    -1    number of bands for which selfenergy shift is calculated
   NBANDSGWLOW=     1 lowest band included in GW (to exclude core correlation)
   NBANDSO =    -1    number of bands for electron-hole treatment (occupied)
   NBANDSV =    -1    number of bands for electron-hole treatment (virtual)
   NELM    =     1    number of iterations in solving QP/BSE equation
   NELMHF  =     1    number of iterations in the inner HF iteration
   DIM     =     3    dimensionality of system (0=0D molecules, 3=3D)
   ANTIRES =     0    antiresonant part (0) no TDA (1) w=0 exact (2) accurate
   OMEGAMAX= -30.0    maximum frequency
   OMEGAMIN= -30.000    minimum frequency
   OMEGATL =-200.0    maximum frequency of tail
   OMEGAGRID=     0    grid type (0 default)
   CSHIFT  =-0.100    complex shift used in evaluation of response functions
   SELFENERGY=   F    calculate selfenergy instead of QP shifts
   LSPECTRAL =   T    use spectral functions                   
   LSPECTRALGW=   F   use spectral functions to calculate int dz G(w-z) W(z) (more accurate)
   LSINGLES  =   F   calculate the singles contribution to the correlation energy
   LFERMIGW  =   F   update Fermi-energy in the Greens function

   ODDONLYGW =   F    avoid all even points for polarizability 
   EVENONLYGW=   F    avoid all odd  points for polarizability 
   NKREDLFX  =   1   NKREDLFY  =   1   NKREDLFZ  =   1

   TELESCOPE =   0   use telescope k-point sampling
   TAUPAR    =   1   number of TAU groups used in imaginary time calculation
   OMEGAPAR  =  -1   number of OMEGA groups used in imaginary frequency calculation



--------------------------------------------------------------------------------------------------------


 Static calculation
 charge density and potential will be updated during run
 non collinear spin polarized calculation
 Variant of blocked Davidson
 Davidson routine will perform the subspace rotation
 perform sub-space diagonalisation
    after iterative eigenvector-optimisation
 Kerker-like  mixing scheme
 using additional bands          115
 reciprocal scheme for non local part
 use partial core corrections
 calculate Harris-corrections to forces 
   (improved forces if not selfconsistent)
 use gradient corrections 
 use of overlap-Matrix (Vanderbilt PP)
 Gauss-broadening in eV      SIGMA  =   0.02


--------------------------------------------------------------------------------------------------------


  energy-cutoff  :      300.00
  volume of cell :       60.83
      direct lattice vectors                 reciprocal lattice vectors
     4.414575608  0.000000000  0.000000000     0.226522341 -0.130782734 -0.092477358
     2.207287804  3.823134623 -0.000000000     0.000000000  0.261565469 -0.092477358
     2.207287804  1.274378208  3.604485890    -0.000000000  0.000000000  0.277432075

  length of vectors
     4.414575608  4.414575608  4.414575608     0.277432075  0.277432075  0.277432075


 
 old parameters found on file WAVECAR:
  energy-cutoff  :      300.00
  volume of cell :       60.83
      direct lattice vectors                 reciprocal lattice vectors
     4.414575608  0.000000000  0.000000000     0.226522341 -0.130782734 -0.092477358
     2.207287804  3.823134623 -0.000000000     0.000000000  0.261565469 -0.092477358
     2.207287804  1.274378208  3.604485890    -0.000000000  0.000000000  0.277432075

  length of vectors

 
 k-points in units of 2pi/SCALE and weight: k-points                                
   0.00000000  0.00000000  0.00000000       0.005
   0.03686855 -0.02128607 -0.01505152       0.005
   0.07373710 -0.04257213 -0.03010304       0.005
   0.11060565 -0.06385820 -0.04515457       0.005
  -0.07373710  0.04257213  0.03010304       0.005
  -0.03686855  0.02128607  0.01505152       0.005
   0.00000000  0.04257213 -0.01505152       0.005
   0.03686855  0.02128607 -0.03010304       0.005
   0.07373710  0.00000000 -0.04515457       0.005
   0.11060565 -0.02128607 -0.06020609       0.005
  -0.07373710  0.08514427  0.01505152       0.005
  -0.03686855  0.06385820  0.00000000       0.005
   0.00000000  0.08514427 -0.03010304       0.005
   0.03686855  0.06385820 -0.04515457       0.005
   0.07373710  0.04257213 -0.06020609       0.005
   0.11060565  0.02128607 -0.07525761       0.005
  -0.07373710  0.12771640  0.00000000       0.005
  -0.03686855  0.10643034 -0.01505152       0.005
   0.00000000  0.12771640 -0.04515457       0.005
   0.03686855  0.10643034 -0.06020609       0.005
   0.07373710  0.08514427 -0.07525761       0.005
   0.11060565  0.06385820 -0.09030913       0.005
  -0.07373710  0.17028854 -0.01505152       0.005
  -0.03686855  0.14900247 -0.03010304       0.005
  -0.00000000 -0.08514427  0.03010304       0.005
   0.03686855 -0.10643034  0.01505152       0.005
   0.07373710 -0.12771640 -0.00000000       0.005
   0.11060565 -0.14900247 -0.01505152       0.005
  -0.07373710 -0.04257213  0.06020609       0.005
  -0.03686855 -0.06385820  0.04515457       0.005
  -0.00000000 -0.04257213  0.01505152       0.005
   0.03686855 -0.06385820 -0.00000000       0.005
   0.07373710 -0.08514427 -0.01505152       0.005
   0.11060565 -0.10643034 -0.03010304       0.005
  -0.07373710 -0.00000000  0.04515457       0.005
  -0.03686855 -0.02128607  0.03010304       0.005
  -0.00000000  0.00000000  0.04515457       0.005
   0.03686855 -0.02128607  0.03010304       0.005
   0.07373710 -0.04257213  0.01505152       0.005
   0.11060565 -0.06385820 -0.00000000       0.005
  -0.07373710  0.04257213  0.07525761       0.005
  -0.03686855  0.02128607  0.06020609       0.005
  -0.00000000  0.04257213  0.03010304       0.005
   0.03686855  0.02128607  0.01505152       0.005
   0.07373710  0.00000000  0.00000000       0.005
   0.11060565 -0.02128607 -0.01505152       0.005
  -0.07373710  0.08514427  0.06020609       0.005
  -0.03686855  0.06385820  0.04515457       0.005
  -0.00000000  0.08514427  0.01505152       0.005
   0.03686855  0.06385820  0.00000000       0.005
   0.07373710  0.04257213 -0.01505152       0.005
   0.11060565  0.02128607 -0.03010304       0.005
  -0.07373710  0.12771640  0.04515457       0.005
  -0.03686855  0.10643034  0.03010304       0.005
  -0.00000000  0.12771640  0.00000000       0.005
   0.03686855  0.10643034 -0.01505152       0.005
   0.07373710  0.08514427 -0.03010304       0.005
   0.11060565  0.06385820 -0.04515457       0.005
  -0.07373710  0.17028854  0.03010304       0.005
  -0.03686855  0.14900247  0.01505152       0.005
  -0.00000000 -0.08514427  0.07525761       0.005
   0.03686855 -0.10643034  0.06020609       0.005
   0.07373710 -0.12771640  0.04515457       0.005
   0.11060565 -0.14900247  0.03010304       0.005
  -0.07373710 -0.04257213  0.10536066       0.005
  -0.03686855 -0.06385820  0.09030913       0.005
  -0.00000000 -0.04257213  0.06020609       0.005
   0.03686855 -0.06385820  0.04515457       0.005
   0.07373710 -0.08514427  0.03010304       0.005
   0.11060565 -0.10643034  0.01505152       0.005
  -0.07373710 -0.00000000  0.09030913       0.005
  -0.03686855 -0.02128607  0.07525761       0.005
  -0.00000000  0.00000000  0.09030913       0.005
   0.03686855 -0.02128607  0.07525761       0.005
   0.07373710 -0.04257213  0.06020609       0.005
   0.11060565 -0.06385820  0.04515457       0.005
  -0.07373710  0.04257213  0.12041218       0.005
  -0.03686855  0.02128607  0.10536066       0.005
  -0.00000000  0.04257213  0.07525761       0.005
   0.03686855  0.02128607  0.06020609       0.005
   0.07373710  0.00000000  0.04515457       0.005
   0.11060565 -0.02128607  0.03010304       0.005
  -0.07373710  0.08514427  0.10536066       0.005
  -0.03686855  0.06385820  0.09030913       0.005
  -0.00000000  0.08514427  0.06020609       0.005
   0.03686855  0.06385820  0.04515457       0.005
   0.07373710  0.04257213  0.03010304       0.005
   0.11060565  0.02128607  0.01505152       0.005
  -0.07373710  0.12771640  0.09030913       0.005
  -0.03686855  0.10643034  0.07525761       0.005
  -0.00000000  0.12771640  0.04515457       0.005
   0.03686855  0.10643034  0.03010304       0.005
   0.07373710  0.08514427  0.01505152       0.005
   0.11060565  0.06385820  0.00000000       0.005
  -0.07373710  0.17028854  0.07525761       0.005
  -0.03686855  0.14900247  0.06020609       0.005
  -0.00000000 -0.08514427  0.12041218       0.005
   0.03686855 -0.10643034  0.10536066       0.005
   0.07373710 -0.12771640  0.09030913       0.005
   0.11060565 -0.14900247  0.07525761       0.005
  -0.07373710 -0.04257213  0.15051522       0.005
  -0.03686855 -0.06385820  0.13546370       0.005
  -0.00000000 -0.04257213  0.10536066       0.005
   0.03686855 -0.06385820  0.09030913       0.005
   0.07373710 -0.08514427  0.07525761       0.005
   0.11060565 -0.10643034  0.06020609       0.005
  -0.07373710 -0.00000000  0.13546370       0.005
  -0.03686855 -0.02128607  0.12041218       0.005
  -0.00000000  0.00000000  0.13546370       0.005
   0.03686855 -0.02128607  0.12041218       0.005
   0.07373710 -0.04257213  0.10536066       0.005
   0.11060565 -0.06385820  0.09030913       0.005
  -0.07373710  0.04257213  0.16556675       0.005
  -0.03686855  0.02128607  0.15051522       0.005
  -0.00000000  0.04257213  0.12041218       0.005
   0.03686855  0.02128607  0.10536066       0.005
   0.07373710  0.00000000  0.09030913       0.005
   0.11060565 -0.02128607  0.07525761       0.005
  -0.07373710  0.08514427  0.15051522       0.005
  -0.03686855  0.06385820  0.13546370       0.005
  -0.00000000  0.08514427  0.10536066       0.005
   0.03686855  0.06385820  0.09030913       0.005
   0.07373710  0.04257213  0.07525761       0.005
   0.11060565  0.02128607  0.06020609       0.005
  -0.07373710  0.12771640  0.13546370       0.005
  -0.03686855  0.10643034  0.12041218       0.005
  -0.00000000  0.12771640  0.09030913       0.005
   0.03686855  0.10643034  0.07525761       0.005
   0.07373710  0.08514427  0.06020609       0.005
   0.11060565  0.06385820  0.04515457       0.005
  -0.07373710  0.17028854  0.12041218       0.005
  -0.03686855  0.14900247  0.10536066       0.005
  -0.00000000 -0.08514427  0.16556675       0.005
   0.03686855 -0.10643034  0.15051522       0.005
   0.07373710 -0.12771640  0.13546370       0.005
   0.11060565 -0.14900247  0.12041218       0.005
  -0.07373710 -0.04257213  0.19566979       0.005
  -0.03686855 -0.06385820  0.18061827       0.005
  -0.00000000 -0.04257213  0.15051522       0.005
   0.03686855 -0.06385820  0.13546370       0.005
   0.07373710 -0.08514427  0.12041218       0.005
   0.11060565 -0.10643034  0.10536066       0.005
  -0.07373710 -0.00000000  0.18061827       0.005
  -0.03686855 -0.02128607  0.16556675       0.005
   0.00000000 -0.00000000 -0.09030913       0.005
   0.03686855 -0.02128607 -0.10536066       0.005
   0.07373710 -0.04257213 -0.12041218       0.005
   0.11060565 -0.06385820 -0.13546370       0.005
  -0.07373710  0.04257213 -0.06020609       0.005
  -0.03686855  0.02128607 -0.07525761       0.005
   0.00000000  0.04257213 -0.10536066       0.005
   0.03686855  0.02128607 -0.12041218       0.005
   0.07373710  0.00000000 -0.13546370       0.005
   0.11060565 -0.02128607 -0.15051522       0.005
  -0.07373710  0.08514427 -0.07525761       0.005
  -0.03686855  0.06385820 -0.09030913       0.005
   0.00000000  0.08514427 -0.12041218       0.005
   0.03686855  0.06385820 -0.13546370       0.005
   0.07373710  0.04257213 -0.15051522       0.005
   0.11060565  0.02128607 -0.16556675       0.005
  -0.07373710  0.12771640 -0.09030913       0.005
  -0.03686855  0.10643034 -0.10536066       0.005
   0.00000000  0.12771640 -0.13546370       0.005
   0.03686855  0.10643034 -0.15051522       0.005
   0.07373710  0.08514427 -0.16556675       0.005
   0.11060565  0.06385820 -0.18061827       0.005
  -0.07373710  0.17028854 -0.10536066       0.005
  -0.03686855  0.14900247 -0.12041218       0.005
   0.00000000 -0.08514427 -0.06020609       0.005
   0.03686855 -0.10643034 -0.07525761       0.005
   0.07373710 -0.12771640 -0.09030913       0.005
   0.11060565 -0.14900247 -0.10536066       0.005
  -0.07373710 -0.04257213 -0.03010304       0.005
  -0.03686855 -0.06385820 -0.04515457       0.005
   0.00000000 -0.04257213 -0.07525761       0.005
   0.03686855 -0.06385820 -0.09030913       0.005
   0.07373710 -0.08514427 -0.10536066       0.005
   0.11060565 -0.10643034 -0.12041218       0.005
  -0.07373710 -0.00000000 -0.04515457       0.005
  -0.03686855 -0.02128607 -0.06020609       0.005
   0.00000000 -0.00000000 -0.04515457       0.005
   0.03686855 -0.02128607 -0.06020609       0.005
   0.07373710 -0.04257213 -0.07525761       0.005
   0.11060565 -0.06385820 -0.09030913       0.005
  -0.07373710  0.04257213 -0.01505152       0.005
  -0.03686855  0.02128607 -0.03010304       0.005
   0.00000000  0.04257213 -0.06020609       0.005
   0.03686855  0.02128607 -0.07525761       0.005
   0.07373710  0.00000000 -0.09030913       0.005
   0.11060565 -0.02128607 -0.10536066       0.005
  -0.07373710  0.08514427 -0.03010304       0.005
  -0.03686855  0.06385820 -0.04515457       0.005
   0.00000000  0.08514427 -0.07525761       0.005
   0.03686855  0.06385820 -0.09030913       0.005
   0.07373710  0.04257213 -0.10536066       0.005
   0.11060565  0.02128607 -0.12041218       0.005
  -0.07373710  0.12771640 -0.04515457       0.005
  -0.03686855  0.10643034 -0.06020609       0.005
   0.00000000  0.12771640 -0.09030913       0.005
   0.03686855  0.10643034 -0.10536066       0.005
   0.07373710  0.08514427 -0.12041218       0.005
   0.11060565  0.06385820 -0.13546370       0.005
  -0.07373710  0.17028854 -0.06020609       0.005
  -0.03686855  0.14900247 -0.07525761       0.005
   0.00000000 -0.08514427 -0.01505152       0.005
   0.03686855 -0.10643034 -0.03010304       0.005
   0.07373710 -0.12771640 -0.04515457       0.005
   0.11060565 -0.14900247 -0.06020609       0.005
  -0.07373710 -0.04257213  0.01505152       0.005
  -0.03686855 -0.06385820 -0.00000000       0.005
   0.00000000 -0.04257213 -0.03010304       0.005
   0.03686855 -0.06385820 -0.04515457       0.005
   0.07373710 -0.08514427 -0.06020609       0.005
   0.11060565 -0.10643034 -0.07525761       0.005
  -0.07373710 -0.00000000 -0.00000000       0.005
  -0.03686855 -0.02128607 -0.01505152       0.005
 
 k-points in reciprocal lattice and weights: k-points                                
   0.00000000  0.00000000  0.00000000       0.005
   0.16666667  0.00000000  0.00000000       0.005
   0.33333333  0.00000000  0.00000000       0.005
   0.50000000  0.00000000  0.00000000       0.005
  -0.33333333 -0.00000000 -0.00000000       0.005
  -0.16666667 -0.00000000 -0.00000000       0.005
   0.00000000  0.16666667 -0.00000000       0.005
   0.16666667  0.16666667  0.00000000       0.005
   0.33333333  0.16666667  0.00000000       0.005
   0.50000000  0.16666667  0.00000000       0.005
  -0.33333333  0.16666667 -0.00000000       0.005
  -0.16666667  0.16666667 -0.00000000       0.005
   0.00000000  0.33333333  0.00000000       0.005
   0.16666667  0.33333333  0.00000000       0.005
   0.33333333  0.33333333  0.00000000       0.005
   0.50000000  0.33333333  0.00000000       0.005
  -0.33333333  0.33333333 -0.00000000       0.005
  -0.16666667  0.33333333 -0.00000000       0.005
   0.00000000  0.50000000  0.00000000       0.005
   0.16666667  0.50000000  0.00000000       0.005
   0.33333333  0.50000000  0.00000000       0.005
   0.50000000  0.50000000  0.00000000       0.005
  -0.33333333  0.50000000 -0.00000000       0.005
  -0.16666667  0.50000000 -0.00000000       0.005
   0.00000000 -0.33333333  0.00000000       0.005
   0.16666667 -0.33333333  0.00000000       0.005
   0.33333333 -0.33333333  0.00000000       0.005
   0.50000000 -0.33333333  0.00000000       0.005
  -0.33333333 -0.33333333 -0.00000000       0.005
  -0.16666667 -0.33333333 -0.00000000       0.005
   0.00000000 -0.16666667  0.00000000       0.005
   0.16666667 -0.16666667  0.00000000       0.005
   0.33333333 -0.16666667  0.00000000       0.005
   0.50000000 -0.16666667  0.00000000       0.005
  -0.33333333 -0.16666667 -0.00000000       0.005
  -0.16666667 -0.16666667 -0.00000000       0.005
   0.00000000 -0.00000000  0.16666667       0.005
   0.16666667  0.00000000  0.16666667       0.005
   0.33333333  0.00000000  0.16666667       0.005
   0.50000000  0.00000000  0.16666667       0.005
  -0.33333333 -0.00000000  0.16666667       0.005
  -0.16666667 -0.00000000  0.16666667       0.005
   0.00000000  0.16666667  0.16666667       0.005
   0.16666667  0.16666667  0.16666667       0.005
   0.33333333  0.16666667  0.16666667       0.005
   0.50000000  0.16666667  0.16666667       0.005
  -0.33333333  0.16666667  0.16666667       0.005
  -0.16666667  0.16666667  0.16666667       0.005
   0.00000000  0.33333333  0.16666667       0.005
   0.16666667  0.33333333  0.16666667       0.005
   0.33333333  0.33333333  0.16666667       0.005
   0.50000000  0.33333333  0.16666667       0.005
  -0.33333333  0.33333333  0.16666667       0.005
  -0.16666667  0.33333333  0.16666667       0.005
   0.00000000  0.50000000  0.16666667       0.005
   0.16666667  0.50000000  0.16666667       0.005
   0.33333333  0.50000000  0.16666667       0.005
   0.50000000  0.50000000  0.16666667       0.005
  -0.33333333  0.50000000  0.16666667       0.005
  -0.16666667  0.50000000  0.16666667       0.005
  -0.00000000 -0.33333333  0.16666667       0.005
   0.16666667 -0.33333333  0.16666667       0.005
   0.33333333 -0.33333333  0.16666667       0.005
   0.50000000 -0.33333333  0.16666667       0.005
  -0.33333333 -0.33333333  0.16666667       0.005
  -0.16666667 -0.33333333  0.16666667       0.005
  -0.00000000 -0.16666667  0.16666667       0.005
   0.16666667 -0.16666667  0.16666667       0.005
   0.33333333 -0.16666667  0.16666667       0.005
   0.50000000 -0.16666667  0.16666667       0.005
  -0.33333333 -0.16666667  0.16666667       0.005
  -0.16666667 -0.16666667  0.16666667       0.005
  -0.00000000 -0.00000000  0.33333333       0.005
   0.16666667  0.00000000  0.33333333       0.005
   0.33333333  0.00000000  0.33333333       0.005
   0.50000000  0.00000000  0.33333333       0.005
  -0.33333333 -0.00000000  0.33333333       0.005
  -0.16666667 -0.00000000  0.33333333       0.005
  -0.00000000  0.16666667  0.33333333       0.005
   0.16666667  0.16666667  0.33333333       0.005
   0.33333333  0.16666667  0.33333333       0.005
   0.50000000  0.16666667  0.33333333       0.005
  -0.33333333  0.16666667  0.33333333       0.005
  -0.16666667  0.16666667  0.33333333       0.005
  -0.00000000  0.33333333  0.33333333       0.005
   0.16666667  0.33333333  0.33333333       0.005
   0.33333333  0.33333333  0.33333333       0.005
   0.50000000  0.33333333  0.33333333       0.005
  -0.33333333  0.33333333  0.33333333       0.005
  -0.16666667  0.33333333  0.33333333       0.005
   0.00000000  0.50000000  0.33333333       0.005
   0.16666667  0.50000000  0.33333333       0.005
   0.33333333  0.50000000  0.33333333       0.005
   0.50000000  0.50000000  0.33333333       0.005
  -0.33333333  0.50000000  0.33333333       0.005
  -0.16666667  0.50000000  0.33333333       0.005
  -0.00000000 -0.33333333  0.33333333       0.005
   0.16666667 -0.33333333  0.33333333       0.005
   0.33333333 -0.33333333  0.33333333       0.005
   0.50000000 -0.33333333  0.33333333       0.005
  -0.33333333 -0.33333333  0.33333333       0.005
  -0.16666667 -0.33333333  0.33333333       0.005
  -0.00000000 -0.16666667  0.33333333       0.005
   0.16666667 -0.16666667  0.33333333       0.005
   0.33333333 -0.16666667  0.33333333       0.005
   0.50000000 -0.16666667  0.33333333       0.005
  -0.33333333 -0.16666667  0.33333333       0.005
  -0.16666667 -0.16666667  0.33333333       0.005
  -0.00000000 -0.00000000  0.50000000       0.005
   0.16666667  0.00000000  0.50000000       0.005
   0.33333333  0.00000000  0.50000000       0.005
   0.50000000  0.00000000  0.50000000       0.005
  -0.33333333 -0.00000000  0.50000000       0.005
  -0.16666667 -0.00000000  0.50000000       0.005
  -0.00000000  0.16666667  0.50000000       0.005
   0.16666667  0.16666667  0.50000000       0.005
   0.33333333  0.16666667  0.50000000       0.005
   0.50000000  0.16666667  0.50000000       0.005
  -0.33333333  0.16666667  0.50000000       0.005
  -0.16666667  0.16666667  0.50000000       0.005
  -0.00000000  0.33333333  0.50000000       0.005
   0.16666667  0.33333333  0.50000000       0.005
   0.33333333  0.33333333  0.50000000       0.005
   0.50000000  0.33333333  0.50000000       0.005
  -0.33333333  0.33333333  0.50000000       0.005
  -0.16666667  0.33333333  0.50000000       0.005
  -0.00000000  0.50000000  0.50000000       0.005
   0.16666667  0.50000000  0.50000000       0.005
   0.33333333  0.50000000  0.50000000       0.005
   0.50000000  0.50000000  0.50000000       0.005
  -0.33333333  0.50000000  0.50000000       0.005
  -0.16666667  0.50000000  0.50000000       0.005
   0.00000000 -0.33333333  0.50000000       0.005
   0.16666667 -0.33333333  0.50000000       0.005
   0.33333333 -0.33333333  0.50000000       0.005
   0.50000000 -0.33333333  0.50000000       0.005
  -0.33333333 -0.33333333  0.50000000       0.005
  -0.16666667 -0.33333333  0.50000000       0.005
   0.00000000 -0.16666667  0.50000000       0.005
   0.16666667 -0.16666667  0.50000000       0.005
   0.33333333 -0.16666667  0.50000000       0.005
   0.50000000 -0.16666667  0.50000000       0.005
  -0.33333333 -0.16666667  0.50000000       0.005
  -0.16666667 -0.16666667  0.50000000       0.005
   0.00000000  0.00000000 -0.33333333       0.005
   0.16666667  0.00000000 -0.33333333       0.005
   0.33333333  0.00000000 -0.33333333       0.005
   0.50000000  0.00000000 -0.33333333       0.005
  -0.33333333 -0.00000000 -0.33333333       0.005
  -0.16666667 -0.00000000 -0.33333333       0.005
   0.00000000  0.16666667 -0.33333333       0.005
   0.16666667  0.16666667 -0.33333333       0.005
   0.33333333  0.16666667 -0.33333333       0.005
   0.50000000  0.16666667 -0.33333333       0.005
  -0.33333333  0.16666667 -0.33333333       0.005
  -0.16666667  0.16666667 -0.33333333       0.005
   0.00000000  0.33333333 -0.33333333       0.005
   0.16666667  0.33333333 -0.33333333       0.005
   0.33333333  0.33333333 -0.33333333       0.005
   0.50000000  0.33333333 -0.33333333       0.005
  -0.33333333  0.33333333 -0.33333333       0.005
  -0.16666667  0.33333333 -0.33333333       0.005
   0.00000000  0.50000000 -0.33333333       0.005
   0.16666667  0.50000000 -0.33333333       0.005
   0.33333333  0.50000000 -0.33333333       0.005
   0.50000000  0.50000000 -0.33333333       0.005
  -0.33333333  0.50000000 -0.33333333       0.005
  -0.16666667  0.50000000 -0.33333333       0.005
   0.00000000 -0.33333333 -0.33333333       0.005
   0.16666667 -0.33333333 -0.33333333       0.005
   0.33333333 -0.33333333 -0.33333333       0.005
   0.50000000 -0.33333333 -0.33333333       0.005
  -0.33333333 -0.33333333 -0.33333333       0.005
  -0.16666667 -0.33333333 -0.33333333       0.005
   0.00000000 -0.16666667 -0.33333333       0.005
   0.16666667 -0.16666667 -0.33333333       0.005
   0.33333333 -0.16666667 -0.33333333       0.005
   0.50000000 -0.16666667 -0.33333333       0.005
  -0.33333333 -0.16666667 -0.33333333       0.005
  -0.16666667 -0.16666667 -0.33333333       0.005
   0.00000000  0.00000000 -0.16666667       0.005
   0.16666667  0.00000000 -0.16666667       0.005
   0.33333333  0.00000000 -0.16666667       0.005
   0.50000000  0.00000000 -0.16666667       0.005
  -0.33333333 -0.00000000 -0.16666667       0.005
  -0.16666667 -0.00000000 -0.16666667       0.005
   0.00000000  0.16666667 -0.16666667       0.005
   0.16666667  0.16666667 -0.16666667       0.005
   0.33333333  0.16666667 -0.16666667       0.005
   0.50000000  0.16666667 -0.16666667       0.005
  -0.33333333  0.16666667 -0.16666667       0.005
  -0.16666667  0.16666667 -0.16666667       0.005
   0.00000000  0.33333333 -0.16666667       0.005
   0.16666667  0.33333333 -0.16666667       0.005
   0.33333333  0.33333333 -0.16666667       0.005
   0.50000000  0.33333333 -0.16666667       0.005
  -0.33333333  0.33333333 -0.16666667       0.005
  -0.16666667  0.33333333 -0.16666667       0.005
  -0.00000000  0.50000000 -0.16666667       0.005
   0.16666667  0.50000000 -0.16666667       0.005
   0.33333333  0.50000000 -0.16666667       0.005
   0.50000000  0.50000000 -0.16666667       0.005
  -0.33333333  0.50000000 -0.16666667       0.005
  -0.16666667  0.50000000 -0.16666667       0.005
  -0.00000000 -0.33333333 -0.16666667       0.005
   0.16666667 -0.33333333 -0.16666667       0.005
   0.33333333 -0.33333333 -0.16666667       0.005
   0.50000000 -0.33333333 -0.16666667       0.005
  -0.33333333 -0.33333333 -0.16666667       0.005
  -0.16666667 -0.33333333 -0.16666667       0.005
  -0.00000000 -0.16666667 -0.16666667       0.005
   0.16666667 -0.16666667 -0.16666667       0.005
   0.33333333 -0.16666667 -0.16666667       0.005
   0.50000000 -0.16666667 -0.16666667       0.005
  -0.33333333 -0.16666667 -0.16666667       0.005
  -0.16666667 -0.16666667 -0.16666667       0.005
 
 position of ions in fractional coordinates (direct lattice) 
   0.00000000  0.00000000  0.00000000
 
 position of ions in cartesian coordinates  (Angst):
   0.00000000  0.00000000  0.00000000
 
 Euler angles ALPHA=     0.0000000  BETA=     0.0000000

 transformation matrix from SAXIS to cartesian coordinates
 ---------------------------------------------------------
     1.0000000 m_x     0.0000000 m_y     0.0000000 m_z
     0.0000000 m_x     1.0000000 m_y     0.0000000 m_z
     0.0000000 m_x     0.0000000 m_y     1.0000000 m_z

 transformation matrix from cartesian coordinates to SAXIS
 ---------------------------------------------------------
     1.0000000 m_x     0.0000000 m_y     0.0000000 m_z
     0.0000000 m_x     1.0000000 m_y     0.0000000 m_z
     0.0000000 m_x     0.0000000 m_y     1.0000000 m_z




--------------------------------------------------------------------------------------------------------


 k-point  1 :   0.0000 0.0000 0.0000  plane waves:    1450
 k-point  2 :   0.1667 0.0000 0.0000  plane waves:    1424
 k-point  3 :   0.3333 0.0000 0.0000  plane waves:    1490
 k-point  4 :   0.5000 0.0000 0.0000  plane waves:    1436
 k-point  5 :  -0.3333-0.0000-0.0000  plane waves:    1490
 k-point  6 :  -0.1667-0.0000-0.0000  plane waves:    1424
 k-point  7 :   0.0000 0.1667-0.0000  plane waves:    1424
 k-point  8 :   0.1667 0.1667 0.0000  plane waves:    1418
 k-point  9 :   0.3333 0.1667 0.0000  plane waves:    1436
 k-point 10 :   0.5000 0.1667 0.0000  plane waves:    1428
 k-point 11 :  -0.3333 0.1667-0.0000  plane waves:    1434
 k-point 12 :  -0.1667 0.1667-0.0000  plane waves:    1440
 k-point 13 :   0.0000 0.3333 0.0000  plane waves:    1490
 k-point 14 :   0.1667 0.3333 0.0000  plane waves:    1436
 k-point 15 :   0.3333 0.3333 0.0000  plane waves:    1434
 k-point 16 :   0.5000 0.3333 0.0000  plane waves:    1430
 k-point 17 :  -0.3333 0.3333-0.0000  plane waves:    1432
 k-point 18 :  -0.1667 0.3333-0.0000  plane waves:    1434
 k-point 19 :   0.0000 0.5000 0.0000  plane waves:    1436
 k-point 20 :   0.1667 0.5000 0.0000  plane waves:    1428
 k-point 21 :   0.3333 0.5000 0.0000  plane waves:    1430
 k-point 22 :   0.5000 0.5000 0.0000  plane waves:    1448
 k-point 23 :  -0.3333 0.5000-0.0000  plane waves:    1430
 k-point 24 :  -0.1667 0.5000-0.0000  plane waves:    1428
 k-point 25 :   0.0000-0.3333 0.0000  plane waves:    1490
 k-point 26 :   0.1667-0.3333 0.0000  plane waves:    1434
 k-point 27 :   0.3333-0.3333 0.0000  plane waves:    1432
 k-point 28 :   0.5000-0.3333 0.0000  plane waves:    1430
 k-point 29 :  -0.3333-0.3333-0.0000  plane waves:    1434
 k-point 30 :  -0.1667-0.3333-0.0000  plane waves:    1436
 k-point 31 :   0.0000-0.1667 0.0000  plane waves:    1424
 k-point 32 :   0.1667-0.1667 0.0000  plane waves:    1440
 k-point 33 :   0.3333-0.1667 0.0000  plane waves:    1434
 k-point 34 :   0.5000-0.1667 0.0000  plane waves:    1428
 k-point 35 :  -0.3333-0.1667-0.0000  plane waves:    1436
 k-point 36 :  -0.1667-0.1667-0.0000  plane waves:    1418
 k-point 37 :   0.0000-0.0000 0.1667  plane waves:    1424
 k-point 38 :   0.1667 0.0000 0.1667  plane waves:    1418
 k-point 39 :   0.3333 0.0000 0.1667  plane waves:    1436
 k-point 40 :   0.5000 0.0000 0.1667  plane waves:    1428
 k-point 41 :  -0.3333-0.0000 0.1667  plane waves:    1434
 k-point 42 :  -0.1667-0.0000 0.1667  plane waves:    1440
 k-point 43 :   0.0000 0.1667 0.1667  plane waves:    1418
 k-point 44 :   0.1667 0.1667 0.1667  plane waves:    1424
 k-point 45 :   0.3333 0.1667 0.1667  plane waves:    1440
 k-point 46 :   0.5000 0.1667 0.1667  plane waves:    1434
 k-point 47 :  -0.3333 0.1667 0.1667  plane waves:    1428
 k-point 48 :  -0.1667 0.1667 0.1667  plane waves:    1436
 k-point 49 :   0.0000 0.3333 0.1667  plane waves:    1436
 k-point 50 :   0.1667 0.3333 0.1667  plane waves:    1440
 k-point 51 :   0.3333 0.3333 0.1667  plane waves:    1436
 k-point 52 :   0.5000 0.3333 0.1667  plane waves:    1434
 k-point 53 :  -0.3333 0.3333 0.1667  plane waves:    1444
 k-point 54 :  -0.1667 0.3333 0.1667  plane waves:    1434
 k-point 55 :   0.0000 0.5000 0.1667  plane waves:    1428
 k-point 56 :   0.1667 0.5000 0.1667  plane waves:    1434
 k-point 57 :   0.3333 0.5000 0.1667  plane waves:    1434
 k-point 58 :   0.5000 0.5000 0.1667  plane waves:    1430
 k-point 59 :  -0.3333 0.5000 0.1667  plane waves:    1436
 k-point 60 :  -0.1667 0.5000 0.1667  plane waves:    1444
 k-point 61 :  -0.0000-0.3333 0.1667  plane waves:    1434
 k-point 62 :   0.1667-0.3333 0.1667  plane waves:    1428
 k-point 63 :   0.3333-0.3333 0.1667  plane waves:    1444
 k-point 64 :   0.5000-0.3333 0.1667  plane waves:    1436
 k-point 65 :  -0.3333-0.3333 0.1667  plane waves:    1430
 k-point 66 :  -0.1667-0.3333 0.1667  plane waves:    1434
 k-point 67 :  -0.0000-0.1667 0.1667  plane waves:    1440
 k-point 68 :   0.1667-0.1667 0.1667  plane waves:    1436
 k-point 69 :   0.3333-0.1667 0.1667  plane waves:    1434
 k-point 70 :   0.5000-0.1667 0.1667  plane waves:    1444
 k-point 71 :  -0.3333-0.1667 0.1667  plane waves:    1434
 k-point 72 :  -0.1667-0.1667 0.1667  plane waves:    1436
 k-point 73 :  -0.0000-0.0000 0.3333  plane waves:    1490
 k-point 74 :   0.1667 0.0000 0.3333  plane waves:    1436
 k-point 75 :   0.3333 0.0000 0.3333  plane waves:    1434
 k-point 76 :   0.5000 0.0000 0.3333  plane waves:    1430
 k-point 77 :  -0.3333-0.0000 0.3333  plane waves:    1432
 k-point 78 :  -0.1667-0.0000 0.3333  plane waves:    1434
 k-point 79 :  -0.0000 0.1667 0.3333  plane waves:    1436
 k-point 80 :   0.1667 0.1667 0.3333  plane waves:    1440
 k-point 81 :   0.3333 0.1667 0.3333  plane waves:    1436
 k-point 82 :   0.5000 0.1667 0.3333  plane waves:    1434
 k-point 83 :  -0.3333 0.1667 0.3333  plane waves:    1444
 k-point 84 :  -0.1667 0.1667 0.3333  plane waves:    1434
 k-point 85 :  -0.0000 0.3333 0.3333  plane waves:    1434
 k-point 86 :   0.1667 0.3333 0.3333  plane waves:    1436
 k-point 87 :   0.3333 0.3333 0.3333  plane waves:    1490
 k-point 88 :   0.5000 0.3333 0.3333  plane waves:    1434
 k-point 89 :  -0.3333 0.3333 0.3333  plane waves:    1432
 k-point 90 :  -0.1667 0.3333 0.3333  plane waves:    1430
 k-point 91 :   0.0000 0.5000 0.3333  plane waves:    1430
 k-point 92 :   0.1667 0.5000 0.3333  plane waves:    1434
[...]
     33       9.0670      10.7583      10.7582      10.9423       0.9018       0.0000
     34       9.0670      10.7584      10.7582      10.9423       0.9018       0.0000
     35      11.4754      13.1974      13.2049      13.3776       0.9092       0.0000
     36      11.4754      13.1979      13.2049      13.3776       0.9092       0.0000
     37      12.4342      14.3997      14.3788      14.5756       0.9081       0.0000
     38      12.4342      14.3998      14.3788      14.5756       0.9081       0.0000
     39      13.3085      15.6220      15.6409      15.8837       0.9057       0.0000
     40      13.3085      15.6221      15.6409      15.8837       0.9057       0.0000
     41      14.0164      16.5113      16.4886      16.7402       0.9076       0.0000
     42      14.0164      16.5113      16.4886      16.7402       0.9076       0.0000
     43      14.2532      16.7348      16.7272      16.9689       0.9110       0.0000
     44      14.2532      16.7349      16.7272      16.9689       0.9110       0.0000
     45      17.0227      20.0992      20.1606      20.4621       0.9124       0.0000
     46      17.0227      20.1000      20.1606      20.4621       0.9124       0.0000
     47      17.3983      20.4786      20.5896      20.9037       0.9104       0.0000
     48      17.3983      20.4797      20.5896      20.9037       0.9104       0.0000
     49      17.5411      20.7900      20.7131      21.0224       0.9111       0.0000
     50      17.5411      20.7904      20.7131      21.0224       0.9111       0.0000
     51      17.8761      21.4096      21.3943      21.7528       0.9075       0.0000
     52      17.8761      21.4100      21.3943      21.7528       0.9075       0.0000
     53      19.1108      23.2203      23.2319      23.6709       0.9037       0.0000
     54      19.1108      23.2204      23.2319      23.6709       0.9037       0.0000
     55      20.9286      24.0902      23.9196      24.1473       0.9293       0.0000
     56      20.9286      24.0905      23.9196      24.1473       0.9293       0.0000
 

 k-point 214 :       0.5000   -0.1667   -0.1667
  band No. DFT-energies  QP-energies  QP-e(diag)   sigma(DFT)    Z            occupation

      1    -196.1344    -214.4611    -214.0944    -212.7468       1.0811       1.0000
      2    -196.1344    -214.4609    -214.0947    -212.7468       1.0811       1.0000
      3    -141.7582    -159.8776    -159.6717    -163.1138       0.8388       1.0000
      4    -141.7582    -159.8775    -159.6717    -163.1138       0.8388       1.0000
      5    -113.6147    -123.9542    -123.9382    -125.0441       0.9032       1.0000
      6    -113.6147    -123.9536    -123.9381    -125.0441       0.9032       1.0000
      7    -113.6144    -123.9449    -123.9320    -125.0435       0.9028       1.0000
      8    -113.6144    -123.9443    -123.9320    -125.0435       0.9028       1.0000
      9     -43.5377     -48.4912     -48.4856     -49.3145       0.8565       1.0000
     10     -43.5377     -48.4912     -48.4855     -49.3145       0.8565       1.0000
     11     -43.5349     -48.4813     -48.4794     -49.3090       0.8563       1.0000
     12     -43.5349     -48.4813     -48.4794     -49.3090       0.8563       1.0000
     13     -39.1280     -43.8055     -43.7944     -44.5592       0.8592       1.0000
     14     -39.1280     -43.8024     -43.7944     -44.5592       0.8592       1.0000
     15     -39.1274     -43.7939     -43.7923     -44.5601       0.8587       1.0000
     16     -39.1274     -43.7933     -43.7923     -44.5601       0.8587       1.0000
     17     -39.1254     -43.7873     -43.7849     -44.5547       0.8582       1.0000
     18     -39.1254     -43.7841     -43.7849     -44.5547       0.8582       1.0000
     19     -16.4257     -19.4212     -19.4199     -19.7344       0.9049       1.0000
     20     -16.4257     -19.4211     -19.4198     -19.7344       0.9049       1.0000
     21      -4.4122      -6.5503      -6.6575      -6.9616       0.8807       1.0000
     22      -4.4122      -6.5501      -6.6576      -6.9616       0.8808       1.0000
     23      -1.7970      -3.9972      -4.0086      -4.2916       0.8866       1.0000
     24      -1.7970      -3.9968      -4.0086      -4.2916       0.8866       1.0000
     25      -0.8161      -2.7743      -2.7771      -3.0343       0.8841       1.0000
     26      -0.8161      -2.7742      -2.7770      -3.0343       0.8840       1.0000
     27       6.0048       7.3756       7.3590       7.5065       0.9018       0.0000
     28       6.0048       7.3758       7.3590       7.5065       0.9018       0.0000
     29       7.4753       8.8023       8.8263       8.9721       0.9026       0.0000
     30       7.4753       8.8029       8.8263       8.9721       0.9026       0.0000
     31       8.5092      10.1439      10.1323      10.3053       0.9037       0.0000
     32       8.5092      10.1442      10.1323      10.3053       0.9037       0.0000
     33       8.9356      10.5959      10.5949      10.7755       0.9018       0.0000
     34       8.9356      10.5960      10.5949      10.7755       0.9018       0.0000
     35      10.9660      12.9384      12.9380      13.1521       0.9020       0.0000
     36      10.9660      12.9385      12.9380      13.1521       0.9021       0.0000
     37      12.1362      13.9033      13.8945      14.0703       0.9091       0.0000
     38      12.1362      13.9037      13.8945      14.0703       0.9091       0.0000
     39      12.7413      14.8185      14.8223      15.0317       0.9086       0.0000
     40      12.7413      14.8187      14.8223      15.0317       0.9086       0.0000
     41      14.1946      16.7423      16.7343      16.9881       0.9092       0.0000
     42      14.1946      16.7425      16.7343      16.9881       0.9092       0.0000
     43      15.6413      18.0883      18.1463      18.3928       0.9104       0.0000
     44      15.6413      18.0889      18.1463      18.3928       0.9104       0.0000
     45      16.4994      19.4993      19.5132      19.8143       0.9092       0.0000
     46      16.4994      19.4995      19.5132      19.8143       0.9092       0.0000
     47      16.9267      19.8828      19.9182      20.2005       0.9138       0.0000
     48      16.9267      19.8829      19.9182      20.2005       0.9138       0.0000
     49      17.3862      20.4327      20.3553      20.6312       0.9150       0.0000
     50      17.3862      20.4330      20.3553      20.6312       0.9150       0.0000
     51      18.1035      21.8116      21.8071      22.1936       0.9055       0.0000
     52      18.1035      21.8117      21.8071      22.1936       0.9055       0.0000
     53      19.0783      23.1693      23.1733      23.6126       0.9031       0.0000
     54      19.0783      23.1694      23.1733      23.6126       0.9031       0.0000
     55      20.7149      24.3638      24.2539      24.5423       0.9246       0.0000
     56      20.7149      24.3642      24.2539      24.5423       0.9246       0.0000
 

 k-point 215 :      -0.3333   -0.1667   -0.1667
  band No. DFT-energies  QP-energies  QP-e(diag)   sigma(DFT)    Z            occupation

      1    -196.1339    -214.4373    -214.0785    -212.7461       1.0802       1.0000
      2    -196.1339    -214.4372    -214.0784    -212.7461       1.0802       1.0000
      3    -141.7609    -159.9056    -159.7019    -163.1153       0.8402       1.0000
      4    -141.7609    -159.9055    -159.7019    -163.1153       0.8402       1.0000
      5    -113.6147    -123.9588    -123.9452    -125.0447       0.9038       1.0000
      6    -113.6147    -123.9579    -123.9452    -125.0447       0.9038       1.0000
      7    -113.6146    -123.9492    -123.9359    -125.0431       0.9031       1.0000
      8    -113.6146    -123.9484    -123.9360    -125.0431       0.9031       1.0000
      9     -43.5390     -48.4963     -48.4916     -49.3138       0.8576       1.0000
     10     -43.5390     -48.4962     -48.4916     -49.3138       0.8576       1.0000
     11     -43.5343     -48.4812     -48.4787     -49.3104       0.8560       1.0000
     12     -43.5343     -48.4811     -48.4787     -49.3104       0.8560       1.0000
     13     -39.1290     -43.8081     -43.8005     -44.5587       0.8604       1.0000
     14     -39.1290     -43.8051     -43.8005     -44.5587       0.8604       1.0000
     15     -39.1267     -43.7955     -43.7915     -44.5597       0.8586       1.0000
     16     -39.1267     -43.7945     -43.7915     -44.5597       0.8586       1.0000
     17     -39.1254     -43.7884     -43.7853     -44.5561       0.8581       1.0000
     18     -39.1254     -43.7861     -43.7854     -44.5561       0.8581       1.0000
     19     -16.4966     -19.5351     -19.5310     -19.8444       0.9064       1.0000
     20     -16.4966     -19.5350     -19.5310     -19.8444       0.9064       1.0000
     21      -4.1330      -6.1429      -6.2707      -6.5665       0.8785       1.0000
     22      -4.1330      -6.1428      -6.2707      -6.5665       0.8785       1.0000
     23      -1.3380      -3.4080      -3.4181      -3.6853       0.8862       1.0000
     24      -1.3380      -3.4079      -3.4181      -3.6853       0.8862       1.0000
     25      -0.5753      -2.4624      -2.4666      -2.7169       0.8831       1.0000
     26      -0.5753      -2.4624      -2.4666      -2.7169       0.8831       1.0000
     27       5.3448       6.6492       6.6299       6.7691       0.9023       0.0000
     28       5.3448       6.6492       6.6299       6.7691       0.9023       0.0000
     29       7.6165       9.1163       9.1178       9.2853       0.8997       0.0000
     30       7.6165       9.1163       9.1178       9.2853       0.8997       0.0000
     31       8.3496       9.8212       9.8562      10.0188       0.9026       0.0000
     32       8.3496       9.8212       9.8562      10.0188       0.9026       0.0000
     33       9.3766      11.0877      11.1008      11.2887       0.9017       0.0000
     34       9.3766      11.0878      11.1008      11.2887       0.9017       0.0000
     35       9.4837      11.2558      11.2440      11.4390       0.9003       0.0000
     36       9.4837      11.2558      11.2440      11.4390       0.9003       0.0000
     37      11.6589      13.6388      13.6722      13.8832       0.9051       0.0000
     38      11.6589      13.6388      13.6722      13.8832       0.9051       0.0000
     39      12.7598      14.6202      14.6198      14.8050       0.9094       0.0000
     40      12.7598      14.6202      14.6197      14.8050       0.9094       0.0000
     41      13.0840      15.0852      15.1103      15.3162       0.9078       0.0000
     42      13.0840      15.0852      15.1103      15.3162       0.9078       0.0000
     43      14.6581      16.9594      16.9551      17.1832       0.9097       0.0000
     44      14.6581      16.9594      16.9551      17.1832       0.9097       0.0000
     45      16.0112      18.7238      18.7638      19.0306       0.9116       0.0000
     46      16.0112      18.7238      18.7638      19.0306       0.9116       0.0000
     47      16.3086      19.1812      19.1788      19.4677       0.9086       0.0000
     48      16.3086      19.1812      19.1788      19.4677       0.9086       0.0000
     49      18.7410      21.0711      22.6621      23.0765       0.9044       0.0000
     50      18.7410      21.0711      22.6622      23.0765       0.9044       0.0000
     51      18.8929      22.6645      22.7661      23.1677       0.9060       0.0000
     52      18.8929      22.6646      22.7661      23.1677       0.9060       0.0000
     53      19.0201      22.8070      21.0557      21.2215       0.9247       0.0000
     54      19.0201      22.8071      21.0557      21.2215       0.9247       0.0000
     55      20.0312      23.6208      23.4956      23.7805       0.9240       0.0000
     56      20.0312      23.6208      23.4956      23.7805       0.9240       0.0000
 

 k-point 216 :      -0.1667   -0.1667   -0.1667
  band No. DFT-energies  QP-energies  QP-e(diag)   sigma(DFT)    Z            occupation

      1    -196.1280    -214.4232    -214.0709    -212.7414       1.0800       1.0000
      2    -196.1280    -214.4232    -214.0709    -212.7414       1.0800       1.0000
      3    -141.7449    -159.8556    -159.6582    -163.1051       0.8386       1.0000
      4    -141.7449    -159.8555    -159.6582    -163.1051       0.8386       1.0000
      5    -113.6150    -123.9751    -123.9627    -125.0457       0.9053       1.0000
      6    -113.6150    -123.9751    -123.9627    -125.0457       0.9053       1.0000
      7    -113.6145    -123.9437    -123.9300    -125.0432       0.9026       1.0000
      8    -113.6145    -123.9437    -123.9300    -125.0432       0.9026       1.0000
      9     -43.5367     -48.4932     -48.4896     -49.3167       0.8569       1.0000
     10     -43.5367     -48.4931     -48.4897     -49.3167       0.8569       1.0000
     11     -43.5288     -48.4700     -48.4663     -49.3023       0.8552       1.0000
     12     -43.5288     -48.4700     -48.4663     -49.3023       0.8552       1.0000
     13     -39.1283     -43.8093     -43.8034     -44.5658       0.8598       1.0000
     14     -39.1283     -43.8093     -43.8034     -44.5658       0.8598       1.0000
     15     -39.1248     -43.7859     -43.7821     -44.5554       0.8576       1.0000
     16     -39.1248     -43.7859     -43.7821     -44.5554       0.8576       1.0000
     17     -39.1233     -43.7801     -43.7785     -44.5520       0.8575       1.0000
     18     -39.1233     -43.7801     -43.7785     -44.5520       0.8575       1.0000
     19     -16.5519     -19.6209     -19.6139     -19.9295       0.9066       1.0000
     20     -16.5519     -19.6208     -19.6138     -19.9295       0.9065       1.0000
     21      -3.9078      -5.8282      -5.9687      -6.2576       0.8770       1.0000
     22      -3.9078      -5.8276      -5.9687      -6.2576       0.8770       1.0000
     23      -0.8591      -2.7998      -2.8018      -3.0536       0.8853       1.0000
     24      -0.8591      -2.7997      -2.8017      -3.0536       0.8852       1.0000
     25      -0.3502      -2.1745      -2.1774      -2.4213       0.8822       1.0000
     26      -0.3502      -2.1744      -2.1774      -2.4213       0.8822       1.0000
     27       4.3074       5.4657       5.4449       5.5677       0.9026       0.0000
     28       4.3074       5.4658       5.4449       5.5677       0.9026       0.0000
     29       7.9992       9.5274       9.5377       9.7085       0.9001       0.0000
     30       7.9992       9.5274       9.5377       9.7085       0.9001       0.0000
     31       8.8763      10.6352      10.6369      10.8328       0.8999       0.0000
     32       8.8763      10.6353      10.6369      10.8328       0.8999       0.0000
     33       9.0274      10.7110      10.7107      10.8971       0.9003       0.0000
     34       9.0274      10.7110      10.7107      10.8971       0.9003       0.0000
     35      10.4665      12.3503      12.3598      12.5677       0.9011       0.0000
     36      10.4665      12.3503      12.3598      12.5677       0.9011       0.0000
     37      10.5456      12.4134      12.4216      12.6272       0.9012       0.0000
     38      10.5456      12.4134      12.4216      12.6272       0.9012       0.0000
     39      11.2668      12.7770      12.8184      12.9720       0.9099       0.0000
     40      11.2668      12.7770      12.8184      12.9720       0.9099       0.0000
     41      12.5048      14.3333      14.3432      14.5289       0.9083       0.0000
     42      12.5048      14.3333      14.3432      14.5289       0.9083       0.0000
     43      14.1901      16.4590      16.4454      16.6695       0.9096       0.0000
     44      14.1901      16.4590      16.4454      16.6695       0.9096       0.0000
     45      14.2365      16.5425      16.5319      16.7593       0.9099       0.0000
     46      14.2365      16.5425      16.5319      16.7593       0.9099       0.0000
     47      17.0041      18.4702      18.4259      18.5372       0.9274       0.0000
     48      17.0041      18.4702      18.4259      18.5372       0.9274       0.0000
     49      18.5740      22.3344      22.3630      22.7638       0.9043       0.0000
     50      18.5740      22.3344      22.3630      22.7638       0.9043       0.0000
     51      18.6518      22.4932      22.4908      22.8952       0.9047       0.0000
     52      18.6518      22.4932      22.4908      22.8952       0.9047       0.0000
     53      19.5725      23.7123      24.0314      24.5144       0.9023       0.0000
     54      19.5725      23.7123      24.0314      24.5144       0.9023       0.0000
     55      20.6631      24.0327      23.6142      23.8216       0.9343       0.0000
     56      20.6631      24.0327      23.6142      23.8216       0.9343       0.0000
 


--------------------------------------------------------------------------------------------------------



IMPORTANT INFORMATION: All symmetrisations will be switched off!
NOSYMM: (Re-)initialisation of all symmetry stuff for point group C_1.

   GW_DIAG:  cpu time    3.0844: real time    3.0896
    GWLOOP:  cpu time12321.7467: real time12334.3104
 writing wavefunctions
    --------------------------------------------
   GWTOTAL:  cpu time12324.3017: real time12337.3974
    4ORBIT:  cpu time    0.0000: real time    0.0000

 Spin-Orbit-Coupling matrix elements

 Ion:    1  E_soc:     -9.2747300
 l=   1
     0.0000000    -1.4083934    -1.4083933
    -1.4083934     0.0000000    -1.4083933
    -1.4083933    -1.4083933     0.0000000
 l=   2
     0.0000000    -0.0274784     0.0000000    -0.0274784    -0.1099166
    -0.0274784     0.0000000    -0.0824375    -0.0274776    -0.0274784
     0.0000000    -0.0824375     0.0000000    -0.0824375     0.0000000
    -0.0274784    -0.0274776    -0.0824375     0.0000000    -0.0274784
    -0.1099166    -0.0274784     0.0000000    -0.0274784     0.0000000
 l=   3
     0.0000000    -0.0000000     0.0000000     0.0000000     0.0000000    -0.0000000    -0.0000005
    -0.0000000     0.0000000    -0.0000002     0.0000000    -0.0000002    -0.0000001    -0.0000001
     0.0000000    -0.0000002     0.0000000    -0.0000003    -0.0000001    -0.0000002     0.0000000
     0.0000000     0.0000000    -0.0000003     0.0000000    -0.0000003     0.0000000     0.0000000
     0.0000000    -0.0000002    -0.0000001    -0.0000003     0.0000000    -0.0000002     0.0000000
    -0.0000000    -0.0000001    -0.0000002     0.0000000    -0.0000002     0.0000000    -0.0000001
    -0.0000005    -0.0000001     0.0000000     0.0000000     0.0000000    -0.0000001     0.0000000

 total amount of memory used by VASP MPI-rank0   282785. kBytes
=======================================================================

   base      :      30000. kBytes
   nonl-proj :      51713. kBytes
   fftplans  :      12947. kBytes
   grid      :      12644. kBytes
   one-center:        307. kBytes
   HF        :        640. kBytes
   nonlr-proj:        242. kBytes
   wavefun   :     174292. kBytes
   2eintegral:          0. kBytes
   fockhandle:          0. kBytes
   response  :          0. kBytes
   cacher    :          0. kBytes
 
  
  
 General timing and accounting informations for this job:
 ========================================================
  
                  Total CPU time used (sec):    12334.018
                            User time (sec):    12304.097
                          System time (sec):       29.921
                         Elapsed time (sec):    12347.334
  
                   Maximum memory used (kb):     2330640.
                   Average memory used (kb):           0.
  
                          Minor page faults:      1492675
                          Major page faults:            0
                 Voluntary context switches:         7460
