 vasp.5.4.4.18Apr17-6-g9f103f2a35 (build Nov 03 2018 10:20:46) complex          
  
 executed on             LinuxIFC date 2018.12.31  20:46:17
 running on   64 total cores
 distrk:  each k-point on    4 cores,   16 groups
 distr:  one band on NCORES_PER_BAND=   1 cores,    4 groups


--------------------------------------------------------------------------------------------------------


 INCAR:
 POTCAR:    PAW_PBE Rn_sv_GW 14Apr2014            

 ----------------------------------------------------------------------------- 
|                                                                             |
|           W    W    AA    RRRRR   N    N  II  N    N   GGGG   !!!           |
|           W    W   A  A   R    R  NN   N  II  NN   N  G    G  !!!           |
|           W    W  A    A  R    R  N N  N  II  N N  N  G       !!!           |
|           W WW W  AAAAAA  RRRRR   N  N N  II  N  N N  G  GGG   !            |
|           WW  WW  A    A  R   R   N   NN  II  N   NN  G    G                |
|           W    W  A    A  R    R  N    N  II  N    N   GGGG   !!!           |
|                                                                             |
|      For optimal performance we recommend to set                            |
|        NCORE= 4 - approx SQRT( number of cores)                             |
|      NCORE specifies how many cores store one orbital (NPAR=cpu/NCORE).     |
|      This setting can  greatly improve the performance of VASP for DFT.     |
|      The default,   NCORE=1            might be grossly inefficient         |
|      on modern multi-core architectures or massively parallel machines.     |
|      Do your own testing !!!!                                               |
|      Unfortunately you need to use the default for GW and RPA calculations. |
|      (for HF NCORE is supported but not extensively tested yet)             |
|                                                                             |
 ----------------------------------------------------------------------------- 


 ----------------------------------------------------------------------------- 
|                                                                             |
|           W    W    AA    RRRRR   N    N  II  N    N   GGGG   !!!           |
|           W    W   A  A   R    R  NN   N  II  NN   N  G    G  !!!           |
|           W    W  A    A  R    R  N N  N  II  N N  N  G       !!!           |
|           W WW W  AAAAAA  RRRRR   N  N N  II  N  N N  G  GGG   !            |
|           WW  WW  A    A  R   R   N   NN  II  N   NN  G    G                |
|           W    W  A    A  R    R  N    N  II  N    N   GGGG   !!!           |
|                                                                             |
|      You have enabled k-point parallelism (KPAR>1).                         |
|      This developmental code was originally  written by Paul Kent at ORNL,  |
|      and carefully double checked in Vienna.                                |
|      GW as well as linear response parallelism added by Martijn Marsman     |
|      and Georg Kresse.                                                      |
|      Carefully verify results versus KPAR=1.                                |
|      Report problems to Paul Kent and Vienna.                               |
|                                                                             |
 ----------------------------------------------------------------------------- 

 POTCAR:    PAW_PBE Rn_sv_GW 14Apr2014            
  local pseudopotential read in
  partial core-charges read in
  partial kinetic energy density read in
  kinetic energy density of atom read in
  atomic valenz-charges read in
  non local Contribution for L=           0  read in
    real space projection operators read in
  non local Contribution for L=           0  read in
    real space projection operators read in
  non local Contribution for L=           1  read in
    real space projection operators read in
  non local Contribution for L=           1  read in
    real space projection operators read in
  non local Contribution for L=           1  read in
    real space projection operators read in
  non local Contribution for L=           2  read in
    real space projection operators read in
  non local Contribution for L=           2  read in
    real space projection operators read in
  non local Contribution for L=           2  read in
    real space projection operators read in
  non local Contribution for L=           3  read in
    real space projection operators read in
  non local Contribution for L=           3  read in
    real space projection operators read in
    PAW grid and wavefunctions read in
 
   number of l-projection  operators is LMAX  =          10
   number of lm-projection operators is LMMAX =          40
 
  PAW_PBE Rn_sv_GW 14Apr2014            :
 energy of atom  1       EATOM=-7927.0395
 kinetic energy error for atom=    0.5356 (will be added to EATOM!!)
 
 
 POSCAR: Rn_FCC                                  
  positions in direct lattice
  velocities in cartesian coordinates
 exchange correlation table for  LEXCH =        8
   RHO(1)=    0.500       N(1)  =     2000
   RHO(2)=  100.500       N(2)  =     4000
 


--------------------------------------------------------------------------------------------------------


 ion  position               nearest neighbor table
   1  0.000  0.000  0.000-
 

IMPORTANT INFORMATION: All symmetrisations will be switched off!
NOSYMM: (Re-)initialisation of all symmetry stuff for point group C_1.

 
 
 KPOINTS: k-points                                

Automatic generation of k-mesh.
Space group operators:
 irot       det(A)        alpha          n_x          n_y          n_z        tau_x        tau_y        tau_z
    1     1.000000     0.000000     1.000000     0.000000     0.000000     0.000000     0.000000     0.000000
 
 Subroutine IBZKPT returns following result:
 ===========================================
 
 Found    216 irreducible k-points:
 
 Following reciprocal coordinates:
            Coordinates               Weight
  0.000000  0.000000  0.000000      1.000000
  0.166667  0.000000  0.000000      1.000000
  0.333333  0.000000  0.000000      1.000000
  0.500000  0.000000  0.000000      1.000000
 -0.333333 -0.000000 -0.000000      1.000000
 -0.166667 -0.000000 -0.000000      1.000000
  0.000000  0.166667 -0.000000      1.000000
  0.166667  0.166667  0.000000      1.000000
  0.333333  0.166667  0.000000      1.000000
  0.500000  0.166667  0.000000      1.000000
 -0.333333  0.166667 -0.000000      1.000000
 -0.166667  0.166667 -0.000000      1.000000
  0.000000  0.333333  0.000000      1.000000
  0.166667  0.333333  0.000000      1.000000
  0.333333  0.333333  0.000000      1.000000
  0.500000  0.333333  0.000000      1.000000
 -0.333333  0.333333 -0.000000      1.000000
 -0.166667  0.333333 -0.000000      1.000000
  0.000000  0.500000  0.000000      1.000000
  0.166667  0.500000  0.000000      1.000000
  0.333333  0.500000  0.000000      1.000000
  0.500000  0.500000  0.000000      1.000000
 -0.333333  0.500000 -0.000000      1.000000
 -0.166667  0.500000 -0.000000      1.000000
  0.000000 -0.333333  0.000000      1.000000
  0.166667 -0.333333  0.000000      1.000000
  0.333333 -0.333333  0.000000      1.000000
  0.500000 -0.333333  0.000000      1.000000
 -0.333333 -0.333333 -0.000000      1.000000
 -0.166667 -0.333333 -0.000000      1.000000
  0.000000 -0.166667  0.000000      1.000000
  0.166667 -0.166667  0.000000      1.000000
  0.333333 -0.166667  0.000000      1.000000
  0.500000 -0.166667  0.000000      1.000000
 -0.333333 -0.166667 -0.000000      1.000000
 -0.166667 -0.166667 -0.000000      1.000000
  0.000000 -0.000000  0.166667      1.000000
  0.166667  0.000000  0.166667      1.000000
  0.333333  0.000000  0.166667      1.000000
  0.500000  0.000000  0.166667      1.000000
 -0.333333 -0.000000  0.166667      1.000000
 -0.166667 -0.000000  0.166667      1.000000
  0.000000  0.166667  0.166667      1.000000
  0.166667  0.166667  0.166667      1.000000
  0.333333  0.166667  0.166667      1.000000
  0.500000  0.166667  0.166667      1.000000
 -0.333333  0.166667  0.166667      1.000000
 -0.166667  0.166667  0.166667      1.000000
  0.000000  0.333333  0.166667      1.000000
  0.166667  0.333333  0.166667      1.000000
  0.333333  0.333333  0.166667      1.000000
  0.500000  0.333333  0.166667      1.000000
 -0.333333  0.333333  0.166667      1.000000
 -0.166667  0.333333  0.166667      1.000000
  0.000000  0.500000  0.166667      1.000000
  0.166667  0.500000  0.166667      1.000000
  0.333333  0.500000  0.166667      1.000000
  0.500000  0.500000  0.166667      1.000000
 -0.333333  0.500000  0.166667      1.000000
 -0.166667  0.500000  0.166667      1.000000
 -0.000000 -0.333333  0.166667      1.000000
  0.166667 -0.333333  0.166667      1.000000
  0.333333 -0.333333  0.166667      1.000000
  0.500000 -0.333333  0.166667      1.000000
 -0.333333 -0.333333  0.166667      1.000000
 -0.166667 -0.333333  0.166667      1.000000
 -0.000000 -0.166667  0.166667      1.000000
  0.166667 -0.166667  0.166667      1.000000
  0.333333 -0.166667  0.166667      1.000000
  0.500000 -0.166667  0.166667      1.000000
 -0.333333 -0.166667  0.166667      1.000000
 -0.166667 -0.166667  0.166667      1.000000
 -0.000000 -0.000000  0.333333      1.000000
  0.166667  0.000000  0.333333      1.000000
  0.333333  0.000000  0.333333      1.000000
  0.500000  0.000000  0.333333      1.000000
 -0.333333 -0.000000  0.333333      1.000000
 -0.166667 -0.000000  0.333333      1.000000
 -0.000000  0.166667  0.333333      1.000000
  0.166667  0.166667  0.333333      1.000000
  0.333333  0.166667  0.333333      1.000000
  0.500000  0.166667  0.333333      1.000000
 -0.333333  0.166667  0.333333      1.000000
 -0.166667  0.166667  0.333333      1.000000
 -0.000000  0.333333  0.333333      1.000000
  0.166667  0.333333  0.333333      1.000000
  0.333333  0.333333  0.333333      1.000000
  0.500000  0.333333  0.333333      1.000000
 -0.333333  0.333333  0.333333      1.000000
 -0.166667  0.333333  0.333333      1.000000
  0.000000  0.500000  0.333333      1.000000
  0.166667  0.500000  0.333333      1.000000
  0.333333  0.500000  0.333333      1.000000
  0.500000  0.500000  0.333333      1.000000
 -0.333333  0.500000  0.333333      1.000000
 -0.166667  0.500000  0.333333      1.000000
 -0.000000 -0.333333  0.333333      1.000000
  0.166667 -0.333333  0.333333      1.000000
  0.333333 -0.333333  0.333333      1.000000
  0.500000 -0.333333  0.333333      1.000000
 -0.333333 -0.333333  0.333333      1.000000
 -0.166667 -0.333333  0.333333      1.000000
 -0.000000 -0.166667  0.333333      1.000000
  0.166667 -0.166667  0.333333      1.000000
  0.333333 -0.166667  0.333333      1.000000
  0.500000 -0.166667  0.333333      1.000000
 -0.333333 -0.166667  0.333333      1.000000
 -0.166667 -0.166667  0.333333      1.000000
 -0.000000 -0.000000  0.500000      1.000000
  0.166667  0.000000  0.500000      1.000000
  0.333333  0.000000  0.500000      1.000000
  0.500000  0.000000  0.500000      1.000000
 -0.333333 -0.000000  0.500000      1.000000
 -0.166667 -0.000000  0.500000      1.000000
 -0.000000  0.166667  0.500000      1.000000
  0.166667  0.166667  0.500000      1.000000
  0.333333  0.166667  0.500000      1.000000
  0.500000  0.166667  0.500000      1.000000
 -0.333333  0.166667  0.500000      1.000000
 -0.166667  0.166667  0.500000      1.000000
 -0.000000  0.333333  0.500000      1.000000
  0.166667  0.333333  0.500000      1.000000
  0.333333  0.333333  0.500000      1.000000
  0.500000  0.333333  0.500000      1.000000
 -0.333333  0.333333  0.500000      1.000000
 -0.166667  0.333333  0.500000      1.000000
 -0.000000  0.500000  0.500000      1.000000
  0.166667  0.500000  0.500000      1.000000
  0.333333  0.500000  0.500000      1.000000
  0.500000  0.500000  0.500000      1.000000
 -0.333333  0.500000  0.500000      1.000000
 -0.166667  0.500000  0.500000      1.000000
  0.000000 -0.333333  0.500000      1.000000
  0.166667 -0.333333  0.500000      1.000000
  0.333333 -0.333333  0.500000      1.000000
  0.500000 -0.333333  0.500000      1.000000
 -0.333333 -0.333333  0.500000      1.000000
 -0.166667 -0.333333  0.500000      1.000000
  0.000000 -0.166667  0.500000      1.000000
  0.166667 -0.166667  0.500000      1.000000
  0.333333 -0.166667  0.500000      1.000000
  0.500000 -0.166667  0.500000      1.000000
 -0.333333 -0.166667  0.500000      1.000000
 -0.166667 -0.166667  0.500000      1.000000
  0.000000  0.000000 -0.333333      1.000000
  0.166667  0.000000 -0.333333      1.000000
  0.333333  0.000000 -0.333333      1.000000
  0.500000  0.000000 -0.333333      1.000000
 -0.333333 -0.000000 -0.333333      1.000000
 -0.166667 -0.000000 -0.333333      1.000000
  0.000000  0.166667 -0.333333      1.000000
  0.166667  0.166667 -0.333333      1.000000
  0.333333  0.166667 -0.333333      1.000000
  0.500000  0.166667 -0.333333      1.000000
 -0.333333  0.166667 -0.333333      1.000000
 -0.166667  0.166667 -0.333333      1.000000
  0.000000  0.333333 -0.333333      1.000000
  0.166667  0.333333 -0.333333      1.000000
  0.333333  0.333333 -0.333333      1.000000
  0.500000  0.333333 -0.333333      1.000000
 -0.333333  0.333333 -0.333333      1.000000
 -0.166667  0.333333 -0.333333      1.000000
  0.000000  0.500000 -0.333333      1.000000
  0.166667  0.500000 -0.333333      1.000000
  0.333333  0.500000 -0.333333      1.000000
  0.500000  0.500000 -0.333333      1.000000
 -0.333333  0.500000 -0.333333      1.000000
 -0.166667  0.500000 -0.333333      1.000000
  0.000000 -0.333333 -0.333333      1.000000
  0.166667 -0.333333 -0.333333      1.000000
  0.333333 -0.333333 -0.333333      1.000000
  0.500000 -0.333333 -0.333333      1.000000
 -0.333333 -0.333333 -0.333333      1.000000
 -0.166667 -0.333333 -0.333333      1.000000
  0.000000 -0.166667 -0.333333      1.000000
  0.166667 -0.166667 -0.333333      1.000000
  0.333333 -0.166667 -0.333333      1.000000
  0.500000 -0.166667 -0.333333      1.000000
 -0.333333 -0.166667 -0.333333      1.000000
 -0.166667 -0.166667 -0.333333      1.000000
  0.000000  0.000000 -0.166667      1.000000
  0.166667  0.000000 -0.166667      1.000000
  0.333333  0.000000 -0.166667      1.000000
  0.500000  0.000000 -0.166667      1.000000
 -0.333333 -0.000000 -0.166667      1.000000
 -0.166667 -0.000000 -0.166667      1.000000
  0.000000  0.166667 -0.166667      1.000000
  0.166667  0.166667 -0.166667      1.000000
  0.333333  0.166667 -0.166667      1.000000
  0.500000  0.166667 -0.166667      1.000000
 -0.333333  0.166667 -0.166667      1.000000
 -0.166667  0.166667 -0.166667      1.000000
  0.000000  0.333333 -0.166667      1.000000
  0.166667  0.333333 -0.166667      1.000000
  0.333333  0.333333 -0.166667      1.000000
  0.500000  0.333333 -0.166667      1.000000
 -0.333333  0.333333 -0.166667      1.000000
 -0.166667  0.333333 -0.166667      1.000000
 -0.000000  0.500000 -0.166667      1.000000
  0.166667  0.500000 -0.166667      1.000000
  0.333333  0.500000 -0.166667      1.000000
  0.500000  0.500000 -0.166667      1.000000
 -0.333333  0.500000 -0.166667      1.000000
 -0.166667  0.500000 -0.166667      1.000000
 -0.000000 -0.333333 -0.166667      1.000000
  0.166667 -0.333333 -0.166667      1.000000
  0.333333 -0.333333 -0.166667      1.000000
  0.500000 -0.333333 -0.166667      1.000000
 -0.333333 -0.333333 -0.166667      1.000000
 -0.166667 -0.333333 -0.166667      1.000000
 -0.000000 -0.166667 -0.166667      1.000000
  0.166667 -0.166667 -0.166667      1.000000
  0.333333 -0.166667 -0.166667      1.000000
  0.500000 -0.166667 -0.166667      1.000000
 -0.333333 -0.166667 -0.166667      1.000000
 -0.166667 -0.166667 -0.166667      1.000000
 
 Following cartesian coordinates:
            Coordinates               Weight
  0.000000  0.000000  0.000000      1.000000
  0.036869 -0.021286 -0.015052      1.000000
  0.073737 -0.042572 -0.030103      1.000000
  0.110606 -0.063858 -0.045155      1.000000
 -0.073737  0.042572  0.030103      1.000000
 -0.036869  0.021286  0.015052      1.000000
  0.000000  0.042572 -0.015052      1.000000
  0.036869  0.021286 -0.030103      1.000000
  0.073737  0.000000 -0.045155      1.000000
  0.110606 -0.021286 -0.060206      1.000000
 -0.073737  0.085144  0.015052      1.000000
 -0.036869  0.063858  0.000000      1.000000
  0.000000  0.085144 -0.030103      1.000000
  0.036869  0.063858 -0.045155      1.000000
  0.073737  0.042572 -0.060206      1.000000
  0.110606  0.021286 -0.075258      1.000000
 -0.073737  0.127716  0.000000      1.000000
 -0.036869  0.106430 -0.015052      1.000000
  0.000000  0.127716 -0.045155      1.000000
  0.036869  0.106430 -0.060206      1.000000
  0.073737  0.085144 -0.075258      1.000000
  0.110606  0.063858 -0.090309      1.000000
 -0.073737  0.170289 -0.015052      1.000000
 -0.036869  0.149002 -0.030103      1.000000
 -0.000000 -0.085144  0.030103      1.000000
  0.036869 -0.106430  0.015052      1.000000
  0.073737 -0.127716 -0.000000      1.000000
  0.110606 -0.149002 -0.015052      1.000000
 -0.073737 -0.042572  0.060206      1.000000
 -0.036869 -0.063858  0.045155      1.000000
 -0.000000 -0.042572  0.015052      1.000000
  0.036869 -0.063858 -0.000000      1.000000
  0.073737 -0.085144 -0.015052      1.000000
  0.110606 -0.106430 -0.030103      1.000000
 -0.073737 -0.000000  0.045155      1.000000
 -0.036869 -0.021286  0.030103      1.000000
 -0.000000  0.000000  0.045155      1.000000
  0.036869 -0.021286  0.030103      1.000000
  0.073737 -0.042572  0.015052      1.000000
  0.110606 -0.063858 -0.000000      1.000000
 -0.073737  0.042572  0.075258      1.000000
 -0.036869  0.021286  0.060206      1.000000
 -0.000000  0.042572  0.030103      1.000000
  0.036869  0.021286  0.015052      1.000000
  0.073737  0.000000  0.000000      1.000000
  0.110606 -0.021286 -0.015052      1.000000
 -0.073737  0.085144  0.060206      1.000000
 -0.036869  0.063858  0.045155      1.000000
 -0.000000  0.085144  0.015052      1.000000
  0.036869  0.063858  0.000000      1.000000
  0.073737  0.042572 -0.015052      1.000000
  0.110606  0.021286 -0.030103      1.000000
 -0.073737  0.127716  0.045155      1.000000
 -0.036869  0.106430  0.030103      1.000000
 -0.000000  0.127716  0.000000      1.000000
  0.036869  0.106430 -0.015052      1.000000
  0.073737  0.085144 -0.030103      1.000000
  0.110606  0.063858 -0.045155      1.000000
 -0.073737  0.170289  0.030103      1.000000
 -0.036869  0.149002  0.015052      1.000000
 -0.000000 -0.085144  0.075258      1.000000
  0.036869 -0.106430  0.060206      1.000000
  0.073737 -0.127716  0.045155      1.000000
  0.110606 -0.149002  0.030103      1.000000
 -0.073737 -0.042572  0.105361      1.000000
 -0.036869 -0.063858  0.090309      1.000000
 -0.000000 -0.042572  0.060206      1.000000
  0.036869 -0.063858  0.045155      1.000000
  0.073737 -0.085144  0.030103      1.000000
  0.110606 -0.106430  0.015052      1.000000
 -0.073737 -0.000000  0.090309      1.000000
 -0.036869 -0.021286  0.075258      1.000000
 -0.000000  0.000000  0.090309      1.000000
  0.036869 -0.021286  0.075258      1.000000
  0.073737 -0.042572  0.060206      1.000000
  0.110606 -0.063858  0.045155      1.000000
 -0.073737  0.042572  0.120412      1.000000
 -0.036869  0.021286  0.105361      1.000000
 -0.000000  0.042572  0.075258      1.000000
  0.036869  0.021286  0.060206      1.000000
  0.073737  0.000000  0.045155      1.000000
  0.110606 -0.021286  0.030103      1.000000
 -0.073737  0.085144  0.105361      1.000000
 -0.036869  0.063858  0.090309      1.000000
 -0.000000  0.085144  0.060206      1.000000
  0.036869  0.063858  0.045155      1.000000
  0.073737  0.042572  0.030103      1.000000
  0.110606  0.021286  0.015052      1.000000
 -0.073737  0.127716  0.090309      1.000000
 -0.036869  0.106430  0.075258      1.000000
 -0.000000  0.127716  0.045155      1.000000
  0.036869  0.106430  0.030103      1.000000
  0.073737  0.085144  0.015052      1.000000
  0.110606  0.063858  0.000000      1.000000
 -0.073737  0.170289  0.075258      1.000000
 -0.036869  0.149002  0.060206      1.000000
 -0.000000 -0.085144  0.120412      1.000000
  0.036869 -0.106430  0.105361      1.000000
  0.073737 -0.127716  0.090309      1.000000
  0.110606 -0.149002  0.075258      1.000000
 -0.073737 -0.042572  0.150515      1.000000
 -0.036869 -0.063858  0.135464      1.000000
 -0.000000 -0.042572  0.105361      1.000000
  0.036869 -0.063858  0.090309      1.000000
  0.073737 -0.085144  0.075258      1.000000
  0.110606 -0.106430  0.060206      1.000000
 -0.073737 -0.000000  0.135464      1.000000
 -0.036869 -0.021286  0.120412      1.000000
 -0.000000  0.000000  0.135464      1.000000
  0.036869 -0.021286  0.120412      1.000000
  0.073737 -0.042572  0.105361      1.000000
  0.110606 -0.063858  0.090309      1.000000
 -0.073737  0.042572  0.165567      1.000000
 -0.036869  0.021286  0.150515      1.000000
 -0.000000  0.042572  0.120412      1.000000
  0.036869  0.021286  0.105361      1.000000
  0.073737  0.000000  0.090309      1.000000
  0.110606 -0.021286  0.075258      1.000000
 -0.073737  0.085144  0.150515      1.000000
 -0.036869  0.063858  0.135464      1.000000
 -0.000000  0.085144  0.105361      1.000000
  0.036869  0.063858  0.090309      1.000000
  0.073737  0.042572  0.075258      1.000000
  0.110606  0.021286  0.060206      1.000000
 -0.073737  0.127716  0.135464      1.000000
 -0.036869  0.106430  0.120412      1.000000
 -0.000000  0.127716  0.090309      1.000000
  0.036869  0.106430  0.075258      1.000000
  0.073737  0.085144  0.060206      1.000000
  0.110606  0.063858  0.045155      1.000000
 -0.073737  0.170289  0.120412      1.000000
 -0.036869  0.149002  0.105361      1.000000
 -0.000000 -0.085144  0.165567      1.000000
  0.036869 -0.106430  0.150515      1.000000
  0.073737 -0.127716  0.135464      1.000000
  0.110606 -0.149002  0.120412      1.000000
 -0.073737 -0.042572  0.195670      1.000000
 -0.036869 -0.063858  0.180618      1.000000
 -0.000000 -0.042572  0.150515      1.000000
  0.036869 -0.063858  0.135464      1.000000
  0.073737 -0.085144  0.120412      1.000000
  0.110606 -0.106430  0.105361      1.000000
 -0.073737 -0.000000  0.180618      1.000000
 -0.036869 -0.021286  0.165567      1.000000
  0.000000 -0.000000 -0.090309      1.000000
  0.036869 -0.021286 -0.105361      1.000000
  0.073737 -0.042572 -0.120412      1.000000
  0.110606 -0.063858 -0.135464      1.000000
 -0.073737  0.042572 -0.060206      1.000000
 -0.036869  0.021286 -0.075258      1.000000
  0.000000  0.042572 -0.105361      1.000000
  0.036869  0.021286 -0.120412      1.000000
  0.073737  0.000000 -0.135464      1.000000
  0.110606 -0.021286 -0.150515      1.000000
 -0.073737  0.085144 -0.075258      1.000000
 -0.036869  0.063858 -0.090309      1.000000
  0.000000  0.085144 -0.120412      1.000000
  0.036869  0.063858 -0.135464      1.000000
  0.073737  0.042572 -0.150515      1.000000
  0.110606  0.021286 -0.165567      1.000000
 -0.073737  0.127716 -0.090309      1.000000
 -0.036869  0.106430 -0.105361      1.000000
  0.000000  0.127716 -0.135464      1.000000
  0.036869  0.106430 -0.150515      1.000000
  0.073737  0.085144 -0.165567      1.000000
  0.110606  0.063858 -0.180618      1.000000
 -0.073737  0.170289 -0.105361      1.000000
 -0.036869  0.149002 -0.120412      1.000000
  0.000000 -0.085144 -0.060206      1.000000
  0.036869 -0.106430 -0.075258      1.000000
  0.073737 -0.127716 -0.090309      1.000000
  0.110606 -0.149002 -0.105361      1.000000
 -0.073737 -0.042572 -0.030103      1.000000
 -0.036869 -0.063858 -0.045155      1.000000
  0.000000 -0.042572 -0.075258      1.000000
  0.036869 -0.063858 -0.090309      1.000000
  0.073737 -0.085144 -0.105361      1.000000
  0.110606 -0.106430 -0.120412      1.000000
 -0.073737 -0.000000 -0.045155      1.000000
 -0.036869 -0.021286 -0.060206      1.000000
  0.000000 -0.000000 -0.045155      1.000000
  0.036869 -0.021286 -0.060206      1.000000
  0.073737 -0.042572 -0.075258      1.000000
  0.110606 -0.063858 -0.090309      1.000000
 -0.073737  0.042572 -0.015052      1.000000
 -0.036869  0.021286 -0.030103      1.000000
  0.000000  0.042572 -0.060206      1.000000
  0.036869  0.021286 -0.075258      1.000000
  0.073737  0.000000 -0.090309      1.000000
  0.110606 -0.021286 -0.105361      1.000000
 -0.073737  0.085144 -0.030103      1.000000
 -0.036869  0.063858 -0.045155      1.000000
  0.000000  0.085144 -0.075258      1.000000
  0.036869  0.063858 -0.090309      1.000000
  0.073737  0.042572 -0.105361      1.000000
  0.110606  0.021286 -0.120412      1.000000
 -0.073737  0.127716 -0.045155      1.000000
 -0.036869  0.106430 -0.060206      1.000000
  0.000000  0.127716 -0.090309      1.000000
  0.036869  0.106430 -0.105361      1.000000
  0.073737  0.085144 -0.120412      1.000000
  0.110606  0.063858 -0.135464      1.000000
 -0.073737  0.170289 -0.060206      1.000000
 -0.036869  0.149002 -0.075258      1.000000
  0.000000 -0.085144 -0.015052      1.000000
  0.036869 -0.106430 -0.030103      1.000000
  0.073737 -0.127716 -0.045155      1.000000
  0.110606 -0.149002 -0.060206      1.000000
 -0.073737 -0.042572  0.015052      1.000000
 -0.036869 -0.063858 -0.000000      1.000000
  0.000000 -0.042572 -0.030103      1.000000
  0.036869 -0.063858 -0.045155      1.000000
  0.073737 -0.085144 -0.060206      1.000000
  0.110606 -0.106430 -0.075258      1.000000
 -0.073737 -0.000000 -0.000000      1.000000
 -0.036869 -0.021286 -0.015052      1.000000
 
 
 Subroutine IBZKPT_HF returns following result:
 ==============================================
 
 Found    216 k-points in 1st BZ
 the following    216 k-points will be used (e.g. in the exchange kernel)
 Following reciprocal coordinates:   # in IRBZ
  0.000000  0.000000  0.000000    0.00462963   1 t-inv F
  0.166667  0.000000  0.000000    0.00462963   2 t-inv F
  0.333333  0.000000  0.000000    0.00462963   3 t-inv F
  0.500000  0.000000  0.000000    0.00462963   4 t-inv F
 -0.333333 -0.000000 -0.000000    0.00462963   5 t-inv F
 -0.166667 -0.000000 -0.000000    0.00462963   6 t-inv F
  0.000000  0.166667 -0.000000    0.00462963   7 t-inv F
  0.166667  0.166667  0.000000    0.00462963   8 t-inv F
  0.333333  0.166667  0.000000    0.00462963   9 t-inv F
  0.500000  0.166667  0.000000    0.00462963  10 t-inv F
 -0.333333  0.166667 -0.000000    0.00462963  11 t-inv F
 -0.166667  0.166667 -0.000000    0.00462963  12 t-inv F
  0.000000  0.333333  0.000000    0.00462963  13 t-inv F
  0.166667  0.333333  0.000000    0.00462963  14 t-inv F
  0.333333  0.333333  0.000000    0.00462963  15 t-inv F
  0.500000  0.333333  0.000000    0.00462963  16 t-inv F
 -0.333333  0.333333 -0.000000    0.00462963  17 t-inv F
 -0.166667  0.333333 -0.000000    0.00462963  18 t-inv F
  0.000000  0.500000  0.000000    0.00462963  19 t-inv F
  0.166667  0.500000  0.000000    0.00462963  20 t-inv F
  0.333333  0.500000  0.000000    0.00462963  21 t-inv F
  0.500000  0.500000  0.000000    0.00462963  22 t-inv F
 -0.333333  0.500000 -0.000000    0.00462963  23 t-inv F
 -0.166667  0.500000 -0.000000    0.00462963  24 t-inv F
  0.000000 -0.333333  0.000000    0.00462963  25 t-inv F
  0.166667 -0.333333  0.000000    0.00462963  26 t-inv F
  0.333333 -0.333333  0.000000    0.00462963  27 t-inv F
  0.500000 -0.333333  0.000000    0.00462963  28 t-inv F
 -0.333333 -0.333333 -0.000000    0.00462963  29 t-inv F
 -0.166667 -0.333333 -0.000000    0.00462963  30 t-inv F
  0.000000 -0.166667  0.000000    0.00462963  31 t-inv F
  0.166667 -0.166667  0.000000    0.00462963  32 t-inv F
  0.333333 -0.166667  0.000000    0.00462963  33 t-inv F
  0.500000 -0.166667  0.000000    0.00462963  34 t-inv F
 -0.333333 -0.166667 -0.000000    0.00462963  35 t-inv F
 -0.166667 -0.166667 -0.000000    0.00462963  36 t-inv F
  0.000000 -0.000000  0.166667    0.00462963  37 t-inv F
  0.166667  0.000000  0.166667    0.00462963  38 t-inv F
  0.333333  0.000000  0.166667    0.00462963  39 t-inv F
  0.500000  0.000000  0.166667    0.00462963  40 t-inv F
 -0.333333 -0.000000  0.166667    0.00462963  41 t-inv F
 -0.166667 -0.000000  0.166667    0.00462963  42 t-inv F
  0.000000  0.166667  0.166667    0.00462963  43 t-inv F
  0.166667  0.166667  0.166667    0.00462963  44 t-inv F
  0.333333  0.166667  0.166667    0.00462963  45 t-inv F
  0.500000  0.166667  0.166667    0.00462963  46 t-inv F
 -0.333333  0.166667  0.166667    0.00462963  47 t-inv F
 -0.166667  0.166667  0.166667    0.00462963  48 t-inv F
  0.000000  0.333333  0.166667    0.00462963  49 t-inv F
  0.166667  0.333333  0.166667    0.00462963  50 t-inv F
  0.333333  0.333333  0.166667    0.00462963  51 t-inv F
  0.500000  0.333333  0.166667    0.00462963  52 t-inv F
 -0.333333  0.333333  0.166667    0.00462963  53 t-inv F
 -0.166667  0.333333  0.166667    0.00462963  54 t-inv F
  0.000000  0.500000  0.166667    0.00462963  55 t-inv F
  0.166667  0.500000  0.166667    0.00462963  56 t-inv F
  0.333333  0.500000  0.166667    0.00462963  57 t-inv F
  0.500000  0.500000  0.166667    0.00462963  58 t-inv F
 -0.333333  0.500000  0.166667    0.00462963  59 t-inv F
 -0.166667  0.500000  0.166667    0.00462963  60 t-inv F
 -0.000000 -0.333333  0.166667    0.00462963  61 t-inv F
  0.166667 -0.333333  0.166667    0.00462963  62 t-inv F
  0.333333 -0.333333  0.166667    0.00462963  63 t-inv F
  0.500000 -0.333333  0.166667    0.00462963  64 t-inv F
 -0.333333 -0.333333  0.166667    0.00462963  65 t-inv F
 -0.166667 -0.333333  0.166667    0.00462963  66 t-inv F
 -0.000000 -0.166667  0.166667    0.00462963  67 t-inv F
  0.166667 -0.166667  0.166667    0.00462963  68 t-inv F
  0.333333 -0.166667  0.166667    0.00462963  69 t-inv F
  0.500000 -0.166667  0.166667    0.00462963  70 t-inv F
 -0.333333 -0.166667  0.166667    0.00462963  71 t-inv F
 -0.166667 -0.166667  0.166667    0.00462963  72 t-inv F
 -0.000000 -0.000000  0.333333    0.00462963  73 t-inv F
  0.166667  0.000000  0.333333    0.00462963  74 t-inv F
  0.333333  0.000000  0.333333    0.00462963  75 t-inv F
  0.500000  0.000000  0.333333    0.00462963  76 t-inv F
 -0.333333 -0.000000  0.333333    0.00462963  77 t-inv F
 -0.166667 -0.000000  0.333333    0.00462963  78 t-inv F
 -0.000000  0.166667  0.333333    0.00462963  79 t-inv F
  0.166667  0.166667  0.333333    0.00462963  80 t-inv F
  0.333333  0.166667  0.333333    0.00462963  81 t-inv F
  0.500000  0.166667  0.333333    0.00462963  82 t-inv F
 -0.333333  0.166667  0.333333    0.00462963  83 t-inv F
 -0.166667  0.166667  0.333333    0.00462963  84 t-inv F
 -0.000000  0.333333  0.333333    0.00462963  85 t-inv F
  0.166667  0.333333  0.333333    0.00462963  86 t-inv F
  0.333333  0.333333  0.333333    0.00462963  87 t-inv F
  0.500000  0.333333  0.333333    0.00462963  88 t-inv F
 -0.333333  0.333333  0.333333    0.00462963  89 t-inv F
 -0.166667  0.333333  0.333333    0.00462963  90 t-inv F
  0.000000  0.500000  0.333333    0.00462963  91 t-inv F
  0.166667  0.500000  0.333333    0.00462963  92 t-inv F
  0.333333  0.500000  0.333333    0.00462963  93 t-inv F
  0.500000  0.500000  0.333333    0.00462963  94 t-inv F
 -0.333333  0.500000  0.333333    0.00462963  95 t-inv F
 -0.166667  0.500000  0.333333    0.00462963  96 t-inv F
 -0.000000 -0.333333  0.333333    0.00462963  97 t-inv F
  0.166667 -0.333333  0.333333    0.00462963  98 t-inv F
  0.333333 -0.333333  0.333333    0.00462963  99 t-inv F
  0.500000 -0.333333  0.333333    0.00462963 100 t-inv F
 -0.333333 -0.333333  0.333333    0.00462963 101 t-inv F
 -0.166667 -0.333333  0.333333    0.00462963 102 t-inv F
 -0.000000 -0.166667  0.333333    0.00462963 103 t-inv F
  0.166667 -0.166667  0.333333    0.00462963 104 t-inv F
  0.333333 -0.166667  0.333333    0.00462963 105 t-inv F
  0.500000 -0.166667  0.333333    0.00462963 106 t-inv F
 -0.333333 -0.166667  0.333333    0.00462963 107 t-inv F
 -0.166667 -0.166667  0.333333    0.00462963 108 t-inv F
 -0.000000 -0.000000  0.500000    0.00462963 109 t-inv F
  0.166667  0.000000  0.500000    0.00462963 110 t-inv F
  0.333333  0.000000  0.500000    0.00462963 111 t-inv F
  0.500000  0.000000  0.500000    0.00462963 112 t-inv F
 -0.333333 -0.000000  0.500000    0.00462963 113 t-inv F
 -0.166667 -0.000000  0.500000    0.00462963 114 t-inv F
 -0.000000  0.166667  0.500000    0.00462963 115 t-inv F
  0.166667  0.166667  0.500000    0.00462963 116 t-inv F
  0.333333  0.166667  0.500000    0.00462963 117 t-inv F
  0.500000  0.166667  0.500000    0.00462963 118 t-inv F
 -0.333333  0.166667  0.500000    0.00462963 119 t-inv F
 -0.166667  0.166667  0.500000    0.00462963 120 t-inv F
 -0.000000  0.333333  0.500000    0.00462963 121 t-inv F
  0.166667  0.333333  0.500000    0.00462963 122 t-inv F
  0.333333  0.333333  0.500000    0.00462963 123 t-inv F
  0.500000  0.333333  0.500000    0.00462963 124 t-inv F
 -0.333333  0.333333  0.500000    0.00462963 125 t-inv F
 -0.166667  0.333333  0.500000    0.00462963 126 t-inv F
 -0.000000  0.500000  0.500000    0.00462963 127 t-inv F
  0.166667  0.500000  0.500000    0.00462963 128 t-inv F
  0.333333  0.500000  0.500000    0.00462963 129 t-inv F
  0.500000  0.500000  0.500000    0.00462963 130 t-inv F
 -0.333333  0.500000  0.500000    0.00462963 131 t-inv F
 -0.166667  0.500000  0.500000    0.00462963 132 t-inv F
  0.000000 -0.333333  0.500000    0.00462963 133 t-inv F
  0.166667 -0.333333  0.500000    0.00462963 134 t-inv F
  0.333333 -0.333333  0.500000    0.00462963 135 t-inv F
  0.500000 -0.333333  0.500000    0.00462963 136 t-inv F
 -0.333333 -0.333333  0.500000    0.00462963 137 t-inv F
 -0.166667 -0.333333  0.500000    0.00462963 138 t-inv F
  0.000000 -0.166667  0.500000    0.00462963 139 t-inv F
  0.166667 -0.166667  0.500000    0.00462963 140 t-inv F
  0.333333 -0.166667  0.500000    0.00462963 141 t-inv F
  0.500000 -0.166667  0.500000    0.00462963 142 t-inv F
 -0.333333 -0.166667  0.500000    0.00462963 143 t-inv F
 -0.166667 -0.166667  0.500000    0.00462963 144 t-inv F
  0.000000  0.000000 -0.333333    0.00462963 145 t-inv F
  0.166667  0.000000 -0.333333    0.00462963 146 t-inv F
  0.333333  0.000000 -0.333333    0.00462963 147 t-inv F
  0.500000  0.000000 -0.333333    0.00462963 148 t-inv F
 -0.333333 -0.000000 -0.333333    0.00462963 149 t-inv F
 -0.166667 -0.000000 -0.333333    0.00462963 150 t-inv F
  0.000000  0.166667 -0.333333    0.00462963 151 t-inv F
  0.166667  0.166667 -0.333333    0.00462963 152 t-inv F
  0.333333  0.166667 -0.333333    0.00462963 153 t-inv F
  0.500000  0.166667 -0.333333    0.00462963 154 t-inv F
 -0.333333  0.166667 -0.333333    0.00462963 155 t-inv F
 -0.166667  0.166667 -0.333333    0.00462963 156 t-inv F
  0.000000  0.333333 -0.333333    0.00462963 157 t-inv F
  0.166667  0.333333 -0.333333    0.00462963 158 t-inv F
  0.333333  0.333333 -0.333333    0.00462963 159 t-inv F
  0.500000  0.333333 -0.333333    0.00462963 160 t-inv F
 -0.333333  0.333333 -0.333333    0.00462963 161 t-inv F
 -0.166667  0.333333 -0.333333    0.00462963 162 t-inv F
  0.000000  0.500000 -0.333333    0.00462963 163 t-inv F
  0.166667  0.500000 -0.333333    0.00462963 164 t-inv F
  0.333333  0.500000 -0.333333    0.00462963 165 t-inv F
  0.500000  0.500000 -0.333333    0.00462963 166 t-inv F
 -0.333333  0.500000 -0.333333    0.00462963 167 t-inv F
 -0.166667  0.500000 -0.333333    0.00462963 168 t-inv F
  0.000000 -0.333333 -0.333333    0.00462963 169 t-inv F
  0.166667 -0.333333 -0.333333    0.00462963 170 t-inv F
  0.333333 -0.333333 -0.333333    0.00462963 171 t-inv F
  0.500000 -0.333333 -0.333333    0.00462963 172 t-inv F
 -0.333333 -0.333333 -0.333333    0.00462963 173 t-inv F
 -0.166667 -0.333333 -0.333333    0.00462963 174 t-inv F
  0.000000 -0.166667 -0.333333    0.00462963 175 t-inv F
  0.166667 -0.166667 -0.333333    0.00462963 176 t-inv F
  0.333333 -0.166667 -0.333333    0.00462963 177 t-inv F
  0.500000 -0.166667 -0.333333    0.00462963 178 t-inv F
 -0.333333 -0.166667 -0.333333    0.00462963 179 t-inv F
 -0.166667 -0.166667 -0.333333    0.00462963 180 t-inv F
  0.000000  0.000000 -0.166667    0.00462963 181 t-inv F
  0.166667  0.000000 -0.166667    0.00462963 182 t-inv F
  0.333333  0.000000 -0.166667    0.00462963 183 t-inv F
  0.500000  0.000000 -0.166667    0.00462963 184 t-inv F
 -0.333333 -0.000000 -0.166667    0.00462963 185 t-inv F
 -0.166667 -0.000000 -0.166667    0.00462963 186 t-inv F
  0.000000  0.166667 -0.166667    0.00462963 187 t-inv F
  0.166667  0.166667 -0.166667    0.00462963 188 t-inv F
  0.333333  0.166667 -0.166667    0.00462963 189 t-inv F
  0.500000  0.166667 -0.166667    0.00462963 190 t-inv F
 -0.333333  0.166667 -0.166667    0.00462963 191 t-inv F
 -0.166667  0.166667 -0.166667    0.00462963 192 t-inv F
  0.000000  0.333333 -0.166667    0.00462963 193 t-inv F
  0.166667  0.333333 -0.166667    0.00462963 194 t-inv F
  0.333333  0.333333 -0.166667    0.00462963 195 t-inv F
  0.500000  0.333333 -0.166667    0.00462963 196 t-inv F
 -0.333333  0.333333 -0.166667    0.00462963 197 t-inv F
 -0.166667  0.333333 -0.166667    0.00462963 198 t-inv F
 -0.000000  0.500000 -0.166667    0.00462963 199 t-inv F
  0.166667  0.500000 -0.166667    0.00462963 200 t-inv F
  0.333333  0.500000 -0.166667    0.00462963 201 t-inv F
  0.500000  0.500000 -0.166667    0.00462963 202 t-inv F
 -0.333333  0.500000 -0.166667    0.00462963 203 t-inv F
 -0.166667  0.500000 -0.166667    0.00462963 204 t-inv F
 -0.000000 -0.333333 -0.166667    0.00462963 205 t-inv F
  0.166667 -0.333333 -0.166667    0.00462963 206 t-inv F
  0.333333 -0.333333 -0.166667    0.00462963 207 t-inv F
  0.500000 -0.333333 -0.166667    0.00462963 208 t-inv F
 -0.333333 -0.333333 -0.166667    0.00462963 209 t-inv F
 -0.166667 -0.333333 -0.166667    0.00462963 210 t-inv F
 -0.000000 -0.166667 -0.166667    0.00462963 211 t-inv F
  0.166667 -0.166667 -0.166667    0.00462963 212 t-inv F
  0.333333 -0.166667 -0.166667    0.00462963 213 t-inv F
  0.500000 -0.166667 -0.166667    0.00462963 214 t-inv F
 -0.333333 -0.166667 -0.166667    0.00462963 215 t-inv F
 -0.166667 -0.166667 -0.166667    0.00462963 216 t-inv F


--------------------------------------------------------------------------------------------------------




 Dimension of arrays:
   k-points           NKPTS =    216   k-points in BZ     NKDIM =    216   number of bands    NBANDS=    128
   number of dos      NEDOS =    301   number of ions     NIONS =      1
   non local maximal  LDIM  =     10   non local SUM 2l+1 LMDIM =     40
   total plane-waves  NPLWV =  21952
   max r-space proj   IRMAX =      1   max aug-charges    IRDMAX=  91868
   dimension x,y,z NGX =    28 NGY =   28 NGZ =   28
   dimension x,y,z NGXF=    56 NGYF=   56 NGZF=   56
   support grid    NGXF=   112 NGYF=  112 NGZF=  112
   ions per type =               1
   NGX,Y,Z   is equivalent  to a cutoff of  10.54, 10.54, 10.54 a.u.
   NGXF,Y,Z  is equivalent  to a cutoff of  21.09, 21.09, 21.09 a.u.

 SYSTEM =  Og_FCC                                  
 POSCAR =  Rn_FCC                                  

 Startparameter for this run:
   NWRITE =      1    write-flag & timer
   PREC   = accura    normal or accurate (medium, high low for compatibility)
   ISTART =      1    job   : 0-new  1-cont  2-samecut
   ICHARG =      0    charge: 1-file 2-atom 10-const
   ISPIN  =      1    spin polarized calculation?
   LNONCOLLINEAR =      T non collinear calculations
   LSORBIT =      T    spin-orbit coupling
   INIWAV =      1    electr: 0-lowe 1-rand  2-diag
   LASPH  =      F    aspherical Exc in radial PAW
   METAGGA=      F    non-selfconsistent MetaGGA calc.

 Electronic Relaxation 1
   ENCUT  =  300.0 eV  22.05 Ry    4.70 a.u.   6.23  6.23  6.23*2*pi/ulx,y,z
   ENINI  =  300.0     initial cutoff
   ENAUG  =  813.3 eV  augmentation charge cutoff
   NELM   =      1;   NELMIN=  2; NELMDL=  0     # of ELM steps 
   EDIFF  = 0.1E-07   stopping-criterion for ELM
   LREAL  =      F    real-space projection
   NLSPLINE    = F    spline interpolate recip. space projectors
   LCOMPAT=      F    compatible to vasp.4.4
   GGA_COMPAT  = F    GGA compatible to vasp.4.4-vasp.4.6
   LMAXPAW     = -100 max onsite density
   LMAXMIX     =    2 max onsite mixed and CHGCAR
   VOSKOWN=      0    Vosko Wilk Nusair interpolation
   ROPT   =    0.00000
 Ionic relaxation
   EDIFFG = 0.1E-04   stopping-criterion for IOM
   NSW    =      1    number of steps for IOM
   NBLOCK =      1;   KBLOCK =      1    inner block; outer block 
   IBRION =     -1    ionic relax: 0-MD 1-quasi-New 2-CG
   NFREE  =      5    steps in history (QN), initial steepest desc. (CG)
   ISIF   =      3    stress and relaxation
   IWAVPR =     10    prediction:  0-non 1-charg 2-wave 3-comb
   ISYM   =      0    0-nonsym 1-usesym 2-fastsym
   LCORR  =      T    Harris-Foulkes like correction to forces

   POTIM  = 0.1000    time-step for ionic-motion
   TEIN   =    0.0    initial temperature
   TEBEG  =    0.0;   TEEND  =   0.0 temperature during run
   SMASS  =  -3.00    Nose mass-parameter (am)
   estimated Nose-frequenzy (Omega)   =  0.10E-29 period in steps =****** mass=  -0.445E-27a.u.
   SCALEE = 1.0000    scale energy and forces
   NPACO  =    256;   APACO  = 16.0  distance and # of slots for P.C.
   PSTRESS=    0.0 pullay stress

  Mass of Ions in am
   POMASS =  22.02
  Ionic Valenz
   ZVAL   =  26.00
  Atomic Wigner-Seitz radii
   RWIGS  =  -1.00
  virtual crystal weights 
   VCA    =   1.00
   NELECT =      26.0000    total number of electrons
   NUPDOWN=      -1.0000    fix difference up-down

 DOS related values:
   EMIN   =  10.00;   EMAX   =-10.00  energy-range for DOS
   EFERMI =   0.00
   ISMEAR =     0;   SIGMA  =   0.02  broadening in eV -4-tet -1-fermi 0-gaus

 Electronic relaxation 2 (details)
   IALGO  =     38    algorithm
   LDIAG  =      T    sub-space diagonalisation (order eigenvalues)
   LSUBROT=      F    optimize rotation matrix (better conditioning)
   TURBO    =      0    0=normal 1=particle mesh
   IRESTART =      0    0=no restart 2=restart with 2 vectors
   NREBOOT  =      0    no. of reboots
   NMIN     =      0    reboot dimension
   EREF     =   0.00    reference energy to select bands
   IMIX   =      1    mixing-type and parameters
     AMIX     =   0.40;   BMIX     =  1.00
     AMIX_MAG =   1.60;   BMIX_MAG =  1.00
     AMIN     =   0.10
     WC   =   100.;   INIMIX=   1;  MIXPRE=   1;  MAXMIX=  50

 Intra band minimization:
   WEIMIN = 0.0000     energy-eigenvalue tresh-hold
   EBREAK =  0.20E-10  absolut break condition
   DEPER  =   0.30     relativ break condition  

   TIME   =   0.40     timestep for ELM

  volume/ion in A,a.u.               =      60.83       410.53
  Fermi-wavevector in a.u.,A,eV,Ry     =   1.233148  2.330312 20.689765  1.520655
  Thomas-Fermi vector in A             =   2.367890
 
 Write flags
   LWAVE        =      T    write WAVECAR
   LDOWNSAMPLE  =      F    k-point downsampling of WAVECAR
   LCHARG       =      F    write CHGCAR
   LVTOT        =      F    write LOCPOT, total local potential
   LVHAR        =      F    write LOCPOT, Hartree potential only
   LELF         =      F    write electronic localiz. function (ELF)
   LORBIT       =      0    0 simple, 1 ext, 2 COOP (PROOUT), +10 PAW based schemes


 Dipole corrections
   LMONO  =      F    monopole corrections only (constant potential shift)
   LDIPOL =      F    correct potential (dipole corrections)
   IDIPOL =      0    1-x, 2-y, 3-z, 4-all directions 
   EPSILON=  1.0000000 bulk dielectric constant

 Exchange correlation treatment:
   GGA     =    PE    GGA type
   LEXCH   =     8    internal setting for exchange type
   VOSKOWN=      0    Vosko Wilk Nusair interpolation
   EXXOEP  =     0    0=HF, 1=EXX-LHF (local Hartree Fock) 2=EXX OEP
   LHFCALC =     T    Hartree Fock is set to
   LSYMGRAD=     F    symmetrize gradient (conserves proper symmetry)
   PRECFOCK=normal    Normal, Fast or Accurate (Low or Medium for compatibility)
   LRHFCALC=     F    long range Hartree Fock
   LRSCOR  =     F    long range correlation only (use DFT for short range part)
   LTHOMAS =     F    Thomas Fermi screening in HF
   LMODELHF=     F    short range full HF, long range fraction AEXX
   ENCUT4O =  -1.0   cutoff for four orbital integrals eV
   LMAXFOCK=     4    L truncation for augmentation on plane wave grid
   LMAXFOCKAE=   4    L truncation for all-electron charge restoration on plane wave grid
   NMAXFOCKAE=   1    number of basis functions for all-electron charge restoration
   LFOCKAEDFT=     F  apply the AE augmentation even for DFT
   NKREDX  =     1    reduce k-point grid by
   NKREDY  =     1    reduce k-point grid by
   NKREDZ  =     1    reduce k-point grid by
   SHIFTRED=     F    shift reduced grid of Gamma
   HFKIDENT=     F    idential grid for each k-point
   ODDONLY =     F    use only odd q-grid points
   EVENONLY=     F    use only even q-grid points
   HFALPHA =   -1.0000 decay constant for conv. correction
   MCALPHA =    0.0000 extent of test-charge in conv. correction in multipole expansion
   AEXX    =    1.0000 exact exchange contribution
   HFSCREEN=    0.0000 screening length (either q_TF or 0.3 A-1)
   HFSCREENC=   0.0000 screening length for correlation (either q_TF or 0.3 A-1)
   HFRCUT  =    0.0000 spherical cutoff for potential kernel
   ALDAX   =    0.0000 LDA exchange part
   AGGAX   =    0.0000 GGA exchange part
   ALDAC   =    0.0000 LDA correlation
   AGGAC   =    0.0000 GGA correlation
   ENCUTFOCK=  -1.0 apply spherical cutoff to Coloumb kernel
   NBANDSGWLOW=     1    first orbital included in HF term
   NBLOCK_FOCK=    64    blocking factor in FOCK_ACC
 Linear response parameters
   LEPSILON=     F    determine dielectric tensor
   LRPA    =     F    only Hartree local field effects (RPA)
   LNABLA  =     F    use nabla operator in PAW spheres
   LVEL    =     F    velocity operator in full k-point grid
   LINTERFAST=   F  fast interpolation
   KINTER  =     0    interpolate to denser k-point grid
   CSHIFT  =0.1000    complex shift for real part using Kramers Kronig
   OMEGAMAX=  -1.0    maximum frequency
   DEG_THRESHOLD= 0.2000000E-02 threshold for treating states as degnerate
   RTIME   =   -0.100 relaxation time in fs
  (WPLASMAI=    0.000 imaginary part of plasma frequency in eV, 0.658/RTIME)
   DFIELD  = 0.0000000 0.0000000 0.0000000 field for delta impulse in time
 
 Orbital magnetization related:
   ORBITALMAG=     F  switch on orbital magnetization
   LCHIMAG   =     F  perturbation theory with respect to B field
   DQ        =  0.001000  dq finite difference perturbation B field
   LLRAUG    =     F  two centre corrections for induced B field

 Response functions by sum over occupied states:
   ALGO    =QPGW       execute GW part
   LFXC    =     F    include DFT xc kernel in TD-HF and W
   LADDER  =     F    particle hole ladder diagrams for BSE/TD-HF and W (Nano-quanta)
   LRPAFORCE=     F   calculate RPA forces
   LHARTREE=     T    include Hartree terms (bubbles-RPA) in BSE/TD-HF
   IBSE    =     0    BSE modus: 0 exact, 1 time-evolution (store matrix), 10 time-evolution (implicit)
   KPOINT  =    -1   0   0   0    k-point index at which BSE equation is solved (and G at which response is eval.)
   LTRIPLET=     F    triplet instead of singlet excitation (BSE only)
   LRSRPA  =     F    range separated RPA (total - short) in ACFDT
   LTCTE   =     F    use test-charge test-electron dielectric function
   LTETE   =     F    use test-electron test-electron dielectric function
   LFXCEPS =     F    determine f_xc=epsilon-1/Xi Sharma and Gross kernel
   LFXHEG  =     F    model exchange using f_x(G,k_F) from free electron gas
   NATURALO=     2    0 natural orbitals, 1 only virtual, 2 only occupied-virtual rotation
   L2ORDER =     F    2nd order terms only
   LMP2LT   =     F    use LT MP2
   LUSEW   =     F    use screened W from WXXXX.tmp files instead of (screened) HF kernel
   ENCUTGW = 200.0    cutoff for response function in eV
   ENCUTGWSOFT = 200.0 soft cutoff for Coulomb kernel in GW response function in eV
   ENCUTLF =  -1.0    cutoff for local field effects
   LMAXMP2 =    -1    maximum L for one center terms
   SCISSOR =   0.0    scissor correction
   NOMEGA  =    50    number of frequencies
   NOMEGAR =    50    number of frequencies along real axis
   NBANDSGW=    -1    number of bands for which selfenergy shift is calculated
   NBANDSGWLOW=     1 lowest band included in GW (to exclude core correlation)
   NBANDSO =    -1    number of bands for electron-hole treatment (occupied)
   NBANDSV =    -1    number of bands for electron-hole treatment (virtual)
   NELM    =     1    number of iterations in solving QP/BSE equation
   NELMHF  =     1    number of iterations in the inner HF iteration
   DIM     =     3    dimensionality of system (0=0D molecules, 3=3D)
   ANTIRES =     0    antiresonant part (0) no TDA (1) w=0 exact (2) accurate
   OMEGAMAX= -30.0    maximum frequency
   OMEGAMIN= -30.000    minimum frequency
   OMEGATL =-200.0    maximum frequency of tail
   OMEGAGRID=     0    grid type (0 default)
   CSHIFT  =-0.100    complex shift used in evaluation of response functions
   SELFENERGY=   F    calculate selfenergy instead of QP shifts
   LSPECTRAL =   T    use spectral functions                   
   LSPECTRALGW=   F   use spectral functions to calculate int dz G(w-z) W(z) (more accurate)
   LSINGLES  =   F   calculate the singles contribution to the correlation energy
   LFERMIGW  =   F   update Fermi-energy in the Greens function

   ODDONLYGW =   F    avoid all even points for polarizability 
   EVENONLYGW=   F    avoid all odd  points for polarizability 
   NKREDLFX  =   1   NKREDLFY  =   1   NKREDLFZ  =   1

   TELESCOPE =   0   use telescope k-point sampling
   TAUPAR    =   1   number of TAU groups used in imaginary time calculation
   OMEGAPAR  =  -1   number of OMEGA groups used in imaginary frequency calculation



--------------------------------------------------------------------------------------------------------


 Static calculation
 charge density and potential will be updated during run
 non collinear spin polarized calculation
 Variant of blocked Davidson
 Davidson routine will perform the subspace rotation
 perform sub-space diagonalisation
    after iterative eigenvector-optimisation
 Kerker-like  mixing scheme
 using additional bands          115
 reciprocal scheme for non local part
 use partial core corrections
 calculate Harris-corrections to forces 
   (improved forces if not selfconsistent)
 use gradient corrections 
 use of overlap-Matrix (Vanderbilt PP)
 Gauss-broadening in eV      SIGMA  =   0.02


--------------------------------------------------------------------------------------------------------


  energy-cutoff  :      300.00
  volume of cell :       60.83
      direct lattice vectors                 reciprocal lattice vectors
     4.414575608  0.000000000  0.000000000     0.226522341 -0.130782734 -0.092477358
     2.207287804  3.823134623 -0.000000000     0.000000000  0.261565469 -0.092477358
     2.207287804  1.274378208  3.604485890    -0.000000000  0.000000000  0.277432075

  length of vectors
     4.414575608  4.414575608  4.414575608     0.277432075  0.277432075  0.277432075


 
 old parameters found on file WAVECAR:
  energy-cutoff  :      300.00
  volume of cell :       60.83
      direct lattice vectors                 reciprocal lattice vectors
     4.414575608  0.000000000  0.000000000     0.226522341 -0.130782734 -0.092477358
     2.207287804  3.823134623 -0.000000000     0.000000000  0.261565469 -0.092477358
     2.207287804  1.274378208  3.604485890    -0.000000000  0.000000000  0.277432075

  length of vectors

 
 k-points in units of 2pi/SCALE and weight: k-points                                
   0.00000000  0.00000000  0.00000000       0.005
   0.03686855 -0.02128607 -0.01505152       0.005
   0.07373710 -0.04257213 -0.03010304       0.005
   0.11060565 -0.06385820 -0.04515457       0.005
  -0.07373710  0.04257213  0.03010304       0.005
  -0.03686855  0.02128607  0.01505152       0.005
   0.00000000  0.04257213 -0.01505152       0.005
   0.03686855  0.02128607 -0.03010304       0.005
   0.07373710  0.00000000 -0.04515457       0.005
   0.11060565 -0.02128607 -0.06020609       0.005
  -0.07373710  0.08514427  0.01505152       0.005
  -0.03686855  0.06385820  0.00000000       0.005
   0.00000000  0.08514427 -0.03010304       0.005
   0.03686855  0.06385820 -0.04515457       0.005
   0.07373710  0.04257213 -0.06020609       0.005
   0.11060565  0.02128607 -0.07525761       0.005
  -0.07373710  0.12771640  0.00000000       0.005
  -0.03686855  0.10643034 -0.01505152       0.005
   0.00000000  0.12771640 -0.04515457       0.005
   0.03686855  0.10643034 -0.06020609       0.005
   0.07373710  0.08514427 -0.07525761       0.005
   0.11060565  0.06385820 -0.09030913       0.005
  -0.07373710  0.17028854 -0.01505152       0.005
  -0.03686855  0.14900247 -0.03010304       0.005
  -0.00000000 -0.08514427  0.03010304       0.005
   0.03686855 -0.10643034  0.01505152       0.005
   0.07373710 -0.12771640 -0.00000000       0.005
   0.11060565 -0.14900247 -0.01505152       0.005
  -0.07373710 -0.04257213  0.06020609       0.005
  -0.03686855 -0.06385820  0.04515457       0.005
  -0.00000000 -0.04257213  0.01505152       0.005
   0.03686855 -0.06385820 -0.00000000       0.005
   0.07373710 -0.08514427 -0.01505152       0.005
   0.11060565 -0.10643034 -0.03010304       0.005
  -0.07373710 -0.00000000  0.04515457       0.005
  -0.03686855 -0.02128607  0.03010304       0.005
  -0.00000000  0.00000000  0.04515457       0.005
   0.03686855 -0.02128607  0.03010304       0.005
   0.07373710 -0.04257213  0.01505152       0.005
   0.11060565 -0.06385820 -0.00000000       0.005
  -0.07373710  0.04257213  0.07525761       0.005
  -0.03686855  0.02128607  0.06020609       0.005
  -0.00000000  0.04257213  0.03010304       0.005
   0.03686855  0.02128607  0.01505152       0.005
   0.07373710  0.00000000  0.00000000       0.005
   0.11060565 -0.02128607 -0.01505152       0.005
  -0.07373710  0.08514427  0.06020609       0.005
  -0.03686855  0.06385820  0.04515457       0.005
  -0.00000000  0.08514427  0.01505152       0.005
   0.03686855  0.06385820  0.00000000       0.005
   0.07373710  0.04257213 -0.01505152       0.005
   0.11060565  0.02128607 -0.03010304       0.005
  -0.07373710  0.12771640  0.04515457       0.005
  -0.03686855  0.10643034  0.03010304       0.005
  -0.00000000  0.12771640  0.00000000       0.005
   0.03686855  0.10643034 -0.01505152       0.005
   0.07373710  0.08514427 -0.03010304       0.005
   0.11060565  0.06385820 -0.04515457       0.005
  -0.07373710  0.17028854  0.03010304       0.005
  -0.03686855  0.14900247  0.01505152       0.005
  -0.00000000 -0.08514427  0.07525761       0.005
   0.03686855 -0.10643034  0.06020609       0.005
   0.07373710 -0.12771640  0.04515457       0.005
   0.11060565 -0.14900247  0.03010304       0.005
  -0.07373710 -0.04257213  0.10536066       0.005
  -0.03686855 -0.06385820  0.09030913       0.005
  -0.00000000 -0.04257213  0.06020609       0.005
   0.03686855 -0.06385820  0.04515457       0.005
   0.07373710 -0.08514427  0.03010304       0.005
   0.11060565 -0.10643034  0.01505152       0.005
  -0.07373710 -0.00000000  0.09030913       0.005
  -0.03686855 -0.02128607  0.07525761       0.005
  -0.00000000  0.00000000  0.09030913       0.005
   0.03686855 -0.02128607  0.07525761       0.005
   0.07373710 -0.04257213  0.06020609       0.005
   0.11060565 -0.06385820  0.04515457       0.005
  -0.07373710  0.04257213  0.12041218       0.005
  -0.03686855  0.02128607  0.10536066       0.005
  -0.00000000  0.04257213  0.07525761       0.005
   0.03686855  0.02128607  0.06020609       0.005
   0.07373710  0.00000000  0.04515457       0.005
   0.11060565 -0.02128607  0.03010304       0.005
  -0.07373710  0.08514427  0.10536066       0.005
  -0.03686855  0.06385820  0.09030913       0.005
  -0.00000000  0.08514427  0.06020609       0.005
   0.03686855  0.06385820  0.04515457       0.005
   0.07373710  0.04257213  0.03010304       0.005
   0.11060565  0.02128607  0.01505152       0.005
  -0.07373710  0.12771640  0.09030913       0.005
  -0.03686855  0.10643034  0.07525761       0.005
  -0.00000000  0.12771640  0.04515457       0.005
   0.03686855  0.10643034  0.03010304       0.005
   0.07373710  0.08514427  0.01505152       0.005
   0.11060565  0.06385820  0.00000000       0.005
  -0.07373710  0.17028854  0.07525761       0.005
  -0.03686855  0.14900247  0.06020609       0.005
  -0.00000000 -0.08514427  0.12041218       0.005
   0.03686855 -0.10643034  0.10536066       0.005
   0.07373710 -0.12771640  0.09030913       0.005
   0.11060565 -0.14900247  0.07525761       0.005
  -0.07373710 -0.04257213  0.15051522       0.005
  -0.03686855 -0.06385820  0.13546370       0.005
  -0.00000000 -0.04257213  0.10536066       0.005
   0.03686855 -0.06385820  0.09030913       0.005
   0.07373710 -0.08514427  0.07525761       0.005
   0.11060565 -0.10643034  0.06020609       0.005
  -0.07373710 -0.00000000  0.13546370       0.005
  -0.03686855 -0.02128607  0.12041218       0.005
  -0.00000000  0.00000000  0.13546370       0.005
   0.03686855 -0.02128607  0.12041218       0.005
   0.07373710 -0.04257213  0.10536066       0.005
   0.11060565 -0.06385820  0.09030913       0.005
  -0.07373710  0.04257213  0.16556675       0.005
  -0.03686855  0.02128607  0.15051522       0.005
  -0.00000000  0.04257213  0.12041218       0.005
   0.03686855  0.02128607  0.10536066       0.005
   0.07373710  0.00000000  0.09030913       0.005
   0.11060565 -0.02128607  0.07525761       0.005
  -0.07373710  0.08514427  0.15051522       0.005
  -0.03686855  0.06385820  0.13546370       0.005
  -0.00000000  0.08514427  0.10536066       0.005
   0.03686855  0.06385820  0.09030913       0.005
   0.07373710  0.04257213  0.07525761       0.005
   0.11060565  0.02128607  0.06020609       0.005
  -0.07373710  0.12771640  0.13546370       0.005
  -0.03686855  0.10643034  0.12041218       0.005
  -0.00000000  0.12771640  0.09030913       0.005
   0.03686855  0.10643034  0.07525761       0.005
   0.07373710  0.08514427  0.06020609       0.005
   0.11060565  0.06385820  0.04515457       0.005
  -0.07373710  0.17028854  0.12041218       0.005
  -0.03686855  0.14900247  0.10536066       0.005
  -0.00000000 -0.08514427  0.16556675       0.005
   0.03686855 -0.10643034  0.15051522       0.005
   0.07373710 -0.12771640  0.13546370       0.005
   0.11060565 -0.14900247  0.12041218       0.005
  -0.07373710 -0.04257213  0.19566979       0.005
  -0.03686855 -0.06385820  0.18061827       0.005
  -0.00000000 -0.04257213  0.15051522       0.005
   0.03686855 -0.06385820  0.13546370       0.005
   0.07373710 -0.08514427  0.12041218       0.005
   0.11060565 -0.10643034  0.10536066       0.005
  -0.07373710 -0.00000000  0.18061827       0.005
  -0.03686855 -0.02128607  0.16556675       0.005
   0.00000000 -0.00000000 -0.09030913       0.005
   0.03686855 -0.02128607 -0.10536066       0.005
   0.07373710 -0.04257213 -0.12041218       0.005
   0.11060565 -0.06385820 -0.13546370       0.005
  -0.07373710  0.04257213 -0.06020609       0.005
  -0.03686855  0.02128607 -0.07525761       0.005
   0.00000000  0.04257213 -0.10536066       0.005
   0.03686855  0.02128607 -0.12041218       0.005
   0.07373710  0.00000000 -0.13546370       0.005
   0.11060565 -0.02128607 -0.15051522       0.005
  -0.07373710  0.08514427 -0.07525761       0.005
  -0.03686855  0.06385820 -0.09030913       0.005
   0.00000000  0.08514427 -0.12041218       0.005
   0.03686855  0.06385820 -0.13546370       0.005
   0.07373710  0.04257213 -0.15051522       0.005
   0.11060565  0.02128607 -0.16556675       0.005
  -0.07373710  0.12771640 -0.09030913       0.005
  -0.03686855  0.10643034 -0.10536066       0.005
   0.00000000  0.12771640 -0.13546370       0.005
   0.03686855  0.10643034 -0.15051522       0.005
   0.07373710  0.08514427 -0.16556675       0.005
   0.11060565  0.06385820 -0.18061827       0.005
  -0.07373710  0.17028854 -0.10536066       0.005
  -0.03686855  0.14900247 -0.12041218       0.005
   0.00000000 -0.08514427 -0.06020609       0.005
   0.03686855 -0.10643034 -0.07525761       0.005
   0.07373710 -0.12771640 -0.09030913       0.005
   0.11060565 -0.14900247 -0.10536066       0.005
  -0.07373710 -0.04257213 -0.03010304       0.005
  -0.03686855 -0.06385820 -0.04515457       0.005
   0.00000000 -0.04257213 -0.07525761       0.005
   0.03686855 -0.06385820 -0.09030913       0.005
   0.07373710 -0.08514427 -0.10536066       0.005
   0.11060565 -0.10643034 -0.12041218       0.005
  -0.07373710 -0.00000000 -0.04515457       0.005
  -0.03686855 -0.02128607 -0.06020609       0.005
   0.00000000 -0.00000000 -0.04515457       0.005
   0.03686855 -0.02128607 -0.06020609       0.005
   0.07373710 -0.04257213 -0.07525761       0.005
   0.11060565 -0.06385820 -0.09030913       0.005
  -0.07373710  0.04257213 -0.01505152       0.005
  -0.03686855  0.02128607 -0.03010304       0.005
   0.00000000  0.04257213 -0.06020609       0.005
   0.03686855  0.02128607 -0.07525761       0.005
   0.07373710  0.00000000 -0.09030913       0.005
   0.11060565 -0.02128607 -0.10536066       0.005
  -0.07373710  0.08514427 -0.03010304       0.005
  -0.03686855  0.06385820 -0.04515457       0.005
   0.00000000  0.08514427 -0.07525761       0.005
   0.03686855  0.06385820 -0.09030913       0.005
   0.07373710  0.04257213 -0.10536066       0.005
   0.11060565  0.02128607 -0.12041218       0.005
  -0.07373710  0.12771640 -0.04515457       0.005
  -0.03686855  0.10643034 -0.06020609       0.005
   0.00000000  0.12771640 -0.09030913       0.005
   0.03686855  0.10643034 -0.10536066       0.005
   0.07373710  0.08514427 -0.12041218       0.005
   0.11060565  0.06385820 -0.13546370       0.005
  -0.07373710  0.17028854 -0.06020609       0.005
  -0.03686855  0.14900247 -0.07525761       0.005
   0.00000000 -0.08514427 -0.01505152       0.005
   0.03686855 -0.10643034 -0.03010304       0.005
   0.07373710 -0.12771640 -0.04515457       0.005
   0.11060565 -0.14900247 -0.06020609       0.005
  -0.07373710 -0.04257213  0.01505152       0.005
  -0.03686855 -0.06385820 -0.00000000       0.005
   0.00000000 -0.04257213 -0.03010304       0.005
   0.03686855 -0.06385820 -0.04515457       0.005
   0.07373710 -0.08514427 -0.06020609       0.005
   0.11060565 -0.10643034 -0.07525761       0.005
  -0.07373710 -0.00000000 -0.00000000       0.005
  -0.03686855 -0.02128607 -0.01505152       0.005
 
 k-points in reciprocal lattice and weights: k-points                                
   0.00000000  0.00000000  0.00000000       0.005
   0.16666667  0.00000000  0.00000000       0.005
   0.33333333  0.00000000  0.00000000       0.005
   0.50000000  0.00000000  0.00000000       0.005
  -0.33333333 -0.00000000 -0.00000000       0.005
  -0.16666667 -0.00000000 -0.00000000       0.005
   0.00000000  0.16666667 -0.00000000       0.005
   0.16666667  0.16666667  0.00000000       0.005
   0.33333333  0.16666667  0.00000000       0.005
   0.50000000  0.16666667  0.00000000       0.005
  -0.33333333  0.16666667 -0.00000000       0.005
  -0.16666667  0.16666667 -0.00000000       0.005
   0.00000000  0.33333333  0.00000000       0.005
   0.16666667  0.33333333  0.00000000       0.005
   0.33333333  0.33333333  0.00000000       0.005
   0.50000000  0.33333333  0.00000000       0.005
  -0.33333333  0.33333333 -0.00000000       0.005
  -0.16666667  0.33333333 -0.00000000       0.005
   0.00000000  0.50000000  0.00000000       0.005
   0.16666667  0.50000000  0.00000000       0.005
   0.33333333  0.50000000  0.00000000       0.005
   0.50000000  0.50000000  0.00000000       0.005
  -0.33333333  0.50000000 -0.00000000       0.005
  -0.16666667  0.50000000 -0.00000000       0.005
   0.00000000 -0.33333333  0.00000000       0.005
   0.16666667 -0.33333333  0.00000000       0.005
   0.33333333 -0.33333333  0.00000000       0.005
   0.50000000 -0.33333333  0.00000000       0.005
  -0.33333333 -0.33333333 -0.00000000       0.005
  -0.16666667 -0.33333333 -0.00000000       0.005
   0.00000000 -0.16666667  0.00000000       0.005
   0.16666667 -0.16666667  0.00000000       0.005
   0.33333333 -0.16666667  0.00000000       0.005
   0.50000000 -0.16666667  0.00000000       0.005
  -0.33333333 -0.16666667 -0.00000000       0.005
  -0.16666667 -0.16666667 -0.00000000       0.005
   0.00000000 -0.00000000  0.16666667       0.005
   0.16666667  0.00000000  0.16666667       0.005
   0.33333333  0.00000000  0.16666667       0.005
   0.50000000  0.00000000  0.16666667       0.005
  -0.33333333 -0.00000000  0.16666667       0.005
  -0.16666667 -0.00000000  0.16666667       0.005
   0.00000000  0.16666667  0.16666667       0.005
   0.16666667  0.16666667  0.16666667       0.005
   0.33333333  0.16666667  0.16666667       0.005
   0.50000000  0.16666667  0.16666667       0.005
  -0.33333333  0.16666667  0.16666667       0.005
  -0.16666667  0.16666667  0.16666667       0.005
   0.00000000  0.33333333  0.16666667       0.005
   0.16666667  0.33333333  0.16666667       0.005
   0.33333333  0.33333333  0.16666667       0.005
   0.50000000  0.33333333  0.16666667       0.005
  -0.33333333  0.33333333  0.16666667       0.005
  -0.16666667  0.33333333  0.16666667       0.005
   0.00000000  0.50000000  0.16666667       0.005
   0.16666667  0.50000000  0.16666667       0.005
   0.33333333  0.50000000  0.16666667       0.005
   0.50000000  0.50000000  0.16666667       0.005
  -0.33333333  0.50000000  0.16666667       0.005
  -0.16666667  0.50000000  0.16666667       0.005
  -0.00000000 -0.33333333  0.16666667       0.005
   0.16666667 -0.33333333  0.16666667       0.005
   0.33333333 -0.33333333  0.16666667       0.005
   0.50000000 -0.33333333  0.16666667       0.005
  -0.33333333 -0.33333333  0.16666667       0.005
  -0.16666667 -0.33333333  0.16666667       0.005
  -0.00000000 -0.16666667  0.16666667       0.005
   0.16666667 -0.16666667  0.16666667       0.005
   0.33333333 -0.16666667  0.16666667       0.005
   0.50000000 -0.16666667  0.16666667       0.005
  -0.33333333 -0.16666667  0.16666667       0.005
  -0.16666667 -0.16666667  0.16666667       0.005
  -0.00000000 -0.00000000  0.33333333       0.005
   0.16666667  0.00000000  0.33333333       0.005
   0.33333333  0.00000000  0.33333333       0.005
   0.50000000  0.00000000  0.33333333       0.005
  -0.33333333 -0.00000000  0.33333333       0.005
  -0.16666667 -0.00000000  0.33333333       0.005
  -0.00000000  0.16666667  0.33333333       0.005
   0.16666667  0.16666667  0.33333333       0.005
   0.33333333  0.16666667  0.33333333       0.005
   0.50000000  0.16666667  0.33333333       0.005
  -0.33333333  0.16666667  0.33333333       0.005
  -0.16666667  0.16666667  0.33333333       0.005
  -0.00000000  0.33333333  0.33333333       0.005
   0.16666667  0.33333333  0.33333333       0.005
   0.33333333  0.33333333  0.33333333       0.005
   0.50000000  0.33333333  0.33333333       0.005
  -0.33333333  0.33333333  0.33333333       0.005
  -0.16666667  0.33333333  0.33333333       0.005
   0.00000000  0.50000000  0.33333333       0.005
   0.16666667  0.50000000  0.33333333       0.005
   0.33333333  0.50000000  0.33333333       0.005
   0.50000000  0.50000000  0.33333333       0.005
  -0.33333333  0.50000000  0.33333333       0.005
  -0.16666667  0.50000000  0.33333333       0.005
  -0.00000000 -0.33333333  0.33333333       0.005
   0.16666667 -0.33333333  0.33333333       0.005
   0.33333333 -0.33333333  0.33333333       0.005
   0.50000000 -0.33333333  0.33333333       0.005
  -0.33333333 -0.33333333  0.33333333       0.005
  -0.16666667 -0.33333333  0.33333333       0.005
  -0.00000000 -0.16666667  0.33333333       0.005
   0.16666667 -0.16666667  0.33333333       0.005
   0.33333333 -0.16666667  0.33333333       0.005
   0.50000000 -0.16666667  0.33333333       0.005
  -0.33333333 -0.16666667  0.33333333       0.005
  -0.16666667 -0.16666667  0.33333333       0.005
  -0.00000000 -0.00000000  0.50000000       0.005
   0.16666667  0.00000000  0.50000000       0.005
   0.33333333  0.00000000  0.50000000       0.005
   0.50000000  0.00000000  0.50000000       0.005
  -0.33333333 -0.00000000  0.50000000       0.005
  -0.16666667 -0.00000000  0.50000000       0.005
  -0.00000000  0.16666667  0.50000000       0.005
   0.16666667  0.16666667  0.50000000       0.005
   0.33333333  0.16666667  0.50000000       0.005
   0.50000000  0.16666667  0.50000000       0.005
  -0.33333333  0.16666667  0.50000000       0.005
  -0.16666667  0.16666667  0.50000000       0.005
  -0.00000000  0.33333333  0.50000000       0.005
   0.16666667  0.33333333  0.50000000       0.005
   0.33333333  0.33333333  0.50000000       0.005
   0.50000000  0.33333333  0.50000000       0.005
  -0.33333333  0.33333333  0.50000000       0.005
  -0.16666667  0.33333333  0.50000000       0.005
  -0.00000000  0.50000000  0.50000000       0.005
   0.16666667  0.50000000  0.50000000       0.005
   0.33333333  0.50000000  0.50000000       0.005
   0.50000000  0.50000000  0.50000000       0.005
  -0.33333333  0.50000000  0.50000000       0.005
  -0.16666667  0.50000000  0.50000000       0.005
   0.00000000 -0.33333333  0.50000000       0.005
   0.16666667 -0.33333333  0.50000000       0.005
   0.33333333 -0.33333333  0.50000000       0.005
   0.50000000 -0.33333333  0.50000000       0.005
  -0.33333333 -0.33333333  0.50000000       0.005
  -0.16666667 -0.33333333  0.50000000       0.005
   0.00000000 -0.16666667  0.50000000       0.005
   0.16666667 -0.16666667  0.50000000       0.005
   0.33333333 -0.16666667  0.50000000       0.005
   0.50000000 -0.16666667  0.50000000       0.005
  -0.33333333 -0.16666667  0.50000000       0.005
  -0.16666667 -0.16666667  0.50000000       0.005
   0.00000000  0.00000000 -0.33333333       0.005
   0.16666667  0.00000000 -0.33333333       0.005
   0.33333333  0.00000000 -0.33333333       0.005
   0.50000000  0.00000000 -0.33333333       0.005
  -0.33333333 -0.00000000 -0.33333333       0.005
  -0.16666667 -0.00000000 -0.33333333       0.005
   0.00000000  0.16666667 -0.33333333       0.005
   0.16666667  0.16666667 -0.33333333       0.005
   0.33333333  0.16666667 -0.33333333       0.005
   0.50000000  0.16666667 -0.33333333       0.005
  -0.33333333  0.16666667 -0.33333333       0.005
  -0.16666667  0.16666667 -0.33333333       0.005
   0.00000000  0.33333333 -0.33333333       0.005
   0.16666667  0.33333333 -0.33333333       0.005
   0.33333333  0.33333333 -0.33333333       0.005
   0.50000000  0.33333333 -0.33333333       0.005
  -0.33333333  0.33333333 -0.33333333       0.005
  -0.16666667  0.33333333 -0.33333333       0.005
   0.00000000  0.50000000 -0.33333333       0.005
   0.16666667  0.50000000 -0.33333333       0.005
   0.33333333  0.50000000 -0.33333333       0.005
   0.50000000  0.50000000 -0.33333333       0.005
  -0.33333333  0.50000000 -0.33333333       0.005
  -0.16666667  0.50000000 -0.33333333       0.005
   0.00000000 -0.33333333 -0.33333333       0.005
   0.16666667 -0.33333333 -0.33333333       0.005
   0.33333333 -0.33333333 -0.33333333       0.005
   0.50000000 -0.33333333 -0.33333333       0.005
  -0.33333333 -0.33333333 -0.33333333       0.005
  -0.16666667 -0.33333333 -0.33333333       0.005
   0.00000000 -0.16666667 -0.33333333       0.005
   0.16666667 -0.16666667 -0.33333333       0.005
   0.33333333 -0.16666667 -0.33333333       0.005
   0.50000000 -0.16666667 -0.33333333       0.005
  -0.33333333 -0.16666667 -0.33333333       0.005
  -0.16666667 -0.16666667 -0.33333333       0.005
   0.00000000  0.00000000 -0.16666667       0.005
   0.16666667  0.00000000 -0.16666667       0.005
   0.33333333  0.00000000 -0.16666667       0.005
   0.50000000  0.00000000 -0.16666667       0.005
  -0.33333333 -0.00000000 -0.16666667       0.005
  -0.16666667 -0.00000000 -0.16666667       0.005
   0.00000000  0.16666667 -0.16666667       0.005
   0.16666667  0.16666667 -0.16666667       0.005
   0.33333333  0.16666667 -0.16666667       0.005
   0.50000000  0.16666667 -0.16666667       0.005
  -0.33333333  0.16666667 -0.16666667       0.005
  -0.16666667  0.16666667 -0.16666667       0.005
   0.00000000  0.33333333 -0.16666667       0.005
   0.16666667  0.33333333 -0.16666667       0.005
   0.33333333  0.33333333 -0.16666667       0.005
   0.50000000  0.33333333 -0.16666667       0.005
  -0.33333333  0.33333333 -0.16666667       0.005
  -0.16666667  0.33333333 -0.16666667       0.005
  -0.00000000  0.50000000 -0.16666667       0.005
   0.16666667  0.50000000 -0.16666667       0.005
   0.33333333  0.50000000 -0.16666667       0.005
   0.50000000  0.50000000 -0.16666667       0.005
  -0.33333333  0.50000000 -0.16666667       0.005
  -0.16666667  0.50000000 -0.16666667       0.005
  -0.00000000 -0.33333333 -0.16666667       0.005
   0.16666667 -0.33333333 -0.16666667       0.005
   0.33333333 -0.33333333 -0.16666667       0.005
   0.50000000 -0.33333333 -0.16666667       0.005
  -0.33333333 -0.33333333 -0.16666667       0.005
  -0.16666667 -0.33333333 -0.16666667       0.005
  -0.00000000 -0.16666667 -0.16666667       0.005
   0.16666667 -0.16666667 -0.16666667       0.005
   0.33333333 -0.16666667 -0.16666667       0.005
   0.50000000 -0.16666667 -0.16666667       0.005
  -0.33333333 -0.16666667 -0.16666667       0.005
  -0.16666667 -0.16666667 -0.16666667       0.005
 
 position of ions in fractional coordinates (direct lattice) 
   0.00000000  0.00000000  0.00000000
 
 position of ions in cartesian coordinates  (Angst):
   0.00000000  0.00000000  0.00000000
 
 Euler angles ALPHA=     0.0000000  BETA=     0.0000000

 transformation matrix from SAXIS to cartesian coordinates
 ---------------------------------------------------------
     1.0000000 m_x     0.0000000 m_y     0.0000000 m_z
     0.0000000 m_x     1.0000000 m_y     0.0000000 m_z
     0.0000000 m_x     0.0000000 m_y     1.0000000 m_z

 transformation matrix from cartesian coordinates to SAXIS
 ---------------------------------------------------------
     1.0000000 m_x     0.0000000 m_y     0.0000000 m_z
     0.0000000 m_x     1.0000000 m_y     0.0000000 m_z
     0.0000000 m_x     0.0000000 m_y     1.0000000 m_z




--------------------------------------------------------------------------------------------------------


 k-point  1 :   0.0000 0.0000 0.0000  plane waves:    1450
 k-point  2 :   0.1667 0.0000 0.0000  plane waves:    1424
 k-point  3 :   0.3333 0.0000 0.0000  plane waves:    1490
 k-point  4 :   0.5000 0.0000 0.0000  plane waves:    1436
 k-point  5 :  -0.3333-0.0000-0.0000  plane waves:    1490
 k-point  6 :  -0.1667-0.0000-0.0000  plane waves:    1424
 k-point  7 :   0.0000 0.1667-0.0000  plane waves:    1424
 k-point  8 :   0.1667 0.1667 0.0000  plane waves:    1418
 k-point  9 :   0.3333 0.1667 0.0000  plane waves:    1436
 k-point 10 :   0.5000 0.1667 0.0000  plane waves:    1428
 k-point 11 :  -0.3333 0.1667-0.0000  plane waves:    1434
 k-point 12 :  -0.1667 0.1667-0.0000  plane waves:    1440
 k-point 13 :   0.0000 0.3333 0.0000  plane waves:    1490
 k-point 14 :   0.1667 0.3333 0.0000  plane waves:    1436
 k-point 15 :   0.3333 0.3333 0.0000  plane waves:    1434
 k-point 16 :   0.5000 0.3333 0.0000  plane waves:    1430
 k-point 17 :  -0.3333 0.3333-0.0000  plane waves:    1432
 k-point 18 :  -0.1667 0.3333-0.0000  plane waves:    1434
 k-point 19 :   0.0000 0.5000 0.0000  plane waves:    1436
 k-point 20 :   0.1667 0.5000 0.0000  plane waves:    1428
 k-point 21 :   0.3333 0.5000 0.0000  plane waves:    1430
 k-point 22 :   0.5000 0.5000 0.0000  plane waves:    1448
 k-point 23 :  -0.3333 0.5000-0.0000  plane waves:    1430
 k-point 24 :  -0.1667 0.5000-0.0000  plane waves:    1428
 k-point 25 :   0.0000-0.3333 0.0000  plane waves:    1490
 k-point 26 :   0.1667-0.3333 0.0000  plane waves:    1434
 k-point 27 :   0.3333-0.3333 0.0000  plane waves:    1432
 k-point 28 :   0.5000-0.3333 0.0000  plane waves:    1430
 k-point 29 :  -0.3333-0.3333-0.0000  plane waves:    1434
 k-point 30 :  -0.1667-0.3333-0.0000  plane waves:    1436
 k-point 31 :   0.0000-0.1667 0.0000  plane waves:    1424
 k-point 32 :   0.1667-0.1667 0.0000  plane waves:    1440
 k-point 33 :   0.3333-0.1667 0.0000  plane waves:    1434
 k-point 34 :   0.5000-0.1667 0.0000  plane waves:    1428
 k-point 35 :  -0.3333-0.1667-0.0000  plane waves:    1436
 k-point 36 :  -0.1667-0.1667-0.0000  plane waves:    1418
 k-point 37 :   0.0000-0.0000 0.1667  plane waves:    1424
 k-point 38 :   0.1667 0.0000 0.1667  plane waves:    1418
 k-point 39 :   0.3333 0.0000 0.1667  plane waves:    1436
 k-point 40 :   0.5000 0.0000 0.1667  plane waves:    1428
 k-point 41 :  -0.3333-0.0000 0.1667  plane waves:    1434
 k-point 42 :  -0.1667-0.0000 0.1667  plane waves:    1440
 k-point 43 :   0.0000 0.1667 0.1667  plane waves:    1418
 k-point 44 :   0.1667 0.1667 0.1667  plane waves:    1424
 k-point 45 :   0.3333 0.1667 0.1667  plane waves:    1440
 k-point 46 :   0.5000 0.1667 0.1667  plane waves:    1434
 k-point 47 :  -0.3333 0.1667 0.1667  plane waves:    1428
 k-point 48 :  -0.1667 0.1667 0.1667  plane waves:    1436
 k-point 49 :   0.0000 0.3333 0.1667  plane waves:    1436
 k-point 50 :   0.1667 0.3333 0.1667  plane waves:    1440
 k-point 51 :   0.3333 0.3333 0.1667  plane waves:    1436
 k-point 52 :   0.5000 0.3333 0.1667  plane waves:    1434
 k-point 53 :  -0.3333 0.3333 0.1667  plane waves:    1444
 k-point 54 :  -0.1667 0.3333 0.1667  plane waves:    1434
 k-point 55 :   0.0000 0.5000 0.1667  plane waves:    1428
 k-point 56 :   0.1667 0.5000 0.1667  plane waves:    1434
 k-point 57 :   0.3333 0.5000 0.1667  plane waves:    1434
 k-point 58 :   0.5000 0.5000 0.1667  plane waves:    1430
 k-point 59 :  -0.3333 0.5000 0.1667  plane waves:    1436
 k-point 60 :  -0.1667 0.5000 0.1667  plane waves:    1444
 k-point 61 :  -0.0000-0.3333 0.1667  plane waves:    1434
 k-point 62 :   0.1667-0.3333 0.1667  plane waves:    1428
 k-point 63 :   0.3333-0.3333 0.1667  plane waves:    1444
 k-point 64 :   0.5000-0.3333 0.1667  plane waves:    1436
 k-point 65 :  -0.3333-0.3333 0.1667  plane waves:    1430
 k-point 66 :  -0.1667-0.3333 0.1667  plane waves:    1434
 k-point 67 :  -0.0000-0.1667 0.1667  plane waves:    1440
 k-point 68 :   0.1667-0.1667 0.1667  plane waves:    1436
 k-point 69 :   0.3333-0.1667 0.1667  plane waves:    1434
 k-point 70 :   0.5000-0.1667 0.1667  plane waves:    1444
 k-point 71 :  -0.3333-0.1667 0.1667  plane waves:    1434
 k-point 72 :  -0.1667-0.1667 0.1667  plane waves:    1436
 k-point 73 :  -0.0000-0.0000 0.3333  plane waves:    1490
 k-point 74 :   0.1667 0.0000 0.3333  plane waves:    1436
 k-point 75 :   0.3333 0.0000 0.3333  plane waves:    1434
 k-point 76 :   0.5000 0.0000 0.3333  plane waves:    1430
 k-point 77 :  -0.3333-0.0000 0.3333  plane waves:    1432
 k-point 78 :  -0.1667-0.0000 0.3333  plane waves:    1434
 k-point 79 :  -0.0000 0.1667 0.3333  plane waves:    1436
 k-point 80 :   0.1667 0.1667 0.3333  plane waves:    1440
 k-point 81 :   0.3333 0.1667 0.3333  plane waves:    1436
 k-point 82 :   0.5000 0.1667 0.3333  plane waves:    1434
 k-point 83 :  -0.3333 0.1667 0.3333  plane waves:    1444
 k-point 84 :  -0.1667 0.1667 0.3333  plane waves:    1434
 k-point 85 :  -0.0000 0.3333 0.3333  plane waves:    1434
 k-point 86 :   0.1667 0.3333 0.3333  plane waves:    1436
 k-point 87 :   0.3333 0.3333 0.3333  plane waves:    1490
 k-point 88 :   0.5000 0.3333 0.3333  plane waves:    1434
 k-point 89 :  -0.3333 0.3333 0.3333  plane waves:    1432
 k-point 90 :  -0.1667 0.3333 0.3333  plane waves:    1430
 k-point 91 :   0.0000 0.5000 0.3333  plane waves:    1430
 k-point 92 :   0.1667 0.5000 0.3333  plane waves:    1434
[...]
     33      10.9669      10.9726      10.9711      10.9715       0.9143       0.0000
     34      10.9669      10.9726      10.9711      10.9715       0.9143       0.0000
     35      13.4332      13.4367      13.4334      13.4334       0.9161       0.0000
     36      13.4332      13.4367      13.4334      13.4334       0.9161       0.0000
     37      14.6346      14.6379      14.6340      14.6340       0.9132       0.0000
     38      14.6346      14.6379      14.6340      14.6340       0.9132       0.0000
     39      15.8530      15.8583      15.8573      15.8577       0.9123       0.0000
     40      15.8530      15.8583      15.8573      15.8577       0.9123       0.0000
     41      16.7280      16.7329      16.7289      16.7290       0.9128       0.0000
     42      16.7281      16.7329      16.7289      16.7290       0.9128       0.0000
     43      16.9443      16.9482      16.9378      16.9372       0.9147       0.0000
     44      16.9443      16.9483      16.9378      16.9372       0.9147       0.0000
     45      20.2646      20.2668      20.2598      20.2593       0.9142       0.0000
     46      20.2647      20.2669      20.2598      20.2594       0.9142       0.0000
     47      20.6646      20.6680      20.6655      20.6656       0.9110       0.0000
     48      20.6646      20.6680      20.6655      20.6656       0.9110       0.0000
     49      20.9812      20.9865      20.9862      20.9867       0.9089       0.0000
     50      20.9812      20.9865      20.9862      20.9867       0.9089       0.0000
     51      21.5916      21.5970      21.5963      21.5968       0.9070       0.0000
     52      21.5916      21.5970      21.5963      21.5968       0.9070       0.0000
     53      23.3896      23.3957      23.3950      23.3956       0.9063       0.0000
     54      23.3896      23.3957      23.3950      23.3956       0.9062       0.0000
     55      24.1782      24.1779      24.1720      24.1714       0.9179       0.0000
     56      24.1783      24.1780      24.1720      24.1715       0.9179       0.0000
 

 k-point 214 :       0.5000   -0.1667   -0.1667
  band No. DFT-energies  QP-energies  QP-e(diag)   sigma(DFT)    Z            occupation

      1    -214.6024    -214.2966    -214.1231    -214.1657       1.0974       1.0000
      2    -214.6022    -214.2966    -214.1231    -214.1657       1.0974       1.0000
      3    -163.6126    -163.6949    -163.6659    -163.6826       0.7615       1.0000
      4    -163.6126    -163.6948    -163.6659    -163.6826       0.7615       1.0000
      5    -126.0301    -125.9812    -125.9717    -125.9669       0.9242       1.0000
      6    -126.0300    -125.9811    -125.9717    -125.9669       0.9247       1.0000
      7    -126.0287    -125.9796    -125.9707    -125.9660       0.9247       1.0000
      8    -126.0287    -125.9796    -125.9707    -125.9660       0.9249       1.0000
      9     -50.3211     -50.3351     -50.3344     -50.3362       0.8787       1.0000
     10     -50.3211     -50.3351     -50.3344     -50.3362       0.8788       1.0000
     11     -50.3121     -50.3260     -50.3252     -50.3270       0.8795       1.0000
     12     -50.3121     -50.3260     -50.3252     -50.3270       0.8795       1.0000
     13     -45.5252     -45.5355     -45.5351     -45.5365       0.8772       1.0000
     14     -45.5251     -45.5355     -45.5351     -45.5365       0.8775       1.0000
     15     -45.5167     -45.5269     -45.5265     -45.5279       0.8784       1.0000
     16     -45.5166     -45.5269     -45.5265     -45.5279       0.8785       1.0000
     17     -45.5142     -45.5244     -45.5241     -45.5254       0.8784       1.0000
     18     -45.5141     -45.5244     -45.5241     -45.5254       0.8785       1.0000
     19     -19.9939     -20.0059     -20.1064     -20.1190       0.8989       1.0000
     20     -19.9939     -20.0059     -20.1064     -20.1190       0.8990       1.0000
     21      -7.1545      -7.1822      -7.2046      -7.2101       0.9003       1.0000
     22      -7.1545      -7.1822      -7.2046      -7.2101       0.9003       1.0000
     23      -4.4265      -4.4295      -4.4363      -4.4373       0.9053       1.0000
     24      -4.4265      -4.4295      -4.4363      -4.4374       0.9053       1.0000
     25      -3.2138      -3.2165      -3.2235      -3.2245       0.9049       1.0000
     26      -3.2138      -3.2165      -3.2235      -3.2245       0.9049       1.0000
     27       7.5764       7.5808       7.5653       7.5642       0.9163       0.0000
     28       7.5765       7.5808       7.5653       7.5643       0.9163       0.0000
     29       9.0048       9.0089       9.0071       9.0073       0.9165       0.0000
     30       9.0049       9.0089       9.0071       9.0073       0.9165       0.0000
     31      10.3225      10.3251      10.3187      10.3183       0.9146       0.0000
     32      10.3226      10.3251      10.3187      10.3184       0.9146       0.0000
     33      10.8088      10.8146      10.8139      10.8144       0.9147       0.0000
     34      10.8089      10.8146      10.8139      10.8144       0.9147       0.0000
     35      13.1696      13.1754      13.1747      13.1752       0.9128       0.0000
     36      13.1696      13.1754      13.1747      13.1752       0.9128       0.0000
     37      14.1528      14.1573      14.1565      14.1568       0.9154       0.0000
     38      14.1529      14.1573      14.1565      14.1568       0.9154       0.0000
     39      15.0572      15.0604      15.0523      15.0518       0.9140       0.0000
     40      15.0572      15.0604      15.0523      15.0518       0.9140       0.0000
     41      16.9378      16.9421      16.9379      16.9379       0.9136       0.0000
     42      16.9378      16.9421      16.9379      16.9379       0.9136       0.0000
     43      18.3070      18.3107      18.3094      18.3096       0.9142       0.0000
     44      18.3070      18.3107      18.3094      18.3096       0.9142       0.0000
     45      19.6920      19.6955      19.6913      19.6913       0.9120       0.0000
     46      19.6920      19.6955      19.6913      19.6913       0.9120       0.0000
     47      20.0579      20.0611      20.0533      20.0529       0.9144       0.0000
     48      20.0579      20.0611      20.0533      20.0529       0.9144       0.0000
     49      20.6235      20.6279      20.6260      20.6263       0.9103       0.0000
     50      20.6235      20.6279      20.6261      20.6263       0.9103       0.0000
     51      21.9917      21.9974      21.9971      21.9976       0.9057       0.0000
     52      21.9917      21.9974      21.9971      21.9976       0.9057       0.0000
     53      23.3445      23.3507      23.3501      23.3506       0.9061       0.0000
     54      23.3445      23.3507      23.3501      23.3506       0.9061       0.0000
     55      24.4356      24.4353      24.4268      24.4260       0.9159       0.0000
     56      24.4357      24.4353      24.4269      24.4260       0.9159       0.0000
 

 k-point 215 :      -0.3333   -0.1667   -0.1667
  band No. DFT-energies  QP-energies  QP-e(diag)   sigma(DFT)    Z            occupation

      1    -214.5938    -214.2908    -214.1211    -214.1640       1.0998       1.0000
      2    -214.5937    -214.2908    -214.1211    -214.1640       1.0998       1.0000
      3    -163.6140    -163.6955    -163.6670    -163.6836       0.7610       1.0000
      4    -163.6139    -163.6955    -163.6670    -163.6836       0.7610       1.0000
      5    -126.0294    -125.9803    -125.9721    -125.9676       0.9266       1.0000
      6    -126.0293    -125.9803    -125.9721    -125.9676       0.9269       1.0000
      7    -126.0282    -125.9791    -125.9707    -125.9662       0.9267       1.0000
      8    -126.0281    -125.9790    -125.9707    -125.9662       0.9271       1.0000
      9     -50.3213     -50.3352     -50.3345     -50.3363       0.8782       1.0000
     10     -50.3213     -50.3352     -50.3345     -50.3363       0.8783       1.0000
     11     -50.3126     -50.3265     -50.3258     -50.3276       0.8788       1.0000
     12     -50.3126     -50.3265     -50.3258     -50.3276       0.8788       1.0000
     13     -45.5250     -45.5352     -45.5348     -45.5362       0.8779       1.0000
     14     -45.5249     -45.5352     -45.5348     -45.5362       0.8779       1.0000
     15     -45.5178     -45.5280     -45.5276     -45.5290       0.8764       1.0000
     16     -45.5177     -45.5280     -45.5276     -45.5290       0.8765       1.0000
     17     -45.5141     -45.5243     -45.5240     -45.5253       0.8785       1.0000
     18     -45.5140     -45.5243     -45.5240     -45.5253       0.8786       1.0000
     19     -20.1029     -20.1143     -20.2139     -20.2264       0.8987       1.0000
     20     -20.1029     -20.1143     -20.2139     -20.2264       0.8987       1.0000
     21      -6.7634      -6.7937      -6.8185      -6.8247       0.8997       1.0000
     22      -6.7633      -6.7937      -6.8185      -6.8247       0.8997       1.0000
     23      -3.8305      -3.8328      -3.8404      -3.8414       0.9057       1.0000
     24      -3.8305      -3.8327      -3.8404      -3.8414       0.9057       1.0000
     25      -2.9077      -2.9107      -2.9180      -2.9191       0.9046       1.0000
     26      -2.9077      -2.9107      -2.9180      -2.9191       0.9046       1.0000
     27       6.8364       6.8393       6.8150       6.8131       0.9173       0.0000
     28       6.8364       6.8393       6.8150       6.8131       0.9173       0.0000
     29       9.3218       9.3273       9.3255       9.3259       0.9140       0.0000
     30       9.3218       9.3273       9.3255       9.3259       0.9140       0.0000
     31      10.0361      10.0410      10.0399      10.0403       0.9158       0.0000
     32      10.0361      10.0410      10.0399      10.0403       0.9158       0.0000
     33      11.3106      11.3163      11.3158      11.3163       0.9144       0.0000
     34      11.3106      11.3163      11.3158      11.3163       0.9144       0.0000
     35      11.4783      11.4848      11.4844      11.4850       0.9128       0.0000
     36      11.4784      11.4848      11.4844      11.4850       0.9128       0.0000
     37      13.8678      13.8723      13.8698      13.8700       0.9141       0.0000
     38      13.8678      13.8723      13.8698      13.8700       0.9141       0.0000
     39      14.8737      14.8780      14.8773      14.8776       0.9142       0.0000
     40      14.8737      14.8781      14.8773      14.8776       0.9142       0.0000
     41      15.3147      15.3194      15.3183      15.3186       0.9148       0.0000
     42      15.3147      15.3194      15.3183      15.3186       0.9148       0.0000
     43      17.2025      17.2074      17.2073      17.2078       0.9132       0.0000
     44      17.2025      17.2074      17.2073      17.2078       0.9132       0.0000
     45      18.9253      18.9280      18.9218      18.9214       0.9143       0.0000
     46      18.9253      18.9280      18.9218      18.9214       0.9143       0.0000
     47      19.3961      19.4012      19.4007      19.4011       0.9105       0.0000
     48      19.3961      19.4012      19.4007      19.4011       0.9105       0.0000
     49      21.2490      21.2500      21.2483      21.2482       0.9201       0.0000
     50      21.2490      21.2500      21.2483      21.2482       0.9201       0.0000
     51      22.8457      22.8522      22.8521      22.8527       0.9067       0.0000
     52      22.8457      22.8522      22.8521      22.8527       0.9067       0.0000
     53      22.9787      22.9834      22.9813      22.9815       0.9080       0.0000
     54      22.9787      22.9834      22.9813      22.9815       0.9080       0.0000
     55      23.7272      23.7268      23.7160      23.7149       0.9145       0.0000
     56      23.7272      23.7268      23.7160      23.7149       0.9145       0.0000
 

 k-point 216 :      -0.1667   -0.1667   -0.1667
  band No. DFT-energies  QP-energies  QP-e(diag)   sigma(DFT)    Z            occupation

      1    -214.5837    -214.2823    -214.1158    -214.1586       1.1006       1.0000
      2    -214.5836    -214.2823    -214.1158    -214.1586       1.1005       1.0000
      3    -163.6022    -163.6842    -163.6564    -163.6732       0.7634       1.0000
      4    -163.6022    -163.6842    -163.6564    -163.6732       0.7634       1.0000
      5    -126.0292    -125.9808    -125.9729    -125.9684       0.9269       1.0000
      6    -126.0292    -125.9807    -125.9729    -125.9684       0.9270       1.0000
      7    -126.0288    -125.9798    -125.9711    -125.9663       0.9238       1.0000
      8    -126.0288    -125.9798    -125.9711    -125.9663       0.9241       1.0000
      9     -50.3214     -50.3353     -50.3346     -50.3364       0.8781       1.0000
     10     -50.3213     -50.3353     -50.3346     -50.3365       0.8782       1.0000
     11     -50.3068     -50.3206     -50.3198     -50.3216       0.8805       1.0000
     12     -50.3068     -50.3206     -50.3198     -50.3216       0.8805       1.0000
     13     -45.5265     -45.5368     -45.5364     -45.5378       0.8751       1.0000
     14     -45.5265     -45.5368     -45.5364     -45.5378       0.8751       1.0000
     15     -45.5160     -45.5263     -45.5260     -45.5274       0.8790       1.0000
     16     -45.5160     -45.5263     -45.5260     -45.5274       0.8789       1.0000
     17     -45.5123     -45.5225     -45.5222     -45.5235       0.8794       1.0000
     18     -45.5123     -45.5225     -45.5222     -45.5235       0.8795       1.0000
     19     -20.1875     -20.1987     -20.2972     -20.3096       0.8988       1.0000
     20     -20.1875     -20.1987     -20.2972     -20.3096       0.8988       1.0000
     21      -6.4598      -6.4922      -6.5184      -6.5250       0.8991       1.0000
     22      -6.4598      -6.4922      -6.5184      -6.5250       0.8991       1.0000
     23      -3.2246      -3.2270      -3.2347      -3.2358       0.9053       1.0000
     24      -3.2246      -3.2270      -3.2347      -3.2358       0.9053       1.0000
     25      -2.6258      -2.6291      -2.6364      -2.6375       0.9043       1.0000
     26      -2.6258      -2.6291      -2.6364      -2.6375       0.9043       1.0000
     27       5.6626       5.6670       5.6400       5.6379       0.9184       0.0000
     28       5.6626       5.6670       5.6400       5.6379       0.9184       0.0000
     29       9.7411       9.7467       9.7453       9.7457       0.9143       0.0000
     30       9.7411       9.7467       9.7453       9.7457       0.9143       0.0000
     31      10.8544      10.8609      10.8602      10.8608       0.9134       0.0000
     32      10.8544      10.8609      10.8602      10.8608       0.9134       0.0000
     33      10.9225      10.9286      10.9280      10.9286       0.9139       0.0000
     34      10.9225      10.9286      10.9280      10.9286       0.9139       0.0000
     35      12.5825      12.5884      12.5880      12.5885       0.9132       0.0000
     36      12.5825      12.5884      12.5880      12.5885       0.9132       0.0000
     37      12.6440      12.6497      12.6494      12.6499       0.9133       0.0000
     38      12.6440      12.6497      12.6494      12.6499       0.9133       0.0000
     39      13.0356      13.0395      13.0382      13.0385       0.9167       0.0000
     40      13.0356      13.0395      13.0382      13.0385       0.9167       0.0000
     41      14.5886      14.5934      14.5927      14.5931       0.9139       0.0000
     42      14.5886      14.5934      14.5927      14.5931       0.9139       0.0000
     43      16.6934      16.6978      16.6970      16.6973       0.9136       0.0000
     44      16.6934      16.6978      16.6970      16.6973       0.9136       0.0000
     45      16.7786      16.7836      16.7832      16.7837       0.9133       0.0000
     46      16.7786      16.7836      16.7833      16.7837       0.9133       0.0000
     47      18.6846      18.6855      18.6837      18.6836       0.9224       0.0000
     48      18.6846      18.6855      18.6837      18.6836       0.9224       0.0000
     49      22.5185      22.5231      22.5213      22.5216       0.9088       0.0000
     50      22.5185      22.5231      22.5213      22.5216       0.9088       0.0000
     51      22.6809      22.6873      22.6871      22.6878       0.9068       0.0000
     52      22.6809      22.6873      22.6871      22.6878       0.9068       0.0000
     53      23.7829      23.7785      23.7658      23.7643       0.9219       0.0000
     54      23.7829      23.7785      23.7658      23.7643       0.9219       0.0000
     55      24.1967      24.2039      24.2039      24.2047       0.9028       0.0000
     56      24.1967      24.2039      24.2039      24.2047       0.9028       0.0000
 


--------------------------------------------------------------------------------------------------------



IMPORTANT INFORMATION: All symmetrisations will be switched off!
NOSYMM: (Re-)initialisation of all symmetry stuff for point group C_1.

   GW_DIAG:  cpu time    3.0551: real time    3.0642
    GWLOOP:  cpu time11954.3070: real time11968.1271
 writing wavefunctions
    --------------------------------------------
   GWTOTAL:  cpu time11956.8596: real time11971.2010
    4ORBIT:  cpu time    0.0000: real time    0.0000

 Spin-Orbit-Coupling matrix elements

 Ion:    1  E_soc:     -9.0875440
 l=   1
     0.0000000    -1.3775526    -1.3775538
    -1.3775526     0.0000000    -1.3775537
    -1.3775538    -1.3775537     0.0000000
 l=   2
     0.0000000    -0.0274067     0.0000000    -0.0274063    -0.1096314
    -0.0274067     0.0000000    -0.0822217    -0.0274061    -0.0274066
     0.0000000    -0.0822217     0.0000000    -0.0822233     0.0000000
    -0.0274063    -0.0274061    -0.0822233     0.0000000    -0.0274071
    -0.1096314    -0.0274066     0.0000000    -0.0274071     0.0000000
 l=   3
     0.0000000     0.0000000     0.0000000     0.0000000     0.0000000     0.0000000    -0.0000007
     0.0000000     0.0000000    -0.0000002     0.0000000    -0.0000002    -0.0000001    -0.0000001
     0.0000000    -0.0000002     0.0000000    -0.0000003    -0.0000001    -0.0000002     0.0000000
     0.0000000     0.0000000    -0.0000003     0.0000000    -0.0000003     0.0000000     0.0000000
     0.0000000    -0.0000002    -0.0000001    -0.0000003     0.0000000    -0.0000002     0.0000000
     0.0000000    -0.0000001    -0.0000002     0.0000000    -0.0000002     0.0000000    -0.0000001
    -0.0000007    -0.0000001     0.0000000     0.0000000     0.0000000    -0.0000001     0.0000000

 total amount of memory used by VASP MPI-rank0   282785. kBytes
=======================================================================

   base      :      30000. kBytes
   nonl-proj :      51713. kBytes
   fftplans  :      12947. kBytes
   grid      :      12644. kBytes
   one-center:        307. kBytes
   HF        :        640. kBytes
   nonlr-proj:        242. kBytes
   wavefun   :     174292. kBytes
   2eintegral:          0. kBytes
   fockhandle:          0. kBytes
   response  :          0. kBytes
   cacher    :          0. kBytes
 
  
  
 General timing and accounting informations for this job:
 ========================================================
  
                  Total CPU time used (sec):    11966.022
                            User time (sec):    11935.083
                          System time (sec):       30.939
                         Elapsed time (sec):    11980.658
  
                   Maximum memory used (kb):     2331864.
                   Average memory used (kb):           0.
  
                          Minor page faults:      1399270
                          Major page faults:            0
                 Voluntary context switches:         7413
