Og_FCC                                  
           1
     4.489975    0.000000    0.000000
     2.244987    3.888432   -0.000000
     2.244987    1.296144    3.666049
   Og
   1
Direct configuration=     1
   0.00000000  0.00000000  0.00000000
Og_FCC                                  
           1
     4.488716    0.000000    0.000000
     2.244358    3.887342   -0.000000
     2.244358    1.295781    3.665021
   Og
   1
Direct configuration=     2
   0.00000000  0.00000000  0.00000000
Og_FCC                                  
           1
     4.472379    0.000000    0.000000
     2.236190    3.873194   -0.000000
     2.236190    1.291065    3.651682
   Og
   1
Direct configuration=     3
   0.00000000  0.00000000  0.00000000
