   1   1   0   0
  0.5789729E+02  0.4342346E-09  0.4342346E-09  0.4342346E-09  0.1000000E-15
  1.000000000000000E-004
  CAR 
 Og_FCC                                  
     17.38204682    -32.75607070  301      3.96099059      1.00000000
    -32.756  0.0000E+00  0.0000E+00
    -32.589  0.0000E+00  0.0000E+00
    -32.422  0.0000E+00  0.0000E+00
    -32.255  0.0000E+00  0.0000E+00
    -32.088  0.0000E+00  0.0000E+00
    -31.920  0.0000E+00  0.0000E+00
    -31.753  0.0000E+00  0.0000E+00
    -31.586  0.0000E+00  0.0000E+00
    -31.419  0.0000E+00  0.0000E+00
    -31.252  0.0000E+00  0.0000E+00
    -31.085  0.0000E+00  0.0000E+00
    -30.918  0.0000E+00  0.0000E+00
    -30.751  0.0000E+00  0.0000E+00
    -30.583  0.0000E+00  0.0000E+00
    -30.416  0.0000E+00  0.4000E+01
    -30.249  0.0000E+00  0.4000E+01
    -30.082  0.0000E+00  0.4000E+01
    -29.915  0.0000E+00  0.4000E+01
    -29.748  0.0000E+00  0.4000E+01
    -29.581  0.0000E+00  0.4000E+01
    -29.414  0.0000E+00  0.4000E+01
    -29.246  0.0000E+00  0.4000E+01
    -29.079  0.0000E+00  0.4000E+01
    -28.912  0.0000E+00  0.4000E+01
    -28.745  0.0000E+00  0.4000E+01
    -28.578  0.0000E+00  0.4000E+01
    -28.411  0.0000E+00  0.4000E+01
    -28.244  0.0000E+00  0.4000E+01
    -28.077  0.0000E+00  0.4000E+01
    -27.909  0.0000E+00  0.4000E+01
    -27.742  0.0000E+00  0.4000E+01
    -27.575  0.0000E+00  0.4000E+01
    -27.408  0.0000E+00  0.4000E+01
    -27.241  0.0000E+00  0.4000E+01
    -27.074  0.0000E+00  0.4000E+01
    -26.907  0.0000E+00  0.4000E+01
    -26.739  0.0000E+00  0.4000E+01
    -26.572  0.0000E+00  0.4000E+01
    -26.405  0.0000E+00  0.4000E+01
    -26.238  0.0000E+00  0.4000E+01
    -26.071  0.0000E+00  0.4000E+01
    -25.904  0.0000E+00  0.4000E+01
    -25.737  0.0000E+00  0.4000E+01
    -25.570  0.0000E+00  0.4000E+01
    -25.402  0.0000E+00  0.4000E+01
    -25.235  0.0000E+00  0.4000E+01
    -25.068  0.0000E+00  0.4000E+01
    -24.901  0.0000E+00  0.4000E+01
    -24.734  0.0000E+00  0.4000E+01
    -24.567  0.0000E+00  0.4000E+01
    -24.400  0.0000E+00  0.4000E+01
    -24.233  0.0000E+00  0.4000E+01
    -24.065  0.0000E+00  0.4000E+01
    -23.898  0.0000E+00  0.4000E+01
    -23.731  0.0000E+00  0.1000E+02
    -23.564  0.0000E+00  0.1000E+02
    -23.397  0.0000E+00  0.1000E+02
    -23.230  0.0000E+00  0.1000E+02
    -23.063  0.0000E+00  0.1000E+02
    -22.896  0.0000E+00  0.1000E+02
    -22.728  0.0000E+00  0.1000E+02
    -22.561  0.0000E+00  0.1000E+02
    -22.394  0.0000E+00  0.1000E+02
    -22.227  0.0000E+00  0.1000E+02
    -22.060  0.0000E+00  0.1000E+02
    -21.893  0.0000E+00  0.1000E+02
    -21.726  0.0000E+00  0.1000E+02
    -21.559  0.0000E+00  0.1000E+02
    -21.391  0.0000E+00  0.1000E+02
    -21.224  0.0000E+00  0.1000E+02
    -21.057  0.0000E+00  0.1000E+02
    -20.890  0.0000E+00  0.1000E+02
    -20.723  0.0000E+00  0.1000E+02
    -20.556  0.0000E+00  0.1000E+02
    -20.389  0.0000E+00  0.1000E+02
    -20.222  0.0000E+00  0.1000E+02
    -20.054  0.8310E+00  0.1200E+02
    -19.887  0.0000E+00  0.1200E+02
    -19.720  0.0000E+00  0.1200E+02
    -19.553  0.0000E+00  0.1200E+02
    -19.386  0.0000E+00  0.1200E+02
    -19.219  0.0000E+00  0.1200E+02
    -19.052  0.0000E+00  0.1200E+02
    -18.885  0.0000E+00  0.1200E+02
    -18.717  0.0000E+00  0.1200E+02
    -18.550  0.0000E+00  0.1200E+02
    -18.383  0.0000E+00  0.1200E+02
    -18.216  0.0000E+00  0.1200E+02
    -18.049  0.0000E+00  0.1200E+02
    -17.882  0.0000E+00  0.1200E+02
    -17.715  0.0000E+00  0.1200E+02
    -17.548  0.0000E+00  0.1200E+02
    -17.380  0.0000E+00  0.1200E+02
    -17.213  0.0000E+00  0.1200E+02
    -17.046  0.0000E+00  0.1200E+02
    -16.879  0.0000E+00  0.1200E+02
    -16.712  0.0000E+00  0.1200E+02
    -16.545  0.0000E+00  0.1200E+02
    -16.378  0.0000E+00  0.1200E+02
    -16.210  0.0000E+00  0.1200E+02
    -16.043  0.0000E+00  0.1200E+02
    -15.876  0.0000E+00  0.1200E+02
    -15.709  0.0000E+00  0.1200E+02
    -15.542  0.0000E+00  0.1200E+02
    -15.375  0.0000E+00  0.1200E+02
    -15.208  0.0000E+00  0.1200E+02
    -15.041  0.0000E+00  0.1200E+02
    -14.873  0.0000E+00  0.1200E+02
    -14.706  0.0000E+00  0.1200E+02
    -14.539  0.0000E+00  0.1200E+02
    -14.372  0.0000E+00  0.1200E+02
    -14.205  0.0000E+00  0.1200E+02
    -14.038  0.0000E+00  0.1200E+02
    -13.871  0.0000E+00  0.1200E+02
    -13.704  0.0000E+00  0.1200E+02
    -13.536  0.0000E+00  0.1200E+02
    -13.369  0.0000E+00  0.1200E+02
    -13.202  0.0000E+00  0.1200E+02
    -13.035  0.0000E+00  0.1200E+02
    -12.868  0.0000E+00  0.1200E+02
    -12.701  0.0000E+00  0.1200E+02
    -12.534  0.0000E+00  0.1200E+02
    -12.367  0.0000E+00  0.1200E+02
    -12.199  0.0000E+00  0.1200E+02
    -12.032  0.0000E+00  0.1200E+02
    -11.865  0.0000E+00  0.1200E+02
    -11.698  0.0000E+00  0.1200E+02
    -11.531  0.0000E+00  0.1200E+02
    -11.364  0.0000E+00  0.1200E+02
    -11.197  0.0000E+00  0.1200E+02
    -11.030  0.0000E+00  0.1200E+02
    -10.862  0.0000E+00  0.1200E+02
    -10.695  0.0000E+00  0.1200E+02
    -10.528  0.0000E+00  0.1200E+02
    -10.361  0.0000E+00  0.1200E+02
    -10.194  0.0000E+00  0.1200E+02
    -10.027  0.0000E+00  0.1200E+02
     -9.860  0.0000E+00  0.1200E+02
     -9.693  0.0000E+00  0.1200E+02
     -9.525  0.0000E+00  0.1200E+02
     -9.358  0.0000E+00  0.1200E+02
     -9.191  0.0000E+00  0.1200E+02
     -9.024  0.0000E+00  0.1200E+02
     -8.857  0.0000E+00  0.1200E+02
     -8.690  0.0000E+00  0.1200E+02
     -8.523  0.0000E+00  0.1200E+02
     -8.356  0.0000E+00  0.1200E+02
     -8.188  0.0000E+00  0.1200E+02
     -8.021  0.0000E+00  0.1200E+02
     -7.854  0.0000E+00  0.1200E+02
     -7.687  0.0000E+00  0.1200E+02
     -7.520  0.0000E+00  0.1200E+02
     -7.353  0.0000E+00  0.1214E+02
     -7.186  0.4432E+00  0.1353E+02
     -7.019  0.0000E+00  0.1392E+02
     -6.851  0.0000E+00  0.1400E+02
     -6.684  0.0000E+00  0.1400E+02
     -6.517  0.0000E+00  0.1400E+02
     -6.350  0.0000E+00  0.1400E+02
     -6.183  0.0000E+00  0.1400E+02
     -6.016  0.0000E+00  0.1400E+02
     -5.849  0.0000E+00  0.1400E+02
     -5.681  0.0000E+00  0.1400E+02
     -5.514  0.0000E+00  0.1400E+02
     -5.347  0.0000E+00  0.1400E+02
     -5.180  0.0000E+00  0.1400E+02
     -5.013  0.0000E+00  0.1400E+02
     -4.846  0.0000E+00  0.1400E+02
     -4.679  0.0000E+00  0.1400E+02
     -4.512  0.0000E+00  0.1400E+02
     -4.344  0.0000E+00  0.1400E+02
     -4.177  0.0000E+00  0.1400E+02
     -4.010  0.0000E+00  0.1400E+02
     -3.843  0.0000E+00  0.1400E+02
     -3.676  0.0000E+00  0.1400E+02
     -3.509  0.0000E+00  0.1400E+02
     -3.342  0.0000E+00  0.1400E+02
     -3.175  0.0000E+00  0.1400E+02
     -3.007  0.0000E+00  0.1400E+02
     -2.840  0.0000E+00  0.1400E+02
     -2.673  0.0000E+00  0.1400E+02
     -2.506  0.0000E+00  0.1400E+02
     -2.339  0.0000E+00  0.1400E+02
     -2.172  0.0000E+00  0.1400E+02
     -2.005  0.0000E+00  0.1400E+02
     -1.838  0.0000E+00  0.1400E+02
     -1.670  0.0000E+00  0.1400E+02
     -1.503  0.0000E+00  0.1400E+02
     -1.336  0.0000E+00  0.1400E+02
     -1.169  0.0000E+00  0.1400E+02
     -1.002  0.0000E+00  0.1400E+02
     -0.835  0.0000E+00  0.1400E+02
     -0.668  0.0000E+00  0.1400E+02
     -0.501  0.0000E+00  0.1400E+02
     -0.333  0.0000E+00  0.1400E+02
     -0.166  0.0000E+00  0.1400E+02
      0.001  0.0000E+00  0.1400E+02
      0.168  0.0000E+00  0.1400E+02
      0.335  0.0000E+00  0.1400E+02
      0.502  0.0000E+00  0.1400E+02
      0.669  0.0000E+00  0.1400E+02
      0.836  0.4306E-15  0.1440E+02
      1.004  0.0000E+00  0.1540E+02
      1.171  0.0000E+00  0.1553E+02
      1.338  0.0000E+00  0.1575E+02
      1.505  0.0000E+00  0.1586E+02
      1.672  0.0000E+00  0.1586E+02
      1.839  0.0000E+00  0.1597E+02
      2.006  0.0000E+00  0.1619E+02
      2.173  0.0000E+00  0.1636E+02
      2.341  0.0000E+00  0.1669E+02
      2.508  0.0000E+00  0.1691E+02
      2.675  0.0000E+00  0.1696E+02
      2.842  0.0000E+00  0.1741E+02
      3.009  0.0000E+00  0.1741E+02
      3.176  0.0000E+00  0.1763E+02
      3.343  0.0000E+00  0.1774E+02
      3.511  0.0000E+00  0.1783E+02
      3.678  0.0000E+00  0.1791E+02
      3.845  0.0000E+00  0.1799E+02
      4.012  0.0000E+00  0.1801E+02
      4.179  0.0000E+00  0.1801E+02
      4.346  0.0000E+00  0.1801E+02
      4.513  0.0000E+00  0.1801E+02
      4.680  0.0000E+00  0.1801E+02
      4.848  0.0000E+00  0.1801E+02
      5.015  0.0000E+00  0.1801E+02
      5.182  0.0000E+00  0.1801E+02
      5.349  0.0000E+00  0.1801E+02
      5.516  0.0000E+00  0.1801E+02
      5.683  0.0000E+00  0.1808E+02
      5.850  0.0000E+00  0.1808E+02
      6.017  0.0000E+00  0.1808E+02
      6.185  0.0000E+00  0.1814E+02
      6.352  0.0000E+00  0.1828E+02
      6.519  0.0000E+00  0.1828E+02
      6.686  0.0000E+00  0.1839E+02
      6.853  0.2104E+00  0.1842E+02
      7.020  0.0000E+00  0.1889E+02
      7.187  0.0000E+00  0.1911E+02
      7.354  0.0000E+00  0.1944E+02
      7.522  0.0000E+00  0.1956E+02
      7.689  0.0000E+00  0.1978E+02
      7.856  0.0000E+00  0.2003E+02
      8.023  0.0000E+00  0.2003E+02
      8.190  0.0000E+00  0.2008E+02
      8.357  0.0000E+00  0.2008E+02
      8.524  0.0000E+00  0.2031E+02
      8.691  0.0000E+00  0.2031E+02
      8.859  0.0000E+00  0.2064E+02
      9.026  0.0000E+00  0.2119E+02
      9.193  0.0000E+00  0.2164E+02
      9.360  0.0000E+00  0.2169E+02
      9.527  0.0000E+00  0.2203E+02
      9.694  0.0000E+00  0.2225E+02
      9.861  0.0000E+00  0.2232E+02
     10.028  0.0000E+00  0.2238E+02
     10.196  0.0000E+00  0.2238E+02
     10.363  0.0000E+00  0.2286E+02
     10.530  0.1873E+00  0.2319E+02
     10.697  0.0000E+00  0.2355E+02
     10.864  0.0000E+00  0.2381E+02
     11.031  0.0000E+00  0.2385E+02
     11.198  0.0000E+00  0.2401E+02
     11.365  0.0000E+00  0.2431E+02
     11.533  0.1701E-08  0.2489E+02
     11.700  0.0000E+00  0.2544E+02
     11.867  0.0000E+00  0.2567E+02
     12.034  0.0000E+00  0.2567E+02
     12.201  0.0000E+00  0.2606E+02
     12.368  0.0000E+00  0.2606E+02
     12.535  0.5736E-15  0.2606E+02
     12.702  0.0000E+00  0.2617E+02
     12.870  0.0000E+00  0.2667E+02
     13.037  0.2235E-08  0.2711E+02
     13.204  0.0000E+00  0.2733E+02
     13.371  0.0000E+00  0.2733E+02
     13.538  0.0000E+00  0.2756E+02
     13.705  0.0000E+00  0.2756E+02
     13.872  0.1662E+00  0.2761E+02
     14.040  0.0000E+00  0.2794E+02
     14.207  0.0000E+00  0.2794E+02
     14.374  0.0000E+00  0.2794E+02
     14.541  0.0000E+00  0.2794E+02
     14.708  0.0000E+00  0.2794E+02
     14.875  0.0000E+00  0.2794E+02
     15.042  0.0000E+00  0.2794E+02
     15.209  0.0000E+00  0.2800E+02
     15.377  0.0000E+00  0.2800E+02
     15.544  0.0000E+00  0.2800E+02
     15.711  0.0000E+00  0.2800E+02
     15.878  0.0000E+00  0.2800E+02
     16.045  0.0000E+00  0.2800E+02
     16.212  0.0000E+00  0.2800E+02
     16.379  0.0000E+00  0.2800E+02
     16.546  0.0000E+00  0.2800E+02
     16.714  0.0000E+00  0.2800E+02
     16.881  0.0000E+00  0.2800E+02
     17.048  0.0000E+00  0.2800E+02
     17.215  0.0000E+00  0.2800E+02
     17.382  0.0000E+00  0.2800E+02
