   1   1   0   0
  0.6532254E+02  0.4520565E-09  0.4520565E-09  0.4520565E-09  0.1000000E-15
  1.000000000000000E-004
  CAR 
 Og_FCC                                  
     14.78730403    -47.81118202  301     -1.80129478      1.00000000
    -47.811  0.0000E+00  0.0000E+00
    -47.603  0.0000E+00  0.0000E+00
    -47.394  0.0000E+00  0.0000E+00
    -47.185  0.0000E+00  0.0000E+00
    -46.977  0.0000E+00  0.0000E+00
    -46.768  0.0000E+00  0.0000E+00
    -46.559  0.0000E+00  0.0000E+00
    -46.351  0.0000E+00  0.0000E+00
    -46.142  0.0000E+00  0.0000E+00
    -45.933  0.0000E+00  0.0000E+00
    -45.725  0.0000E+00  0.0000E+00
    -45.516  0.0000E+00  0.0000E+00
    -45.307  0.0000E+00  0.0000E+00
    -45.099  0.0000E+00  0.0000E+00
    -44.890  0.0000E+00  0.4000E+01
    -44.681  0.0000E+00  0.4000E+01
    -44.473  0.0000E+00  0.4000E+01
    -44.264  0.0000E+00  0.4000E+01
    -44.055  0.0000E+00  0.4000E+01
    -43.847  0.0000E+00  0.4000E+01
    -43.638  0.0000E+00  0.4000E+01
    -43.429  0.0000E+00  0.4000E+01
    -43.221  0.0000E+00  0.4000E+01
    -43.012  0.0000E+00  0.4000E+01
    -42.803  0.0000E+00  0.4000E+01
    -42.595  0.0000E+00  0.4000E+01
    -42.386  0.0000E+00  0.4000E+01
    -42.177  0.0000E+00  0.4000E+01
    -41.969  0.0000E+00  0.4000E+01
    -41.760  0.0000E+00  0.4000E+01
    -41.551  0.0000E+00  0.4000E+01
    -41.343  0.0000E+00  0.4000E+01
    -41.134  0.0000E+00  0.4000E+01
    -40.925  0.0000E+00  0.4000E+01
    -40.717  0.0000E+00  0.4000E+01
    -40.508  0.0000E+00  0.1000E+02
    -40.299  0.0000E+00  0.1000E+02
    -40.091  0.0000E+00  0.1000E+02
    -39.882  0.0000E+00  0.1000E+02
    -39.673  0.0000E+00  0.1000E+02
    -39.465  0.0000E+00  0.1000E+02
    -39.256  0.0000E+00  0.1000E+02
    -39.047  0.0000E+00  0.1000E+02
    -38.839  0.0000E+00  0.1000E+02
    -38.630  0.0000E+00  0.1000E+02
    -38.421  0.0000E+00  0.1000E+02
    -38.213  0.0000E+00  0.1000E+02
    -38.004  0.0000E+00  0.1000E+02
    -37.795  0.0000E+00  0.1000E+02
    -37.587  0.0000E+00  0.1000E+02
    -37.378  0.0000E+00  0.1000E+02
    -37.169  0.0000E+00  0.1000E+02
    -36.961  0.0000E+00  0.1000E+02
    -36.752  0.0000E+00  0.1000E+02
    -36.543  0.0000E+00  0.1000E+02
    -36.335  0.0000E+00  0.1000E+02
    -36.126  0.0000E+00  0.1000E+02
    -35.917  0.0000E+00  0.1000E+02
    -35.709  0.0000E+00  0.1000E+02
    -35.500  0.0000E+00  0.1000E+02
    -35.291  0.0000E+00  0.1000E+02
    -35.083  0.0000E+00  0.1000E+02
    -34.874  0.0000E+00  0.1000E+02
    -34.665  0.0000E+00  0.1000E+02
    -34.457  0.0000E+00  0.1000E+02
    -34.248  0.0000E+00  0.1000E+02
    -34.040  0.0000E+00  0.1000E+02
    -33.831  0.0000E+00  0.1000E+02
    -33.622  0.0000E+00  0.1000E+02
    -33.414  0.0000E+00  0.1000E+02
    -33.205  0.0000E+00  0.1000E+02
    -32.996  0.0000E+00  0.1000E+02
    -32.788  0.0000E+00  0.1000E+02
    -32.579  0.0000E+00  0.1000E+02
    -32.370  0.0000E+00  0.1000E+02
    -32.162  0.0000E+00  0.1000E+02
    -31.953  0.0000E+00  0.1000E+02
    -31.744  0.0000E+00  0.1000E+02
    -31.536  0.0000E+00  0.1000E+02
    -31.327  0.0000E+00  0.1000E+02
    -31.118  0.0000E+00  0.1000E+02
    -30.910  0.0000E+00  0.1000E+02
    -30.701  0.0000E+00  0.1000E+02
    -30.492  0.0000E+00  0.1000E+02
    -30.284  0.0000E+00  0.1000E+02
    -30.075  0.0000E+00  0.1000E+02
    -29.866  0.0000E+00  0.1000E+02
    -29.658  0.0000E+00  0.1000E+02
    -29.449  0.0000E+00  0.1000E+02
    -29.240  0.0000E+00  0.1000E+02
    -29.032  0.0000E+00  0.1000E+02
    -28.823  0.0000E+00  0.1000E+02
    -28.614  0.0000E+00  0.1000E+02
    -28.406  0.0000E+00  0.1000E+02
    -28.197  0.0000E+00  0.1000E+02
    -27.988  0.0000E+00  0.1000E+02
    -27.780  0.0000E+00  0.1000E+02
    -27.571  0.0000E+00  0.1000E+02
    -27.362  0.0000E+00  0.1000E+02
    -27.154  0.0000E+00  0.1000E+02
    -26.945  0.0000E+00  0.1000E+02
    -26.736  0.0000E+00  0.1000E+02
    -26.528  0.0000E+00  0.1000E+02
    -26.319  0.0000E+00  0.1000E+02
    -26.110  0.0000E+00  0.1000E+02
    -25.902  0.0000E+00  0.1000E+02
    -25.693  0.0000E+00  0.1000E+02
    -25.484  0.0000E+00  0.1000E+02
    -25.276  0.0000E+00  0.1000E+02
    -25.067  0.0000E+00  0.1000E+02
    -24.858  0.0000E+00  0.1000E+02
    -24.650  0.0000E+00  0.1000E+02
    -24.441  0.0000E+00  0.1000E+02
    -24.232  0.0000E+00  0.1000E+02
    -24.024  0.0000E+00  0.1000E+02
    -23.815  0.0000E+00  0.1000E+02
    -23.606  0.0000E+00  0.1000E+02
    -23.398  0.0000E+00  0.1000E+02
    -23.189  0.0000E+00  0.1000E+02
    -22.980  0.0000E+00  0.1000E+02
    -22.772  0.0000E+00  0.1000E+02
    -22.563  0.0000E+00  0.1000E+02
    -22.354  0.0000E+00  0.1000E+02
    -22.146  0.0000E+00  0.1000E+02
    -21.937  0.0000E+00  0.1000E+02
    -21.728  0.0000E+00  0.1000E+02
    -21.520  0.0000E+00  0.1000E+02
    -21.311  0.0000E+00  0.1000E+02
    -21.102  0.0000E+00  0.1000E+02
    -20.894  0.0000E+00  0.1000E+02
    -20.685  0.0000E+00  0.1000E+02
    -20.477  0.0000E+00  0.1000E+02
    -20.268  0.0000E+00  0.1000E+02
    -20.059  0.0000E+00  0.1000E+02
    -19.851  0.0000E+00  0.1000E+02
    -19.642  0.0000E+00  0.1000E+02
    -19.433  0.0000E+00  0.1000E+02
    -19.225  0.0000E+00  0.1000E+02
    -19.016  0.0000E+00  0.1000E+02
    -18.807  0.0000E+00  0.1000E+02
    -18.599  0.0000E+00  0.1000E+02
    -18.390  0.0000E+00  0.1000E+02
    -18.181  0.0000E+00  0.1000E+02
    -17.973  0.2889E-02  0.1108E+02
    -17.764  0.0000E+00  0.1200E+02
    -17.555  0.0000E+00  0.1200E+02
    -17.347  0.0000E+00  0.1200E+02
    -17.138  0.0000E+00  0.1200E+02
    -16.929  0.0000E+00  0.1200E+02
    -16.721  0.0000E+00  0.1200E+02
    -16.512  0.0000E+00  0.1200E+02
    -16.303  0.0000E+00  0.1200E+02
    -16.095  0.0000E+00  0.1200E+02
    -15.886  0.0000E+00  0.1200E+02
    -15.677  0.0000E+00  0.1200E+02
    -15.469  0.0000E+00  0.1200E+02
    -15.260  0.0000E+00  0.1200E+02
    -15.051  0.0000E+00  0.1200E+02
    -14.843  0.0000E+00  0.1200E+02
    -14.634  0.0000E+00  0.1200E+02
    -14.425  0.0000E+00  0.1200E+02
    -14.217  0.0000E+00  0.1200E+02
    -14.008  0.0000E+00  0.1200E+02
    -13.799  0.0000E+00  0.1200E+02
    -13.591  0.0000E+00  0.1200E+02
    -13.382  0.0000E+00  0.1200E+02
    -13.173  0.0000E+00  0.1200E+02
    -12.965  0.0000E+00  0.1200E+02
    -12.756  0.0000E+00  0.1200E+02
    -12.547  0.0000E+00  0.1200E+02
    -12.339  0.0000E+00  0.1200E+02
    -12.130  0.0000E+00  0.1200E+02
    -11.921  0.0000E+00  0.1200E+02
    -11.713  0.0000E+00  0.1200E+02
    -11.504  0.0000E+00  0.1200E+02
    -11.295  0.0000E+00  0.1200E+02
    -11.087  0.0000E+00  0.1200E+02
    -10.878  0.0000E+00  0.1200E+02
    -10.669  0.0000E+00  0.1200E+02
    -10.461  0.0000E+00  0.1200E+02
    -10.252  0.0000E+00  0.1200E+02
    -10.043  0.0000E+00  0.1200E+02
     -9.835  0.0000E+00  0.1200E+02
     -9.626  0.0000E+00  0.1200E+02
     -9.417  0.0000E+00  0.1200E+02
     -9.209  0.0000E+00  0.1200E+02
     -9.000  0.0000E+00  0.1200E+02
     -8.791  0.0000E+00  0.1200E+02
     -8.583  0.0000E+00  0.1200E+02
     -8.374  0.0000E+00  0.1200E+02
     -8.165  0.0000E+00  0.1200E+02
     -7.957  0.0000E+00  0.1200E+02
     -7.748  0.0000E+00  0.1200E+02
     -7.539  0.0000E+00  0.1200E+02
     -7.331  0.0000E+00  0.1200E+02
     -7.122  0.0000E+00  0.1200E+02
     -6.914  0.0000E+00  0.1200E+02
     -6.705  0.0000E+00  0.1200E+02
     -6.496  0.0000E+00  0.1200E+02
     -6.288  0.0000E+00  0.1200E+02
     -6.079  0.6827E+00  0.1328E+02
     -5.870  0.0000E+00  0.1375E+02
     -5.662  0.0000E+00  0.1399E+02
     -5.453  0.0000E+00  0.1400E+02
     -5.244  0.0000E+00  0.1400E+02
     -5.036  0.0000E+00  0.1400E+02
     -4.827  0.0000E+00  0.1400E+02
     -4.618  0.0000E+00  0.1400E+02
     -4.410  0.0000E+00  0.1400E+02
     -4.201  0.0000E+00  0.1400E+02
     -3.992  0.0000E+00  0.1400E+02
     -3.784  0.0000E+00  0.1400E+02
     -3.575  0.0000E+00  0.1400E+02
     -3.366  0.0000E+00  0.1400E+02
     -3.158  0.5347E-03  0.1495E+02
     -2.949  0.1331E+00  0.1553E+02
     -2.740  0.0000E+00  0.1586E+02
     -2.532  0.0000E+00  0.1656E+02
     -2.323  0.4058E+00  0.1705E+02
     -2.114  0.0000E+00  0.1763E+02
     -1.906  0.0000E+00  0.1791E+02
     -1.697  0.0000E+00  0.1800E+02
     -1.488  0.0000E+00  0.1800E+02
     -1.280  0.0000E+00  0.1800E+02
     -1.071  0.0000E+00  0.1800E+02
     -0.862  0.0000E+00  0.1800E+02
     -0.654  0.0000E+00  0.1800E+02
     -0.445  0.0000E+00  0.1800E+02
     -0.236  0.0000E+00  0.1800E+02
     -0.028  0.0000E+00  0.1800E+02
      0.181  0.0000E+00  0.1800E+02
      0.390  0.0000E+00  0.1800E+02
      0.598  0.0000E+00  0.1800E+02
      0.807  0.0000E+00  0.1800E+02
      1.016  0.0000E+00  0.1800E+02
      1.224  0.0000E+00  0.1800E+02
      1.433  0.0000E+00  0.1800E+02
      1.642  0.0000E+00  0.1800E+02
      1.850  0.0000E+00  0.1800E+02
      2.059  0.0000E+00  0.1800E+02
      2.268  0.0000E+00  0.1800E+02
      2.476  0.0000E+00  0.1800E+02
      2.685  0.0000E+00  0.1800E+02
      2.894  0.0000E+00  0.1801E+02
      3.102  0.0000E+00  0.1801E+02
      3.311  0.0000E+00  0.1801E+02
      3.520  0.0000E+00  0.1808E+02
      3.728  0.0000E+00  0.1808E+02
      3.937  0.0000E+00  0.1814E+02
      4.146  0.0000E+00  0.1814E+02
      4.354  0.0000E+00  0.1817E+02
      4.563  0.0000E+00  0.1839E+02
      4.772  0.0000E+00  0.1889E+02
      4.980  0.2804E-06  0.1889E+02
      5.189  0.0000E+00  0.1922E+02
      5.398  0.1566E-12  0.1958E+02
      5.606  0.0000E+00  0.1981E+02
      5.815  0.1910E-08  0.2008E+02
      6.024  0.0000E+00  0.2031E+02
      6.232  0.0000E+00  0.2064E+02
      6.441  0.0000E+00  0.2108E+02
      6.650  0.0000E+00  0.2164E+02
      6.858  0.0000E+00  0.2203E+02
      7.067  0.0000E+00  0.2203E+02
      7.275  0.0000E+00  0.2232E+02
      7.484  0.5053E-08  0.2251E+02
      7.693  0.4437E-01  0.2303E+02
      7.901  0.0000E+00  0.2351E+02
      8.110  0.6108E+00  0.2381E+02
      8.319  0.0000E+00  0.2461E+02
      8.527  0.0000E+00  0.2467E+02
      8.736  0.4216E+00  0.2539E+02
      8.945  0.0000E+00  0.2550E+02
      9.153  0.0000E+00  0.2561E+02
      9.362  0.1987E-03  0.2585E+02
      9.571  0.0000E+00  0.2586E+02
      9.779  0.0000E+00  0.2613E+02
      9.988  0.0000E+00  0.2665E+02
     10.197  0.3232E+00  0.2689E+02
     10.405  0.0000E+00  0.2717E+02
     10.614  0.0000E+00  0.2750E+02
     10.823  0.0000E+00  0.2761E+02
     11.031  0.0000E+00  0.2783E+02
     11.240  0.0000E+00  0.2783E+02
     11.449  0.2232E-01  0.2784E+02
     11.657  0.0000E+00  0.2786E+02
     11.866  0.0000E+00  0.2797E+02
     12.075  0.0000E+00  0.2800E+02
     12.283  0.0000E+00  0.2800E+02
     12.492  0.0000E+00  0.2800E+02
     12.701  0.0000E+00  0.2800E+02
     12.909  0.0000E+00  0.2800E+02
     13.118  0.0000E+00  0.2800E+02
     13.327  0.0000E+00  0.2800E+02
     13.535  0.0000E+00  0.2800E+02
     13.744  0.0000E+00  0.2800E+02
     13.953  0.0000E+00  0.2800E+02
     14.161  0.0000E+00  0.2800E+02
     14.370  0.0000E+00  0.2800E+02
     14.579  0.0000E+00  0.2800E+02
     14.787  0.0000E+00  0.2800E+02
