       N       E                     dE             d eps       ncg     rms          rms(c)
DAV:   1     0.135462124708E+03    0.13546E+03   -0.72381E+03 16096   0.478E+03
DAV:   2    -0.907835623331E+01   -0.14454E+03   -0.13773E+03 14888   0.107E+03
DAV:   3    -0.679410968545E+02   -0.58863E+02   -0.58394E+02 14696   0.280E+02
DAV:   4    -0.809956591777E+02   -0.13055E+02   -0.13014E+02 17108   0.188E+02
DAV:   5    -0.855241263265E+02   -0.45285E+01   -0.45277E+01 23444   0.113E+02    0.766E+00
DAV:   6    -0.825770924783E+02    0.29470E+01   -0.15787E+00 14212   0.838E+01    0.280E+00
DAV:   7    -0.827737961298E+02   -0.19670E+00   -0.10387E+00 15436   0.261E+01    0.530E-01
DAV:   8    -0.827668161805E+02    0.69799E-02   -0.10959E-01 18252   0.906E+00    0.287E-01
DAV:   9    -0.828368663969E+02   -0.70050E-01   -0.10200E+00 16724   0.104E+01    0.352E-01
DAV:  10    -0.830884208290E+02   -0.25155E+00   -0.44587E+00 16836   0.193E+01    0.628E-01
DAV:  11    -0.830667487917E+02    0.21672E-01   -0.41741E-02 18180   0.454E+00    0.625E-01
DAV:  12    -0.832308108296E+02   -0.16406E+00   -0.22800E-01 15632   0.508E+00    0.760E-01
DAV:  13    -0.829744662911E+02    0.25634E+00   -0.39643E-01 16256   0.103E+01    0.554E-01
DAV:  14    -0.828057215761E+02    0.16874E+00   -0.56582E-01 16876   0.761E+00    0.387E-01
DAV:  15    -0.827662723893E+02    0.39449E-01   -0.10846E-01 18372   0.600E+00    0.470E-01
DAV:  16    -0.827618578750E+02    0.44145E-02   -0.36726E-02 16572   0.784E+00    0.630E-01
DAV:  17    -0.827710563345E+02   -0.91985E-02   -0.25275E-02 18244   0.451E+00    0.765E-01
DAV:  18    -0.827700959395E+02    0.96039E-03   -0.35692E-03 17952   0.115E+00    0.716E-01
DAV:  19    -0.827687339637E+02    0.13620E-02   -0.39719E-03 17656   0.127E+00    0.635E-01
DAV:  20    -0.827651690289E+02    0.35649E-02   -0.24252E-02 17480   0.382E+00    0.439E-01
DAV:  21    -0.827625544825E+02    0.26145E-02   -0.27947E-02 18188   0.347E+00    0.226E-01
DAV:  22    -0.827606547446E+02    0.18997E-02   -0.12488E-02 18376   0.238E+00    0.885E-02
DAV:  23    -0.827540879372E+02    0.65668E-02   -0.19497E-02 16712   0.420E+00    0.200E-01
DAV:  24    -0.827541774234E+02   -0.89486E-04   -0.10774E-02 18276   0.701E+00    0.264E-01
DAV:  25    -0.827539986925E+02    0.17873E-03   -0.11011E-03 20552   0.696E-01    0.262E-01
DAV:  26    -0.827539766369E+02    0.22056E-04   -0.16430E-04 18816   0.272E-01    0.260E-01
DAV:  27    -0.827539951657E+02   -0.18529E-04   -0.25333E-04 16708   0.404E-01    0.261E-01
DAV:  28    -0.827541425655E+02   -0.14740E-03   -0.22585E-04 16116   0.384E-01    0.260E-01
DAV:  29    -0.827541324492E+02    0.10116E-04   -0.23184E-05 21120   0.167E-01    0.259E-01
DAV:  30    -0.827542673761E+02   -0.13493E-03   -0.45473E-04 16432   0.780E-01    0.262E-01
DAV:  31    -0.827542821187E+02   -0.14743E-04   -0.32305E-05 19428   0.160E-01    0.261E-01
DAV:  32    -0.827543644296E+02   -0.82311E-04   -0.34125E-04 14708   0.812E-01    0.260E-01
DAV:  33    -0.827544073679E+02   -0.42938E-04   -0.17253E-03 14412   0.110E+00    0.253E-01
DAV:  34    -0.827548770338E+02   -0.46967E-03   -0.58476E-03 14040   0.179E+00    0.231E-01
DAV:  35    -0.827550705274E+02   -0.19349E-03   -0.47759E-03 15768   0.211E+00    0.227E-01
DAV:  36    -0.827554651619E+02   -0.39463E-03   -0.15958E-03 16436   0.110E+00    0.216E-01
DAV:  37    -0.827555063674E+02   -0.41205E-04   -0.10965E-03 15928   0.700E-01    0.193E-01
DAV:  38    -0.827554435658E+02    0.62802E-04   -0.40712E-03 18332   0.165E+00    0.178E-01
DAV:  39    -0.827554976550E+02   -0.54089E-04   -0.36890E-04 19728   0.108E+00    0.177E-01
DAV:  40    -0.827556449581E+02   -0.14730E-03   -0.14187E-04 19076   0.427E-01    0.164E-01
DAV:  41    -0.827557095291E+02   -0.64571E-04   -0.34907E-05 19756   0.156E-01    0.160E-01
DAV:  42    -0.827557792409E+02   -0.69712E-04   -0.31715E-05 20160   0.240E-01    0.155E-01
DAV:  43    -0.827559541300E+02   -0.17489E-03   -0.15249E-04 18220   0.686E-01    0.143E-01
DAV:  44    -0.827560855403E+02   -0.13141E-03   -0.11645E-04 20440   0.728E-01    0.137E-01
DAV:  45    -0.827560861496E+02   -0.60928E-06   -0.20438E-05 19368   0.648E-02    0.137E-01
DAV:  46    -0.827560891860E+02   -0.30363E-05   -0.94625E-07 19220   0.165E-02    0.137E-01
DAV:  47    -0.827561031198E+02   -0.13934E-04   -0.43636E-05 14924   0.858E-02    0.138E-01
DAV:  48    -0.827560862242E+02    0.16896E-04   -0.13869E-05 16188   0.898E-02    0.141E-01
DAV:  49    -0.827560877027E+02   -0.14784E-05   -0.62434E-06 17004   0.794E-02    0.143E-01
DAV:  50    -0.827560891179E+02   -0.14152E-05   -0.88914E-07 21056   0.328E-02
   1 F= -.82756089E+02 E0= -.82756089E+02  d E =-.846356E-70  mag=    -0.0008    -0.0008    -0.0008
 imaginary and real dielectric function
