<?xml version="1.0" encoding="ISO-8859-1"?>
<modeling>
 <generator>
  <i name="program" type="string">vasp </i>
  <i name="version" type="string">5.4.4.18Apr17-6-g9f103f2a35  </i>
  <i name="subversion" type="string">(build Jul 09 2018 16:43:14) complex            parallel </i>
  <i name="platform" type="string">LinuxIFC </i>
  <i name="date" type="string">2018 11 29 </i>
  <i name="time" type="string">21:52:05 </i>
 </generator>
 <incar>
  <i type="string" name="SYSTEM">   Og_FCC</i>
  <i type="string" name="PREC">accurate</i>
  <i type="string" name="ALGO">   Normal</i>
  <i type="logical" name="ADDGRID"> T  </i>
  <i type="logical" name="LSORBIT"> T  </i>
  <i type="int" name="ISPIN">     1</i>
  <i type="int" name="MAXMIX">    50</i>
  <i type="int" name="NELM">    50</i>
  <i type="int" name="NELMDL">    -5</i>
  <i type="int" name="NELMIN">     2</i>
  <i type="int" name="IBRION">    -1</i>
  <i type="int" name="NFREE">     5</i>
  <i name="EDIFF">      0.00000001</i>
  <i name="EDIFFG">      0.00001000</i>
  <i type="int" name="NSW">     1</i>
  <i type="int" name="ISIF">     3</i>
  <i type="int" name="ISYM">     0</i>
  <i name="SYMPREC">      0.00000010</i>
  <i name="ENCUT">    300.00000000</i>
  <i name="POTIM">      0.10000000</i>
  <i type="logical" name="LREAL"> F  </i>
  <i type="int" name="ISMEAR">     0</i>
  <i name="SIGMA">      0.00100000</i>
  <i type="int" name="NWRITE">     2</i>
  <i type="logical" name="LWAVE"> T  </i>
  <i type="logical" name="LCHARG"> F  </i>
  <i type="logical" name="LVTOT"> F  </i>
  <i type="logical" name="LOPTICS"> T  </i>
  <i type="logical" name="GGA_COMPAT"> F  </i>
  <v type="int" name="KPOINT_BSE">    -1     0     0     0</v>
  <i type="int" name="NELM">    50</i>
  <i type="string" name="METAGGA"> SCAN</i>
 </incar>
 <structure name="primitive_cell" >
  <crystal>
   <varray name="basis" >
    <v>       4.52056477       0.00000000       0.00000000 </v>
    <v>       2.26028238       3.91492393      -0.00000000 </v>
    <v>       2.26028238       1.30497464       3.69102568 </v>
   </varray>
   <i name="volume">     65.32254404 </i>
   <varray name="rec_basis" >
    <v>       0.22121130      -0.12771640      -0.09030913 </v>
    <v>       0.00000000       0.25543280      -0.09030913 </v>
    <v>      -0.00000000       0.00000000       0.27092740 </v>
   </varray>
  </crystal>
  <varray name="positions" >
   <v>       0.00000000       0.00000000       0.00000000 </v>
  </varray>
 </structure>
 <varray name="primitive_index" >
  <v type="int" >        1 </v>
 </varray>
 <kpoints>
  <generation param="Gamma">
   <v type="int" name="divisions">       6        6        6 </v>
   <v name="usershift">      0.00000000       0.00000000       0.00000000 </v>
   <v name="genvec1">      0.16666667      -0.00000000      -0.00000000 </v>
   <v name="genvec2">      0.00000000       0.16666667       0.00000000 </v>
   <v name="genvec3">      0.00000000       0.00000000       0.16666667 </v>
   <v name="shift">      0.00000000       0.00000000       0.00000000 </v>
  </generation>
  <varray name="kpointlist" >
   <v>       0.00000000       0.00000000       0.00000000 </v>
   <v>       0.16666667       0.00000000       0.00000000 </v>
   <v>       0.33333333       0.00000000       0.00000000 </v>
   <v>       0.50000000       0.00000000       0.00000000 </v>
   <v>      -0.33333333      -0.00000000      -0.00000000 </v>
   <v>      -0.16666667      -0.00000000       0.00000000 </v>
   <v>       0.00000000       0.16666667       0.00000000 </v>
   <v>       0.16666667       0.16666667       0.00000000 </v>
   <v>       0.33333333       0.16666667       0.00000000 </v>
   <v>       0.50000000       0.16666667       0.00000000 </v>
   <v>      -0.33333333       0.16666667       0.00000000 </v>
   <v>      -0.16666667       0.16666667       0.00000000 </v>
   <v>       0.00000000       0.33333333       0.00000000 </v>
   <v>       0.16666667       0.33333333       0.00000000 </v>
   <v>       0.33333333       0.33333333       0.00000000 </v>
   <v>       0.50000000       0.33333333       0.00000000 </v>
   <v>      -0.33333333       0.33333333      -0.00000000 </v>
   <v>      -0.16666667       0.33333333      -0.00000000 </v>
   <v>       0.00000000       0.50000000       0.00000000 </v>
   <v>       0.16666667       0.50000000       0.00000000 </v>
   <v>       0.33333333       0.50000000       0.00000000 </v>
   <v>       0.50000000       0.50000000      -0.00000000 </v>
   <v>      -0.33333333       0.50000000      -0.00000000 </v>
   <v>      -0.16666667       0.50000000       0.00000000 </v>
   <v>      -0.00000000      -0.33333333       0.00000000 </v>
   <v>       0.16666667      -0.33333333       0.00000000 </v>
   <v>       0.33333333      -0.33333333       0.00000000 </v>
   <v>       0.50000000      -0.33333333      -0.00000000 </v>
   <v>      -0.33333333      -0.33333333      -0.00000000 </v>
   <v>      -0.16666667      -0.33333333       0.00000000 </v>
   <v>      -0.00000000      -0.16666667      -0.00000000 </v>
   <v>       0.16666667      -0.16666667       0.00000000 </v>
   <v>       0.33333333      -0.16666667       0.00000000 </v>
   <v>       0.50000000      -0.16666667       0.00000000 </v>
   <v>      -0.33333333      -0.16666667      -0.00000000 </v>
   <v>      -0.16666667      -0.16666667       0.00000000 </v>
   <v>      -0.00000000      -0.00000000       0.16666667 </v>
   <v>       0.16666667       0.00000000       0.16666667 </v>
   <v>       0.33333333       0.00000000       0.16666667 </v>
   <v>       0.50000000       0.00000000       0.16666667 </v>
   <v>      -0.33333333      -0.00000000       0.16666667 </v>
   <v>      -0.16666667      -0.00000000       0.16666667 </v>
   <v>       0.00000000       0.16666667       0.16666667 </v>
   <v>       0.16666667       0.16666667       0.16666667 </v>
   <v>       0.33333333       0.16666667       0.16666667 </v>
   <v>       0.50000000       0.16666667       0.16666667 </v>
   <v>      -0.33333333       0.16666667       0.16666667 </v>
   <v>      -0.16666667       0.16666667       0.16666667 </v>
   <v>       0.00000000       0.33333333       0.16666667 </v>
   <v>       0.16666667       0.33333333       0.16666667 </v>
   <v>       0.33333333       0.33333333       0.16666667 </v>
   <v>       0.50000000       0.33333333       0.16666667 </v>
   <v>      -0.33333333       0.33333333       0.16666667 </v>
   <v>      -0.16666667       0.33333333       0.16666667 </v>
   <v>       0.00000000       0.50000000       0.16666667 </v>
   <v>       0.16666667       0.50000000       0.16666667 </v>
   <v>       0.33333333       0.50000000       0.16666667 </v>
   <v>       0.50000000       0.50000000       0.16666667 </v>
   <v>      -0.33333333       0.50000000       0.16666667 </v>
   <v>      -0.16666667       0.50000000       0.16666667 </v>
   <v>      -0.00000000      -0.33333333       0.16666667 </v>
   <v>       0.16666667      -0.33333333       0.16666667 </v>
   <v>       0.33333333      -0.33333333       0.16666667 </v>
   <v>       0.50000000      -0.33333333       0.16666667 </v>
   <v>      -0.33333333      -0.33333333       0.16666667 </v>
   <v>      -0.16666667      -0.33333333       0.16666667 </v>
   <v>      -0.00000000      -0.16666667       0.16666667 </v>
   <v>       0.16666667      -0.16666667       0.16666667 </v>
   <v>       0.33333333      -0.16666667       0.16666667 </v>
   <v>       0.50000000      -0.16666667       0.16666667 </v>
   <v>      -0.33333333      -0.16666667       0.16666667 </v>
   <v>      -0.16666667      -0.16666667       0.16666667 </v>
   <v>       0.00000000      -0.00000000       0.33333333 </v>
   <v>       0.16666667       0.00000000       0.33333333 </v>
   <v>       0.33333333       0.00000000       0.33333333 </v>
   <v>       0.50000000       0.00000000       0.33333333 </v>
   <v>      -0.33333333      -0.00000000       0.33333333 </v>
   <v>      -0.16666667      -0.00000000       0.33333333 </v>
   <v>       0.00000000       0.16666667       0.33333333 </v>
   <v>       0.16666667       0.16666667       0.33333333 </v>
   <v>       0.33333333       0.16666667       0.33333333 </v>
   <v>       0.50000000       0.16666667       0.33333333 </v>
   <v>      -0.33333333       0.16666667       0.33333333 </v>
   <v>      -0.16666667       0.16666667       0.33333333 </v>
   <v>      -0.00000000       0.33333333       0.33333333 </v>
   <v>       0.16666667       0.33333333       0.33333333 </v>
   <v>       0.33333333       0.33333333       0.33333333 </v>
   <v>       0.50000000       0.33333333       0.33333333 </v>
   <v>      -0.33333333       0.33333333       0.33333333 </v>
   <v>      -0.16666667       0.33333333       0.33333333 </v>
   <v>       0.00000000       0.50000000       0.33333333 </v>
   <v>       0.16666667       0.50000000       0.33333333 </v>
   <v>       0.33333333       0.50000000       0.33333333 </v>
   <v>       0.50000000       0.50000000       0.33333333 </v>
   <v>      -0.33333333       0.50000000       0.33333333 </v>
   <v>      -0.16666667       0.50000000       0.33333333 </v>
   <v>      -0.00000000      -0.33333333       0.33333333 </v>
   <v>       0.16666667      -0.33333333       0.33333333 </v>
   <v>       0.33333333      -0.33333333       0.33333333 </v>
   <v>       0.50000000      -0.33333333       0.33333333 </v>
   <v>      -0.33333333      -0.33333333       0.33333333 </v>
   <v>      -0.16666667      -0.33333333       0.33333333 </v>
   <v>      -0.00000000      -0.16666667       0.33333333 </v>
   <v>       0.16666667      -0.16666667       0.33333333 </v>
   <v>       0.33333333      -0.16666667       0.33333333 </v>
   <v>       0.50000000      -0.16666667       0.33333333 </v>
   <v>      -0.33333333      -0.16666667       0.33333333 </v>
   <v>      -0.16666667      -0.16666667       0.33333333 </v>
   <v>      -0.00000000      -0.00000000       0.50000000 </v>
   <v>       0.16666667       0.00000000       0.50000000 </v>
   <v>       0.33333333       0.00000000       0.50000000 </v>
   <v>       0.50000000       0.00000000       0.50000000 </v>
   <v>      -0.33333333      -0.00000000       0.50000000 </v>
   <v>      -0.16666667      -0.00000000       0.50000000 </v>
   <v>      -0.00000000       0.16666667       0.50000000 </v>
   <v>       0.16666667       0.16666667       0.50000000 </v>
   <v>       0.33333333       0.16666667       0.50000000 </v>
   <v>       0.50000000       0.16666667       0.50000000 </v>
   <v>      -0.33333333       0.16666667       0.50000000 </v>
   <v>      -0.16666667       0.16666667       0.50000000 </v>
   <v>      -0.00000000       0.33333333       0.50000000 </v>
   <v>       0.16666667       0.33333333       0.50000000 </v>
   <v>       0.33333333       0.33333333       0.50000000 </v>
   <v>       0.50000000       0.33333333       0.50000000 </v>
   <v>      -0.33333333       0.33333333       0.50000000 </v>
   <v>      -0.16666667       0.33333333       0.50000000 </v>
   <v>       0.00000000       0.50000000       0.50000000 </v>
   <v>       0.16666667       0.50000000       0.50000000 </v>
   <v>       0.33333333       0.50000000       0.50000000 </v>
   <v>       0.50000000       0.50000000       0.50000000 </v>
   <v>      -0.33333333       0.50000000       0.50000000 </v>
   <v>      -0.16666667       0.50000000       0.50000000 </v>
   <v>      -0.00000000      -0.33333333       0.50000000 </v>
   <v>       0.16666667      -0.33333333       0.50000000 </v>
   <v>       0.33333333      -0.33333333       0.50000000 </v>
   <v>       0.50000000      -0.33333333       0.50000000 </v>
   <v>      -0.33333333      -0.33333333       0.50000000 </v>
   <v>      -0.16666667      -0.33333333       0.50000000 </v>
   <v>      -0.00000000      -0.16666667       0.50000000 </v>
   <v>       0.16666667      -0.16666667       0.50000000 </v>
   <v>       0.33333333      -0.16666667       0.50000000 </v>
   <v>       0.50000000      -0.16666667       0.50000000 </v>
   <v>      -0.33333333      -0.16666667       0.50000000 </v>
   <v>      -0.16666667      -0.16666667       0.50000000 </v>
   <v>       0.00000000       0.00000000      -0.33333333 </v>
   <v>       0.16666667       0.00000000      -0.33333333 </v>
   <v>       0.33333333       0.00000000      -0.33333333 </v>
   <v>       0.50000000       0.00000000      -0.33333333 </v>
   <v>      -0.33333333      -0.00000000      -0.33333333 </v>
   <v>      -0.16666667      -0.00000000      -0.33333333 </v>
   <v>       0.00000000       0.16666667      -0.33333333 </v>
   <v>       0.16666667       0.16666667      -0.33333333 </v>
   <v>       0.33333333       0.16666667      -0.33333333 </v>
   <v>       0.50000000       0.16666667      -0.33333333 </v>
   <v>      -0.33333333       0.16666667      -0.33333333 </v>
   <v>      -0.16666667       0.16666667      -0.33333333 </v>
   <v>       0.00000000       0.33333333      -0.33333333 </v>
   <v>       0.16666667       0.33333333      -0.33333333 </v>
   <v>       0.33333333       0.33333333      -0.33333333 </v>
   <v>       0.50000000       0.33333333      -0.33333333 </v>
   <v>      -0.33333333       0.33333333      -0.33333333 </v>
   <v>      -0.16666667       0.33333333      -0.33333333 </v>
   <v>       0.00000000       0.50000000      -0.33333333 </v>
   <v>       0.16666667       0.50000000      -0.33333333 </v>
   <v>       0.33333333       0.50000000      -0.33333333 </v>
   <v>       0.50000000       0.50000000      -0.33333333 </v>
   <v>      -0.33333333       0.50000000      -0.33333333 </v>
   <v>      -0.16666667       0.50000000      -0.33333333 </v>
   <v>       0.00000000      -0.33333333      -0.33333333 </v>
   <v>       0.16666667      -0.33333333      -0.33333333 </v>
   <v>       0.33333333      -0.33333333      -0.33333333 </v>
   <v>       0.50000000      -0.33333333      -0.33333333 </v>
   <v>      -0.33333333      -0.33333333      -0.33333333 </v>
   <v>      -0.16666667      -0.33333333      -0.33333333 </v>
   <v>       0.00000000      -0.16666667      -0.33333333 </v>
   <v>       0.16666667      -0.16666667      -0.33333333 </v>
   <v>       0.33333333      -0.16666667      -0.33333333 </v>
   <v>       0.50000000      -0.16666667      -0.33333333 </v>
   <v>      -0.33333333      -0.16666667      -0.33333333 </v>
   <v>      -0.16666667      -0.16666667      -0.33333333 </v>
   <v>       0.00000000       0.00000000      -0.16666667 </v>
   <v>       0.16666667       0.00000000      -0.16666667 </v>
   <v>       0.33333333       0.00000000      -0.16666667 </v>
   <v>       0.50000000       0.00000000      -0.16666667 </v>
   <v>      -0.33333333      -0.00000000      -0.16666667 </v>
   <v>      -0.16666667       0.00000000      -0.16666667 </v>
   <v>       0.00000000       0.16666667      -0.16666667 </v>
   <v>       0.16666667       0.16666667      -0.16666667 </v>
   <v>       0.33333333       0.16666667      -0.16666667 </v>
   <v>       0.50000000       0.16666667      -0.16666667 </v>
   <v>      -0.33333333       0.16666667      -0.16666667 </v>
   <v>      -0.16666667       0.16666667      -0.16666667 </v>
   <v>       0.00000000       0.33333333      -0.16666667 </v>
   <v>       0.16666667       0.33333333      -0.16666667 </v>
   <v>       0.33333333       0.33333333      -0.16666667 </v>
   <v>       0.50000000       0.33333333      -0.16666667 </v>
   <v>      -0.33333333       0.33333333      -0.16666667 </v>
   <v>      -0.16666667       0.33333333      -0.16666667 </v>
   <v>       0.00000000       0.50000000      -0.16666667 </v>
   <v>       0.16666667       0.50000000      -0.16666667 </v>
   <v>       0.33333333       0.50000000      -0.16666667 </v>
   <v>       0.50000000       0.50000000      -0.16666667 </v>
   <v>      -0.33333333       0.50000000      -0.16666667 </v>
   <v>      -0.16666667       0.50000000      -0.16666667 </v>
   <v>      -0.00000000      -0.33333333      -0.16666667 </v>
   <v>       0.16666667      -0.33333333      -0.16666667 </v>
   <v>       0.33333333      -0.33333333      -0.16666667 </v>
   <v>       0.50000000      -0.33333333      -0.16666667 </v>
   <v>      -0.33333333      -0.33333333      -0.16666667 </v>
   <v>      -0.16666667      -0.33333333      -0.16666667 </v>
   <v>       0.00000000      -0.16666667      -0.16666667 </v>
   <v>       0.16666667      -0.16666667      -0.16666667 </v>
   <v>       0.33333333      -0.16666667      -0.16666667 </v>
   <v>       0.50000000      -0.16666667      -0.16666667 </v>
   <v>      -0.33333333      -0.16666667      -0.16666667 </v>
   <v>      -0.16666667      -0.16666667      -0.16666667 </v>
  </varray>
  <varray name="weights" >
   <v>       0.00462963 </v>
   <v>       0.00462963 </v>
   <v>       0.00462963 </v>
   <v>       0.00462963 </v>
   <v>       0.00462963 </v>
   <v>       0.00462963 </v>
   <v>       0.00462963 </v>
   <v>       0.00462963 </v>
   <v>       0.00462963 </v>
   <v>       0.00462963 </v>
   <v>       0.00462963 </v>
   <v>       0.00462963 </v>
   <v>       0.00462963 </v>
   <v>       0.00462963 </v>
   <v>       0.00462963 </v>
   <v>       0.00462963 </v>
   <v>       0.00462963 </v>
   <v>       0.00462963 </v>
   <v>       0.00462963 </v>
   <v>       0.00462963 </v>
   <v>       0.00462963 </v>
   <v>       0.00462963 </v>
   <v>       0.00462963 </v>
   <v>       0.00462963 </v>
   <v>       0.00462963 </v>
   <v>       0.00462963 </v>
   <v>       0.00462963 </v>
   <v>       0.00462963 </v>
   <v>       0.00462963 </v>
   <v>       0.00462963 </v>
   <v>       0.00462963 </v>
   <v>       0.00462963 </v>
   <v>       0.00462963 </v>
   <v>       0.00462963 </v>
   <v>       0.00462963 </v>
   <v>       0.00462963 </v>
   <v>       0.00462963 </v>
   <v>       0.00462963 </v>
   <v>       0.00462963 </v>
   <v>       0.00462963 </v>
   <v>       0.00462963 </v>
   <v>       0.00462963 </v>
   <v>       0.00462963 </v>
   <v>       0.00462963 </v>
   <v>       0.00462963 </v>
   <v>       0.00462963 </v>
   <v>       0.00462963 </v>
   <v>       0.00462963 </v>
   <v>       0.00462963 </v>
   <v>       0.00462963 </v>
   <v>       0.00462963 </v>
   <v>       0.00462963 </v>
   <v>       0.00462963 </v>
   <v>       0.00462963 </v>
   <v>       0.00462963 </v>
   <v>       0.00462963 </v>
   <v>       0.00462963 </v>
   <v>       0.00462963 </v>
   <v>       0.00462963 </v>
   <v>       0.00462963 </v>
   <v>       0.00462963 </v>
   <v>       0.00462963 </v>
   <v>       0.00462963 </v>
   <v>       0.00462963 </v>
   <v>       0.00462963 </v>
   <v>       0.00462963 </v>
   <v>       0.00462963 </v>
   <v>       0.00462963 </v>
   <v>       0.00462963 </v>
   <v>       0.00462963 </v>
   <v>       0.00462963 </v>
   <v>       0.00462963 </v>
   <v>       0.00462963 </v>
   <v>       0.00462963 </v>
   <v>       0.00462963 </v>
   <v>       0.00462963 </v>
   <v>       0.00462963 </v>
   <v>       0.00462963 </v>
   <v>       0.00462963 </v>
   <v>       0.00462963 </v>
   <v>       0.00462963 </v>
   <v>       0.00462963 </v>
   <v>       0.00462963 </v>
   <v>       0.00462963 </v>
   <v>       0.00462963 </v>
   <v>       0.00462963 </v>
   <v>       0.00462963 </v>
   <v>       0.00462963 </v>
   <v>       0.00462963 </v>
   <v>       0.00462963 </v>
   <v>       0.00462963 </v>
   <v>       0.00462963 </v>
   <v>       0.00462963 </v>
   <v>       0.00462963 </v>
   <v>       0.00462963 </v>
   <v>       0.00462963 </v>
   <v>       0.00462963 </v>
   <v>       0.00462963 </v>
   <v>       0.00462963 </v>
   <v>       0.00462963 </v>
   <v>       0.00462963 </v>
   <v>       0.00462963 </v>
   <v>       0.00462963 </v>
   <v>       0.00462963 </v>
   <v>       0.00462963 </v>
   <v>       0.00462963 </v>
   <v>       0.00462963 </v>
   <v>       0.00462963 </v>
   <v>       0.00462963 </v>
   <v>       0.00462963 </v>
   <v>       0.00462963 </v>
   <v>       0.00462963 </v>
   <v>       0.00462963 </v>
   <v>       0.00462963 </v>
   <v>       0.00462963 </v>
   <v>       0.00462963 </v>
   <v>       0.00462963 </v>
   <v>       0.00462963 </v>
   <v>       0.00462963 </v>
   <v>       0.00462963 </v>
   <v>       0.00462963 </v>
   <v>       0.00462963 </v>
   <v>       0.00462963 </v>
   <v>       0.00462963 </v>
   <v>       0.00462963 </v>
   <v>       0.00462963 </v>
   <v>       0.00462963 </v>
   <v>       0.00462963 </v>
   <v>       0.00462963 </v>
   <v>       0.00462963 </v>
   <v>       0.00462963 </v>
   <v>       0.00462963 </v>
   <v>       0.00462963 </v>
   <v>       0.00462963 </v>
   <v>       0.00462963 </v>
   <v>       0.00462963 </v>
   <v>       0.00462963 </v>
   <v>       0.00462963 </v>
   <v>       0.00462963 </v>
   <v>       0.00462963 </v>
   <v>       0.00462963 </v>
   <v>       0.00462963 </v>
   <v>       0.00462963 </v>
   <v>       0.00462963 </v>
   <v>       0.00462963 </v>
   <v>       0.00462963 </v>
   <v>       0.00462963 </v>
   <v>       0.00462963 </v>
   <v>       0.00462963 </v>
   <v>       0.00462963 </v>
   <v>       0.00462963 </v>
   <v>       0.00462963 </v>
   <v>       0.00462963 </v>
   <v>       0.00462963 </v>
   <v>       0.00462963 </v>
   <v>       0.00462963 </v>
   <v>       0.00462963 </v>
   <v>       0.00462963 </v>
   <v>       0.00462963 </v>
   <v>       0.00462963 </v>
   <v>       0.00462963 </v>
   <v>       0.00462963 </v>
   <v>       0.00462963 </v>
   <v>       0.00462963 </v>
   <v>       0.00462963 </v>
   <v>       0.00462963 </v>
   <v>       0.00462963 </v>
   <v>       0.00462963 </v>
   <v>       0.00462963 </v>
   <v>       0.00462963 </v>
   <v>       0.00462963 </v>
   <v>       0.00462963 </v>
   <v>       0.00462963 </v>
   <v>       0.00462963 </v>
   <v>       0.00462963 </v>
   <v>       0.00462963 </v>
   <v>       0.00462963 </v>
   <v>       0.00462963 </v>
   <v>       0.00462963 </v>
   <v>       0.00462963 </v>
   <v>       0.00462963 </v>
   <v>       0.00462963 </v>
   <v>       0.00462963 </v>
   <v>       0.00462963 </v>
   <v>       0.00462963 </v>
   <v>       0.00462963 </v>
   <v>       0.00462963 </v>
   <v>       0.00462963 </v>
   <v>       0.00462963 </v>
   <v>       0.00462963 </v>
   <v>       0.00462963 </v>
   <v>       0.00462963 </v>
   <v>       0.00462963 </v>
   <v>       0.00462963 </v>
   <v>       0.00462963 </v>
   <v>       0.00462963 </v>
   <v>       0.00462963 </v>
   <v>       0.00462963 </v>
   <v>       0.00462963 </v>
   <v>       0.00462963 </v>
   <v>       0.00462963 </v>
   <v>       0.00462963 </v>
   <v>       0.00462963 </v>
   <v>       0.00462963 </v>
   <v>       0.00462963 </v>
   <v>       0.00462963 </v>
   <v>       0.00462963 </v>
   <v>       0.00462963 </v>
   <v>       0.00462963 </v>
   <v>       0.00462963 </v>
   <v>       0.00462963 </v>
   <v>       0.00462963 </v>
   <v>       0.00462963 </v>
   <v>       0.00462963 </v>
   <v>       0.00462963 </v>
   <v>       0.00462963 </v>
  </varray>
 </kpoints>
 <parameters>
  <separator name="general" >
   <i type="string" name="SYSTEM">Og_FCC</i>
   <i type="logical" name="LCOMPAT"> F  </i>
  </separator>
  <separator name="electronic" >
   <i type="string" name="PREC">accura</i>
   <i name="ENMAX">    300.00000000</i>
   <i name="ENAUG">    715.60700000</i>
   <i name="EDIFF">      0.00000001</i>
   <i type="int" name="IALGO">    38</i>
   <i type="int" name="IWAVPR">    10</i>
   <i type="int" name="NBANDS">    28</i>
   <i name="NELECT">     18.00000000</i>
   <i type="int" name="TURBO">     0</i>
   <i type="int" name="IRESTART">     0</i>
   <i type="int" name="NREBOOT">     0</i>
   <i type="int" name="NMIN">     0</i>
   <i name="EREF">      0.00000000</i>
   <separator name="electronic smearing" >
    <i type="int" name="ISMEAR">     0</i>
    <i name="SIGMA">      0.00100000</i>
    <i name="KSPACING">      0.50000000</i>
    <i type="logical" name="KGAMMA"> T  </i>
   </separator>
   <separator name="electronic projectors" >
    <i type="logical" name="LREAL"> F  </i>
    <v name="ROPT">      0.00000000</v>
    <i type="int" name="LMAXPAW">  -100</i>
    <i type="int" name="LMAXMIX">     2</i>
    <i type="logical" name="NLSPLINE"> F  </i>
   </separator>
   <separator name="electronic startup" >
    <i type="int" name="ISTART">     0</i>
    <i type="int" name="ICHARG">     2</i>
    <i type="int" name="INIWAV">     1</i>
   </separator>
   <separator name="electronic spin" >
    <i type="int" name="ISPIN">     1</i>
    <i type="logical" name="LNONCOLLINEAR"> T  </i>
    <v name="MAGMOM">      1.00000000      1.00000000      1.00000000</v>
    <i name="NUPDOWN">     -1.00000000</i>
    <i type="logical" name="LSORBIT"> T  </i>
    <v name="SAXIS">      0.00000000      0.00000000      1.00000000</v>
    <i type="logical" name="LSPIRAL"> F  </i>
    <v name="QSPIRAL">      0.00000000      0.00000000      0.00000000</v>
    <i type="logical" name="LZEROZ"> F  </i>
   </separator>
   <separator name="electronic exchange-correlation" >
    <i type="logical" name="LASPH"> F  </i>
    <i type="logical" name="LMETAGGA"> F  </i>
   </separator>
   <separator name="electronic convergence" >
    <i type="int" name="NELM">    50</i>
    <i type="int" name="NELMDL">    -5</i>
    <i type="int" name="NELMIN">     2</i>
    <i name="ENINI">    300.00000000</i>
    <separator name="electronic convergence detail" >
     <i type="logical" name="LDIAG"> T  </i>
     <i type="logical" name="LSUBROT"> F  </i>
     <i name="WEIMIN">      0.00000000</i>
     <i name="EBREAK">      0.00000000</i>
     <i name="DEPER">      0.30000000</i>
     <i type="int" name="NRMM">     4</i>
     <i name="TIME">      0.40000000</i>
    </separator>
   </separator>
   <separator name="electronic mixer" >
    <i name="AMIX">      0.40000000</i>
    <i name="BMIX">      1.00000000</i>
    <i name="AMIN">      0.10000000</i>
    <i name="AMIX_MAG">      1.60000000</i>
    <i name="BMIX_MAG">      1.00000000</i>
    <separator name="electronic mixer details" >
     <i type="int" name="IMIX">     4</i>
     <i type="logical" name="MIXFIRST"> F  </i>
     <i type="int" name="MAXMIX">    50</i>
     <i name="WC">    100.00000000</i>
     <i type="int" name="INIMIX">     1</i>
     <i type="int" name="MIXPRE">     1</i>
     <i type="int" name="MREMOVE">     5</i>
    </separator>
   </separator>
   <separator name="electronic dipolcorrection" >
    <i type="logical" name="LDIPOL"> F  </i>
    <i type="logical" name="LMONO"> F  </i>
    <i type="int" name="IDIPOL">     0</i>
    <i name="EPSILON">      1.00000000</i>
    <v name="DIPOL">   -100.00000000   -100.00000000   -100.00000000</v>
    <i name="EFIELD">      0.00000000</i>
   </separator>
  </separator>
  <separator name="grids" >
   <i type="int" name="NGX">    28</i>
   <i type="int" name="NGY">    28</i>
   <i type="int" name="NGZ">    28</i>
   <i type="int" name="NGXF">    56</i>
   <i type="int" name="NGYF">    56</i>
   <i type="int" name="NGZF">    56</i>
   <i type="logical" name="ADDGRID"> T  </i>
  </separator>
  <separator name="ionic" >
   <i type="int" name="NSW">     1</i>
   <i type="int" name="IBRION">    -1</i>
   <i type="int" name="MDALGO">     0</i>
   <i type="int" name="ISIF">     3</i>
   <i name="PSTRESS">      0.00000000</i>
   <i name="EDIFFG">      0.00001000</i>
   <i type="int" name="NFREE">     5</i>
   <i name="POTIM">      0.10000000</i>
   <i name="SMASS">     -3.00000000</i>
   <i name="SCALEE">      1.00000000</i>
  </separator>
  <separator name="ionic md" >
   <i name="TEBEG">      0.00010000</i>
   <i name="TEEND">      0.00010000</i>
   <i type="int" name="NBLOCK">     1</i>
   <i type="int" name="KBLOCK">     1</i>
   <i type="int" name="NPACO">   256</i>
   <i name="APACO">     16.00000000</i>
  </separator>
  <separator name="symmetry" >
   <i type="int" name="ISYM">     0</i>
   <i name="SYMPREC">      0.00000010</i>
  </separator>
  <separator name="dos" >
   <i type="int" name="LORBIT">     0</i>
   <v name="RWIGS">     -1.00000000</v>
   <i type="int" name="NEDOS">   301</i>
   <i name="EMIN">     10.00000000</i>
   <i name="EMAX">    -10.00000000</i>
   <i name="EFERMI">      0.00000000</i>
  </separator>
  <separator name="writing" >
   <i type="int" name="NWRITE">     2</i>
   <i type="logical" name="LWAVE"> T  </i>
   <i type="logical" name="LDOWNSAMPLE"> F  </i>
   <i type="logical" name="LCHARG"> F  </i>
   <i type="logical" name="LPARD"> F  </i>
   <i type="logical" name="LVTOT"> F  </i>
   <i type="logical" name="LVHAR"> F  </i>
   <i type="logical" name="LELF"> F  </i>
   <i type="logical" name="LOPTICS"> T  </i>
   <v name="STM">      0.00000000      0.00000000      0.00000000      0.00000000      0.00000000      0.00000000      0.00000000</v>
  </separator>
  <separator name="performance" >
   <i type="int" name="NPAR">     4</i>
   <i type="int" name="NSIM">     4</i>
   <i type="int" name="NBLK">    -1</i>
   <i type="logical" name="LPLANE"> T  </i>
   <i type="logical" name="LSCALAPACK"> T  </i>
   <i type="logical" name="LSCAAWARE"> F  </i>
   <i type="logical" name="LSCALU"> F  </i>
   <i type="logical" name="LASYNC"> F  </i>
   <i type="logical" name="LORBITALREAL"> F  </i>
  </separator>
  <separator name="miscellaneous" >
   <i type="int" name="IDIOT">     3</i>
   <i type="int" name="ISPECIAL">     0</i>
   <i type="logical" name="LMUSIC"> F  </i>
   <v name="POMASS">    220.17000000</v>
   <v name="DARWINR">      0.00000000</v>
   <v name="DARWINV">      1.00000000</v>
   <i type="logical" name="LCORR"> T  </i>
  </separator>
  <i type="logical" name="GGA_COMPAT"> F  </i>
  <i type="logical" name="LBERRY"> F  </i>
  <i type="int" name="ICORELEVEL">     0</i>
  <i type="logical" name="LDAU"> F  </i>
  <i type="int" name="I_CONSTRAINED_M">     0</i>
  <separator name="electronic exchange-correlation" >
   <i type="string" name="GGA">--</i>
   <i type="int" name="VOSKOWN">     0</i>
   <i type="logical" name="LHFCALC"> F  </i>
   <i type="string" name="PRECFOCK"></i>
   <i type="logical" name="LSYMGRAD"> F  </i>
   <i type="logical" name="LHFONE"> F  </i>
   <i type="logical" name="LRHFCALC"> F  </i>
   <i type="logical" name="LTHOMAS"> F  </i>
   <i type="logical" name="LMODELHF"> F  </i>
   <i name="ENCUT4O">     -1.00000000</i>
   <i type="int" name="EXXOEP">     0</i>
   <i type="int" name="FOURORBIT">     0</i>
   <i name="AEXX">      0.00000000</i>
   <i name="HFALPHA">      0.00000000</i>
   <i name="MCALPHA">      0.00000000</i>
   <i name="ALDAX">      1.00000000</i>
   <i name="AGGAX">      1.00000000</i>
   <i name="ALDAC">      1.00000000</i>
   <i name="AGGAC">      1.00000000</i>
   <i type="int" name="NKREDX">     1</i>
   <i type="int" name="NKREDY">     1</i>
   <i type="int" name="NKREDZ">     1</i>
   <i type="logical" name="SHIFTRED"> F  </i>
   <i type="logical" name="ODDONLY"> F  </i>
   <i type="logical" name="EVENONLY"> F  </i>
   <i type="int" name="LMAXFOCK">     0</i>
   <i type="int" name="NMAXFOCKAE">     0</i>
   <i type="logical" name="LFOCKAEDFT"> F  </i>
   <i name="HFSCREEN">      0.00000000</i>
   <i name="HFSCREENC">      0.00000000</i>
   <i type="int" name="NBANDSGWLOW">     0</i>
  </separator>
  <separator name="vdW DFT" >
   <i type="logical" name="LUSE_VDW"> F  </i>
   <i name="Zab_VDW">     -0.84910000</i>
   <i name="PARAM1">      0.12340000</i>
   <i name="PARAM2">      1.00000000</i>
   <i name="PARAM3">      0.00000000</i>
  </separator>
  <separator name="model GW" >
   <i type="int" name="MODEL_GW">     0</i>
   <i name="MODEL_EPS0">     39.19352642</i>
   <i name="MODEL_ALPHA">      1.00000000</i>
  </separator>
  <separator name="linear response parameters" >
   <i type="logical" name="LEPSILON"> F  </i>
   <i type="logical" name="LRPA"> F  </i>
   <i type="logical" name="LNABLA"> F  </i>
   <i type="logical" name="LVEL"> F  </i>
   <i type="int" name="KINTER">     0</i>
   <i name="CSHIFT">      0.10000000</i>
   <i name="OMEGAMAX">     -1.00000000</i>
   <i name="DEG_THRESHOLD">      0.00200000</i>
   <i name="RTIME">     -0.10000000</i>
   <i name="WPLASMAI">      0.00000000</i>
   <v name="DFIELD">      0.00000000      0.00000000      0.00000000</v>
   <v name="WPLASMA">      0.00000000      0.00000000      0.00000000      0.00000000      0.00000000      0.00000000      0.00000000      0.00000000      0.00000000</v>
  </separator>
  <separator name="orbital magnetization" >
   <i type="logical" name="NUCIND"> F  </i>
   <v name="MAGPOS">      0.00000000      0.00000000      0.00000000</v>
   <i type="logical" name="LNICSALL"> T  </i>
   <i type="logical" name="ORBITALMAG"> F  </i>
   <i type="logical" name="LMAGBLOCH"> F  </i>
   <i type="logical" name="LCHIMAG"> F  </i>
   <i type="logical" name="LGAUGE"> T  </i>
   <i type="int" name="MAGATOM">     0</i>
   <v name="MAGDIPOL">      0.00000000      0.00000000      0.00000000</v>
   <v name="AVECCONST">      0.00000000      0.00000000      0.00000000</v>
  </separator>
  <separator name="response functions" >
   <i type="logical" name="LADDER"> F  </i>
   <i type="logical" name="LRPAFORCE"> F  </i>
   <i type="logical" name="LFXC"> F  </i>
   <i type="logical" name="LHARTREE"> T  </i>
   <i type="int" name="IBSE">     0</i>
   <v type="int" name="KPOINT">    -1     0     0     0</v>
   <i type="logical" name="LTCTE"> F  </i>
   <i type="logical" name="LTETE"> F  </i>
   <i type="logical" name="LTRIPLET"> F  </i>
   <i type="logical" name="LFXCEPS"> F  </i>
   <i type="logical" name="LFXHEG"> F  </i>
   <i type="int" name="NATURALO">     2</i>
   <i type="logical" name="L2ORDER"> F  </i>
   <i type="logical" name="LMP2LT"> F  </i>
   <i type="logical" name="LUSEW"> F  </i>
   <i name="ENCUTGW">     -2.00000000</i>
   <i name="ENCUTGWSOFT">     -2.00000000</i>
   <i name="ENCUTLF">     -1.00000000</i>
   <i type="int" name="LMAXMP2">    -1</i>
   <i name="SCISSOR">      0.00000000</i>
   <i type="int" name="NOMEGA">     0</i>
   <i type="int" name="NOMEGAR">     0</i>
   <i type="int" name="NBANDSGW">    -1</i>
   <i type="int" name="NBANDSO">    -1</i>
   <i type="int" name="NBANDSV">    -1</i>
   <i type="int" name="NELM">    50</i>
   <i type="int" name="NELMHF">     1</i>
   <i type="int" name="DIM">     3</i>
   <i type="int" name="ANTIRES">     0</i>
   <i name="OMEGAMAX">    -30.00000000</i>
   <i name="OMEGAMIN">    -30.00000000</i>
   <i name="OMEGATL">   -200.00000000</i>
   <i type="int" name="OMEGAGRID">   140</i>
   <i name="CSHIFT">     -0.10000000</i>
   <i type="logical" name="SELFENERGY"> F  </i>
   <i type="logical" name="LSPECTRAL"> F  </i>
   <i type="logical" name="LSPECTRALGW"> F  </i>
   <i type="logical" name="LSINGLES"> F  </i>
   <i type="logical" name="LFERMIGW"> F  </i>
   <i type="logical" name="ODDONLYGW"> F  </i>
   <i type="logical" name="EVENONLYGW"> F  </i>
   <i type="int" name="NKREDLFX">     1</i>
   <i type="int" name="NKREDLFY">     1</i>
   <i type="int" name="NKREDLFZ">     1</i>
   <i type="int" name="MAXMEM">  2800</i>
   <i type="int" name="TELESCOPE">     0</i>
   <i type="int" name="TAUPAR">     1</i>
   <i type="int" name="OMEGAPAR">    -1</i>
   <i name="LAMBDA">      1.00000000</i>
  </separator>
  <separator name="External order field" >
   <i name="OFIELD_KAPPA">      0.00000000</i>
   <v name="OFIELD_K">      0.00000000      0.00000000      0.00000000</v>
   <i name="OFIELD_Q6_NEAR">      0.00000000</i>
   <i name="OFIELD_Q6_FAR">      0.00000000</i>
   <i name="OFIELD_A">      0.00000000</i>
  </separator>
 </parameters>
 <atominfo>
  <atoms>       1 </atoms>
  <types>       1 </types>
  <array name="atoms" >
   <dimension dim="1">ion</dimension>
   <field type="string">element</field>
   <field type="int">atomtype</field>
   <set>
    <rc><c>Rn</c><c>   1</c></rc>
   </set>
  </array>
  <array name="atomtypes" >
   <dimension dim="1">type</dimension>
   <field type="int">atomspertype</field>
   <field type="string">element</field>
   <field>mass</field>
   <field>valence</field>
   <field type="string">pseudopotential</field>
   <set>
    <rc><c>   1</c><c>Rn</c><c>    220.17000000</c><c>     18.00000000</c><c>  PAW_PBE Rn_d_GW 14Apr2014             </c></rc>
   </set>
  </array>
 </atominfo>
 <structure name="initialpos" >
  <crystal>
   <varray name="basis" >
    <v>       4.52056477       0.00000000       0.00000000 </v>
    <v>       2.26028238       3.91492393      -0.00000000 </v>
    <v>       2.26028238       1.30497464       3.69102568 </v>
   </varray>
   <i name="volume">     65.32254404 </i>
   <varray name="rec_basis" >
    <v>       0.22121130      -0.12771640      -0.09030913 </v>
    <v>       0.00000000       0.25543280      -0.09030913 </v>
    <v>      -0.00000000       0.00000000       0.27092740 </v>
   </varray>
  </crystal>
  <varray name="positions" >
   <v>       0.00000000       0.00000000       0.00000000 </v>
  </varray>
  <varray name="velocities" >
   <v>       0.00000000       0.00000000       0.00000000 </v>
  </varray>
 </structure>
 <calculation>
  <scstep>
   <time name="dav">    4.18    4.18</time>
   <time name="total">    4.32    4.32</time>
   <energy>
    <i name="alphaZ">     64.91123397 </i>
    <i name="ewald">  -1672.97583954 </i>
    <i name="hartreedc">  -1018.49848612 </i>
    <i name="XCdc">     55.66238655 </i>
    <i name="pawpsdc">   2484.77999756 </i>
    <i name="pawaedc">  -2545.35061315 </i>
    <i name="eentropy">     -0.00000138 </i>
    <i name="bandstr">   -263.69065898 </i>
    <i name="atom">   3030.62410580 </i>
    <i name="e_fr_energy">    135.46212471 </i>
    <i name="e_wo_entrp">    135.46212609 </i>
    <i name="e_0_energy">    135.46212540 </i>
   </energy>
  </scstep>
  <scstep>
   <time name="dav">    4.07    4.07</time>
   <time name="total">    4.07    4.07</time>
   <energy>
    <i name="e_fr_energy">     -9.07835623 </i>
    <i name="e_wo_entrp">     -9.07835623 </i>
    <i name="e_0_energy">     -9.07835623 </i>
   </energy>
  </scstep>
  <scstep>
   <time name="dav">    4.05    4.05</time>
   <time name="total">    4.05    4.05</time>
   <energy>
    <i name="e_fr_energy">    -67.94109685 </i>
    <i name="e_wo_entrp">    -67.94109685 </i>
    <i name="e_0_energy">    -67.94109685 </i>
   </energy>
  </scstep>
  <scstep>
   <time name="dav">    4.28    4.28</time>
   <time name="total">    4.28    4.28</time>
   <energy>
    <i name="e_fr_energy">    -80.99565918 </i>
    <i name="e_wo_entrp">    -80.99565918 </i>
    <i name="e_0_energy">    -80.99565918 </i>
   </energy>
  </scstep>
  <scstep>
   <time name="dav">    5.37    5.37</time>
   <time name="total">    6.13    6.13</time>
   <energy>
    <i name="e_fr_energy">    -85.52412633 </i>
    <i name="e_wo_entrp">    -85.52412633 </i>
    <i name="e_0_energy">    -85.52412633 </i>
   </energy>
  </scstep>
  <scstep>
   <time name="dav">    3.93    3.93</time>
   <time name="total">    4.82    4.82</time>
   <energy>
    <i name="e_fr_energy">    -82.57709248 </i>
    <i name="e_wo_entrp">    -82.57709248 </i>
    <i name="e_0_energy">    -82.57709248 </i>
   </energy>
  </scstep>
  <scstep>
   <time name="dav">    4.13    4.13</time>
   <time name="total">    5.02    5.02</time>
   <energy>
    <i name="e_fr_energy">    -82.77379613 </i>
    <i name="e_wo_entrp">    -82.77379613 </i>
    <i name="e_0_energy">    -82.77379613 </i>
   </energy>
  </scstep>
  <scstep>
   <time name="dav">    4.48    4.48</time>
   <time name="total">    5.37    5.37</time>
   <energy>
    <i name="e_fr_energy">    -82.76681618 </i>
    <i name="e_wo_entrp">    -82.76681618 </i>
    <i name="e_0_energy">    -82.76681618 </i>
   </energy>
  </scstep>
  <scstep>
   <time name="dav">    4.28    4.28</time>
   <time name="total">    5.17    5.17</time>
   <energy>
    <i name="e_fr_energy">    -82.83686640 </i>
    <i name="e_wo_entrp">    -82.83686640 </i>
    <i name="e_0_energy">    -82.83686640 </i>
   </energy>
  </scstep>
  <scstep>
   <time name="dav">    4.39    4.39</time>
   <time name="total">    5.28    5.28</time>
   <energy>
    <i name="e_fr_energy">    -83.08842083 </i>
    <i name="e_wo_entrp">    -83.08842083 </i>
    <i name="e_0_energy">    -83.08842083 </i>
   </energy>
  </scstep>
  <scstep>
   <time name="dav">    4.53    4.53</time>
   <time name="total">    5.42    5.42</time>
   <energy>
    <i name="e_fr_energy">    -83.06674879 </i>
    <i name="e_wo_entrp">    -83.06674879 </i>
    <i name="e_0_energy">    -83.06674879 </i>
   </energy>
  </scstep>
  <scstep>
   <time name="dav">    4.07    4.07</time>
   <time name="total">    4.96    4.96</time>
   <energy>
    <i name="e_fr_energy">    -83.23081083 </i>
    <i name="e_wo_entrp">    -83.23081083 </i>
    <i name="e_0_energy">    -83.23081083 </i>
   </energy>
  </scstep>
  <scstep>
   <time name="dav">    3.94    3.94</time>
   <time name="total">    4.81    4.81</time>
   <energy>
    <i name="e_fr_energy">    -82.97446629 </i>
    <i name="e_wo_entrp">    -82.97446629 </i>
    <i name="e_0_energy">    -82.97446629 </i>
   </energy>
  </scstep>
  <scstep>
   <time name="dav">    4.24    4.24</time>
   <time name="total">    5.13    5.13</time>
   <energy>
    <i name="e_fr_energy">    -82.80572158 </i>
    <i name="e_wo_entrp">    -82.80572158 </i>
    <i name="e_0_energy">    -82.80572158 </i>
   </energy>
  </scstep>
  <scstep>
   <time name="dav">    4.59    4.59</time>
   <time name="total">    5.47    5.47</time>
   <energy>
    <i name="e_fr_energy">    -82.76627239 </i>
    <i name="e_wo_entrp">    -82.76627239 </i>
    <i name="e_0_energy">    -82.76627239 </i>
   </energy>
  </scstep>
  <scstep>
   <time name="dav">    4.25    4.25</time>
   <time name="total">    5.14    5.14</time>
   <energy>
    <i name="e_fr_energy">    -82.76185788 </i>
    <i name="e_wo_entrp">    -82.76185788 </i>
    <i name="e_0_energy">    -82.76185788 </i>
   </energy>
  </scstep>
  <scstep>
   <time name="dav">    4.56    4.56</time>
   <time name="total">    5.45    5.45</time>
   <energy>
    <i name="e_fr_energy">    -82.77105633 </i>
    <i name="e_wo_entrp">    -82.77105633 </i>
    <i name="e_0_energy">    -82.77105633 </i>
   </energy>
  </scstep>
  <scstep>
   <time name="dav">    4.47    4.47</time>
   <time name="total">    5.36    5.36</time>
   <energy>
    <i name="e_fr_energy">    -82.77009594 </i>
    <i name="e_wo_entrp">    -82.77009594 </i>
    <i name="e_0_energy">    -82.77009594 </i>
   </energy>
  </scstep>
  <scstep>
   <time name="dav">    4.43    4.43</time>
   <time name="total">    5.36    5.36</time>
   <energy>
    <i name="e_fr_energy">    -82.76873396 </i>
    <i name="e_wo_entrp">    -82.76873396 </i>
    <i name="e_0_energy">    -82.76873396 </i>
   </energy>
  </scstep>
  <scstep>
   <time name="dav">    4.41    4.41</time>
   <time name="total">    5.30    5.30</time>
   <energy>
    <i name="e_fr_energy">    -82.76516903 </i>
    <i name="e_wo_entrp">    -82.76516903 </i>
    <i name="e_0_energy">    -82.76516903 </i>
   </energy>
  </scstep>
  <scstep>
   <time name="dav">    4.44    4.44</time>
   <time name="total">    5.34    5.34</time>
   <energy>
    <i name="e_fr_energy">    -82.76255448 </i>
    <i name="e_wo_entrp">    -82.76255448 </i>
    <i name="e_0_energy">    -82.76255448 </i>
   </energy>
  </scstep>
  <scstep>
   <time name="dav">    4.50    4.50</time>
   <time name="total">    5.39    5.39</time>
   <energy>
    <i name="e_fr_energy">    -82.76065474 </i>
    <i name="e_wo_entrp">    -82.76065474 </i>
    <i name="e_0_energy">    -82.76065474 </i>
   </energy>
  </scstep>
  <scstep>
   <time name="dav">    4.31    4.31</time>
   <time name="total">    5.24    5.24</time>
   <energy>
    <i name="e_fr_energy">    -82.75408794 </i>
    <i name="e_wo_entrp">    -82.75408794 </i>
    <i name="e_0_energy">    -82.75408794 </i>
   </energy>
  </scstep>
  <scstep>
   <time name="dav">    4.47    4.47</time>
   <time name="total">    5.37    5.37</time>
   <energy>
    <i name="e_fr_energy">    -82.75417742 </i>
    <i name="e_wo_entrp">    -82.75417742 </i>
    <i name="e_0_energy">    -82.75417742 </i>
   </energy>
  </scstep>
  <scstep>
   <time name="dav">    4.89    4.89</time>
   <time name="total">    5.79    5.79</time>
   <energy>
    <i name="e_fr_energy">    -82.75399869 </i>
    <i name="e_wo_entrp">    -82.75399869 </i>
    <i name="e_0_energy">    -82.75399869 </i>
   </energy>
  </scstep>
  <scstep>
   <time name="dav">    4.46    4.46</time>
   <time name="total">    5.33    5.33</time>
   <energy>
    <i name="e_fr_energy">    -82.75397664 </i>
    <i name="e_wo_entrp">    -82.75397664 </i>
    <i name="e_0_energy">    -82.75397664 </i>
   </energy>
  </scstep>
  <scstep>
   <time name="dav">    4.00    4.00</time>
   <time name="total">    4.89    4.89</time>
   <energy>
    <i name="e_fr_energy">    -82.75399517 </i>
    <i name="e_wo_entrp">    -82.75399517 </i>
    <i name="e_0_energy">    -82.75399517 </i>
   </energy>
  </scstep>
  <scstep>
   <time name="dav">    4.27    4.26</time>
   <time name="total">    5.16    5.16</time>
   <energy>
    <i name="e_fr_energy">    -82.75414257 </i>
    <i name="e_wo_entrp">    -82.75414257 </i>
    <i name="e_0_energy">    -82.75414257 </i>
   </energy>
  </scstep>
  <scstep>
   <time name="dav">    4.96    4.96</time>
   <time name="total">    5.85    5.85</time>
   <energy>
    <i name="e_fr_energy">    -82.75413245 </i>
    <i name="e_wo_entrp">    -82.75413245 </i>
    <i name="e_0_energy">    -82.75413245 </i>
   </energy>
  </scstep>
  <scstep>
   <time name="dav">    4.26    4.26</time>
   <time name="total">    5.15    5.15</time>
   <energy>
    <i name="e_fr_energy">    -82.75426738 </i>
    <i name="e_wo_entrp">    -82.75426738 </i>
    <i name="e_0_energy">    -82.75426738 </i>
   </energy>
  </scstep>
  <scstep>
   <time name="dav">    4.66    4.66</time>
   <time name="total">    5.57    5.57</time>
   <energy>
    <i name="e_fr_energy">    -82.75428212 </i>
    <i name="e_wo_entrp">    -82.75428212 </i>
    <i name="e_0_energy">    -82.75428212 </i>
   </energy>
  </scstep>
  <scstep>
   <time name="dav">    3.94    3.94</time>
   <time name="total">    4.84    4.84</time>
   <energy>
    <i name="e_fr_energy">    -82.75436443 </i>
    <i name="e_wo_entrp">    -82.75436443 </i>
    <i name="e_0_energy">    -82.75436443 </i>
   </energy>
  </scstep>
  <scstep>
   <time name="dav">    3.92    3.92</time>
   <time name="total">    4.81    4.81</time>
   <energy>
    <i name="e_fr_energy">    -82.75440737 </i>
    <i name="e_wo_entrp">    -82.75440737 </i>
    <i name="e_0_energy">    -82.75440737 </i>
   </energy>
  </scstep>
  <scstep>
   <time name="dav">    3.79    3.79</time>
   <time name="total">    4.69    4.69</time>
   <energy>
    <i name="e_fr_energy">    -82.75487703 </i>
    <i name="e_wo_entrp">    -82.75487703 </i>
    <i name="e_0_energy">    -82.75487703 </i>
   </energy>
  </scstep>
  <scstep>
   <time name="dav">    4.08    4.08</time>
   <time name="total">    4.97    4.97</time>
   <energy>
    <i name="e_fr_energy">    -82.75507053 </i>
    <i name="e_wo_entrp">    -82.75507053 </i>
    <i name="e_0_energy">    -82.75507053 </i>
   </energy>
  </scstep>
  <scstep>
   <time name="dav">    4.30    4.30</time>
   <time name="total">    5.19    5.19</time>
   <energy>
    <i name="e_fr_energy">    -82.75546516 </i>
    <i name="e_wo_entrp">    -82.75546516 </i>
    <i name="e_0_energy">    -82.75546516 </i>
   </energy>
  </scstep>
  <scstep>
   <time name="dav">    4.10    4.10</time>
   <time name="total">    5.03    5.02</time>
   <energy>
    <i name="e_fr_energy">    -82.75550637 </i>
    <i name="e_wo_entrp">    -82.75550637 </i>
    <i name="e_0_energy">    -82.75550637 </i>
   </energy>
  </scstep>
  <scstep>
   <time name="dav">    4.51    4.51</time>
   <time name="total">    5.40    5.40</time>
   <energy>
    <i name="e_fr_energy">    -82.75544357 </i>
    <i name="e_wo_entrp">    -82.75544357 </i>
    <i name="e_0_energy">    -82.75544357 </i>
   </energy>
  </scstep>
  <scstep>
   <time name="dav">    4.73    4.73</time>
   <time name="total">    5.61    5.60</time>
   <energy>
    <i name="e_fr_energy">    -82.75549766 </i>
    <i name="e_wo_entrp">    -82.75549766 </i>
    <i name="e_0_energy">    -82.75549766 </i>
   </energy>
  </scstep>
  <scstep>
   <time name="dav">    4.39    4.39</time>
   <time name="total">    5.29    5.29</time>
   <energy>
    <i name="e_fr_energy">    -82.75564496 </i>
    <i name="e_wo_entrp">    -82.75564496 </i>
    <i name="e_0_energy">    -82.75564496 </i>
   </energy>
  </scstep>
  <scstep>
   <time name="dav">    4.72    4.72</time>
   <time name="total">    5.60    5.60</time>
   <energy>
    <i name="e_fr_energy">    -82.75570953 </i>
    <i name="e_wo_entrp">    -82.75570953 </i>
    <i name="e_0_energy">    -82.75570953 </i>
   </energy>
  </scstep>
  <scstep>
   <time name="dav">    4.83    4.82</time>
   <time name="total">    5.72    5.72</time>
   <energy>
    <i name="e_fr_energy">    -82.75577924 </i>
    <i name="e_wo_entrp">    -82.75577924 </i>
    <i name="e_0_energy">    -82.75577924 </i>
   </energy>
  </scstep>
  <scstep>
   <time name="dav">    4.51    4.51</time>
   <time name="total">    5.40    5.40</time>
   <energy>
    <i name="e_fr_energy">    -82.75595413 </i>
    <i name="e_wo_entrp">    -82.75595413 </i>
    <i name="e_0_energy">    -82.75595413 </i>
   </energy>
  </scstep>
  <scstep>
   <time name="dav">    5.00    5.00</time>
   <time name="total">    5.92    5.92</time>
   <energy>
    <i name="e_fr_energy">    -82.75608554 </i>
    <i name="e_wo_entrp">    -82.75608554 </i>
    <i name="e_0_energy">    -82.75608554 </i>
   </energy>
  </scstep>
  <scstep>
   <time name="dav">    4.84    4.84</time>
   <time name="total">    5.74    5.73</time>
   <energy>
    <i name="e_fr_energy">    -82.75608615 </i>
    <i name="e_wo_entrp">    -82.75608615 </i>
    <i name="e_0_energy">    -82.75608615 </i>
   </energy>
  </scstep>
  <scstep>
   <time name="dav">    4.62    4.62</time>
   <time name="total">    5.51    5.51</time>
   <energy>
    <i name="e_fr_energy">    -82.75608919 </i>
    <i name="e_wo_entrp">    -82.75608919 </i>
    <i name="e_0_energy">    -82.75608919 </i>
   </energy>
  </scstep>
  <scstep>
   <time name="dav">    3.93    3.93</time>
   <time name="total">    4.83    4.83</time>
   <energy>
    <i name="e_fr_energy">    -82.75610312 </i>
    <i name="e_wo_entrp">    -82.75610312 </i>
    <i name="e_0_energy">    -82.75610312 </i>
   </energy>
  </scstep>
  <scstep>
   <time name="dav">    4.14    4.14</time>
   <time name="total">    5.03    5.03</time>
   <energy>
    <i name="e_fr_energy">    -82.75608622 </i>
    <i name="e_wo_entrp">    -82.75608622 </i>
    <i name="e_0_energy">    -82.75608622 </i>
   </energy>
  </scstep>
  <scstep>
   <time name="dav">    4.30    4.30</time>
   <time name="total">    5.20    5.20</time>
   <energy>
    <i name="e_fr_energy">    -82.75608770 </i>
    <i name="e_wo_entrp">    -82.75608770 </i>
    <i name="e_0_energy">    -82.75608770 </i>
   </energy>
  </scstep>
  <scstep>
   <time name="dav">    4.63    4.63</time>
   <time name="total">    4.76    4.76</time>
   <energy>
    <i name="alphaZ">     64.91123397 </i>
    <i name="ewald">  -1672.97583954 </i>
    <i name="hartreedc">  -1021.01968025 </i>
    <i name="XCdc">     59.29848259 </i>
    <i name="pawpsdc">   2380.13312677 </i>
    <i name="pawaedc">  -2441.55975015 </i>
    <i name="eentropy">     -0.00000000 </i>
    <i name="bandstr">   -482.16776832 </i>
    <i name="atom">   3030.62410580 </i>
    <i name="e_fr_energy">    -82.75608912 </i>
    <i name="e_wo_entrp">    -82.75608912 </i>
    <i name="e_0_energy">    -82.75608912 </i>
   </energy>
  </scstep>
  <structure>
   <crystal>
    <varray name="basis" >
     <v>       4.52056477       0.00000000       0.00000000 </v>
     <v>       2.26028238       3.91492393      -0.00000000 </v>
     <v>       2.26028238       1.30497464       3.69102568 </v>
    </varray>
    <i name="volume">     65.32254404 </i>
    <varray name="rec_basis" >
     <v>       0.22121130      -0.12771640      -0.09030913 </v>
     <v>       0.00000000       0.25543280      -0.09030913 </v>
     <v>      -0.00000000       0.00000000       0.27092740 </v>
    </varray>
   </crystal>
   <varray name="positions" >
    <v>       0.00000000       0.00000000       0.00000000 </v>
   </varray>
  </structure>
  <varray name="forces" >
   <v>       0.00063392       0.00043265      -0.00016943 </v>
  </varray>
  <varray name="stress" >
   <v>      -0.64788192       0.00223633      -0.01275878 </v>
   <v>       0.00223803      -0.77451952      -0.10386029 </v>
   <v>      -0.01275136      -0.10385212      -0.53008534 </v>
  </varray>
  <energy>
   <i name="e_fr_energy">    -82.75608912 </i>
   <i name="e_wo_entrp">    -82.75608912 </i>
   <i name="e_0_energy">     -0.00000000 </i>
  </energy>
  <time name="totalsc">  274.33  274.44</time>
  <eigenvalues>
   <array>
    <dimension dim="1">band</dimension>
    <dimension dim="2">kpoint</dimension>
    <dimension dim="3">spin</dimension>
    <field>eigene</field>
    <field>occ</field>
    <set>
     <set comment="spin 1">
      <set comment="kpoint 1">
       <r>  -44.9658    1.0000 </r>
       <r>  -44.9645    1.0000 </r>
       <r>  -44.9634    1.0000 </r>
       <r>  -44.9625    1.0000 </r>
       <r>  -40.5583    1.0000 </r>
       <r>  -40.5571    1.0000 </r>
       <r>  -40.5558    1.0000 </r>
       <r>  -40.5545    1.0000 </r>
       <r>  -40.5534    1.0000 </r>
       <r>  -40.5526    1.0000 </r>
       <r>  -18.1401    1.0000 </r>
       <r>  -18.1267    1.0000 </r>
       <r>   -5.5481    1.0000 </r>
       <r>   -5.5440    1.0000 </r>
       <r>   -1.8276    1.0000 </r>
       <r>   -1.8243    1.0000 </r>
       <r>   -1.8167    1.0000 </r>
       <r>   -1.8135    1.0000 </r>
       <r>    2.6587    0.0000 </r>
       <r>    2.6931    0.0000 </r>
       <r>    7.9262    0.0000 </r>
       <r>    7.9346    0.0000 </r>
       <r>    7.9400    0.0000 </r>
       <r>    7.9490    0.0000 </r>
       <r>    8.1003    0.0000 </r>
       <r>    8.1106    0.0000 </r>
       <r>    9.6963    0.0000 </r>
       <r>    9.7365    0.0000 </r>
      </set>
      <set comment="kpoint 2">
       <r>  -44.9657    1.0000 </r>
       <r>  -44.9644    1.0000 </r>
       <r>  -44.9633    1.0000 </r>
       <r>  -44.9624    1.0000 </r>
       <r>  -40.5589    1.0000 </r>
       <r>  -40.5578    1.0000 </r>
       <r>  -40.5565    1.0000 </r>
       <r>  -40.5552    1.0000 </r>
       <r>  -40.5541    1.0000 </r>
       <r>  -40.5533    1.0000 </r>
       <r>  -18.1058    1.0000 </r>
       <r>  -18.0928    1.0000 </r>
       <r>   -5.6838    1.0000 </r>
       <r>   -5.6806    1.0000 </r>
       <r>   -2.3090    1.0000 </r>
       <r>   -2.3020    1.0000 </r>
       <r>   -1.8899    1.0000 </r>
       <r>   -1.8851    1.0000 </r>
       <r>    3.4609    0.0000 </r>
       <r>    3.4955    0.0000 </r>
       <r>    7.1921    0.0000 </r>
       <r>    7.2224    0.0000 </r>
       <r>    8.1141    0.0000 </r>
       <r>    8.1182    0.0000 </r>
       <r>    8.2789    0.0000 </r>
       <r>    8.2829    0.0000 </r>
       <r>    9.6688    0.0000 </r>
       <r>    9.6823    0.0000 </r>
      </set>
      <set comment="kpoint 3">
       <r>  -44.9656    1.0000 </r>
       <r>  -44.9643    1.0000 </r>
       <r>  -44.9632    1.0000 </r>
       <r>  -44.9622    1.0000 </r>
       <r>  -40.5586    1.0000 </r>
       <r>  -40.5569    1.0000 </r>
       <r>  -40.5555    1.0000 </r>
       <r>  -40.5543    1.0000 </r>
       <r>  -40.5531    1.0000 </r>
       <r>  -40.5529    1.0000 </r>
       <r>  -18.0315    1.0000 </r>
       <r>  -18.0193    1.0000 </r>
       <r>   -5.9743    1.0000 </r>
       <r>   -5.9717    1.0000 </r>
       <r>   -2.9637    1.0000 </r>
       <r>   -2.9573    1.0000 </r>
       <r>   -2.0173    1.0000 </r>
       <r>   -2.0125    1.0000 </r>
       <r>    4.3920    0.0000 </r>
       <r>    4.4202    0.0000 </r>
       <r>    7.3181    0.0000 </r>
       <r>    7.3676    0.0000 </r>
       <r>    7.7768    0.0000 </r>
       <r>    7.7801    0.0000 </r>
       <r>    7.9524    0.0000 </r>
       <r>    7.9555    0.0000 </r>
       <r>    9.6684    0.0000 </r>
       <r>    9.7097    0.0000 </r>
      </set>
      <set comment="kpoint 4">
       <r>  -44.9655    1.0000 </r>
       <r>  -44.9642    1.0000 </r>
       <r>  -44.9631    1.0000 </r>
       <r>  -44.9621    1.0000 </r>
       <r>  -40.5588    1.0000 </r>
       <r>  -40.5569    1.0000 </r>
       <r>  -40.5556    1.0000 </r>
       <r>  -40.5543    1.0000 </r>
       <r>  -40.5531    1.0000 </r>
       <r>  -40.5529    1.0000 </r>
       <r>  -17.9942    1.0000 </r>
       <r>  -17.9825    1.0000 </r>
       <r>   -6.1282    1.0000 </r>
       <r>   -6.1248    1.0000 </r>
       <r>   -3.2045    1.0000 </r>
       <r>   -3.1983    1.0000 </r>
       <r>   -2.0778    1.0000 </r>
       <r>   -2.0731    1.0000 </r>
       <r>    4.4905    0.0000 </r>
       <r>    4.5149    0.0000 </r>
       <r>    7.5146    0.0000 </r>
       <r>    7.5177    0.0000 </r>
       <r>    7.6802    0.0000 </r>
       <r>    7.6832    0.0000 </r>
       <r>    7.8615    0.0000 </r>
       <r>    7.9227    0.0000 </r>
       <r>    9.9765    0.0000 </r>
       <r>   10.0248    0.0000 </r>
      </set>
      <set comment="kpoint 5">
       <r>  -44.9656    1.0000 </r>
       <r>  -44.9643    1.0000 </r>
       <r>  -44.9632    1.0000 </r>
       <r>  -44.9622    1.0000 </r>
       <r>  -40.5586    1.0000 </r>
       <r>  -40.5569    1.0000 </r>
       <r>  -40.5555    1.0000 </r>
       <r>  -40.5543    1.0000 </r>
       <r>  -40.5531    1.0000 </r>
       <r>  -40.5529    1.0000 </r>
       <r>  -18.0315    1.0000 </r>
       <r>  -18.0193    1.0000 </r>
       <r>   -5.9742    1.0000 </r>
       <r>   -5.9717    1.0000 </r>
       <r>   -2.9640    1.0000 </r>
       <r>   -2.9575    1.0000 </r>
       <r>   -2.0173    1.0000 </r>
       <r>   -2.0125    1.0000 </r>
       <r>    4.3926    0.0000 </r>
       <r>    4.4208    0.0000 </r>
       <r>    7.3177    0.0000 </r>
       <r>    7.3672    0.0000 </r>
       <r>    7.7768    0.0000 </r>
       <r>    7.7800    0.0000 </r>
       <r>    7.9524    0.0000 </r>
       <r>    7.9555    0.0000 </r>
       <r>    9.6684    0.0000 </r>
       <r>    9.7096    0.0000 </r>
      </set>
      <set comment="kpoint 6">
       <r>  -44.9657    1.0000 </r>
       <r>  -44.9644    1.0000 </r>
       <r>  -44.9633    1.0000 </r>
       <r>  -44.9624    1.0000 </r>
       <r>  -40.5589    1.0000 </r>
       <r>  -40.5578    1.0000 </r>
       <r>  -40.5565    1.0000 </r>
       <r>  -40.5552    1.0000 </r>
       <r>  -40.5541    1.0000 </r>
       <r>  -40.5533    1.0000 </r>
       <r>  -18.1058    1.0000 </r>
       <r>  -18.0928    1.0000 </r>
       <r>   -5.6837    1.0000 </r>
       <r>   -5.6805    1.0000 </r>
       <r>   -2.3093    1.0000 </r>
       <r>   -2.3024    1.0000 </r>
       <r>   -1.8899    1.0000 </r>
       <r>   -1.8851    1.0000 </r>
       <r>    3.4616    0.0000 </r>
       <r>    3.4961    0.0000 </r>
       <r>    7.1917    0.0000 </r>
       <r>    7.2220    0.0000 </r>
       <r>    8.1140    0.0000 </r>
       <r>    8.1180    0.0000 </r>
       <r>    8.2790    0.0000 </r>
       <r>    8.2830    0.0000 </r>
       <r>    9.6671    0.0000 </r>
       <r>    9.6735    0.0000 </r>
      </set>
      <set comment="kpoint 7">
       <r>  -44.9657    1.0000 </r>
       <r>  -44.9644    1.0000 </r>
       <r>  -44.9633    1.0000 </r>
       <r>  -44.9624    1.0000 </r>
       <r>  -40.5589    1.0000 </r>
       <r>  -40.5578    1.0000 </r>
       <r>  -40.5565    1.0000 </r>
       <r>  -40.5552    1.0000 </r>
       <r>  -40.5541    1.0000 </r>
       <r>  -40.5533    1.0000 </r>
       <r>  -18.1058    1.0000 </r>
       <r>  -18.0928    1.0000 </r>
       <r>   -5.6841    1.0000 </r>
       <r>   -5.6801    1.0000 </r>
       <r>   -2.3097    1.0000 </r>
       <r>   -2.3018    1.0000 </r>
       <r>   -1.8911    1.0000 </r>
       <r>   -1.8840    1.0000 </r>
       <r>    3.4612    0.0000 </r>
       <r>    3.4964    0.0000 </r>
       <r>    7.1923    0.0000 </r>
       <r>    7.2215    0.0000 </r>
       <r>    8.1133    0.0000 </r>
       <r>    8.1187    0.0000 </r>
       <r>    8.2779    0.0000 </r>
       <r>    8.2843    0.0000 </r>
       <r>    9.6696    0.0000 </r>
       <r>    9.7252    0.0000 </r>
      </set>
      <set comment="kpoint 8">
       <r>  -44.9657    1.0000 </r>
       <r>  -44.9644    1.0000 </r>
       <r>  -44.9632    1.0000 </r>
       <r>  -44.9624    1.0000 </r>
       <r>  -40.5590    1.0000 </r>
       <r>  -40.5577    1.0000 </r>
       <r>  -40.5565    1.0000 </r>
       <r>  -40.5552    1.0000 </r>
       <r>  -40.5540    1.0000 </r>
       <r>  -40.5532    1.0000 </r>
       <r>  -18.0938    1.0000 </r>
       <r>  -18.0810    1.0000 </r>
       <r>   -5.7212    1.0000 </r>
       <r>   -5.7177    1.0000 </r>
       <r>   -2.3522    1.0000 </r>
       <r>   -2.3442    1.0000 </r>
       <r>   -2.0285    1.0000 </r>
       <r>   -2.0250    1.0000 </r>
       <r>    3.7370    0.0000 </r>
       <r>    3.7733    0.0000 </r>
       <r>    6.7528    0.0000 </r>
       <r>    6.7717    0.0000 </r>
       <r>    8.1584    0.0000 </r>
       <r>    8.1766    0.0000 </r>
       <r>    8.5041    0.0000 </r>
       <r>    8.5147    0.0000 </r>
       <r>    8.6703    0.0000 </r>
       <r>    8.6772    0.0000 </r>
      </set>
      <set comment="kpoint 9">
       <r>  -44.9656    1.0000 </r>
       <r>  -44.9643    1.0000 </r>
       <r>  -44.9631    1.0000 </r>
       <r>  -44.9623    1.0000 </r>
       <r>  -40.5588    1.0000 </r>
       <r>  -40.5570    1.0000 </r>
       <r>  -40.5557    1.0000 </r>
       <r>  -40.5543    1.0000 </r>
       <r>  -40.5533    1.0000 </r>
       <r>  -40.5531    1.0000 </r>
       <r>  -18.0322    1.0000 </r>
       <r>  -18.0201    1.0000 </r>
       <r>   -5.9408    1.0000 </r>
       <r>   -5.9389    1.0000 </r>
       <r>   -2.8758    1.0000 </r>
       <r>   -2.8677    1.0000 </r>
       <r>   -2.1999    1.0000 </r>
       <r>   -2.1956    1.0000 </r>
       <r>    4.7151    0.0000 </r>
       <r>    4.7474    0.0000 </r>
       <r>    6.4550    0.0000 </r>
       <r>    6.4821    0.0000 </r>
       <r>    7.1677    0.0000 </r>
       <r>    7.1914    0.0000 </r>
       <r>    8.6667    0.0000 </r>
       <r>    8.6843    0.0000 </r>
       <r>    9.7534    0.0000 </r>
       <r>    9.7896    0.0000 </r>
      </set>
      <set comment="kpoint 10">
       <r>  -44.9655    1.0000 </r>
       <r>  -44.9642    1.0000 </r>
       <r>  -44.9631    1.0000 </r>
       <r>  -44.9622    1.0000 </r>
       <r>  -40.5587    1.0000 </r>
       <r>  -40.5566    1.0000 </r>
       <r>  -40.5554    1.0000 </r>
       <r>  -40.5541    1.0000 </r>
       <r>  -40.5530    1.0000 </r>
       <r>  -40.5528    1.0000 </r>
       <r>  -17.9820    1.0000 </r>
       <r>  -17.9705    1.0000 </r>
       <r>   -6.1237    1.0000 </r>
       <r>   -6.1212    1.0000 </r>
       <r>   -3.2165    1.0000 </r>
       <r>   -3.2075    1.0000 </r>
       <r>   -2.3301    1.0000 </r>
       <r>   -2.3246    1.0000 </r>
       <r>    5.1011    0.0000 </r>
       <r>    5.1246    0.0000 </r>
       <r>    6.3944    0.0000 </r>
       <r>    6.4242    0.0000 </r>
       <r>    7.8104    0.0000 </r>
       <r>    7.8475    0.0000 </r>
       <r>    8.2426    0.0000 </r>
       <r>    8.2536    0.0000 </r>
       <r>   10.5870    0.0000 </r>
       <r>   10.6283    0.0000 </r>
      </set>
      <set comment="kpoint 11">
       <r>  -44.9655    1.0000 </r>
       <r>  -44.9642    1.0000 </r>
       <r>  -44.9631    1.0000 </r>
       <r>  -44.9622    1.0000 </r>
       <r>  -40.5586    1.0000 </r>
       <r>  -40.5569    1.0000 </r>
       <r>  -40.5554    1.0000 </r>
       <r>  -40.5542    1.0000 </r>
       <r>  -40.5531    1.0000 </r>
       <r>  -40.5528    1.0000 </r>
       <r>  -17.9946    1.0000 </r>
       <r>  -17.9828    1.0000 </r>
       <r>   -6.0798    1.0000 </r>
       <r>   -6.0763    1.0000 </r>
       <r>   -3.1555    1.0000 </r>
       <r>   -3.1454    1.0000 </r>
       <r>   -2.2885    1.0000 </r>
       <r>   -2.2817    1.0000 </r>
       <r>    5.1990    0.0000 </r>
       <r>    5.2266    0.0000 </r>
       <r>    6.5525    0.0000 </r>
       <r>    6.5805    0.0000 </r>
       <r>    7.5001    0.0000 </r>
       <r>    7.5407    0.0000 </r>
       <r>    8.1306    0.0000 </r>
       <r>    8.1427    0.0000 </r>
       <r>   10.1900    0.0000 </r>
       <r>   10.2085    0.0000 </r>
      </set>
      <set comment="kpoint 12">
       <r>  -44.9656    1.0000 </r>
       <r>  -44.9643    1.0000 </r>
       <r>  -44.9632    1.0000 </r>
       <r>  -44.9623    1.0000 </r>
       <r>  -40.5583    1.0000 </r>
       <r>  -40.5573    1.0000 </r>
       <r>  -40.5558    1.0000 </r>
       <r>  -40.5546    1.0000 </r>
       <r>  -40.5534    1.0000 </r>
       <r>  -40.5526    1.0000 </r>
       <r>  -18.0563    1.0000 </r>
       <r>  -18.0439    1.0000 </r>
       <r>   -5.8600    1.0000 </r>
       <r>   -5.8562    1.0000 </r>
       <r>   -2.7304    1.0000 </r>
       <r>   -2.7208    1.0000 </r>
       <r>   -2.0823    1.0000 </r>
       <r>   -2.0748    1.0000 </r>
       <r>    4.4405    0.0000 </r>
       <r>    4.4761    0.0000 </r>
       <r>    6.7929    0.0000 </r>
       <r>    6.8257    0.0000 </r>
       <r>    7.4912    0.0000 </r>
       <r>    7.5133    0.0000 </r>
       <r>    8.5808    0.0000 </r>
       <r>    8.5933    0.0000 </r>
       <r>    8.7308    0.0000 </r>
       <r>    8.7454    0.0000 </r>
      </set>
      <set comment="kpoint 13">
       <r>  -44.9656    1.0000 </r>
       <r>  -44.9642    1.0000 </r>
       <r>  -44.9631    1.0000 </r>
       <r>  -44.9623    1.0000 </r>
       <r>  -40.5582    1.0000 </r>
       <r>  -40.5571    1.0000 </r>
       <r>  -40.5557    1.0000 </r>
       <r>  -40.5543    1.0000 </r>
       <r>  -40.5535    1.0000 </r>
       <r>  -40.5523    1.0000 </r>
       <r>  -18.0314    1.0000 </r>
       <r>  -18.0193    1.0000 </r>
       <r>   -5.9756    1.0000 </r>
       <r>   -5.9702    1.0000 </r>
       <r>   -2.9646    1.0000 </r>
       <r>   -2.9568    1.0000 </r>
       <r>   -2.0186    1.0000 </r>
       <r>   -2.0113    1.0000 </r>
       <r>    4.3919    0.0000 </r>
       <r>    4.4214    0.0000 </r>
       <r>    7.3178    0.0000 </r>
       <r>    7.3674    0.0000 </r>
       <r>    7.7762    0.0000 </r>
       <r>    7.7805    0.0000 </r>
       <r>    7.9517    0.0000 </r>
       <r>    7.9564    0.0000 </r>
       <r>    9.6687    0.0000 </r>
       <r>    9.7092    0.0000 </r>
      </set>
      <set comment="kpoint 14">
       <r>  -44.9656    1.0000 </r>
       <r>  -44.9642    1.0000 </r>
       <r>  -44.9631    1.0000 </r>
       <r>  -44.9623    1.0000 </r>
       <r>  -40.5585    1.0000 </r>
       <r>  -40.5572    1.0000 </r>
       <r>  -40.5559    1.0000 </r>
       <r>  -40.5546    1.0000 </r>
       <r>  -40.5535    1.0000 </r>
       <r>  -40.5526    1.0000 </r>
       <r>  -18.0322    1.0000 </r>
       <r>  -18.0201    1.0000 </r>
       <r>   -5.9418    1.0000 </r>
       <r>   -5.9378    1.0000 </r>
       <r>   -2.8762    1.0000 </r>
       <r>   -2.8677    1.0000 </r>
       <r>   -2.2009    1.0000 </r>
       <r>   -2.1946    1.0000 </r>
       <r>    4.7153    0.0000 </r>
       <r>    4.7480    0.0000 </r>
       <r>    6.4550    0.0000 </r>
       <r>    6.4815    0.0000 </r>
       <r>    7.1671    0.0000 </r>
       <r>    7.1923    0.0000 </r>
       <r>    8.6658    0.0000 </r>
       <r>    8.6852    0.0000 </r>
       <r>    9.7532    0.0000 </r>
       <r>    9.7897    0.0000 </r>
      </set>
      <set comment="kpoint 15">
       <r>  -44.9656    1.0000 </r>
       <r>  -44.9642    1.0000 </r>
       <r>  -44.9630    1.0000 </r>
       <r>  -44.9623    1.0000 </r>
       <r>  -40.5585    1.0000 </r>
       <r>  -40.5568    1.0000 </r>
       <r>  -40.5554    1.0000 </r>
       <r>  -40.5542    1.0000 </r>
       <r>  -40.5530    1.0000 </r>
       <r>  -40.5525    1.0000 </r>
       <r>  -17.9954    1.0000 </r>
       <r>  -17.9837    1.0000 </r>
       <r>   -6.0466    1.0000 </r>
       <r>   -6.0439    1.0000 </r>
       <r>   -3.0454    1.0000 </r>
       <r>   -3.0369    1.0000 </r>
       <r>   -2.3995    1.0000 </r>
       <r>   -2.3960    1.0000 </r>
       <r>    4.5999    0.0000 </r>
       <r>    4.6263    0.0000 </r>
       <r>    5.6549    0.0000 </r>
       <r>    5.6727    0.0000 </r>
       <r>    7.7969    0.0000 </r>
       <r>    7.8382    0.0000 </r>
       <r>    9.8765    0.0000 </r>
       <r>    9.8866    0.0000 </r>
       <r>   10.2550    0.0000 </r>
       <r>   10.2660    0.0000 </r>
      </set>
      <set comment="kpoint 16">
       <r>  -44.9655    1.0000 </r>
       <r>  -44.9641    1.0000 </r>
       <r>  -44.9630    1.0000 </r>
       <r>  -44.9622    1.0000 </r>
       <r>  -40.5585    1.0000 </r>
       <r>  -40.5565    1.0000 </r>
       <r>  -40.5552    1.0000 </r>
       <r>  -40.5538    1.0000 </r>
       <r>  -40.5529    1.0000 </r>
       <r>  -40.5525    1.0000 </r>
       <r>  -17.9578    1.0000 </r>
       <r>  -17.9465    1.0000 </r>
       <r>   -6.1599    1.0000 </r>
       <r>   -6.1577    1.0000 </r>
       <r>   -3.2438    1.0000 </r>
       <r>   -3.2321    1.0000 </r>
       <r>   -2.5935    1.0000 </r>
       <r>   -2.5872    1.0000 </r>
       <r>    4.7020    0.0000 </r>
       <r>    4.7226    0.0000 </r>
       <r>    5.8206    0.0000 </r>
       <r>    5.8428    0.0000 </r>
       <r>    8.1060    0.0000 </r>
       <r>    8.1516    0.0000 </r>
       <r>    9.8536    0.0000 </r>
       <r>    9.8764    0.0000 </r>
       <r>   10.8476    0.0000 </r>
       <r>   10.9071    0.0000 </r>
      </set>
      <set comment="kpoint 17">
       <r>  -44.9655    1.0000 </r>
       <r>  -44.9641    1.0000 </r>
       <r>  -44.9630    1.0000 </r>
       <r>  -44.9622    1.0000 </r>
       <r>  -40.5586    1.0000 </r>
       <r>  -40.5569    1.0000 </r>
       <r>  -40.5553    1.0000 </r>
       <r>  -40.5540    1.0000 </r>
       <r>  -40.5532    1.0000 </r>
       <r>  -40.5528    1.0000 </r>
       <r>  -17.9576    1.0000 </r>
       <r>  -17.9464    1.0000 </r>
       <r>   -6.1609    1.0000 </r>
       <r>   -6.1573    1.0000 </r>
       <r>   -3.2869    1.0000 </r>
       <r>   -3.2714    1.0000 </r>
       <r>   -2.6181    1.0000 </r>
       <r>   -2.6075    1.0000 </r>
       <r>    5.2866    0.0000 </r>
       <r>    5.3042    0.0000 </r>
       <r>    6.4644    0.0000 </r>
       <r>    6.5011    0.0000 </r>
       <r>    7.7729    0.0000 </r>
       <r>    7.8146    0.0000 </r>
       <r>    9.0756    0.0000 </r>
       <r>    9.0941    0.0000 </r>
       <r>    9.8313    0.0000 </r>
       <r>    9.8701    0.0000 </r>
      </set>
      <set comment="kpoint 18">
       <r>  -44.9656    1.0000 </r>
       <r>  -44.9642    1.0000 </r>
       <r>  -44.9630    1.0000 </r>
       <r>  -44.9622    1.0000 </r>
       <r>  -40.5583    1.0000 </r>
       <r>  -40.5571    1.0000 </r>
       <r>  -40.5556    1.0000 </r>
       <r>  -40.5542    1.0000 </r>
       <r>  -40.5534    1.0000 </r>
       <r>  -40.5524    1.0000 </r>
       <r>  -17.9945    1.0000 </r>
       <r>  -17.9829    1.0000 </r>
       <r>   -6.0807    1.0000 </r>
       <r>   -6.0753    1.0000 </r>
       <r>   -3.1560    1.0000 </r>
       <r>   -3.1449    1.0000 </r>
       <r>   -2.2893    1.0000 </r>
       <r>   -2.2808    1.0000 </r>
       <r>    5.1986    0.0000 </r>
       <r>    5.2268    0.0000 </r>
       <r>    6.5521    0.0000 </r>
       <r>    6.5807    0.0000 </r>
       <r>    7.4999    0.0000 </r>
       <r>    7.5415    0.0000 </r>
       <r>    8.1297    0.0000 </r>
       <r>    8.1435    0.0000 </r>
       <r>   10.1908    0.0000 </r>
       <r>   10.2076    0.0000 </r>
      </set>
      <set comment="kpoint 19">
       <r>  -44.9656    1.0000 </r>
       <r>  -44.9641    1.0000 </r>
       <r>  -44.9630    1.0000 </r>
       <r>  -44.9623    1.0000 </r>
       <r>  -40.5583    1.0000 </r>
       <r>  -40.5573    1.0000 </r>
       <r>  -40.5558    1.0000 </r>
       <r>  -40.5543    1.0000 </r>
       <r>  -40.5536    1.0000 </r>
       <r>  -40.5524    1.0000 </r>
       <r>  -17.9942    1.0000 </r>
       <r>  -17.9825    1.0000 </r>
       <r>   -6.1299    1.0000 </r>
       <r>   -6.1231    1.0000 </r>
       <r>   -3.2053    1.0000 </r>
       <r>   -3.1975    1.0000 </r>
       <r>   -2.0792    1.0000 </r>
       <r>   -2.0718    1.0000 </r>
       <r>    4.4900    0.0000 </r>
       <r>    4.5155    0.0000 </r>
       <r>    7.5141    0.0000 </r>
       <r>    7.5181    0.0000 </r>
       <r>    7.6796    0.0000 </r>
       <r>    7.6840    0.0000 </r>
       <r>    7.8608    0.0000 </r>
       <r>    7.9234    0.0000 </r>
       <r>    9.9761    0.0000 </r>
       <r>   10.0251    0.0000 </r>
      </set>
      <set comment="kpoint 20">
       <r>  -44.9656    1.0000 </r>
       <r>  -44.9641    1.0000 </r>
       <r>  -44.9630    1.0000 </r>
       <r>  -44.9623    1.0000 </r>
       <r>  -40.5583    1.0000 </r>
       <r>  -40.5570    1.0000 </r>
       <r>  -40.5556    1.0000 </r>
       <r>  -40.5542    1.0000 </r>
       <r>  -40.5533    1.0000 </r>
       <r>  -40.5522    1.0000 </r>
       <r>  -17.9820    1.0000 </r>
       <r>  -17.9705    1.0000 </r>
       <r>   -6.1252    1.0000 </r>
       <r>   -6.1196    1.0000 </r>
       <r>   -3.2171    1.0000 </r>
       <r>   -3.2070    1.0000 </r>
       <r>   -2.3313    1.0000 </r>
       <r>   -2.3233    1.0000 </r>
       <r>    5.1012    0.0000 </r>
       <r>    5.1247    0.0000 </r>
       <r>    6.3938    0.0000 </r>
       <r>    6.4245    0.0000 </r>
       <r>    7.8099    0.0000 </r>
       <r>    7.8483    0.0000 </r>
       <r>    8.2421    0.0000 </r>
       <r>    8.2541    0.0000 </r>
       <r>   10.5866    0.0000 </r>
       <r>   10.6287    0.0000 </r>
      </set>
      <set comment="kpoint 21">
       <r>  -44.9655    1.0000 </r>
       <r>  -44.9641    1.0000 </r>
       <r>  -44.9629    1.0000 </r>
       <r>  -44.9622    1.0000 </r>
       <r>  -40.5583    1.0000 </r>
       <r>  -40.5567    1.0000 </r>
       <r>  -40.5552    1.0000 </r>
       <r>  -40.5540    1.0000 </r>
       <r>  -40.5529    1.0000 </r>
       <r>  -40.5523    1.0000 </r>
       <r>  -17.9578    1.0000 </r>
       <r>  -17.9465    1.0000 </r>
       <r>   -6.1606    1.0000 </r>
       <r>   -6.1571    1.0000 </r>
       <r>   -3.2439    1.0000 </r>
       <r>   -3.2321    1.0000 </r>
       <r>   -2.5939    1.0000 </r>
       <r>   -2.5867    1.0000 </r>
       <r>    4.7022    0.0000 </r>
       <r>    4.7227    0.0000 </r>
       <r>    5.8205    0.0000 </r>
       <r>    5.8424    0.0000 </r>
       <r>    8.1060    0.0000 </r>
       <r>    8.1523    0.0000 </r>
       <r>    9.8533    0.0000 </r>
       <r>    9.8766    0.0000 </r>
       <r>   10.8467    0.0000 </r>
       <r>   10.9078    0.0000 </r>
      </set>
      <set comment="kpoint 22">
       <r>  -44.9655    1.0000 </r>
       <r>  -44.9641    1.0000 </r>
       <r>  -44.9629    1.0000 </r>
       <r>  -44.9622    1.0000 </r>
       <r>  -40.5588    1.0000 </r>
       <r>  -40.5567    1.0000 </r>
       <r>  -40.5550    1.0000 </r>
       <r>  -40.5539    1.0000 </r>
       <r>  -40.5529    1.0000 </r>
       <r>  -40.5523    1.0000 </r>
       <r>  -17.9458    1.0000 </r>
       <r>  -17.9347    1.0000 </r>
       <r>   -6.1998    1.0000 </r>
       <r>   -6.1971    1.0000 </r>
       <r>   -3.3039    1.0000 </r>
       <r>   -3.2952    1.0000 </r>
       <r>   -2.5683    1.0000 </r>
       <r>   -2.5648    1.0000 </r>
       <r>    4.2047    0.0000 </r>
       <r>    4.2253    0.0000 </r>
       <r>    5.2780    0.0000 </r>
       <r>    5.2950    0.0000 </r>
       <r>    9.3048    0.0000 </r>
       <r>    9.3638    0.0000 </r>
       <r>   11.4505    0.0000 </r>
       <r>   11.4663    0.0000 </r>
       <r>   11.9055    0.0000 </r>
       <r>   11.9260    0.0000 </r>
      </set>
      <set comment="kpoint 23">
       <r>  -44.9655    1.0000 </r>
       <r>  -44.9641    1.0000 </r>
       <r>  -44.9629    1.0000 </r>
       <r>  -44.9622    1.0000 </r>
       <r>  -40.5583    1.0000 </r>
       <r>  -40.5567    1.0000 </r>
       <r>  -40.5552    1.0000 </r>
       <r>  -40.5540    1.0000 </r>
       <r>  -40.5529    1.0000 </r>
       <r>  -40.5523    1.0000 </r>
       <r>  -17.9578    1.0000 </r>
       <r>  -17.9465    1.0000 </r>
       <r>   -6.1606    1.0000 </r>
       <r>   -6.1571    1.0000 </r>
       <r>   -3.2439    1.0000 </r>
       <r>   -3.2320    1.0000 </r>
       <r>   -2.5940    1.0000 </r>
       <r>   -2.5867    1.0000 </r>
       <r>    4.7020    0.0000 </r>
       <r>    4.7226    0.0000 </r>
       <r>    5.8207    0.0000 </r>
       <r>    5.8426    0.0000 </r>
       <r>    8.1059    0.0000 </r>
       <r>    8.1522    0.0000 </r>
       <r>    9.8533    0.0000 </r>
       <r>    9.8766    0.0000 </r>
       <r>   10.8467    0.0000 </r>
       <r>   10.9078    0.0000 </r>
      </set>
      <set comment="kpoint 24">
       <r>  -44.9656    1.0000 </r>
       <r>  -44.9641    1.0000 </r>
       <r>  -44.9630    1.0000 </r>
       <r>  -44.9623    1.0000 </r>
       <r>  -40.5583    1.0000 </r>
       <r>  -40.5570    1.0000 </r>
       <r>  -40.5556    1.0000 </r>
       <r>  -40.5542    1.0000 </r>
       <r>  -40.5533    1.0000 </r>
       <r>  -40.5522    1.0000 </r>
       <r>  -17.9820    1.0000 </r>
       <r>  -17.9705    1.0000 </r>
       <r>   -6.1252    1.0000 </r>
       <r>   -6.1196    1.0000 </r>
       <r>   -3.2172    1.0000 </r>
       <r>   -3.2070    1.0000 </r>
       <r>   -2.3313    1.0000 </r>
       <r>   -2.3233    1.0000 </r>
       <r>    5.1011    0.0000 </r>
       <r>    5.1246    0.0000 </r>
       <r>    6.3938    0.0000 </r>
       <r>    6.4245    0.0000 </r>
       <r>    7.8101    0.0000 </r>
       <r>    7.8484    0.0000 </r>
       <r>    8.2422    0.0000 </r>
       <r>    8.2541    0.0000 </r>
       <r>   10.5866    0.0000 </r>
       <r>   10.6286    0.0000 </r>
      </set>
      <set comment="kpoint 25">
       <r>  -44.9656    1.0000 </r>
       <r>  -44.9642    1.0000 </r>
       <r>  -44.9631    1.0000 </r>
       <r>  -44.9623    1.0000 </r>
       <r>  -40.5582    1.0000 </r>
       <r>  -40.5571    1.0000 </r>
       <r>  -40.5557    1.0000 </r>
       <r>  -40.5543    1.0000 </r>
       <r>  -40.5535    1.0000 </r>
       <r>  -40.5523    1.0000 </r>
       <r>  -18.0314    1.0000 </r>
       <r>  -18.0193    1.0000 </r>
       <r>   -5.9756    1.0000 </r>
       <r>   -5.9703    1.0000 </r>
       <r>   -2.9645    1.0000 </r>
       <r>   -2.9565    1.0000 </r>
       <r>   -2.0186    1.0000 </r>
       <r>   -2.0113    1.0000 </r>
       <r>    4.3915    0.0000 </r>
       <r>    4.4211    0.0000 </r>
       <r>    7.3179    0.0000 </r>
       <r>    7.3675    0.0000 </r>
       <r>    7.7763    0.0000 </r>
       <r>    7.7806    0.0000 </r>
       <r>    7.9517    0.0000 </r>
       <r>    7.9564    0.0000 </r>
       <r>    9.6688    0.0000 </r>
       <r>    9.7093    0.0000 </r>
      </set>
      <set comment="kpoint 26">
       <r>  -44.9656    1.0000 </r>
       <r>  -44.9642    1.0000 </r>
       <r>  -44.9630    1.0000 </r>
       <r>  -44.9622    1.0000 </r>
       <r>  -40.5583    1.0000 </r>
       <r>  -40.5571    1.0000 </r>
       <r>  -40.5556    1.0000 </r>
       <r>  -40.5542    1.0000 </r>
       <r>  -40.5534    1.0000 </r>
[...]
       <r>    -3.3663     0.0000     0.0000 </r>
       <r>    -3.1576     0.0000     0.0000 </r>
       <r>    -2.9489     0.0000     0.0000 </r>
       <r>    -2.7403     0.0000     0.0000 </r>
       <r>    -2.5316     0.0000     0.0000 </r>
       <r>    -2.3229     0.0000     0.0000 </r>
       <r>    -2.1143     0.0000     0.0000 </r>
       <r>    -1.9056     0.0000     0.0000 </r>
       <r>    -1.6970     0.0000     0.0000 </r>
       <r>    -1.4883     0.0000     0.0000 </r>
       <r>    -1.2796     0.0000     0.0000 </r>
       <r>    -1.0710     0.0000     0.0000 </r>
       <r>    -0.8623     0.0000     0.0000 </r>
       <r>    -0.6537     0.0000     0.0000 </r>
       <r>    -0.4450     0.0000     0.0000 </r>
       <r>    -0.2363     0.0000     0.0000 </r>
       <r>    -0.0277     0.0000     0.0000 </r>
       <r>     0.1810     0.0000     0.0000 </r>
       <r>     0.3897     0.0000     0.0000 </r>
       <r>     0.5983     0.0000     0.0000 </r>
       <r>     0.8070     0.0000     0.0000 </r>
       <r>     1.0156     0.0000     0.0000 </r>
       <r>     1.2243     0.0000     0.0000 </r>
       <r>     1.4330     0.0000     0.0000 </r>
       <r>     1.6416     0.0000     0.0000 </r>
       <r>     1.8503     0.0000     0.0000 </r>
       <r>     2.0589     0.0000     0.0000 </r>
       <r>     2.2676     0.0000     0.0000 </r>
       <r>     2.4763     0.0000     0.0000 </r>
       <r>     2.6849     0.0000     0.0000 </r>
       <r>     2.8936     0.0000     0.0000 </r>
       <r>     3.1023     0.0000     0.0000 </r>
       <r>     3.3109     0.0000     0.0000 </r>
       <r>     3.5196     0.0000     0.0000 </r>
       <r>     3.7282     0.0000     0.0000 </r>
       <r>     3.9369     0.0000     0.0000 </r>
       <r>     4.1456     0.0000     0.0000 </r>
       <r>     4.3542     0.0000     0.0000 </r>
       <r>     4.5629     0.0000     0.0000 </r>
       <r>     4.7715     0.0000     0.0000 </r>
       <r>     4.9802     0.0000     0.0000 </r>
       <r>     5.1889     0.0000     0.0000 </r>
       <r>     5.3975     0.0000     0.0000 </r>
       <r>     5.6062     0.0000     0.0000 </r>
       <r>     5.8149     0.0000     0.0000 </r>
       <r>     6.0235     0.0000     0.0000 </r>
       <r>     6.2322     0.0000     0.0000 </r>
       <r>     6.4408     0.0000     0.0000 </r>
       <r>     6.6495     0.0000     0.0000 </r>
       <r>     6.8582     0.0000     0.0000 </r>
       <r>     7.0668     0.0000     0.0000 </r>
       <r>     7.2755     0.0000     0.0000 </r>
       <r>     7.4841     0.0000     0.0000 </r>
       <r>     7.6928     0.0000     0.0000 </r>
       <r>     7.9015     0.0000     0.0000 </r>
       <r>     8.1101     0.0000     0.0000 </r>
       <r>     8.3188     0.0000     0.0000 </r>
       <r>     8.5275     0.0000     0.0000 </r>
       <r>     8.7361     0.0000     0.0000 </r>
       <r>     8.9448     0.0000     0.0000 </r>
       <r>     9.1534     0.0000     0.0000 </r>
       <r>     9.3621     0.0000     0.0000 </r>
       <r>     9.5708     0.0000     0.0000 </r>
       <r>     9.7794     0.0000     0.0000 </r>
       <r>     9.9881     0.0000     0.0000 </r>
       <r>    10.1967     0.0000     0.0000 </r>
       <r>    10.4054     0.0000     0.0000 </r>
       <r>    10.6141     0.0000     0.0000 </r>
       <r>    10.8227     0.0000     0.0000 </r>
       <r>    11.0314     0.0000     0.0000 </r>
       <r>    11.2401     0.0000     0.0000 </r>
       <r>    11.4487     0.0000     0.0000 </r>
       <r>    11.6574     0.0000     0.0000 </r>
       <r>    11.8660     0.0000     0.0000 </r>
       <r>    12.0747     0.0000     0.0000 </r>
       <r>    12.2834     0.0000     0.0000 </r>
       <r>    12.4920     0.0000     0.0000 </r>
       <r>    12.7007     0.0000     0.0000 </r>
       <r>    12.9093     0.0000     0.0000 </r>
       <r>    13.1180     0.0000     0.0000 </r>
       <r>    13.3267     0.0000     0.0000 </r>
       <r>    13.5353     0.0000     0.0000 </r>
       <r>    13.7440     0.0000     0.0000 </r>
       <r>    13.9527     0.0000     0.0000 </r>
       <r>    14.1613     0.0000     0.0000 </r>
       <r>    14.3700     0.0000     0.0000 </r>
       <r>    14.5786     0.0000     0.0000 </r>
       <r>    14.7873     0.0000     0.0000 </r>
      </set>
      <set comment="spin 4">
       <r>   -47.8112     0.0000     0.0000 </r>
       <r>   -47.6025     0.0000     0.0000 </r>
       <r>   -47.3939     0.0000     0.0000 </r>
       <r>   -47.1852     0.0000     0.0000 </r>
       <r>   -46.9765     0.0000     0.0000 </r>
       <r>   -46.7679     0.0000     0.0000 </r>
       <r>   -46.5592     0.0000     0.0000 </r>
       <r>   -46.3506     0.0000     0.0000 </r>
       <r>   -46.1419     0.0000     0.0000 </r>
       <r>   -45.9332     0.0000     0.0000 </r>
       <r>   -45.7246     0.0000     0.0000 </r>
       <r>   -45.5159     0.0000     0.0000 </r>
       <r>   -45.3072     0.0000     0.0000 </r>
       <r>   -45.0986     0.0000     0.0000 </r>
       <r>   -44.8899     0.0000     0.0000 </r>
       <r>   -44.6813     0.0000     0.0000 </r>
       <r>   -44.4726     0.0000     0.0000 </r>
       <r>   -44.2639     0.0000     0.0000 </r>
       <r>   -44.0553     0.0000     0.0000 </r>
       <r>   -43.8466     0.0000     0.0000 </r>
       <r>   -43.6379     0.0000     0.0000 </r>
       <r>   -43.4293     0.0000     0.0000 </r>
       <r>   -43.2206     0.0000     0.0000 </r>
       <r>   -43.0120     0.0000     0.0000 </r>
       <r>   -42.8033     0.0000     0.0000 </r>
       <r>   -42.5946     0.0000     0.0000 </r>
       <r>   -42.3860     0.0000     0.0000 </r>
       <r>   -42.1773     0.0000     0.0000 </r>
       <r>   -41.9687     0.0000     0.0000 </r>
       <r>   -41.7600     0.0000     0.0000 </r>
       <r>   -41.5513     0.0000     0.0000 </r>
       <r>   -41.3427     0.0000     0.0000 </r>
       <r>   -41.1340     0.0000     0.0000 </r>
       <r>   -40.9253     0.0000     0.0000 </r>
       <r>   -40.7167     0.0000     0.0000 </r>
       <r>   -40.5080     0.0000     0.0000 </r>
       <r>   -40.2994     0.0000     0.0000 </r>
       <r>   -40.0907     0.0000     0.0000 </r>
       <r>   -39.8820     0.0000     0.0000 </r>
       <r>   -39.6734     0.0000     0.0000 </r>
       <r>   -39.4647     0.0000     0.0000 </r>
       <r>   -39.2561     0.0000     0.0000 </r>
       <r>   -39.0474     0.0000     0.0000 </r>
       <r>   -38.8387     0.0000     0.0000 </r>
       <r>   -38.6301     0.0000     0.0000 </r>
       <r>   -38.4214     0.0000     0.0000 </r>
       <r>   -38.2127     0.0000     0.0000 </r>
       <r>   -38.0041     0.0000     0.0000 </r>
       <r>   -37.7954     0.0000     0.0000 </r>
       <r>   -37.5868     0.0000     0.0000 </r>
       <r>   -37.3781     0.0000     0.0000 </r>
       <r>   -37.1694     0.0000     0.0000 </r>
       <r>   -36.9608     0.0000     0.0000 </r>
       <r>   -36.7521     0.0000     0.0000 </r>
       <r>   -36.5435     0.0000     0.0000 </r>
       <r>   -36.3348     0.0000     0.0000 </r>
       <r>   -36.1261     0.0000     0.0000 </r>
       <r>   -35.9175     0.0000     0.0000 </r>
       <r>   -35.7088     0.0000     0.0000 </r>
       <r>   -35.5001     0.0000     0.0000 </r>
       <r>   -35.2915     0.0000     0.0000 </r>
       <r>   -35.0828     0.0000     0.0000 </r>
       <r>   -34.8742     0.0000     0.0000 </r>
       <r>   -34.6655     0.0000     0.0000 </r>
       <r>   -34.4568     0.0000     0.0000 </r>
       <r>   -34.2482     0.0000     0.0000 </r>
       <r>   -34.0395     0.0000     0.0000 </r>
       <r>   -33.8309     0.0000     0.0000 </r>
       <r>   -33.6222     0.0000     0.0000 </r>
       <r>   -33.4135     0.0000     0.0000 </r>
       <r>   -33.2049     0.0000     0.0000 </r>
       <r>   -32.9962     0.0000     0.0000 </r>
       <r>   -32.7875     0.0000     0.0000 </r>
       <r>   -32.5789     0.0000     0.0000 </r>
       <r>   -32.3702     0.0000     0.0000 </r>
       <r>   -32.1616     0.0000     0.0000 </r>
       <r>   -31.9529     0.0000     0.0000 </r>
       <r>   -31.7442     0.0000     0.0000 </r>
       <r>   -31.5356     0.0000     0.0000 </r>
       <r>   -31.3269     0.0000     0.0000 </r>
       <r>   -31.1183     0.0000     0.0000 </r>
       <r>   -30.9096     0.0000     0.0000 </r>
       <r>   -30.7009     0.0000     0.0000 </r>
       <r>   -30.4923     0.0000     0.0000 </r>
       <r>   -30.2836     0.0000     0.0000 </r>
       <r>   -30.0749     0.0000     0.0000 </r>
       <r>   -29.8663     0.0000     0.0000 </r>
       <r>   -29.6576     0.0000     0.0000 </r>
       <r>   -29.4490     0.0000     0.0000 </r>
       <r>   -29.2403     0.0000     0.0000 </r>
       <r>   -29.0316     0.0000     0.0000 </r>
       <r>   -28.8230     0.0000     0.0000 </r>
       <r>   -28.6143     0.0000     0.0000 </r>
       <r>   -28.4057     0.0000     0.0000 </r>
       <r>   -28.1970     0.0000     0.0000 </r>
       <r>   -27.9883     0.0000     0.0000 </r>
       <r>   -27.7797     0.0000     0.0000 </r>
       <r>   -27.5710     0.0000     0.0000 </r>
       <r>   -27.3623     0.0000     0.0000 </r>
       <r>   -27.1537     0.0000     0.0000 </r>
       <r>   -26.9450     0.0000     0.0000 </r>
       <r>   -26.7364     0.0000     0.0000 </r>
       <r>   -26.5277     0.0000     0.0000 </r>
       <r>   -26.3190     0.0000     0.0000 </r>
       <r>   -26.1104     0.0000     0.0000 </r>
       <r>   -25.9017     0.0000     0.0000 </r>
       <r>   -25.6931     0.0000     0.0000 </r>
       <r>   -25.4844     0.0000     0.0000 </r>
       <r>   -25.2757     0.0000     0.0000 </r>
       <r>   -25.0671     0.0000     0.0000 </r>
       <r>   -24.8584     0.0000     0.0000 </r>
       <r>   -24.6497     0.0000     0.0000 </r>
       <r>   -24.4411     0.0000     0.0000 </r>
       <r>   -24.2324     0.0000     0.0000 </r>
       <r>   -24.0238     0.0000     0.0000 </r>
       <r>   -23.8151     0.0000     0.0000 </r>
       <r>   -23.6064     0.0000     0.0000 </r>
       <r>   -23.3978     0.0000     0.0000 </r>
       <r>   -23.1891     0.0000     0.0000 </r>
       <r>   -22.9804     0.0000     0.0000 </r>
       <r>   -22.7718     0.0000     0.0000 </r>
       <r>   -22.5631     0.0000     0.0000 </r>
       <r>   -22.3545     0.0000     0.0000 </r>
       <r>   -22.1458     0.0000     0.0000 </r>
       <r>   -21.9371     0.0000     0.0000 </r>
       <r>   -21.7285     0.0000     0.0000 </r>
       <r>   -21.5198     0.0000     0.0000 </r>
       <r>   -21.3112     0.0000     0.0000 </r>
       <r>   -21.1025     0.0000     0.0000 </r>
       <r>   -20.8938     0.0000     0.0000 </r>
       <r>   -20.6852     0.0000     0.0000 </r>
       <r>   -20.4765     0.0000     0.0000 </r>
       <r>   -20.2678     0.0000     0.0000 </r>
       <r>   -20.0592     0.0000     0.0000 </r>
       <r>   -19.8505     0.0000     0.0000 </r>
       <r>   -19.6419     0.0000     0.0000 </r>
       <r>   -19.4332     0.0000     0.0000 </r>
       <r>   -19.2245     0.0000     0.0000 </r>
       <r>   -19.0159     0.0000     0.0000 </r>
       <r>   -18.8072     0.0000     0.0000 </r>
       <r>   -18.5986     0.0000     0.0000 </r>
       <r>   -18.3899     0.0000     0.0000 </r>
       <r>   -18.1812     0.0000     0.0000 </r>
       <r>   -17.9726     0.0000     0.0000 </r>
       <r>   -17.7639     0.0000     0.0000 </r>
       <r>   -17.5552     0.0000     0.0000 </r>
       <r>   -17.3466     0.0000     0.0000 </r>
       <r>   -17.1379     0.0000     0.0000 </r>
       <r>   -16.9293     0.0000     0.0000 </r>
       <r>   -16.7206     0.0000     0.0000 </r>
       <r>   -16.5119     0.0000     0.0000 </r>
       <r>   -16.3033     0.0000     0.0000 </r>
       <r>   -16.0946     0.0000     0.0000 </r>
       <r>   -15.8860     0.0000     0.0000 </r>
       <r>   -15.6773     0.0000     0.0000 </r>
       <r>   -15.4686     0.0000     0.0000 </r>
       <r>   -15.2600     0.0000     0.0000 </r>
       <r>   -15.0513     0.0000     0.0000 </r>
       <r>   -14.8426     0.0000     0.0000 </r>
       <r>   -14.6340     0.0000     0.0000 </r>
       <r>   -14.4253     0.0000     0.0000 </r>
       <r>   -14.2167     0.0000     0.0000 </r>
       <r>   -14.0080     0.0000     0.0000 </r>
       <r>   -13.7993     0.0000     0.0000 </r>
       <r>   -13.5907     0.0000     0.0000 </r>
       <r>   -13.3820     0.0000     0.0000 </r>
       <r>   -13.1734     0.0000     0.0000 </r>
       <r>   -12.9647     0.0000     0.0000 </r>
       <r>   -12.7560     0.0000     0.0000 </r>
       <r>   -12.5474     0.0000     0.0000 </r>
       <r>   -12.3387     0.0000     0.0000 </r>
       <r>   -12.1300     0.0000     0.0000 </r>
       <r>   -11.9214     0.0000     0.0000 </r>
       <r>   -11.7127     0.0000     0.0000 </r>
       <r>   -11.5041     0.0000     0.0000 </r>
       <r>   -11.2954     0.0000     0.0000 </r>
       <r>   -11.0867     0.0000     0.0000 </r>
       <r>   -10.8781     0.0000     0.0000 </r>
       <r>   -10.6694     0.0000     0.0000 </r>
       <r>   -10.4608     0.0000     0.0000 </r>
       <r>   -10.2521     0.0000     0.0000 </r>
       <r>   -10.0434     0.0000     0.0000 </r>
       <r>    -9.8348     0.0000     0.0000 </r>
       <r>    -9.6261     0.0000     0.0000 </r>
       <r>    -9.4174     0.0000     0.0000 </r>
       <r>    -9.2088     0.0000     0.0000 </r>
       <r>    -9.0001     0.0000     0.0000 </r>
       <r>    -8.7915     0.0000     0.0000 </r>
       <r>    -8.5828     0.0000     0.0000 </r>
       <r>    -8.3741     0.0000     0.0000 </r>
       <r>    -8.1655     0.0000     0.0000 </r>
       <r>    -7.9568     0.0000     0.0000 </r>
       <r>    -7.7482     0.0000     0.0000 </r>
       <r>    -7.5395     0.0000     0.0000 </r>
       <r>    -7.3308     0.0000     0.0000 </r>
       <r>    -7.1222     0.0000     0.0000 </r>
       <r>    -6.9135     0.0000     0.0000 </r>
       <r>    -6.7048     0.0000     0.0000 </r>
       <r>    -6.4962     0.0000     0.0000 </r>
       <r>    -6.2875     0.0000     0.0000 </r>
       <r>    -6.0789     0.0000     0.0000 </r>
       <r>    -5.8702     0.0000     0.0000 </r>
       <r>    -5.6615     0.0000     0.0000 </r>
       <r>    -5.4529     0.0000     0.0000 </r>
       <r>    -5.2442     0.0000     0.0000 </r>
       <r>    -5.0355     0.0000     0.0000 </r>
       <r>    -4.8269     0.0000     0.0000 </r>
       <r>    -4.6182     0.0000     0.0000 </r>
       <r>    -4.4096     0.0000     0.0000 </r>
       <r>    -4.2009     0.0000     0.0000 </r>
       <r>    -3.9922     0.0000     0.0000 </r>
       <r>    -3.7836     0.0000     0.0000 </r>
       <r>    -3.5749     0.0000     0.0000 </r>
       <r>    -3.3663     0.0000     0.0000 </r>
       <r>    -3.1576     0.0000     0.0000 </r>
       <r>    -2.9489     0.0000     0.0000 </r>
       <r>    -2.7403     0.0000     0.0000 </r>
       <r>    -2.5316     0.0000     0.0000 </r>
       <r>    -2.3229     0.0000     0.0000 </r>
       <r>    -2.1143     0.0000     0.0000 </r>
       <r>    -1.9056     0.0000     0.0000 </r>
       <r>    -1.6970     0.0000     0.0000 </r>
       <r>    -1.4883     0.0000     0.0000 </r>
       <r>    -1.2796     0.0000     0.0000 </r>
       <r>    -1.0710     0.0000     0.0000 </r>
       <r>    -0.8623     0.0000     0.0000 </r>
       <r>    -0.6537     0.0000     0.0000 </r>
       <r>    -0.4450     0.0000     0.0000 </r>
       <r>    -0.2363     0.0000     0.0000 </r>
       <r>    -0.0277     0.0000     0.0000 </r>
       <r>     0.1810     0.0000     0.0000 </r>
       <r>     0.3897     0.0000     0.0000 </r>
       <r>     0.5983     0.0000     0.0000 </r>
       <r>     0.8070     0.0000     0.0000 </r>
       <r>     1.0156     0.0000     0.0000 </r>
       <r>     1.2243     0.0000     0.0000 </r>
       <r>     1.4330     0.0000     0.0000 </r>
       <r>     1.6416     0.0000     0.0000 </r>
       <r>     1.8503     0.0000     0.0000 </r>
       <r>     2.0589     0.0000     0.0000 </r>
       <r>     2.2676     0.0000     0.0000 </r>
       <r>     2.4763     0.0000     0.0000 </r>
       <r>     2.6849     0.0000     0.0000 </r>
       <r>     2.8936     0.0000     0.0000 </r>
       <r>     3.1023     0.0000     0.0000 </r>
       <r>     3.3109     0.0000     0.0000 </r>
       <r>     3.5196     0.0000     0.0000 </r>
       <r>     3.7282     0.0000     0.0000 </r>
       <r>     3.9369     0.0000     0.0000 </r>
       <r>     4.1456     0.0000     0.0000 </r>
       <r>     4.3542     0.0000     0.0000 </r>
       <r>     4.5629     0.0000     0.0000 </r>
       <r>     4.7715     0.0000     0.0000 </r>
       <r>     4.9802     0.0000     0.0000 </r>
       <r>     5.1889     0.0000     0.0000 </r>
       <r>     5.3975     0.0000     0.0000 </r>
       <r>     5.6062     0.0000     0.0000 </r>
       <r>     5.8149     0.0000     0.0000 </r>
       <r>     6.0235     0.0000     0.0000 </r>
       <r>     6.2322     0.0000     0.0000 </r>
       <r>     6.4408     0.0000     0.0000 </r>
       <r>     6.6495     0.0000     0.0000 </r>
       <r>     6.8582     0.0000     0.0000 </r>
       <r>     7.0668     0.0000     0.0000 </r>
       <r>     7.2755     0.0000     0.0000 </r>
       <r>     7.4841     0.0000     0.0000 </r>
       <r>     7.6928     0.0000     0.0000 </r>
       <r>     7.9015     0.0000     0.0000 </r>
       <r>     8.1101     0.0000     0.0000 </r>
       <r>     8.3188     0.0000     0.0000 </r>
       <r>     8.5275     0.0000     0.0000 </r>
       <r>     8.7361     0.0000     0.0000 </r>
       <r>     8.9448     0.0000     0.0000 </r>
       <r>     9.1534     0.0000     0.0000 </r>
       <r>     9.3621     0.0000     0.0000 </r>
       <r>     9.5708     0.0000     0.0000 </r>
       <r>     9.7794     0.0000     0.0000 </r>
       <r>     9.9881     0.0000     0.0000 </r>
       <r>    10.1967     0.0000     0.0000 </r>
       <r>    10.4054     0.0000     0.0000 </r>
       <r>    10.6141     0.0000     0.0000 </r>
       <r>    10.8227     0.0000     0.0000 </r>
       <r>    11.0314     0.0000     0.0000 </r>
       <r>    11.2401     0.0000     0.0000 </r>
       <r>    11.4487     0.0000     0.0000 </r>
       <r>    11.6574     0.0000     0.0000 </r>
       <r>    11.8660     0.0000     0.0000 </r>
       <r>    12.0747     0.0000     0.0000 </r>
       <r>    12.2834     0.0000     0.0000 </r>
       <r>    12.4920     0.0000     0.0000 </r>
       <r>    12.7007     0.0000     0.0000 </r>
       <r>    12.9093     0.0000     0.0000 </r>
       <r>    13.1180     0.0000     0.0000 </r>
       <r>    13.3267     0.0000     0.0000 </r>
       <r>    13.5353     0.0000     0.0000 </r>
       <r>    13.7440     0.0000     0.0000 </r>
       <r>    13.9527     0.0000     0.0000 </r>
       <r>    14.1613     0.0000     0.0000 </r>
       <r>    14.3700     0.0000     0.0000 </r>
       <r>    14.5786     0.0000     0.0000 </r>
       <r>    14.7873     0.0000     0.0000 </r>
      </set>
     </set>
    </array>
   </total>
  </dos>
 </calculation>
 <structure name="finalpos" >
  <crystal>
   <varray name="basis" >
    <v>       4.52056477       0.00000000       0.00000000 </v>
    <v>       2.26028238       3.91492393      -0.00000000 </v>
    <v>       2.26028238       1.30497464       3.69102568 </v>
   </varray>
   <i name="volume">     65.32254404 </i>
   <varray name="rec_basis" >
    <v>       0.22121130      -0.12771640      -0.09030913 </v>
    <v>       0.00000000       0.25543280      -0.09030913 </v>
    <v>      -0.00000000       0.00000000       0.27092740 </v>
   </varray>
  </crystal>
  <varray name="positions" >
   <v>       0.00000000       0.00000000       0.00000000 </v>
  </varray>
  <varray name="velocities" >
   <v>       0.00000000       0.00000000       0.00000000 </v>
  </varray>
 </structure>
</modeling>
