   1   1   0   0
  0.5789729E+02  0.4342346E-09  0.4342346E-09  0.4342346E-09  0.1000000E-15
  1.000000000000000E-004
  CAR 
 Og_FCC                                  
     58.00379782    -34.67278137  301      3.94920109      1.00000000
    -34.673  0.0000E+00  0.0000E+00
    -34.364  0.0000E+00  0.0000E+00
    -34.055  0.0000E+00  0.0000E+00
    -33.746  0.0000E+00  0.0000E+00
    -33.437  0.0000E+00  0.0000E+00
    -33.128  0.0000E+00  0.0000E+00
    -32.819  0.0000E+00  0.0000E+00
    -32.510  0.0000E+00  0.0000E+00
    -32.201  0.0000E+00  0.0000E+00
    -31.892  0.0000E+00  0.0000E+00
    -31.584  0.0000E+00  0.0000E+00
    -31.275  0.0000E+00  0.0000E+00
    -30.966  0.0000E+00  0.0000E+00
    -30.657  0.0000E+00  0.0000E+00
    -30.348  0.0000E+00  0.4000E+01
    -30.039  0.0000E+00  0.4000E+01
    -29.730  0.0000E+00  0.4000E+01
    -29.421  0.0000E+00  0.4000E+01
    -29.112  0.0000E+00  0.4000E+01
    -28.803  0.0000E+00  0.4000E+01
    -28.494  0.0000E+00  0.4000E+01
    -28.185  0.0000E+00  0.4000E+01
    -27.876  0.0000E+00  0.4000E+01
    -27.568  0.0000E+00  0.4000E+01
    -27.259  0.0000E+00  0.4000E+01
    -26.950  0.0000E+00  0.4000E+01
    -26.641  0.0000E+00  0.4000E+01
    -26.332  0.0000E+00  0.4000E+01
    -26.023  0.0000E+00  0.4000E+01
    -25.714  0.0000E+00  0.4000E+01
    -25.405  0.0000E+00  0.4000E+01
    -25.096  0.0000E+00  0.4000E+01
    -24.787  0.0000E+00  0.4000E+01
    -24.478  0.0000E+00  0.4000E+01
    -24.169  0.0000E+00  0.4000E+01
    -23.861  0.0000E+00  0.4000E+01
    -23.552  0.0000E+00  0.1000E+02
    -23.243  0.0000E+00  0.1000E+02
    -22.934  0.0000E+00  0.1000E+02
    -22.625  0.0000E+00  0.1000E+02
    -22.316  0.0000E+00  0.1000E+02
    -22.007  0.0000E+00  0.1000E+02
    -21.698  0.0000E+00  0.1000E+02
    -21.389  0.0000E+00  0.1000E+02
    -21.080  0.0000E+00  0.1000E+02
    -20.771  0.0000E+00  0.1000E+02
    -20.462  0.0000E+00  0.1000E+02
    -20.153  0.3597E+00  0.1025E+02
    -19.845  0.0000E+00  0.1200E+02
    -19.536  0.0000E+00  0.1200E+02
    -19.227  0.0000E+00  0.1200E+02
    -18.918  0.0000E+00  0.1200E+02
    -18.609  0.0000E+00  0.1200E+02
    -18.300  0.0000E+00  0.1200E+02
    -17.991  0.0000E+00  0.1200E+02
    -17.682  0.0000E+00  0.1200E+02
    -17.373  0.0000E+00  0.1200E+02
    -17.064  0.0000E+00  0.1200E+02
    -16.755  0.0000E+00  0.1200E+02
    -16.446  0.0000E+00  0.1200E+02
    -16.137  0.0000E+00  0.1200E+02
    -15.829  0.0000E+00  0.1200E+02
    -15.520  0.0000E+00  0.1200E+02
    -15.211  0.0000E+00  0.1200E+02
    -14.902  0.0000E+00  0.1200E+02
    -14.593  0.0000E+00  0.1200E+02
    -14.284  0.0000E+00  0.1200E+02
    -13.975  0.0000E+00  0.1200E+02
    -13.666  0.0000E+00  0.1200E+02
    -13.357  0.0000E+00  0.1200E+02
    -13.048  0.0000E+00  0.1200E+02
    -12.739  0.0000E+00  0.1200E+02
    -12.430  0.0000E+00  0.1200E+02
    -12.121  0.0000E+00  0.1200E+02
    -11.813  0.0000E+00  0.1200E+02
    -11.504  0.0000E+00  0.1200E+02
    -11.195  0.0000E+00  0.1200E+02
    -10.886  0.0000E+00  0.1200E+02
    -10.577  0.0000E+00  0.1200E+02
    -10.268  0.0000E+00  0.1200E+02
     -9.959  0.0000E+00  0.1200E+02
     -9.650  0.0000E+00  0.1200E+02
     -9.341  0.0000E+00  0.1200E+02
     -9.032  0.0000E+00  0.1200E+02
     -8.723  0.0000E+00  0.1200E+02
     -8.414  0.0000E+00  0.1200E+02
     -8.105  0.0000E+00  0.1200E+02
     -7.797  0.0000E+00  0.1200E+02
     -7.488  0.0000E+00  0.1200E+02
     -7.179  0.7193E+00  0.1375E+02
     -6.870  0.0000E+00  0.1400E+02
     -6.561  0.0000E+00  0.1400E+02
     -6.252  0.0000E+00  0.1400E+02
     -5.943  0.0000E+00  0.1400E+02
     -5.634  0.0000E+00  0.1400E+02
     -5.325  0.0000E+00  0.1400E+02
     -5.016  0.0000E+00  0.1400E+02
     -4.707  0.0000E+00  0.1400E+02
     -4.398  0.0000E+00  0.1400E+02
     -4.090  0.0000E+00  0.1400E+02
     -3.781  0.0000E+00  0.1400E+02
     -3.472  0.0000E+00  0.1400E+02
     -3.163  0.0000E+00  0.1400E+02
     -2.854  0.0000E+00  0.1400E+02
     -2.545  0.0000E+00  0.1400E+02
     -2.236  0.0000E+00  0.1400E+02
     -1.927  0.0000E+00  0.1400E+02
     -1.618  0.0000E+00  0.1400E+02
     -1.309  0.0000E+00  0.1400E+02
     -1.000  0.0000E+00  0.1400E+02
     -0.691  0.0000E+00  0.1400E+02
     -0.382  0.0000E+00  0.1400E+02
     -0.074  0.0000E+00  0.1400E+02
      0.235  0.0000E+00  0.1400E+02
      0.544  0.0000E+00  0.1400E+02
      0.853  0.0000E+00  0.1484E+02
      1.162  0.0000E+00  0.1553E+02
      1.471  0.0000E+00  0.1575E+02
      1.780  0.0000E+00  0.1586E+02
      2.089  0.0000E+00  0.1636E+02
      2.398  0.0000E+00  0.1691E+02
      2.707  0.0000E+00  0.1719E+02
      3.016  0.6207E+00  0.1760E+02
      3.325  0.0000E+00  0.1774E+02
      3.634  0.0000E+00  0.1791E+02
      3.942  0.1786E-10  0.1799E+02
      4.251  0.0000E+00  0.1801E+02
      4.560  0.0000E+00  0.1801E+02
      4.869  0.0000E+00  0.1801E+02
      5.178  0.0000E+00  0.1801E+02
      5.487  0.0000E+00  0.1801E+02
      5.796  0.0000E+00  0.1808E+02
      6.105  0.0000E+00  0.1814E+02
      6.414  0.0000E+00  0.1828E+02
      6.723  0.0000E+00  0.1839E+02
      7.032  0.0000E+00  0.1889E+02
      7.341  0.0000E+00  0.1944E+02
      7.650  0.0000E+00  0.1978E+02
      7.958  0.0000E+00  0.2003E+02
      8.267  0.0000E+00  0.2008E+02
      8.576  0.0000E+00  0.2031E+02
      8.885  0.1800E-01  0.2064E+02
      9.194  0.0000E+00  0.2164E+02
      9.503  0.0000E+00  0.2203E+02
      9.812  0.9221E-12  0.2225E+02
     10.121  0.0000E+00  0.2238E+02
     10.430  0.0000E+00  0.2294E+02
     10.739  0.0000E+00  0.2358E+02
     11.048  0.2398E+00  0.2393E+02
     11.357  0.0000E+00  0.2431E+02
     11.666  0.0000E+00  0.2544E+02
     11.974  0.0000E+00  0.2567E+02
     12.283  0.0000E+00  0.2606E+02
     12.592  0.0000E+00  0.2624E+02
     12.901  0.0000E+00  0.2681E+02
     13.210  0.1161E-01  0.2749E+02
     13.519  0.5995E-01  0.2814E+02
     13.828  0.0000E+00  0.2890E+02
     14.137  0.9969E-02  0.2962E+02
     14.446  0.0000E+00  0.3019E+02
     14.755  0.0000E+00  0.3051E+02
     15.064  0.0000E+00  0.3085E+02
     15.373  0.0000E+00  0.3121E+02
     15.681  0.0000E+00  0.3182E+02
     15.990  0.0000E+00  0.3229E+02
     16.299  0.0000E+00  0.3307E+02
     16.608  0.0000E+00  0.3346E+02
     16.917  0.0000E+00  0.3409E+02
     17.226  0.0000E+00  0.3457E+02
     17.535  0.0000E+00  0.3514E+02
     17.844  0.7714E-01  0.3635E+02
     18.153  0.0000E+00  0.3722E+02
     18.462  0.0000E+00  0.3910E+02
     18.771  0.5695E+00  0.4094E+02
     19.080  0.0000E+00  0.4158E+02
     19.389  0.0000E+00  0.4208E+02
     19.697  0.0000E+00  0.4325E+02
     20.006  0.2389E+00  0.4401E+02
     20.315  0.0000E+00  0.4490E+02
     20.624  0.1427E-07  0.4552E+02
     20.933  0.0000E+00  0.4600E+02
     21.242  0.0000E+00  0.4641E+02
     21.551  0.0000E+00  0.4646E+02
     21.860  0.0000E+00  0.4670E+02
     22.169  0.0000E+00  0.4718E+02
     22.478  0.0000E+00  0.4773E+02
     22.787  0.0000E+00  0.4806E+02
     23.096  0.0000E+00  0.4838E+02
     23.405  0.0000E+00  0.4911E+02
     23.713  0.7911E+00  0.5002E+02
     24.022  0.0000E+00  0.5050E+02
     24.331  0.0000E+00  0.5133E+02
     24.640  0.0000E+00  0.5214E+02
     24.949  0.0000E+00  0.5347E+02
     25.258  0.0000E+00  0.5440E+02
     25.567  0.7193E+00  0.5558E+02
     25.876  0.0000E+00  0.5644E+02
     26.185  0.4655E-01  0.5675E+02
     26.494  0.0000E+00  0.5750E+02
     26.803  0.0000E+00  0.5767E+02
     27.112  0.2233E-01  0.5822E+02
     27.421  0.8433E-03  0.5931E+02
     27.729  0.0000E+00  0.5978E+02
     28.038  0.0000E+00  0.6035E+02
     28.347  0.0000E+00  0.6094E+02
     28.656  0.0000E+00  0.6161E+02
     28.965  0.1312E-05  0.6202E+02
     29.274  0.0000E+00  0.6224E+02
     29.583  0.0000E+00  0.6321E+02
     29.892  0.0000E+00  0.6426E+02
     30.201  0.0000E+00  0.6473E+02
     30.510  0.0000E+00  0.6505E+02
     30.819  0.1922E-02  0.6578E+02
     31.128  0.0000E+00  0.6638E+02
     31.437  0.0000E+00  0.6699E+02
     31.745  0.0000E+00  0.6809E+02
     32.054  0.1625E+00  0.6951E+02
     32.363  0.0000E+00  0.6993E+02
     32.672  0.5293E-10  0.7074E+02
     32.981  0.7177E+00  0.7227E+02
     33.290  0.4991E-17  0.7275E+02
     33.599  0.0000E+00  0.7325E+02
     33.908  0.0000E+00  0.7398E+02
     34.217  0.0000E+00  0.7444E+02
     34.526  0.4496E+00  0.7533E+02
     34.835  0.1798E+00  0.7594E+02
     35.144  0.3094E+00  0.7706E+02
     35.452  0.2399E+00  0.7806E+02
     35.761  0.0000E+00  0.7891E+02
     36.070  0.0000E+00  0.7996E+02
     36.379  0.0000E+00  0.8035E+02
     36.688  0.4384E-12  0.8119E+02
     36.997  0.1079E+01  0.8263E+02
     37.306  0.0000E+00  0.8330E+02
     37.615  0.0000E+00  0.8374E+02
     37.924  0.0000E+00  0.8463E+02
     38.233  0.7193E+00  0.8549E+02
     38.542  0.0000E+00  0.8601E+02
     38.851  0.0000E+00  0.8619E+02
     39.160  0.0000E+00  0.8693E+02
     39.468  0.4620E+00  0.8801E+02
     39.777  0.0000E+00  0.8880E+02
     40.086  0.1689E+00  0.8963E+02
     40.395  0.0000E+00  0.9013E+02
     40.704  0.0000E+00  0.9111E+02
     41.013  0.1797E+00  0.9169E+02
     41.322  0.1753E-02  0.9271E+02
     41.631  0.0000E+00  0.9364E+02
     41.940  0.1199E+00  0.9495E+02
     42.249  0.0000E+00  0.9551E+02
     42.558  0.0000E+00  0.9626E+02
     42.867  0.0000E+00  0.9735E+02
     43.176  0.5995E-01  0.9808E+02
     43.484  0.0000E+00  0.9856E+02
     43.793  0.0000E+00  0.9951E+02
     44.102  0.0000E+00  0.1002E+03
     44.411  0.0000E+00  0.1010E+03
     44.720  0.0000E+00  0.1018E+03
     45.029  0.0000E+00  0.1026E+03
     45.338  0.0000E+00  0.1037E+03
     45.647  0.0000E+00  0.1048E+03
     45.956  0.0000E+00  0.1056E+03
     46.265  0.0000E+00  0.1063E+03
     46.574  0.0000E+00  0.1076E+03
     46.883  0.1499E+00  0.1082E+03
     47.192  0.7943E+00  0.1095E+03
     47.500  0.2398E-14  0.1101E+03
     47.809  0.0000E+00  0.1113E+03
     48.118  0.0000E+00  0.1116E+03
     48.427  0.4626E-01  0.1127E+03
     48.736  0.0000E+00  0.1133E+03
     49.045  0.0000E+00  0.1142E+03
     49.354  0.0000E+00  0.1151E+03
     49.663  0.0000E+00  0.1161E+03
     49.972  0.1798E+00  0.1171E+03
     50.281  0.0000E+00  0.1177E+03
     50.590  0.0000E+00  0.1189E+03
     50.899  0.0000E+00  0.1193E+03
     51.208  0.0000E+00  0.1206E+03
     51.516  0.0000E+00  0.1219E+03
     51.825  0.0000E+00  0.1230E+03
     52.134  0.0000E+00  0.1243E+03
     52.443  0.0000E+00  0.1250E+03
     52.752  0.0000E+00  0.1261E+03
     53.061  0.0000E+00  0.1264E+03
     53.370  0.5172E-01  0.1270E+03
     53.679  0.0000E+00  0.1273E+03
     53.988  0.0000E+00  0.1280E+03
     54.297  0.0000E+00  0.1280E+03
     54.606  0.0000E+00  0.1280E+03
     54.915  0.0000E+00  0.1280E+03
     55.224  0.0000E+00  0.1280E+03
     55.532  0.0000E+00  0.1280E+03
     55.841  0.0000E+00  0.1280E+03
     56.150  0.0000E+00  0.1280E+03
     56.459  0.0000E+00  0.1280E+03
     56.768  0.0000E+00  0.1280E+03
     57.077  0.0000E+00  0.1280E+03
     57.386  0.0000E+00  0.1280E+03
     57.695  0.0000E+00  0.1280E+03
     58.004  0.0000E+00  0.1280E+03
