       N       E                     dE             d eps       ncg     rms          rms(c)
DIA:   1    -0.132640818471E+02   -0.13264E+02    0.00000E+00     0   0.000E+00
DIA:   2    -0.132640818470E+02    0.31378E-10    0.00000E+00     0   0.000E+00
DIA:   3    -0.132640818470E+02   -0.95497E-11    0.00000E+00     0   0.000E+00
DIA:   4    -0.132640818470E+02    0.22737E-11    0.00000E+00     0   0.000E+00
DIA:   5    -0.132640818470E+02   -0.68212E-11    0.00000E+00     0   0.000E+00    0.120E-04
DIA:   6    -0.132640818633E+02   -0.16259E-07    0.00000E+00     0   0.000E+00    0.197E-04
DIA:   7    -0.132640818389E+02    0.24409E-07    0.00000E+00     0   0.000E+00    0.300E-05
DIA:   8    -0.132640818385E+02    0.44474E-09    0.00000E+00     0   0.000E+00
   1 F= 0.63070616E+96 E0= 0.63070616E+96  d E =-.139042E-07  mag=     0.0018    -0.0006    -0.0004
 imaginary and real dielectric function
