<?xml version="1.0" encoding="ISO-8859-1"?>
<modeling>
 <generator>
  <i name="program" type="string">vasp </i>
  <i name="version" type="string">5.4.4.18Apr17-6-g9f103f2a35  </i>
  <i name="subversion" type="string">(build Jul 09 2018 16:43:14) complex            parallel </i>
  <i name="platform" type="string">LinuxIFC </i>
  <i name="date" type="string">2018 11 27 </i>
  <i name="time" type="string">21:35:46 </i>
 </generator>
 <incar>
  <i type="string" name="SYSTEM">   Og_FCC</i>
  <i type="string" name="PREC">accurate</i>
  <i type="string" name="ALGO">   EXACT</i>
  <i type="logical" name="ADDGRID"> T  </i>
  <i type="logical" name="LSORBIT"> T  </i>
  <i type="int" name="ISPIN">     1</i>
  <i type="int" name="MAXMIX">    50</i>
  <i type="int" name="NELM">    50</i>
  <i type="int" name="NELMDL">    -5</i>
  <i type="int" name="NELMIN">     2</i>
  <i type="int" name="IBRION">    -1</i>
  <i type="int" name="NFREE">     5</i>
  <i name="EDIFF">      0.00000001</i>
  <i name="EDIFFG">      0.00001000</i>
  <i type="int" name="NSW">     1</i>
  <i type="int" name="ISIF">     3</i>
  <i type="int" name="ISYM">     0</i>
  <i name="SYMPREC">      0.00000010</i>
  <i name="ENCUT">    400.00000000</i>
  <i type="int" name="NBANDS">   128</i>
  <i name="POTIM">      0.10000000</i>
  <i type="logical" name="LREAL"> F  </i>
  <i type="int" name="ISMEAR">     0</i>
  <i name="SIGMA">      0.00100000</i>
  <i type="int" name="NWRITE">     2</i>
  <i type="logical" name="LWAVE"> T  </i>
  <i type="logical" name="LCHARG"> F  </i>
  <i type="logical" name="LVTOT"> F  </i>
  <i type="logical" name="LOPTICS"> T  </i>
  <i type="logical" name="GGA_COMPAT"> F  </i>
  <v type="int" name="KPOINT_BSE">    -1     0     0     0</v>
  <i type="int" name="NELM">    50</i>
  <i type="string" name="GGA"> PE</i>
 </incar>
 <structure name="primitive_cell" >
  <crystal>
   <varray name="basis" >
    <v>       4.34234588       0.00000000       0.00000000 </v>
    <v>       2.17117294       3.76058184      -0.00000000 </v>
    <v>       2.17117294       1.25352728       3.54551056 </v>
   </varray>
   <i name="volume">     57.89729060 </i>
   <varray name="rec_basis" >
    <v>       0.23029027      -0.13295815      -0.09401561 </v>
    <v>       0.00000000       0.26591630      -0.09401561 </v>
    <v>      -0.00000000       0.00000000       0.28204683 </v>
   </varray>
  </crystal>
  <varray name="positions" >
   <v>       0.00000000       0.00000000       0.00000000 </v>
  </varray>
 </structure>
 <varray name="primitive_index" >
  <v type="int" >        1 </v>
 </varray>
 <kpoints>
  <generation param="Gamma">
   <v type="int" name="divisions">       6        6        6 </v>
   <v name="usershift">      0.00000000       0.00000000       0.00000000 </v>
   <v name="genvec1">      0.16666667       0.00000000       0.00000000 </v>
   <v name="genvec2">     -0.00000000       0.16666667      -0.00000000 </v>
   <v name="genvec3">      0.00000000      -0.00000000       0.16666667 </v>
   <v name="shift">      0.00000000       0.00000000       0.00000000 </v>
  </generation>
  <varray name="kpointlist" >
   <v>       0.00000000       0.00000000       0.00000000 </v>
   <v>       0.16666667       0.00000000       0.00000000 </v>
   <v>       0.33333333       0.00000000       0.00000000 </v>
   <v>       0.50000000       0.00000000       0.00000000 </v>
   <v>      -0.33333333      -0.00000000       0.00000000 </v>
   <v>      -0.16666667      -0.00000000      -0.00000000 </v>
   <v>      -0.00000000       0.16666667      -0.00000000 </v>
   <v>       0.16666667       0.16666667       0.00000000 </v>
   <v>       0.33333333       0.16666667      -0.00000000 </v>
   <v>       0.50000000       0.16666667       0.00000000 </v>
   <v>      -0.33333333       0.16666667      -0.00000000 </v>
   <v>      -0.16666667       0.16666667      -0.00000000 </v>
   <v>       0.00000000       0.33333333      -0.00000000 </v>
   <v>       0.16666667       0.33333333       0.00000000 </v>
   <v>       0.33333333       0.33333333       0.00000000 </v>
   <v>       0.50000000       0.33333333       0.00000000 </v>
   <v>      -0.33333333       0.33333333      -0.00000000 </v>
   <v>      -0.16666667       0.33333333      -0.00000000 </v>
   <v>       0.00000000       0.50000000      -0.00000000 </v>
   <v>       0.16666667       0.50000000       0.00000000 </v>
   <v>       0.33333333       0.50000000       0.00000000 </v>
   <v>       0.50000000       0.50000000       0.00000000 </v>
   <v>      -0.33333333       0.50000000      -0.00000000 </v>
   <v>      -0.16666667       0.50000000      -0.00000000 </v>
   <v>      -0.00000000      -0.33333333       0.00000000 </v>
   <v>       0.16666667      -0.33333333       0.00000000 </v>
   <v>       0.33333333      -0.33333333       0.00000000 </v>
   <v>       0.50000000      -0.33333333       0.00000000 </v>
   <v>      -0.33333333      -0.33333333      -0.00000000 </v>
   <v>      -0.16666667      -0.33333333       0.00000000 </v>
   <v>       0.00000000      -0.16666667       0.00000000 </v>
   <v>       0.16666667      -0.16666667       0.00000000 </v>
   <v>       0.33333333      -0.16666667       0.00000000 </v>
   <v>       0.50000000      -0.16666667       0.00000000 </v>
   <v>      -0.33333333      -0.16666667       0.00000000 </v>
   <v>      -0.16666667      -0.16666667       0.00000000 </v>
   <v>       0.00000000       0.00000000       0.16666667 </v>
   <v>       0.16666667       0.00000000       0.16666667 </v>
   <v>       0.33333333      -0.00000000       0.16666667 </v>
   <v>       0.50000000      -0.00000000       0.16666667 </v>
   <v>      -0.33333333      -0.00000000       0.16666667 </v>
   <v>      -0.16666667       0.00000000       0.16666667 </v>
   <v>      -0.00000000       0.16666667       0.16666667 </v>
   <v>       0.16666667       0.16666667       0.16666667 </v>
   <v>       0.33333333       0.16666667       0.16666667 </v>
   <v>       0.50000000       0.16666667       0.16666667 </v>
   <v>      -0.33333333       0.16666667       0.16666667 </v>
   <v>      -0.16666667       0.16666667       0.16666667 </v>
   <v>      -0.00000000       0.33333333       0.16666667 </v>
   <v>       0.16666667       0.33333333       0.16666667 </v>
   <v>       0.33333333       0.33333333       0.16666667 </v>
   <v>       0.50000000       0.33333333       0.16666667 </v>
   <v>      -0.33333333       0.33333333       0.16666667 </v>
   <v>      -0.16666667       0.33333333       0.16666667 </v>
   <v>      -0.00000000       0.50000000       0.16666667 </v>
   <v>       0.16666667       0.50000000       0.16666667 </v>
   <v>       0.33333333       0.50000000       0.16666667 </v>
   <v>       0.50000000       0.50000000       0.16666667 </v>
   <v>      -0.33333333       0.50000000       0.16666667 </v>
   <v>      -0.16666667       0.50000000       0.16666667 </v>
   <v>      -0.00000000      -0.33333333       0.16666667 </v>
   <v>       0.16666667      -0.33333333       0.16666667 </v>
   <v>       0.33333333      -0.33333333       0.16666667 </v>
   <v>       0.50000000      -0.33333333       0.16666667 </v>
   <v>      -0.33333333      -0.33333333       0.16666667 </v>
   <v>      -0.16666667      -0.33333333       0.16666667 </v>
   <v>       0.00000000      -0.16666667       0.16666667 </v>
   <v>       0.16666667      -0.16666667       0.16666667 </v>
   <v>       0.33333333      -0.16666667       0.16666667 </v>
   <v>       0.50000000      -0.16666667       0.16666667 </v>
   <v>      -0.33333333      -0.16666667       0.16666667 </v>
   <v>      -0.16666667      -0.16666667       0.16666667 </v>
   <v>       0.00000000       0.00000000       0.33333333 </v>
   <v>       0.16666667       0.00000000       0.33333333 </v>
   <v>       0.33333333       0.00000000       0.33333333 </v>
   <v>       0.50000000      -0.00000000       0.33333333 </v>
   <v>      -0.33333333       0.00000000       0.33333333 </v>
   <v>      -0.16666667       0.00000000       0.33333333 </v>
   <v>      -0.00000000       0.16666667       0.33333333 </v>
   <v>       0.16666667       0.16666667       0.33333333 </v>
   <v>       0.33333333       0.16666667       0.33333333 </v>
   <v>       0.50000000       0.16666667       0.33333333 </v>
   <v>      -0.33333333       0.16666667       0.33333333 </v>
   <v>      -0.16666667       0.16666667       0.33333333 </v>
   <v>      -0.00000000       0.33333333       0.33333333 </v>
   <v>       0.16666667       0.33333333       0.33333333 </v>
   <v>       0.33333333       0.33333333       0.33333333 </v>
   <v>       0.50000000       0.33333333       0.33333333 </v>
   <v>      -0.33333333       0.33333333       0.33333333 </v>
   <v>      -0.16666667       0.33333333       0.33333333 </v>
   <v>       0.00000000       0.50000000       0.33333333 </v>
   <v>       0.16666667       0.50000000       0.33333333 </v>
   <v>       0.33333333       0.50000000       0.33333333 </v>
   <v>       0.50000000       0.50000000       0.33333333 </v>
   <v>      -0.33333333       0.50000000       0.33333333 </v>
   <v>      -0.16666667       0.50000000       0.33333333 </v>
   <v>       0.00000000      -0.33333333       0.33333333 </v>
   <v>       0.16666667      -0.33333333       0.33333333 </v>
   <v>       0.33333333      -0.33333333       0.33333333 </v>
   <v>       0.50000000      -0.33333333       0.33333333 </v>
   <v>      -0.33333333      -0.33333333       0.33333333 </v>
   <v>      -0.16666667      -0.33333333       0.33333333 </v>
   <v>       0.00000000      -0.16666667       0.33333333 </v>
   <v>       0.16666667      -0.16666667       0.33333333 </v>
   <v>       0.33333333      -0.16666667       0.33333333 </v>
   <v>       0.50000000      -0.16666667       0.33333333 </v>
   <v>      -0.33333333      -0.16666667       0.33333333 </v>
   <v>      -0.16666667      -0.16666667       0.33333333 </v>
   <v>       0.00000000       0.00000000       0.50000000 </v>
   <v>       0.16666667       0.00000000       0.50000000 </v>
   <v>       0.33333333       0.00000000       0.50000000 </v>
   <v>       0.50000000      -0.00000000       0.50000000 </v>
   <v>      -0.33333333       0.00000000       0.50000000 </v>
   <v>      -0.16666667       0.00000000       0.50000000 </v>
   <v>      -0.00000000       0.16666667       0.50000000 </v>
   <v>       0.16666667       0.16666667       0.50000000 </v>
   <v>       0.33333333       0.16666667       0.50000000 </v>
   <v>       0.50000000       0.16666667       0.50000000 </v>
   <v>      -0.33333333       0.16666667       0.50000000 </v>
   <v>      -0.16666667       0.16666667       0.50000000 </v>
   <v>       0.00000000       0.33333333       0.50000000 </v>
   <v>       0.16666667       0.33333333       0.50000000 </v>
   <v>       0.33333333       0.33333333       0.50000000 </v>
   <v>       0.50000000       0.33333333       0.50000000 </v>
   <v>      -0.33333333       0.33333333       0.50000000 </v>
   <v>      -0.16666667       0.33333333       0.50000000 </v>
   <v>      -0.00000000       0.50000000       0.50000000 </v>
   <v>       0.16666667       0.50000000       0.50000000 </v>
   <v>       0.33333333       0.50000000       0.50000000 </v>
   <v>       0.50000000       0.50000000       0.50000000 </v>
   <v>      -0.33333333       0.50000000       0.50000000 </v>
   <v>      -0.16666667       0.50000000       0.50000000 </v>
   <v>       0.00000000      -0.33333333       0.50000000 </v>
   <v>       0.16666667      -0.33333333       0.50000000 </v>
   <v>       0.33333333      -0.33333333       0.50000000 </v>
   <v>       0.50000000      -0.33333333       0.50000000 </v>
   <v>      -0.33333333      -0.33333333       0.50000000 </v>
   <v>      -0.16666667      -0.33333333       0.50000000 </v>
   <v>       0.00000000      -0.16666667       0.50000000 </v>
   <v>       0.16666667      -0.16666667       0.50000000 </v>
   <v>       0.33333333      -0.16666667       0.50000000 </v>
   <v>       0.50000000      -0.16666667       0.50000000 </v>
   <v>      -0.33333333      -0.16666667       0.50000000 </v>
   <v>      -0.16666667      -0.16666667       0.50000000 </v>
   <v>       0.00000000       0.00000000      -0.33333333 </v>
   <v>       0.16666667      -0.00000000      -0.33333333 </v>
   <v>       0.33333333      -0.00000000      -0.33333333 </v>
   <v>       0.50000000       0.00000000      -0.33333333 </v>
   <v>      -0.33333333      -0.00000000      -0.33333333 </v>
   <v>      -0.16666667      -0.00000000      -0.33333333 </v>
   <v>      -0.00000000       0.16666667      -0.33333333 </v>
   <v>       0.16666667       0.16666667      -0.33333333 </v>
   <v>       0.33333333       0.16666667      -0.33333333 </v>
   <v>       0.50000000       0.16666667      -0.33333333 </v>
   <v>      -0.33333333       0.16666667      -0.33333333 </v>
   <v>      -0.16666667       0.16666667      -0.33333333 </v>
   <v>       0.00000000       0.33333333      -0.33333333 </v>
   <v>       0.16666667       0.33333333      -0.33333333 </v>
   <v>       0.33333333       0.33333333      -0.33333333 </v>
   <v>       0.50000000       0.33333333      -0.33333333 </v>
   <v>      -0.33333333       0.33333333      -0.33333333 </v>
   <v>      -0.16666667       0.33333333      -0.33333333 </v>
   <v>      -0.00000000       0.50000000      -0.33333333 </v>
   <v>       0.16666667       0.50000000      -0.33333333 </v>
   <v>       0.33333333       0.50000000      -0.33333333 </v>
   <v>       0.50000000       0.50000000      -0.33333333 </v>
   <v>      -0.33333333       0.50000000      -0.33333333 </v>
   <v>      -0.16666667       0.50000000      -0.33333333 </v>
   <v>       0.00000000      -0.33333333      -0.33333333 </v>
   <v>       0.16666667      -0.33333333      -0.33333333 </v>
   <v>       0.33333333      -0.33333333      -0.33333333 </v>
   <v>       0.50000000      -0.33333333      -0.33333333 </v>
   <v>      -0.33333333      -0.33333333      -0.33333333 </v>
   <v>      -0.16666667      -0.33333333      -0.33333333 </v>
   <v>       0.00000000      -0.16666667      -0.33333333 </v>
   <v>       0.16666667      -0.16666667      -0.33333333 </v>
   <v>       0.33333333      -0.16666667      -0.33333333 </v>
   <v>       0.50000000      -0.16666667      -0.33333333 </v>
   <v>      -0.33333333      -0.16666667      -0.33333333 </v>
   <v>      -0.16666667      -0.16666667      -0.33333333 </v>
   <v>      -0.00000000      -0.00000000      -0.16666667 </v>
   <v>       0.16666667      -0.00000000      -0.16666667 </v>
   <v>       0.33333333       0.00000000      -0.16666667 </v>
   <v>       0.50000000       0.00000000      -0.16666667 </v>
   <v>      -0.33333333       0.00000000      -0.16666667 </v>
   <v>      -0.16666667      -0.00000000      -0.16666667 </v>
   <v>      -0.00000000       0.16666667      -0.16666667 </v>
   <v>       0.16666667       0.16666667      -0.16666667 </v>
   <v>       0.33333333       0.16666667      -0.16666667 </v>
   <v>       0.50000000       0.16666667      -0.16666667 </v>
   <v>      -0.33333333       0.16666667      -0.16666667 </v>
   <v>      -0.16666667       0.16666667      -0.16666667 </v>
   <v>       0.00000000       0.33333333      -0.16666667 </v>
   <v>       0.16666667       0.33333333      -0.16666667 </v>
   <v>       0.33333333       0.33333333      -0.16666667 </v>
   <v>       0.50000000       0.33333333      -0.16666667 </v>
   <v>      -0.33333333       0.33333333      -0.16666667 </v>
   <v>      -0.16666667       0.33333333      -0.16666667 </v>
   <v>      -0.00000000       0.50000000      -0.16666667 </v>
   <v>       0.16666667       0.50000000      -0.16666667 </v>
   <v>       0.33333333       0.50000000      -0.16666667 </v>
   <v>       0.50000000       0.50000000      -0.16666667 </v>
   <v>      -0.33333333       0.50000000      -0.16666667 </v>
   <v>      -0.16666667       0.50000000      -0.16666667 </v>
   <v>       0.00000000      -0.33333333      -0.16666667 </v>
   <v>       0.16666667      -0.33333333      -0.16666667 </v>
   <v>       0.33333333      -0.33333333      -0.16666667 </v>
   <v>       0.50000000      -0.33333333      -0.16666667 </v>
   <v>      -0.33333333      -0.33333333      -0.16666667 </v>
   <v>      -0.16666667      -0.33333333      -0.16666667 </v>
   <v>       0.00000000      -0.16666667      -0.16666667 </v>
   <v>       0.16666667      -0.16666667      -0.16666667 </v>
   <v>       0.33333333      -0.16666667      -0.16666667 </v>
   <v>       0.50000000      -0.16666667      -0.16666667 </v>
   <v>      -0.33333333      -0.16666667      -0.16666667 </v>
   <v>      -0.16666667      -0.16666667      -0.16666667 </v>
  </varray>
  <varray name="weights" >
   <v>       0.00462963 </v>
   <v>       0.00462963 </v>
   <v>       0.00462963 </v>
   <v>       0.00462963 </v>
   <v>       0.00462963 </v>
   <v>       0.00462963 </v>
   <v>       0.00462963 </v>
   <v>       0.00462963 </v>
   <v>       0.00462963 </v>
   <v>       0.00462963 </v>
   <v>       0.00462963 </v>
   <v>       0.00462963 </v>
   <v>       0.00462963 </v>
   <v>       0.00462963 </v>
   <v>       0.00462963 </v>
   <v>       0.00462963 </v>
   <v>       0.00462963 </v>
   <v>       0.00462963 </v>
   <v>       0.00462963 </v>
   <v>       0.00462963 </v>
   <v>       0.00462963 </v>
   <v>       0.00462963 </v>
   <v>       0.00462963 </v>
   <v>       0.00462963 </v>
   <v>       0.00462963 </v>
   <v>       0.00462963 </v>
   <v>       0.00462963 </v>
   <v>       0.00462963 </v>
   <v>       0.00462963 </v>
   <v>       0.00462963 </v>
   <v>       0.00462963 </v>
   <v>       0.00462963 </v>
   <v>       0.00462963 </v>
   <v>       0.00462963 </v>
   <v>       0.00462963 </v>
   <v>       0.00462963 </v>
   <v>       0.00462963 </v>
   <v>       0.00462963 </v>
   <v>       0.00462963 </v>
   <v>       0.00462963 </v>
   <v>       0.00462963 </v>
   <v>       0.00462963 </v>
   <v>       0.00462963 </v>
   <v>       0.00462963 </v>
   <v>       0.00462963 </v>
   <v>       0.00462963 </v>
   <v>       0.00462963 </v>
   <v>       0.00462963 </v>
   <v>       0.00462963 </v>
   <v>       0.00462963 </v>
   <v>       0.00462963 </v>
   <v>       0.00462963 </v>
   <v>       0.00462963 </v>
   <v>       0.00462963 </v>
   <v>       0.00462963 </v>
   <v>       0.00462963 </v>
   <v>       0.00462963 </v>
   <v>       0.00462963 </v>
   <v>       0.00462963 </v>
   <v>       0.00462963 </v>
   <v>       0.00462963 </v>
   <v>       0.00462963 </v>
   <v>       0.00462963 </v>
   <v>       0.00462963 </v>
   <v>       0.00462963 </v>
   <v>       0.00462963 </v>
   <v>       0.00462963 </v>
   <v>       0.00462963 </v>
   <v>       0.00462963 </v>
   <v>       0.00462963 </v>
   <v>       0.00462963 </v>
   <v>       0.00462963 </v>
   <v>       0.00462963 </v>
   <v>       0.00462963 </v>
   <v>       0.00462963 </v>
   <v>       0.00462963 </v>
   <v>       0.00462963 </v>
   <v>       0.00462963 </v>
   <v>       0.00462963 </v>
   <v>       0.00462963 </v>
   <v>       0.00462963 </v>
   <v>       0.00462963 </v>
   <v>       0.00462963 </v>
   <v>       0.00462963 </v>
   <v>       0.00462963 </v>
   <v>       0.00462963 </v>
   <v>       0.00462963 </v>
   <v>       0.00462963 </v>
   <v>       0.00462963 </v>
   <v>       0.00462963 </v>
   <v>       0.00462963 </v>
   <v>       0.00462963 </v>
   <v>       0.00462963 </v>
   <v>       0.00462963 </v>
   <v>       0.00462963 </v>
   <v>       0.00462963 </v>
   <v>       0.00462963 </v>
   <v>       0.00462963 </v>
   <v>       0.00462963 </v>
   <v>       0.00462963 </v>
   <v>       0.00462963 </v>
   <v>       0.00462963 </v>
   <v>       0.00462963 </v>
   <v>       0.00462963 </v>
   <v>       0.00462963 </v>
   <v>       0.00462963 </v>
   <v>       0.00462963 </v>
   <v>       0.00462963 </v>
   <v>       0.00462963 </v>
   <v>       0.00462963 </v>
   <v>       0.00462963 </v>
   <v>       0.00462963 </v>
   <v>       0.00462963 </v>
   <v>       0.00462963 </v>
   <v>       0.00462963 </v>
   <v>       0.00462963 </v>
   <v>       0.00462963 </v>
   <v>       0.00462963 </v>
   <v>       0.00462963 </v>
   <v>       0.00462963 </v>
   <v>       0.00462963 </v>
   <v>       0.00462963 </v>
   <v>       0.00462963 </v>
   <v>       0.00462963 </v>
   <v>       0.00462963 </v>
   <v>       0.00462963 </v>
   <v>       0.00462963 </v>
   <v>       0.00462963 </v>
   <v>       0.00462963 </v>
   <v>       0.00462963 </v>
   <v>       0.00462963 </v>
   <v>       0.00462963 </v>
   <v>       0.00462963 </v>
   <v>       0.00462963 </v>
   <v>       0.00462963 </v>
   <v>       0.00462963 </v>
   <v>       0.00462963 </v>
   <v>       0.00462963 </v>
   <v>       0.00462963 </v>
   <v>       0.00462963 </v>
   <v>       0.00462963 </v>
   <v>       0.00462963 </v>
   <v>       0.00462963 </v>
   <v>       0.00462963 </v>
   <v>       0.00462963 </v>
   <v>       0.00462963 </v>
   <v>       0.00462963 </v>
   <v>       0.00462963 </v>
   <v>       0.00462963 </v>
   <v>       0.00462963 </v>
   <v>       0.00462963 </v>
   <v>       0.00462963 </v>
   <v>       0.00462963 </v>
   <v>       0.00462963 </v>
   <v>       0.00462963 </v>
   <v>       0.00462963 </v>
   <v>       0.00462963 </v>
   <v>       0.00462963 </v>
   <v>       0.00462963 </v>
   <v>       0.00462963 </v>
   <v>       0.00462963 </v>
   <v>       0.00462963 </v>
   <v>       0.00462963 </v>
   <v>       0.00462963 </v>
   <v>       0.00462963 </v>
   <v>       0.00462963 </v>
   <v>       0.00462963 </v>
   <v>       0.00462963 </v>
   <v>       0.00462963 </v>
   <v>       0.00462963 </v>
   <v>       0.00462963 </v>
   <v>       0.00462963 </v>
   <v>       0.00462963 </v>
   <v>       0.00462963 </v>
   <v>       0.00462963 </v>
   <v>       0.00462963 </v>
   <v>       0.00462963 </v>
   <v>       0.00462963 </v>
   <v>       0.00462963 </v>
   <v>       0.00462963 </v>
   <v>       0.00462963 </v>
   <v>       0.00462963 </v>
   <v>       0.00462963 </v>
   <v>       0.00462963 </v>
   <v>       0.00462963 </v>
   <v>       0.00462963 </v>
   <v>       0.00462963 </v>
   <v>       0.00462963 </v>
   <v>       0.00462963 </v>
   <v>       0.00462963 </v>
   <v>       0.00462963 </v>
   <v>       0.00462963 </v>
   <v>       0.00462963 </v>
   <v>       0.00462963 </v>
   <v>       0.00462963 </v>
   <v>       0.00462963 </v>
   <v>       0.00462963 </v>
   <v>       0.00462963 </v>
   <v>       0.00462963 </v>
   <v>       0.00462963 </v>
   <v>       0.00462963 </v>
   <v>       0.00462963 </v>
   <v>       0.00462963 </v>
   <v>       0.00462963 </v>
   <v>       0.00462963 </v>
   <v>       0.00462963 </v>
   <v>       0.00462963 </v>
   <v>       0.00462963 </v>
   <v>       0.00462963 </v>
   <v>       0.00462963 </v>
   <v>       0.00462963 </v>
   <v>       0.00462963 </v>
   <v>       0.00462963 </v>
   <v>       0.00462963 </v>
   <v>       0.00462963 </v>
   <v>       0.00462963 </v>
  </varray>
 </kpoints>
 <parameters>
  <separator name="general" >
   <i type="string" name="SYSTEM">Og_FCC</i>
   <i type="logical" name="LCOMPAT"> F  </i>
  </separator>
  <separator name="electronic" >
   <i type="string" name="PREC">accura</i>
   <i name="ENMAX">    400.00000000</i>
   <i name="ENAUG">    361.02500000</i>
   <i name="EDIFF">      0.00000001</i>
   <i type="int" name="IALGO">    90</i>
   <i type="int" name="IWAVPR">    10</i>
   <i type="int" name="NBANDS">   128</i>
   <i name="NELECT">     18.00000000</i>
   <i type="int" name="TURBO">     0</i>
   <i type="int" name="IRESTART">     0</i>
   <i type="int" name="NREBOOT">     0</i>
   <i type="int" name="NMIN">     0</i>
   <i name="EREF">      0.00000000</i>
   <separator name="electronic smearing" >
    <i type="int" name="ISMEAR">     0</i>
    <i name="SIGMA">      0.00100000</i>
    <i name="KSPACING">      0.50000000</i>
    <i type="logical" name="KGAMMA"> T  </i>
   </separator>
   <separator name="electronic projectors" >
    <i type="logical" name="LREAL"> F  </i>
    <v name="ROPT">      0.00000000</v>
    <i type="int" name="LMAXPAW">  -100</i>
    <i type="int" name="LMAXMIX">     2</i>
    <i type="logical" name="NLSPLINE"> F  </i>
   </separator>
   <separator name="electronic startup" >
    <i type="int" name="ISTART">     1</i>
    <i type="int" name="ICHARG">     0</i>
    <i type="int" name="INIWAV">     1</i>
   </separator>
   <separator name="electronic spin" >
    <i type="int" name="ISPIN">     1</i>
    <i type="logical" name="LNONCOLLINEAR"> T  </i>
    <v name="MAGMOM">      1.00000000      1.00000000      1.00000000</v>
    <i name="NUPDOWN">     -1.00000000</i>
    <i type="logical" name="LSORBIT"> T  </i>
    <v name="SAXIS">      0.00000000      0.00000000      1.00000000</v>
    <i type="logical" name="LSPIRAL"> F  </i>
    <v name="QSPIRAL">      0.00000000      0.00000000      0.00000000</v>
    <i type="logical" name="LZEROZ"> F  </i>
   </separator>
   <separator name="electronic exchange-correlation" >
    <i type="logical" name="LASPH"> F  </i>
    <i type="logical" name="LMETAGGA"> F  </i>
   </separator>
   <separator name="electronic convergence" >
    <i type="int" name="NELM">    50</i>
    <i type="int" name="NELMDL">    -5</i>
    <i type="int" name="NELMIN">     2</i>
    <i name="ENINI">    400.00000000</i>
    <separator name="electronic convergence detail" >
     <i type="logical" name="LDIAG"> T  </i>
     <i type="logical" name="LSUBROT"> F  </i>
     <i name="WEIMIN">      0.00000000</i>
     <i name="EBREAK">      0.00000000</i>
     <i name="DEPER">      0.30000000</i>
     <i type="int" name="NRMM">     4</i>
     <i name="TIME">      0.40000000</i>
    </separator>
   </separator>
   <separator name="electronic mixer" >
    <i name="AMIX">      0.40000000</i>
    <i name="BMIX">      1.00000000</i>
    <i name="AMIN">      0.10000000</i>
    <i name="AMIX_MAG">      1.60000000</i>
    <i name="BMIX_MAG">      1.00000000</i>
    <separator name="electronic mixer details" >
     <i type="int" name="IMIX">     4</i>
     <i type="logical" name="MIXFIRST"> F  </i>
     <i type="int" name="MAXMIX">    50</i>
     <i name="WC">    100.00000000</i>
     <i type="int" name="INIMIX">     1</i>
     <i type="int" name="MIXPRE">     1</i>
     <i type="int" name="MREMOVE">     5</i>
    </separator>
   </separator>
   <separator name="electronic dipolcorrection" >
    <i type="logical" name="LDIPOL"> F  </i>
    <i type="logical" name="LMONO"> F  </i>
    <i type="int" name="IDIPOL">     0</i>
    <i name="EPSILON">      1.00000000</i>
    <v name="DIPOL">   -100.00000000   -100.00000000   -100.00000000</v>
    <i name="EFIELD">      0.00000000</i>
   </separator>
  </separator>
  <separator name="grids" >
   <i type="int" name="NGX">    28</i>
   <i type="int" name="NGY">    28</i>
   <i type="int" name="NGZ">    28</i>
   <i type="int" name="NGXF">    56</i>
   <i type="int" name="NGYF">    56</i>
   <i type="int" name="NGZF">    56</i>
   <i type="logical" name="ADDGRID"> T  </i>
  </separator>
  <separator name="ionic" >
   <i type="int" name="NSW">     1</i>
   <i type="int" name="IBRION">    -1</i>
   <i type="int" name="MDALGO">     0</i>
   <i type="int" name="ISIF">     3</i>
   <i name="PSTRESS">      0.00000000</i>
   <i name="EDIFFG">      0.00001000</i>
   <i type="int" name="NFREE">     5</i>
   <i name="POTIM">      0.10000000</i>
   <i name="SMASS">     -3.00000000</i>
   <i name="SCALEE">      1.00000000</i>
  </separator>
  <separator name="ionic md" >
   <i name="TEBEG">      0.00010000</i>
   <i name="TEEND">      0.00010000</i>
   <i type="int" name="NBLOCK">     1</i>
   <i type="int" name="KBLOCK">     1</i>
   <i type="int" name="NPACO">   256</i>
   <i name="APACO">     16.00000000</i>
  </separator>
  <separator name="symmetry" >
   <i type="int" name="ISYM">     0</i>
   <i name="SYMPREC">      0.00000010</i>
  </separator>
  <separator name="dos" >
   <i type="int" name="LORBIT">     0</i>
   <v name="RWIGS">     -1.00000000</v>
   <i type="int" name="NEDOS">   301</i>
   <i name="EMIN">     10.00000000</i>
   <i name="EMAX">    -10.00000000</i>
   <i name="EFERMI">      0.00000000</i>
  </separator>
  <separator name="writing" >
   <i type="int" name="NWRITE">     2</i>
   <i type="logical" name="LWAVE"> T  </i>
   <i type="logical" name="LDOWNSAMPLE"> F  </i>
   <i type="logical" name="LCHARG"> F  </i>
   <i type="logical" name="LPARD"> F  </i>
   <i type="logical" name="LVTOT"> F  </i>
   <i type="logical" name="LVHAR"> F  </i>
   <i type="logical" name="LELF"> F  </i>
   <i type="logical" name="LOPTICS"> T  </i>
   <v name="STM">      0.00000000      0.00000000      0.00000000      0.00000000      0.00000000      0.00000000      0.00000000</v>
  </separator>
  <separator name="performance" >
   <i type="int" name="NPAR">     4</i>
   <i type="int" name="NSIM">     4</i>
   <i type="int" name="NBLK">    -1</i>
   <i type="logical" name="LPLANE"> T  </i>
   <i type="logical" name="LSCALAPACK"> T  </i>
   <i type="logical" name="LSCAAWARE"> T  </i>
   <i type="logical" name="LSCALU"> F  </i>
   <i type="logical" name="LASYNC"> F  </i>
   <i type="logical" name="LORBITALREAL"> F  </i>
  </separator>
  <separator name="miscellaneous" >
   <i type="int" name="IDIOT">     3</i>
   <i type="int" name="ISPECIAL">     0</i>
   <i type="logical" name="LMUSIC"> F  </i>
   <v name="POMASS">      0.01000000</v>
   <v name="DARWINR">      0.00000000</v>
   <v name="DARWINV">      1.00000000</v>
   <i type="logical" name="LCORR"> T  </i>
  </separator>
  <i type="logical" name="GGA_COMPAT"> F  </i>
  <i type="logical" name="LBERRY"> F  </i>
  <i type="int" name="ICORELEVEL">     0</i>
  <i type="logical" name="LDAU"> F  </i>
  <i type="int" name="I_CONSTRAINED_M">     0</i>
  <separator name="electronic exchange-correlation" >
   <i type="string" name="GGA">PE</i>
   <i type="int" name="VOSKOWN">     0</i>
   <i type="logical" name="LHFCALC"> F  </i>
   <i type="string" name="PRECFOCK"></i>
   <i type="logical" name="LSYMGRAD"> F  </i>
   <i type="logical" name="LHFONE"> F  </i>
   <i type="logical" name="LRHFCALC"> F  </i>
   <i type="logical" name="LTHOMAS"> F  </i>
   <i type="logical" name="LMODELHF"> F  </i>
   <i name="ENCUT4O">     -1.00000000</i>
   <i type="int" name="EXXOEP">     0</i>
   <i type="int" name="FOURORBIT">     0</i>
   <i name="AEXX">      0.00000000</i>
   <i name="HFALPHA">      0.00000000</i>
   <i name="MCALPHA">      0.00000000</i>
   <i name="ALDAX">      1.00000000</i>
   <i name="AGGAX">      1.00000000</i>
   <i name="ALDAC">      1.00000000</i>
   <i name="AGGAC">      1.00000000</i>
   <i type="int" name="NKREDX">     1</i>
   <i type="int" name="NKREDY">     1</i>
   <i type="int" name="NKREDZ">     1</i>
   <i type="logical" name="SHIFTRED"> F  </i>
   <i type="logical" name="ODDONLY"> F  </i>
   <i type="logical" name="EVENONLY"> F  </i>
   <i type="int" name="LMAXFOCK">     0</i>
   <i type="int" name="NMAXFOCKAE">     0</i>
   <i type="logical" name="LFOCKAEDFT"> F  </i>
   <i name="HFSCREEN">      0.00000000</i>
   <i name="HFSCREENC">      0.00000000</i>
   <i type="int" name="NBANDSGWLOW">     0</i>
  </separator>
  <separator name="vdW DFT" >
   <i type="logical" name="LUSE_VDW"> F  </i>
   <i name="Zab_VDW">     -0.84910000</i>
   <i name="PARAM1">      0.12340000</i>
   <i name="PARAM2">      1.00000000</i>
   <i name="PARAM3">      0.00000000</i>
  </separator>
  <separator name="model GW" >
   <i type="int" name="MODEL_GW">     0</i>
   <i name="MODEL_EPS0">     34.73837436</i>
   <i name="MODEL_ALPHA">      1.00000000</i>
  </separator>
  <separator name="linear response parameters" >
   <i type="logical" name="LEPSILON"> F  </i>
   <i type="logical" name="LRPA"> F  </i>
   <i type="logical" name="LNABLA"> F  </i>
   <i type="logical" name="LVEL"> F  </i>
   <i type="int" name="KINTER">     0</i>
   <i name="CSHIFT">      0.10000000</i>
   <i name="OMEGAMAX">     -1.00000000</i>
   <i name="DEG_THRESHOLD">      0.00200000</i>
   <i name="RTIME">     -0.10000000</i>
   <i name="WPLASMAI">      0.00000000</i>
   <v name="DFIELD">      0.00000000      0.00000000      0.00000000</v>
   <v name="WPLASMA">      0.00000000      0.00000000      0.00000000      0.00000000      0.00000000      0.00000000      0.00000000      0.00000000      0.00000000</v>
  </separator>
  <separator name="orbital magnetization" >
   <i type="logical" name="NUCIND"> F  </i>
   <v name="MAGPOS">      0.00000000      0.00000000      0.00000000</v>
   <i type="logical" name="LNICSALL"> T  </i>
   <i type="logical" name="ORBITALMAG"> F  </i>
   <i type="logical" name="LMAGBLOCH"> F  </i>
   <i type="logical" name="LCHIMAG"> F  </i>
   <i type="logical" name="LGAUGE"> T  </i>
   <i type="int" name="MAGATOM">     0</i>
   <v name="MAGDIPOL">      0.00000000      0.00000000      0.00000000</v>
   <v name="AVECCONST">      0.00000000      0.00000000      0.00000000</v>
  </separator>
  <separator name="response functions" >
   <i type="logical" name="LADDER"> F  </i>
   <i type="logical" name="LRPAFORCE"> F  </i>
   <i type="logical" name="LFXC"> F  </i>
   <i type="logical" name="LHARTREE"> T  </i>
   <i type="int" name="IBSE">     0</i>
   <v type="int" name="KPOINT">    -1     0     0     0</v>
   <i type="logical" name="LTCTE"> F  </i>
   <i type="logical" name="LTETE"> F  </i>
   <i type="logical" name="LTRIPLET"> F  </i>
   <i type="logical" name="LFXCEPS"> F  </i>
   <i type="logical" name="LFXHEG"> F  </i>
   <i type="int" name="NATURALO">     2</i>
   <i type="logical" name="L2ORDER"> F  </i>
   <i type="logical" name="LMP2LT"> F  </i>
   <i type="logical" name="LUSEW"> F  </i>
   <i name="ENCUTGW">     -2.00000000</i>
   <i name="ENCUTGWSOFT">     -2.00000000</i>
   <i name="ENCUTLF">     -1.00000000</i>
   <i type="int" name="LMAXMP2">    -1</i>
   <i name="SCISSOR">      0.00000000</i>
   <i type="int" name="NOMEGA">     0</i>
   <i type="int" name="NOMEGAR">     0</i>
   <i type="int" name="NBANDSGW">    -1</i>
   <i type="int" name="NBANDSO">    -1</i>
   <i type="int" name="NBANDSV">    -1</i>
   <i type="int" name="NELM">    50</i>
   <i type="int" name="NELMHF">     1</i>
   <i type="int" name="DIM">     3</i>
   <i type="int" name="ANTIRES">     0</i>
   <i name="OMEGAMAX">    -30.00000000</i>
   <i name="OMEGAMIN">    -30.00000000</i>
   <i name="OMEGATL">   -200.00000000</i>
   <i type="int" name="OMEGAGRID">   140</i>
   <i name="CSHIFT">     -0.10000000</i>
   <i type="logical" name="SELFENERGY"> F  </i>
   <i type="logical" name="LSPECTRAL"> F  </i>
   <i type="logical" name="LSPECTRALGW"> F  </i>
   <i type="logical" name="LSINGLES"> F  </i>
   <i type="logical" name="LFERMIGW"> F  </i>
   <i type="logical" name="ODDONLYGW"> F  </i>
   <i type="logical" name="EVENONLYGW"> F  </i>
   <i type="int" name="NKREDLFX">     1</i>
   <i type="int" name="NKREDLFY">     1</i>
   <i type="int" name="NKREDLFZ">     1</i>
   <i type="int" name="MAXMEM">  2800</i>
   <i type="int" name="TELESCOPE">     0</i>
   <i type="int" name="TAUPAR">     1</i>
   <i type="int" name="OMEGAPAR">    -1</i>
   <i name="LAMBDA">      1.00000000</i>
  </separator>
  <separator name="External order field" >
   <i name="OFIELD_KAPPA">      0.00000000</i>
   <v name="OFIELD_K">      0.00000000      0.00000000      0.00000000</v>
   <i name="OFIELD_Q6_NEAR">      0.00000000</i>
   <i name="OFIELD_Q6_FAR">      0.00000000</i>
   <i name="OFIELD_A">      0.00000000</i>
  </separator>
 </parameters>
 <atominfo>
  <atoms>       1 </atoms>
  <types>       1 </types>
  <array name="atoms" >
   <dimension dim="1">ion</dimension>
   <field type="string">element</field>
   <field type="int">atomtype</field>
   <set>
    <rc><c>Og</c><c>   1</c></rc>
   </set>
  </array>
  <array name="atomtypes" >
   <dimension dim="1">type</dimension>
   <field type="int">atomspertype</field>
   <field type="string">element</field>
   <field>mass</field>
   <field>valence</field>
   <field type="string">pseudopotential</field>
   <set>
    <rc><c>   1</c><c>Og</c><c>      0.01000000</c><c>     18.00000000</c><c>  PAW Og, JanMewes Oct 18               </c></rc>
   </set>
  </array>
 </atominfo>
 <structure name="initialpos" >
  <crystal>
   <varray name="basis" >
    <v>       4.34234588       0.00000000       0.00000000 </v>
    <v>       2.17117294       3.76058184      -0.00000000 </v>
    <v>       2.17117294       1.25352728       3.54551056 </v>
   </varray>
   <i name="volume">     57.89729060 </i>
   <varray name="rec_basis" >
    <v>       0.23029027      -0.13295815      -0.09401561 </v>
    <v>       0.00000000       0.26591630      -0.09401561 </v>
    <v>      -0.00000000       0.00000000       0.28204683 </v>
   </varray>
  </crystal>
  <varray name="positions" >
   <v>       0.00000000       0.00000000       0.00000000 </v>
  </varray>
  <varray name="velocities" >
   <v>       0.00000000       0.00000000       0.00000000 </v>
  </varray>
 </structure>
 <calculation>
  <scstep>
   <time name="diag">  340.73  340.76</time>
   <time name="total">  340.80  340.83</time>
   <energy>
    <i name="alphaZ">     65.89697999 </i>
    <i name="ewald">  -1741.63824267 </i>
    <i name="hartreedc">   -672.59596101 </i>
    <i name="XCdc">    -68.80825277 </i>
    <i name="pawpsdc">   2323.85210144 </i>
    <i name="pawaedc">  -2248.37161778 </i>
    <i name="eentropy">     -0.00000001 </i>
    <i name="bandstr">   -311.97490760 </i>
    <i name="atom">   2640.37581857 </i>
    <i name="e_fr_energy">    -13.26408185 </i>
    <i name="e_wo_entrp">    -13.26408183 </i>
    <i name="e_0_energy">    -13.26408184 </i>
   </energy>
  </scstep>
  <scstep>
   <time name="diag">  343.37  343.40</time>
   <time name="total">  343.40  343.43</time>
   <energy>
    <i name="e_fr_energy">    -13.26408185 </i>
    <i name="e_wo_entrp">    -13.26408183 </i>
    <i name="e_0_energy">    -13.26408184 </i>
   </energy>
  </scstep>
  <scstep>
   <time name="diag">  337.51  337.55</time>
   <time name="total">  337.54  337.58</time>
   <energy>
    <i name="e_fr_energy">    -13.26408185 </i>
    <i name="e_wo_entrp">    -13.26408183 </i>
    <i name="e_0_energy">    -13.26408184 </i>
   </energy>
  </scstep>
  <scstep>
   <time name="diag">  344.95  344.97</time>
   <time name="total">  344.97  344.99</time>
   <energy>
    <i name="e_fr_energy">    -13.26408185 </i>
    <i name="e_wo_entrp">    -13.26408183 </i>
    <i name="e_0_energy">    -13.26408184 </i>
   </energy>
  </scstep>
  <scstep>
   <time name="diag">  343.00  343.02</time>
   <time name="total">  343.14  343.16</time>
   <energy>
    <i name="e_fr_energy">    -13.26408185 </i>
    <i name="e_wo_entrp">    -13.26408183 </i>
    <i name="e_0_energy">    -13.26408184 </i>
   </energy>
  </scstep>
  <scstep>
   <time name="diag">  339.80  339.84</time>
   <time name="total">  339.98  340.02</time>
   <energy>
    <i name="e_fr_energy">    -13.26408186 </i>
    <i name="e_wo_entrp">    -13.26408185 </i>
    <i name="e_0_energy">    -13.26408186 </i>
   </energy>
  </scstep>
  <scstep>
   <time name="diag">  345.91  345.94</time>
   <time name="total">  346.09  346.12</time>
   <energy>
    <i name="e_fr_energy">    -13.26408184 </i>
    <i name="e_wo_entrp">    -13.26408182 </i>
    <i name="e_0_energy">    -13.26408183 </i>
   </energy>
  </scstep>
  <scstep>
   <time name="diag">  344.62  344.67</time>
   <time name="total">  344.69  344.74</time>
   <energy>
    <i name="alphaZ">     65.89697999 </i>
    <i name="ewald">  -1741.63824267 </i>
    <i name="hartreedc">   -672.59596014 </i>
    <i name="XCdc">    -68.80825282 </i>
    <i name="pawpsdc">   2323.85207856 </i>
    <i name="pawaedc">  -2248.37159510 </i>
    <i name="eentropy">     -0.00000001 </i>
    <i name="bandstr">   -311.97490821 </i>
    <i name="atom">   2640.37581857 </i>
    <i name="e_fr_energy">    -13.26408184 </i>
    <i name="e_wo_entrp">    -13.26408182 </i>
    <i name="e_0_energy">    -13.26408183 </i>
   </energy>
  </scstep>
  <structure>
   <crystal>
    <varray name="basis" >
     <v>       4.34234588       0.00000000       0.00000000 </v>
     <v>       2.17117294       3.76058184      -0.00000000 </v>
     <v>       2.17117294       1.25352728       3.54551056 </v>
    </varray>
    <i name="volume">     57.89729060 </i>
    <varray name="rec_basis" >
     <v>       0.23029027      -0.13295815      -0.09401561 </v>
     <v>       0.00000000       0.26591630      -0.09401561 </v>
     <v>      -0.00000000       0.00000000       0.28204683 </v>
    </varray>
   </crystal>
   <varray name="positions" >
    <v>       0.00000000       0.00000000       0.00000000 </v>
   </varray>
  </structure>
  <varray name="forces" >
   <v>      -0.00000000       0.00000000       0.00000000 </v>
  </varray>
  <varray name="stress" >
   <v> **************** **************** **************** </v>
   <v> **************** **************** **************** </v>
   <v> **************** **************** **************** </v>
  </varray>
  <energy>
   <i name="e_fr_energy">**************** </i>
   <i name="e_wo_entrp">**************** </i>
   <i name="e_0_energy">     -0.00000001 </i>
  </energy>
  <time name="totalsc"> 2746.46 2746.86</time>
  <eigenvalues>
   <array>
    <dimension dim="1">band</dimension>
    <dimension dim="2">kpoint</dimension>
    <dimension dim="3">spin</dimension>
    <field>eigene</field>
    <field>occ</field>
    <set>
     <set comment="spin 1">
      <set comment="kpoint 1">
       <r>  -30.4602    1.0000 </r>
       <r>  -30.4601    1.0000 </r>
       <r>  -30.4600    1.0000 </r>
       <r>  -30.4599    1.0000 </r>
       <r>  -23.7895    1.0000 </r>
       <r>  -23.7887    1.0000 </r>
       <r>  -23.7856    1.0000 </r>
       <r>  -23.7851    1.0000 </r>
       <r>  -23.7849    1.0000 </r>
       <r>  -23.7844    1.0000 </r>
       <r>  -20.2255    1.0000 </r>
       <r>  -20.2247    1.0000 </r>
       <r>   -6.9205    1.0000 </r>
       <r>   -6.9194    1.0000 </r>
       <r>    3.7152    1.0000 </r>
       <r>    3.7156    1.0000 </r>
       <r>    3.9467    0.9998 </r>
       <r>    3.9468    0.9997 </r>
       <r>    3.9516    0.0003 </r>
       <r>    3.9517    0.0002 </r>
       <r>   10.8832    0.0000 </r>
       <r>   10.8834    0.0000 </r>
       <r>   10.8840    0.0000 </r>
       <r>   10.8842    0.0000 </r>
       <r>   11.1131    0.0000 </r>
       <r>   11.1137    0.0000 </r>
       <r>   11.3088    0.0000 </r>
       <r>   11.3102    0.0000 </r>
       <r>   13.2096    0.0000 </r>
       <r>   13.2127    0.0000 </r>
       <r>   13.5133    0.0000 </r>
       <r>   13.5135    0.0000 </r>
       <r>   13.5144    0.0000 </r>
       <r>   13.5146    0.0000 </r>
       <r>   14.3604    0.0000 </r>
       <r>   14.3618    0.0000 </r>
       <r>   14.3627    0.0000 </r>
       <r>   14.3641    0.0000 </r>
       <r>   16.2605    0.0000 </r>
       <r>   16.2608    0.0000 </r>
       <r>   20.3466    0.0000 </r>
       <r>   20.3469    0.0000 </r>
       <r>   20.3474    0.0000 </r>
       <r>   20.3479    0.0000 </r>
       <r>   20.3485    0.0000 </r>
       <r>   20.3488    0.0000 </r>
       <r>   22.9474    0.0000 </r>
       <r>   22.9483    0.0000 </r>
       <r>   26.1826    0.0000 </r>
       <r>   26.1828    0.0000 </r>
       <r>   26.1847    0.0000 </r>
       <r>   26.1848    0.0000 </r>
       <r>   26.3645    0.0000 </r>
       <r>   26.3652    0.0000 </r>
       <r>   27.7082    0.0000 </r>
       <r>   27.7099    0.0000 </r>
       <r>   29.4127    0.0000 </r>
       <r>   29.4136    0.0000 </r>
       <r>   29.4142    0.0000 </r>
       <r>   29.4151    0.0000 </r>
       <r>   30.1871    0.0000 </r>
       <r>   30.1878    0.0000 </r>
       <r>   30.3429    0.0000 </r>
       <r>   30.3432    0.0000 </r>
       <r>   30.3440    0.0000 </r>
       <r>   30.3443    0.0000 </r>
       <r>   30.7886    0.0000 </r>
       <r>   30.7886    0.0000 </r>
       <r>   31.5928    0.0000 </r>
       <r>   31.5929    0.0000 </r>
       <r>   31.5941    0.0000 </r>
       <r>   31.5942    0.0000 </r>
       <r>   37.7501    0.0000 </r>
       <r>   37.7508    0.0000 </r>
       <r>   37.7509    0.0000 </r>
       <r>   37.7513    0.0000 </r>
       <r>   37.7514    0.0000 </r>
       <r>   37.7521    0.0000 </r>
       <r>   38.5857    0.0000 </r>
       <r>   38.5872    0.0000 </r>
       <r>   38.5987    0.0000 </r>
       <r>   38.5989    0.0000 </r>
       <r>   38.5994    0.0000 </r>
       <r>   38.6018    0.0000 </r>
       <r>   38.6023    0.0000 </r>
       <r>   38.6025    0.0000 </r>
       <r>   41.1020    0.0000 </r>
       <r>   41.1022    0.0000 </r>
       <r>   41.1025    0.0000 </r>
       <r>   41.1028    0.0000 </r>
       <r>   41.2887    0.0000 </r>
       <r>   41.2892    0.0000 </r>
       <r>   42.5702    0.0000 </r>
       <r>   42.5710    0.0000 </r>
       <r>   42.8506    0.0000 </r>
       <r>   42.8516    0.0000 </r>
       <r>   42.8523    0.0000 </r>
       <r>   42.8533    0.0000 </r>
       <r>   43.1678    0.0000 </r>
       <r>   43.1682    0.0000 </r>
       <r>   43.1686    0.0000 </r>
       <r>   43.1690    0.0000 </r>
       <r>   44.0528    0.0000 </r>
       <r>   44.0529    0.0000 </r>
       <r>   44.0550    0.0000 </r>
       <r>   44.0551    0.0000 </r>
       <r>   44.1371    0.0000 </r>
       <r>   44.1377    0.0000 </r>
       <r>   44.1385    0.0000 </r>
       <r>   44.1391    0.0000 </r>
       <r>   44.3305    0.0000 </r>
       <r>   44.3315    0.0000 </r>
       <r>   45.2725    0.0000 </r>
       <r>   45.2732    0.0000 </r>
       <r>   45.6763    0.0000 </r>
       <r>   45.6778    0.0000 </r>
       <r>   46.1291    0.0000 </r>
       <r>   46.1293    0.0000 </r>
       <r>   46.1304    0.0000 </r>
       <r>   46.1305    0.0000 </r>
       <r>   46.6597    0.0000 </r>
       <r>   46.6598    0.0000 </r>
       <r>   47.0222    0.0000 </r>
       <r>   47.0224    0.0000 </r>
       <r>   47.0228    0.0000 </r>
       <r>   47.0230    0.0000 </r>
       <r>   47.1509    0.0000 </r>
       <r>   47.1520    0.0000 </r>
      </set>
      <set comment="kpoint 2">
       <r>  -30.4597    1.0000 </r>
       <r>  -30.4595    1.0000 </r>
       <r>  -30.4590    1.0000 </r>
       <r>  -30.4588    1.0000 </r>
       <r>  -23.7877    1.0000 </r>
       <r>  -23.7871    1.0000 </r>
       <r>  -23.7850    1.0000 </r>
       <r>  -23.7849    1.0000 </r>
       <r>  -23.7835    1.0000 </r>
       <r>  -23.7824    1.0000 </r>
       <r>  -20.1971    1.0000 </r>
       <r>  -20.1963    1.0000 </r>
       <r>   -7.0110    1.0000 </r>
       <r>   -7.0099    1.0000 </r>
       <r>    2.1863    1.0000 </r>
       <r>    2.1893    1.0000 </r>
       <r>    3.7906    1.0000 </r>
       <r>    3.7951    1.0000 </r>
       <r>    5.5264    0.0000 </r>
       <r>    5.5278    0.0000 </r>
       <r>    9.8166    0.0000 </r>
       <r>    9.8178    0.0000 </r>
       <r>   11.0554    0.0000 </r>
       <r>   11.0560    0.0000 </r>
       <r>   11.3794    0.0000 </r>
       <r>   11.3796    0.0000 </r>
       <r>   12.1583    0.0000 </r>
       <r>   12.1590    0.0000 </r>
       <r>   12.5036    0.0000 </r>
       <r>   12.5053    0.0000 </r>
       <r>   12.6752    0.0000 </r>
       <r>   12.6773    0.0000 </r>
       <r>   13.7716    0.0000 </r>
       <r>   13.7733    0.0000 </r>
       <r>   15.8813    0.0000 </r>
       <r>   15.8827    0.0000 </r>
       <r>   16.0308    0.0000 </r>
       <r>   16.0335    0.0000 </r>
       <r>   18.0339    0.0000 </r>
       <r>   18.0341    0.0000 </r>
       <r>   19.8728    0.0000 </r>
       <r>   19.8746    0.0000 </r>
       <r>   20.0029    0.0000 </r>
       <r>   20.0050    0.0000 </r>
       <r>   20.4146    0.0000 </r>
       <r>   20.4151    0.0000 </r>
       <r>   21.7909    0.0000 </r>
       <r>   21.7912    0.0000 </r>
       <r>   24.9958    0.0000 </r>
       <r>   24.9969    0.0000 </r>
       <r>   25.6002    0.0000 </r>
       <r>   25.6023    0.0000 </r>
       <r>   25.8915    0.0000 </r>
       <r>   25.8931    0.0000 </r>
       <r>   27.0982    0.0000 </r>
       <r>   27.0996    0.0000 </r>
       <r>   27.7953    0.0000 </r>
       <r>   27.7955    0.0000 </r>
       <r>   28.6702    0.0000 </r>
       <r>   28.6709    0.0000 </r>
       <r>   30.1876    0.0000 </r>
       <r>   30.1899    0.0000 </r>
       <r>   30.2570    0.0000 </r>
       <r>   30.2580    0.0000 </r>
       <r>   30.9015    0.0000 </r>
       <r>   30.9025    0.0000 </r>
       <r>   30.9965    0.0000 </r>
       <r>   30.9967    0.0000 </r>
       <r>   32.9058    0.0000 </r>
       <r>   32.9076    0.0000 </r>
       <r>   35.3151    0.0000 </r>
       <r>   35.3157    0.0000 </r>
       <r>   35.4458    0.0000 </r>
       <r>   35.4471    0.0000 </r>
       <r>   36.5136    0.0000 </r>
       <r>   36.5149    0.0000 </r>
       <r>   36.5296    0.0000 </r>
       <r>   36.5298    0.0000 </r>
       <r>   36.9438    0.0000 </r>
       <r>   36.9446    0.0000 </r>
       <r>   38.3404    0.0000 </r>
       <r>   38.3411    0.0000 </r>
       <r>   39.1271    0.0000 </r>
       <r>   39.1300    0.0000 </r>
       <r>   39.3124    0.0000 </r>
       <r>   39.3132    0.0000 </r>
       <r>   39.5175    0.0000 </r>
       <r>   39.5178    0.0000 </r>
       <r>   39.5229    0.0000 </r>
       <r>   39.5235    0.0000 </r>
       <r>   40.4061    0.0000 </r>
       <r>   40.4064    0.0000 </r>
       <r>   40.5428    0.0000 </r>
       <r>   40.5437    0.0000 </r>
       <r>   41.3671    0.0000 </r>
       <r>   41.3683    0.0000 </r>
       <r>   41.5213    0.0000 </r>
       <r>   41.5223    0.0000 </r>
       <r>   42.6972    0.0000 </r>
       <r>   42.6978    0.0000 </r>
       <r>   43.2001    0.0000 </r>
       <r>   43.2003    0.0000 </r>
       <r>   43.3042    0.0000 </r>
       <r>   43.3046    0.0000 </r>
       <r>   44.1227    0.0000 </r>
       <r>   44.1233    0.0000 </r>
       <r>   44.6546    0.0000 </r>
       <r>   44.6549    0.0000 </r>
       <r>   44.7573    0.0000 </r>
       <r>   44.7588    0.0000 </r>
       <r>   44.8935    0.0000 </r>
       <r>   44.8945    0.0000 </r>
       <r>   46.5047    0.0000 </r>
       <r>   46.5060    0.0000 </r>
       <r>   47.1127    0.0000 </r>
       <r>   47.1132    0.0000 </r>
       <r>   47.5403    0.0000 </r>
       <r>   47.5412    0.0000 </r>
       <r>   48.4275    0.0000 </r>
       <r>   48.4282    0.0000 </r>
       <r>   49.3361    0.0000 </r>
       <r>   49.3365    0.0000 </r>
       <r>   49.3622    0.0000 </r>
       <r>   49.3633    0.0000 </r>
       <r>   50.3790    0.0000 </r>
       <r>   50.3801    0.0000 </r>
       <r>   51.3557    0.0000 </r>
       <r>   51.3560    0.0000 </r>
      </set>
      <set comment="kpoint 3">
       <r>  -30.4594    1.0000 </r>
       <r>  -30.4591    1.0000 </r>
       <r>  -30.4576    1.0000 </r>
       <r>  -30.4574    1.0000 </r>
       <r>  -23.7872    1.0000 </r>
       <r>  -23.7871    1.0000 </r>
       <r>  -23.7827    1.0000 </r>
       <r>  -23.7821    1.0000 </r>
       <r>  -23.7796    1.0000 </r>
       <r>  -23.7785    1.0000 </r>
       <r>  -20.1428    1.0000 </r>
       <r>  -20.1420    1.0000 </r>
       <r>   -7.1942    1.0000 </r>
       <r>   -7.1932    1.0000 </r>
       <r>    1.0897    1.0000 </r>
       <r>    1.0931    1.0000 </r>
       <r>    3.5109    1.0000 </r>
       <r>    3.5151    1.0000 </r>
       <r>    6.2143    0.0000 </r>
       <r>    6.2145    0.0000 </r>
       <r>   10.4101    0.0000 </r>
       <r>   10.4110    0.0000 </r>
       <r>   10.6101    0.0000 </r>
       <r>   10.6108    0.0000 </r>
       <r>   11.0430    0.0000 </r>
       <r>   11.0434    0.0000 </r>
       <r>   11.2751    0.0000 </r>
       <r>   11.2753    0.0000 </r>
       <r>   13.3034    0.0000 </r>
       <r>   13.3039    0.0000 </r>
       <r>   13.5719    0.0000 </r>
       <r>   13.5733    0.0000 </r>
       <r>   16.6399    0.0000 </r>
       <r>   16.6418    0.0000 </r>
       <r>   17.6925    0.0000 </r>
       <r>   17.6943    0.0000 </r>
       <r>   17.9344    0.0000 </r>
       <r>   17.9373    0.0000 </r>
       <r>   18.3089    0.0000 </r>
       <r>   18.3105    0.0000 </r>
       <r>   18.7474    0.0000 </r>
       <r>   18.7494    0.0000 </r>
       <r>   19.0529    0.0000 </r>
       <r>   19.0551    0.0000 </r>
       <r>   20.5548    0.0000 </r>
       <r>   20.5553    0.0000 </r>
       <r>   21.1356    0.0000 </r>
       <r>   21.1358    0.0000 </r>
       <r>   23.9597    0.0000 </r>
       <r>   23.9600    0.0000 </r>
       <r>   25.1905    0.0000 </r>
       <r>   25.1920    0.0000 </r>
       <r>   25.2931    0.0000 </r>
       <r>   25.2947    0.0000 </r>
       <r>   26.3660    0.0000 </r>
       <r>   26.3670    0.0000 </r>
       <r>   27.0110    0.0000 </r>
       <r>   27.0112    0.0000 </r>
       <r>   27.5863    0.0000 </r>
       <r>   27.5871    0.0000 </r>
       <r>   29.5904    0.0000 </r>
       <r>   29.5906    0.0000 </r>
       <r>   31.0213    0.0000 </r>
       <r>   31.0238    0.0000 </r>
       <r>   31.4528    0.0000 </r>
       <r>   31.4530    0.0000 </r>
       <r>   31.8924    0.0000 </r>
       <r>   31.8933    0.0000 </r>
       <r>   32.0429    0.0000 </r>
       <r>   32.0445    0.0000 </r>
       <r>   32.1883    0.0000 </r>
       <r>   32.1889    0.0000 </r>
       <r>   33.6774    0.0000 </r>
       <r>   33.6788    0.0000 </r>
       <r>   33.8375    0.0000 </r>
       <r>   33.8381    0.0000 </r>
       <r>   34.9152    0.0000 </r>
       <r>   34.9165    0.0000 </r>
       <r>   35.6961    0.0000 </r>
       <r>   35.6983    0.0000 </r>
       <r>   35.9890    0.0000 </r>
       <r>   35.9897    0.0000 </r>
       <r>   36.4404    0.0000 </r>
       <r>   36.4418    0.0000 </r>
       <r>   39.2956    0.0000 </r>
       <r>   39.2974    0.0000 </r>
       <r>   39.3267    0.0000 </r>
       <r>   39.3275    0.0000 </r>
       <r>   40.0858    0.0000 </r>
       <r>   40.0860    0.0000 </r>
       <r>   40.6635    0.0000 </r>
       <r>   40.6640    0.0000 </r>
       <r>   40.8764    0.0000 </r>
       <r>   40.8773    0.0000 </r>
       <r>   42.0680    0.0000 </r>
       <r>   42.0685    0.0000 </r>
       <r>   42.8320    0.0000 </r>
       <r>   42.8322    0.0000 </r>
       <r>   43.0508    0.0000 </r>
       <r>   43.0520    0.0000 </r>
       <r>   43.8420    0.0000 </r>
       <r>   43.8433    0.0000 </r>
       <r>   44.6812    0.0000 </r>
       <r>   44.6815    0.0000 </r>
       <r>   44.8150    0.0000 </r>
       <r>   44.8156    0.0000 </r>
       <r>   45.9635    0.0000 </r>
       <r>   45.9636    0.0000 </r>
       <r>   46.4174    0.0000 </r>
       <r>   46.4187    0.0000 </r>
       <r>   46.4995    0.0000 </r>
       <r>   46.5008    0.0000 </r>
       <r>   47.0575    0.0000 </r>
       <r>   47.0583    0.0000 </r>
       <r>   49.6481    0.0000 </r>
       <r>   49.6485    0.0000 </r>
       <r>   51.1409    0.0000 </r>
       <r>   51.1415    0.0000 </r>
       <r>   51.3933    0.0000 </r>
       <r>   51.3943    0.0000 </r>
       <r>   51.8138    0.0000 </r>
       <r>   51.8142    0.0000 </r>
       <r>   51.9747    0.0000 </r>
       <r>   51.9753    0.0000 </r>
       <r>   52.2361    0.0000 </r>
       <r>   52.2367    0.0000 </r>
       <r>   52.5688    0.0000 </r>
       <r>   52.5694    0.0000 </r>
      </set>
      <set comment="kpoint 4">
       <r>  -30.4590    1.0000 </r>
       <r>  -30.4588    1.0000 </r>
       <r>  -30.4568    1.0000 </r>
       <r>  -30.4567    1.0000 </r>
       <r>  -23.7877    1.0000 </r>
       <r>  -23.7875    1.0000 </r>
       <r>  -23.7809    1.0000 </r>
       <r>  -23.7802    1.0000 </r>
       <r>  -23.7776    1.0000 </r>
       <r>  -23.7765    1.0000 </r>
       <r>  -20.1145    1.0000 </r>
       <r>  -20.1137    1.0000 </r>
       <r>   -7.2861    1.0000 </r>
       <r>   -7.2852    1.0000 </r>
       <r>    0.7093    1.0000 </r>
       <r>    0.7127    1.0000 </r>
       <r>    3.3841    1.0000 </r>
       <r>    3.3882    1.0000 </r>
       <r>    6.2159    0.0000 </r>
       <r>    6.2162    0.0000 </r>
       <r>   10.3202    0.0000 </r>
       <r>   10.3211    0.0000 </r>
       <r>   10.5250    0.0000 </r>
       <r>   10.5256    0.0000 </r>
       <r>   10.7247    0.0000 </r>
       <r>   10.7252    0.0000 </r>
       <r>   12.0981    0.0000 </r>
       <r>   12.0986    0.0000 </r>
       <r>   14.6783    0.0000 </r>
       <r>   14.6784    0.0000 </r>
       <r>   14.7649    0.0000 </r>
       <r>   14.7660    0.0000 </r>
       <r>   16.1142    0.0000 </r>
       <r>   16.1154    0.0000 </r>
       <r>   17.1056    0.0000 </r>
       <r>   17.1056    0.0000 </r>
       <r>   17.2759    0.0000 </r>
       <r>   17.2783    0.0000 </r>
       <r>   18.5053    0.0000 </r>
       <r>   18.5076    0.0000 </r>
       <r>   18.9993    0.0000 </r>
       <r>   19.0025    0.0000 </r>
       <r>   19.0554    0.0000 </r>
       <r>   19.0573    0.0000 </r>
       <r>   20.6283    0.0000 </r>
       <r>   20.6289    0.0000 </r>
       <r>   23.2425    0.0000 </r>
       <r>   23.2437    0.0000 </r>
       <r>   23.9829    0.0000 </r>
       <r>   23.9842    0.0000 </r>
       <r>   25.2894    0.0000 </r>
       <r>   25.2898    0.0000 </r>
       <r>   25.4808    0.0000 </r>
       <r>   25.4817    0.0000 </r>
       <r>   25.5327    0.0000 </r>
       <r>   25.5335    0.0000 </r>
       <r>   27.0110    0.0000 </r>
       <r>   27.0113    0.0000 </r>
       <r>   27.2375    0.0000 </r>
       <r>   27.2387    0.0000 </r>
       <r>   28.3212    0.0000 </r>
       <r>   28.3218    0.0000 </r>
       <r>   29.4550    0.0000 </r>
       <r>   29.4560    0.0000 </r>
       <r>   30.8202    0.0000 </r>
       <r>   30.8203    0.0000 </r>
       <r>   30.8474    0.0000 </r>
       <r>   30.8494    0.0000 </r>
       <r>   31.7196    0.0000 </r>
       <r>   31.7220    0.0000 </r>
       <r>   32.4488    0.0000 </r>
       <r>   32.4492    0.0000 </r>
       <r>   32.8674    0.0000 </r>
       <r>   32.8678    0.0000 </r>
       <r>   33.0507    0.0000 </r>
       <r>   33.0521    0.0000 </r>
       <r>   33.9477    0.0000 </r>
       <r>   33.9495    0.0000 </r>
       <r>   34.0367    0.0000 </r>
       <r>   34.0391    0.0000 </r>
       <r>   35.8190    0.0000 </r>
       <r>   35.8195    0.0000 </r>
       <r>   36.6470    0.0000 </r>
       <r>   36.6484    0.0000 </r>
       <r>   39.5018    0.0000 </r>
       <r>   39.5027    0.0000 </r>
       <r>   39.6208    0.0000 </r>
       <r>   39.6232    0.0000 </r>
       <r>   39.7573    0.0000 </r>
       <r>   39.7578    0.0000 </r>
       <r>   40.2262    0.0000 </r>
       <r>   40.2270    0.0000 </r>
       <r>   40.4933    0.0000 </r>
       <r>   40.4943    0.0000 </r>
       <r>   41.9336    0.0000 </r>
       <r>   41.9344    0.0000 </r>
       <r>   42.1524    0.0000 </r>
       <r>   42.1528    0.0000 </r>
       <r>   44.8466    0.0000 </r>
       <r>   44.8470    0.0000 </r>
       <r>   46.0638    0.0000 </r>
       <r>   46.0644    0.0000 </r>
       <r>   46.2181    0.0000 </r>
       <r>   46.2192    0.0000 </r>
       <r>   46.4022    0.0000 </r>
       <r>   46.4026    0.0000 </r>
       <r>   46.4062    0.0000 </r>
       <r>   46.4068    0.0000 </r>
       <r>   47.6796    0.0000 </r>
       <r>   47.6803    0.0000 </r>
       <r>   49.4263    0.0000 </r>
       <r>   49.4273    0.0000 </r>
       <r>   50.0263    0.0000 </r>
       <r>   50.0271    0.0000 </r>
       <r>   50.2084    0.0000 </r>
       <r>   50.2094    0.0000 </r>
       <r>   50.9269    0.0000 </r>
       <r>   50.9285    0.0000 </r>
       <r>   51.2865    0.0000 </r>
       <r>   51.2870    0.0000 </r>
       <r>   51.4874    0.0000 </r>
       <r>   51.4875    0.0000 </r>
       <r>   52.6155    0.0000 </r>
       <r>   52.6171    0.0000 </r>
       <r>   52.6438    0.0000 </r>
       <r>   52.6447    0.0000 </r>
       <r>   52.7849    0.0000 </r>
       <r>   52.7865    0.0000 </r>
      </set>
      <set comment="kpoint 5">
       <r>  -30.4594    1.0000 </r>
       <r>  -30.4591    1.0000 </r>
       <r>  -30.4576    1.0000 </r>
       <r>  -30.4574    1.0000 </r>
       <r>  -23.7872    1.0000 </r>
       <r>  -23.7871    1.0000 </r>
       <r>  -23.7827    1.0000 </r>
       <r>  -23.7821    1.0000 </r>
       <r>  -23.7796    1.0000 </r>
       <r>  -23.7785    1.0000 </r>
       <r>  -20.1428    1.0000 </r>
       <r>  -20.1420    1.0000 </r>
       <r>   -7.1942    1.0000 </r>
       <r>   -7.1932    1.0000 </r>
       <r>    1.0897    1.0000 </r>
       <r>    1.0931    1.0000 </r>
       <r>    3.5109    1.0000 </r>
       <r>    3.5151    1.0000 </r>
       <r>    6.2143    0.0000 </r>
       <r>    6.2145    0.0000 </r>
       <r>   10.4101    0.0000 </r>
       <r>   10.4110    0.0000 </r>
       <r>   10.6101    0.0000 </r>
       <r>   10.6108    0.0000 </r>
       <r>   11.0430    0.0000 </r>
       <r>   11.0434    0.0000 </r>
       <r>   11.2751    0.0000 </r>
       <r>   11.2753    0.0000 </r>
       <r>   13.3034    0.0000 </r>
       <r>   13.3039    0.0000 </r>
       <r>   13.5719    0.0000 </r>
       <r>   13.5733    0.0000 </r>
       <r>   16.6399    0.0000 </r>
       <r>   16.6418    0.0000 </r>
       <r>   17.6925    0.0000 </r>
       <r>   17.6943    0.0000 </r>
       <r>   17.9344    0.0000 </r>
       <r>   17.9373    0.0000 </r>
       <r>   18.3089    0.0000 </r>
       <r>   18.3105    0.0000 </r>
       <r>   18.7474    0.0000 </r>
       <r>   18.7494    0.0000 </r>
       <r>   19.0529    0.0000 </r>
       <r>   19.0551    0.0000 </r>
       <r>   20.5548    0.0000 </r>
       <r>   20.5553    0.0000 </r>
       <r>   21.1356    0.0000 </r>
       <r>   21.1358    0.0000 </r>
       <r>   23.9597    0.0000 </r>
       <r>   23.9600    0.0000 </r>
       <r>   25.1905    0.0000 </r>
       <r>   25.1920    0.0000 </r>
       <r>   25.2931    0.0000 </r>
       <r>   25.2947    0.0000 </r>
       <r>   26.3660    0.0000 </r>
       <r>   26.3670    0.0000 </r>
       <r>   27.0110    0.0000 </r>
       <r>   27.0112    0.0000 </r>
       <r>   27.5863    0.0000 </r>
       <r>   27.5871    0.0000 </r>
       <r>   29.5904    0.0000 </r>
       <r>   29.5906    0.0000 </r>
       <r>   31.0213    0.0000 </r>
       <r>   31.0238    0.0000 </r>
       <r>   31.4528    0.0000 </r>
       <r>   31.4530    0.0000 </r>
       <r>   31.8924    0.0000 </r>
       <r>   31.8933    0.0000 </r>
       <r>   32.0429    0.0000 </r>
       <r>   32.0445    0.0000 </r>
       <r>   32.1883    0.0000 </r>
       <r>   32.1889    0.0000 </r>
       <r>   33.6774    0.0000 </r>
       <r>   33.6788    0.0000 </r>
       <r>   33.8375    0.0000 </r>
       <r>   33.8381    0.0000 </r>
       <r>   34.9152    0.0000 </r>
       <r>   34.9165    0.0000 </r>
       <r>   35.6961    0.0000 </r>
       <r>   35.6983    0.0000 </r>
       <r>   35.9890    0.0000 </r>
       <r>   35.9897    0.0000 </r>
       <r>   36.4404    0.0000 </r>
       <r>   36.4418    0.0000 </r>
       <r>   39.2956    0.0000 </r>
       <r>   39.2974    0.0000 </r>
       <r>   39.3267    0.0000 </r>
       <r>   39.3275    0.0000 </r>
       <r>   40.0858    0.0000 </r>
       <r>   40.0860    0.0000 </r>
       <r>   40.6635    0.0000 </r>
       <r>   40.6640    0.0000 </r>
       <r>   40.8764    0.0000 </r>
       <r>   40.8773    0.0000 </r>
       <r>   42.0680    0.0000 </r>
       <r>   42.0685    0.0000 </r>
       <r>   42.8320    0.0000 </r>
       <r>   42.8322    0.0000 </r>
       <r>   43.0508    0.0000 </r>
       <r>   43.0520    0.0000 </r>
       <r>   43.8420    0.0000 </r>
       <r>   43.8433    0.0000 </r>
       <r>   44.6812    0.0000 </r>
       <r>   44.6815    0.0000 </r>
       <r>   44.8150    0.0000 </r>
       <r>   44.8156    0.0000 </r>
       <r>   45.9635    0.0000 </r>
       <r>   45.9636    0.0000 </r>
       <r>   46.4174    0.0000 </r>
       <r>   46.4187    0.0000 </r>
       <r>   46.4995    0.0000 </r>
       <r>   46.5008    0.0000 </r>
       <r>   47.0575    0.0000 </r>
       <r>   47.0583    0.0000 </r>
       <r>   49.6481    0.0000 </r>
       <r>   49.6485    0.0000 </r>
       <r>   51.1409    0.0000 </r>
       <r>   51.1415    0.0000 </r>
       <r>   51.3933    0.0000 </r>
       <r>   51.3943    0.0000 </r>
       <r>   51.8138    0.0000 </r>
       <r>   51.8142    0.0000 </r>
       <r>   51.9747    0.0000 </r>
       <r>   51.9753    0.0000 </r>
       <r>   52.2361    0.0000 </r>
       <r>   52.2367    0.0000 </r>
       <r>   52.5688    0.0000 </r>
       <r>   52.5694    0.0000 </r>
      </set>
      <set comment="kpoint 6">
       <r>  -30.4597    1.0000 </r>
       <r>  -30.4595    1.0000 </r>
       <r>  -30.4590    1.0000 </r>
       <r>  -30.4588    1.0000 </r>
       <r>  -23.7877    1.0000 </r>
       <r>  -23.7871    1.0000 </r>
       <r>  -23.7850    1.0000 </r>
       <r>  -23.7849    1.0000 </r>
       <r>  -23.7835    1.0000 </r>
       <r>  -23.7824    1.0000 </r>
       <r>  -20.1971    1.0000 </r>
       <r>  -20.1963    1.0000 </r>
       <r>   -7.0110    1.0000 </r>
       <r>   -7.0099    1.0000 </r>
       <r>    2.1863    1.0000 </r>
       <r>    2.1893    1.0000 </r>
       <r>    3.7906    1.0000 </r>
       <r>    3.7951    1.0000 </r>
       <r>    5.5264    0.0000 </r>
       <r>    5.5278    0.0000 </r>
       <r>    9.8166    0.0000 </r>
       <r>    9.8178    0.0000 </r>
       <r>   11.0554    0.0000 </r>
       <r>   11.0560    0.0000 </r>
       <r>   11.3794    0.0000 </r>
       <r>   11.3796    0.0000 </r>
       <r>   12.1583    0.0000 </r>
       <r>   12.1590    0.0000 </r>
       <r>   12.5036    0.0000 </r>
       <r>   12.5053    0.0000 </r>
       <r>   12.6752    0.0000 </r>
       <r>   12.6773    0.0000 </r>
       <r>   13.7716    0.0000 </r>
       <r>   13.7733    0.0000 </r>
       <r>   15.8813    0.0000 </r>
       <r>   15.8827    0.0000 </r>
       <r>   16.0308    0.0000 </r>
       <r>   16.0335    0.0000 </r>
       <r>   18.0339    0.0000 </r>
       <r>   18.0341    0.0000 </r>
       <r>   19.8728    0.0000 </r>
       <r>   19.8746    0.0000 </r>
       <r>   20.0029    0.0000 </r>
       <r>   20.0050    0.0000 </r>
       <r>   20.4146    0.0000 </r>
       <r>   20.4151    0.0000 </r>
       <r>   21.7909    0.0000 </r>
       <r>   21.7912    0.0000 </r>
       <r>   24.9958    0.0000 </r>
       <r>   24.9969    0.0000 </r>
       <r>   25.6002    0.0000 </r>
       <r>   25.6023    0.0000 </r>
       <r>   25.8915    0.0000 </r>
       <r>   25.8931    0.0000 </r>
       <r>   27.0982    0.0000 </r>
       <r>   27.0996    0.0000 </r>
       <r>   27.7953    0.0000 </r>
       <r>   27.7955    0.0000 </r>
       <r>   28.6702    0.0000 </r>
       <r>   28.6709    0.0000 </r>
       <r>   30.1876    0.0000 </r>
       <r>   30.1899    0.0000 </r>
       <r>   30.2570    0.0000 </r>
       <r>   30.2580    0.0000 </r>
       <r>   30.9015    0.0000 </r>
       <r>   30.9025    0.0000 </r>
       <r>   30.9965    0.0000 </r>
       <r>   30.9967    0.0000 </r>
       <r>   32.9058    0.0000 </r>
       <r>   32.9076    0.0000 </r>
       <r>   35.3151    0.0000 </r>
       <r>   35.3157    0.0000 </r>
       <r>   35.4458    0.0000 </r>
       <r>   35.4471    0.0000 </r>
       <r>   36.5136    0.0000 </r>
       <r>   36.5149    0.0000 </r>
       <r>   36.5296    0.0000 </r>
       <r>   36.5298    0.0000 </r>
       <r>   36.9438    0.0000 </r>
       <r>   36.9446    0.0000 </r>
       <r>   38.3404    0.0000 </r>
       <r>   38.3411    0.0000 </r>
       <r>   39.1271    0.0000 </r>
       <r>   39.1300    0.0000 </r>
       <r>   39.3124    0.0000 </r>
       <r>   39.3132    0.0000 </r>
       <r>   39.5175    0.0000 </r>
       <r>   39.5178    0.0000 </r>
       <r>   39.5229    0.0000 </r>
       <r>   39.5235    0.0000 </r>
       <r>   40.4061    0.0000 </r>
       <r>   40.4064    0.0000 </r>
       <r>   40.5428    0.0000 </r>
       <r>   40.5437    0.0000 </r>
       <r>   41.3671    0.0000 </r>
       <r>   41.3683    0.0000 </r>
       <r>   41.5213    0.0000 </r>
       <r>   41.5223    0.0000 </r>
       <r>   42.6972    0.0000 </r>
       <r>   42.6978    0.0000 </r>
       <r>   43.2001    0.0000 </r>
       <r>   43.2003    0.0000 </r>
       <r>   43.3042    0.0000 </r>
       <r>   43.3046    0.0000 </r>
       <r>   44.1227    0.0000 </r>
       <r>   44.1233    0.0000 </r>
       <r>   44.6546    0.0000 </r>
       <r>   44.6549    0.0000 </r>
       <r>   44.7573    0.0000 </r>
       <r>   44.7588    0.0000 </r>
       <r>   44.8935    0.0000 </r>
       <r>   44.8945    0.0000 </r>
       <r>   46.5047    0.0000 </r>
       <r>   46.5060    0.0000 </r>
       <r>   47.1127    0.0000 </r>
       <r>   47.1132    0.0000 </r>
       <r>   47.5403    0.0000 </r>
       <r>   47.5412    0.0000 </r>
       <r>   48.4275    0.0000 </r>
       <r>   48.4282    0.0000 </r>
       <r>   49.3361    0.0000 </r>
       <r>   49.3365    0.0000 </r>
       <r>   49.3622    0.0000 </r>
       <r>   49.3633    0.0000 </r>
       <r>   50.3790    0.0000 </r>
       <r>   50.3801    0.0000 </r>
       <r>   51.3557    0.0000 </r>
       <r>   51.3560    0.0000 </r>
      </set>
      <set comment="kpoint 7">
       <r>  -30.4596    1.0000 </r>
       <r>  -30.4596    1.0000 </r>
       <r>  -30.4589    1.0000 </r>
       <r>  -30.4588    1.0000 </r>
       <r>  -23.7878    1.0000 </r>
       <r>  -23.7871    1.0000 </r>
       <r>  -23.7853    1.0000 </r>
       <r>  -23.7847    1.0000 </r>
       <r>  -23.7830    1.0000 </r>
       <r>  -23.7828    1.0000 </r>
       <r>  -20.1971    1.0000 </r>
       <r>  -20.1963    1.0000 </r>
       <r>   -7.0110    1.0000 </r>
       <r>   -7.0099    1.0000 </r>
       <r>    2.1874    1.0000 </r>
       <r>    2.1882    1.0000 </r>
       <r>    3.7922    1.0000 </r>
       <r>    3.7935    1.0000 </r>
       <r>    5.5269    0.0000 </r>
       <r>    5.5273    0.0000 </r>
       <r>    9.8171    0.0000 </r>
       <r>    9.8173    0.0000 </r>
       <r>   11.0557    0.0000 </r>
       <r>   11.0558    0.0000 </r>
       <r>   11.3793    0.0000 </r>
       <r>   11.3797    0.0000 </r>
       <r>   12.1581    0.0000 </r>
       <r>   12.1592    0.0000 </r>
       <r>   12.5036    0.0000 </r>
       <r>   12.5053    0.0000 </r>
       <r>   12.6760    0.0000 </r>
       <r>   12.6765    0.0000 </r>
       <r>   13.7722    0.0000 </r>
       <r>   13.7726    0.0000 </r>
       <r>   15.8808    0.0000 </r>
       <r>   15.8832    0.0000 </r>
       <r>   16.0318    0.0000 </r>
       <r>   16.0325    0.0000 </r>
       <r>   18.0337    0.0000 </r>
       <r>   18.0343    0.0000 </r>
       <r>   19.8733    0.0000 </r>
       <r>   19.8741    0.0000 </r>
       <r>   20.0037    0.0000 </r>
       <r>   20.0042    0.0000 </r>
       <r>   20.4141    0.0000 </r>
       <r>   20.4157    0.0000 </r>
       <r>   21.7908    0.0000 </r>
       <r>   21.7914    0.0000 </r>
       <r>   24.9960    0.0000 </r>
       <r>   24.9967    0.0000 </r>
       <r>   25.6010    0.0000 </r>
       <r>   25.6014    0.0000 </r>
       <r>   25.8921    0.0000 </r>
       <r>   25.8925    0.0000 </r>
       <r>   27.0982    0.0000 </r>
       <r>   27.0997    0.0000 </r>
       <r>   27.7953    0.0000 </r>
       <r>   27.7954    0.0000 </r>
       <r>   28.6703    0.0000 </r>
       <r>   28.6707    0.0000 </r>
       <r>   30.1884    0.0000 </r>
       <r>   30.1891    0.0000 </r>
       <r>   30.2568    0.0000 </r>
       <r>   30.2582    0.0000 </r>
       <r>   30.9019    0.0000 </r>
       <r>   30.9021    0.0000 </r>
       <r>   30.9961    0.0000 </r>
       <r>   30.9971    0.0000 </r>
       <r>   32.9064    0.0000 </r>
       <r>   32.9070    0.0000 </r>
       <r>   35.3147    0.0000 </r>
       <r>   35.3161    0.0000 </r>
       <r>   35.4462    0.0000 </r>
       <r>   35.4467    0.0000 </r>
       <r>   36.5140    0.0000 </r>
       <r>   36.5145    0.0000 </r>
       <r>   36.5296    0.0000 </r>
       <r>   36.5298    0.0000 </r>
       <r>   36.9440    0.0000 </r>
       <r>   36.9444    0.0000 </r>
       <r>   38.3405    0.0000 </r>
       <r>   38.3410    0.0000 </r>
       <r>   39.1283    0.0000 </r>
       <r>   39.1289    0.0000 </r>
       <r>   39.3121    0.0000 </r>
       <r>   39.3134    0.0000 </r>
       <r>   39.5174    0.0000 </r>
       <r>   39.5178    0.0000 </r>
       <r>   39.5231    0.0000 </r>
       <r>   39.5233    0.0000 </r>
       <r>   40.4060    0.0000 </r>
       <r>   40.4066    0.0000 </r>
       <r>   40.5431    0.0000 </r>
       <r>   40.5433    0.0000 </r>
       <r>   41.3675    0.0000 </r>
       <r>   41.3679    0.0000 </r>
       <r>   41.5213    0.0000 </r>
       <r>   41.5222    0.0000 </r>
       <r>   42.6974    0.0000 </r>
       <r>   42.6976    0.0000 </r>
       <r>   43.1997    0.0000 </r>
       <r>   43.2007    0.0000 </r>
       <r>   43.3039    0.0000 </r>
       <r>   43.3049    0.0000 </r>
       <r>   44.1226    0.0000 </r>
       <r>   44.1233    0.0000 </r>
       <r>   44.6543    0.0000 </r>
       <r>   44.6552    0.0000 </r>
       <r>   44.7579    0.0000 </r>
       <r>   44.7583    0.0000 </r>
       <r>   44.8934    0.0000 </r>
       <r>   44.8946    0.0000 </r>
       <r>   46.5052    0.0000 </r>
       <r>   46.5054    0.0000 </r>
       <r>   47.1128    0.0000 </r>
       <r>   47.1132    0.0000 </r>
       <r>   47.5406    0.0000 </r>
       <r>   47.5409    0.0000 </r>
       <r>   48.4277    0.0000 </r>
       <r>   48.4281    0.0000 </r>
       <r>   49.3360    0.0000 </r>
       <r>   49.3366    0.0000 </r>
       <r>   49.3626    0.0000 </r>
       <r>   49.3629    0.0000 </r>
       <r>   50.3794    0.0000 </r>
       <r>   50.3797    0.0000 </r>
       <r>   51.3554    0.0000 </r>
       <r>   51.3563    0.0000 </r>
      </set>
      <set comment="kpoint 8">
       <r>  -30.4594    1.0000 </r>
       <r>  -30.4592    1.0000 </r>
       <r>  -30.4589    1.0000 </r>
       <r>  -30.4587    1.0000 </r>
       <r>  -23.7877    1.0000 </r>
       <r>  -23.7870    1.0000 </r>
       <r>  -23.7843    1.0000 </r>
       <r>  -23.7838    1.0000 </r>
       <r>  -23.7830    1.0000 </r>
       <r>  -23.7824    1.0000 </r>
       <r>  -20.1880    1.0000 </r>
       <r>  -20.1873    1.0000 </r>
       <r>   -7.0389    1.0000 </r>
       <r>   -7.0378    1.0000 </r>
       <r>    2.0734    1.0000 </r>
       <r>    2.0764    1.0000 </r>
       <r>    3.4333    1.0000 </r>
       <r>    3.4378    1.0000 </r>
       <r>    6.0582    0.0000 </r>
       <r>    6.0595    0.0000 </r>
       <r>    9.2189    0.0000 </r>
       <r>    9.2199    0.0000 </r>
       <r>   10.6053    0.0000 </r>
       <r>   10.6063    0.0000 </r>
       <r>   11.3918    0.0000 </r>
       <r>   11.3931    0.0000 </r>
       <r>   12.0915    0.0000 </r>
       <r>   12.0928    0.0000 </r>
       <r>   13.5838    0.0000 </r>
       <r>   13.5847    0.0000 </r>
       <r>   14.1378    0.0000 </r>
       <r>   14.1401    0.0000 </r>
       <r>   14.2180    0.0000 </r>
       <r>   14.2194    0.0000 </r>
       <r>   14.5642    0.0000 </r>
       <r>   14.5663    0.0000 </r>
       <r>   15.7220    0.0000 </r>
       <r>   15.7240    0.0000 </r>
       <r>   18.9094    0.0000 </r>
       <r>   18.9100    0.0000 </r>
       <r>   19.7234    0.0000 </r>
       <r>   19.7249    0.0000 </r>
       <r>   20.1656    0.0000 </r>
       <r>   20.1665    0.0000 </r>
       <r>   20.2897    0.0000 </r>
       <r>   20.2902    0.0000 </r>
       <r>   21.4799    0.0000 </r>
       <r>   21.4809    0.0000 </r>
       <r>   24.7839    0.0000 </r>
       <r>   24.7858    0.0000 </r>
       <r>   25.6820    0.0000 </r>
       <r>   25.6827    0.0000 </r>
       <r>   25.7532    0.0000 </r>
       <r>   25.7555    0.0000 </r>
       <r>   26.5047    0.0000 </r>
       <r>   26.5061    0.0000 </r>
       <r>   27.1219    0.0000 </r>
       <r>   27.1223    0.0000 </r>
       <r>   27.9494    0.0000 </r>
       <r>   27.9505    0.0000 </r>
       <r>   29.8449    0.0000 </r>
       <r>   29.8462    0.0000 </r>
       <r>   30.5270    0.0000 </r>
       <r>   30.5279    0.0000 </r>
       <r>   31.3460    0.0000 </r>
       <r>   31.3467    0.0000 </r>
       <r>   31.4164    0.0000 </r>
       <r>   31.4171    0.0000 </r>
       <r>   34.4821    0.0000 </r>
       <r>   34.4826    0.0000 </r>
       <r>   35.0096    0.0000 </r>
       <r>   35.0100    0.0000 </r>
       <r>   35.4546    0.0000 </r>
       <r>   35.4561    0.0000 </r>
       <r>   35.4871    0.0000 </r>
       <r>   35.4891    0.0000 </r>
       <r>   36.3252    0.0000 </r>
       <r>   36.3257    0.0000 </r>
       <r>   36.8963    0.0000 </r>
       <r>   36.8977    0.0000 </r>
       <r>   37.8136    0.0000 </r>
       <r>   37.8167    0.0000 </r>
       <r>   38.0206    0.0000 </r>
       <r>   38.0219    0.0000 </r>
       <r>   39.1285    0.0000 </r>
       <r>   39.1291    0.0000 </r>
       <r>   39.3277    0.0000 </r>
       <r>   39.3286    0.0000 </r>
       <r>   40.5249    0.0000 </r>
       <r>   40.5260    0.0000 </r>
       <r>   41.0101    0.0000 </r>
       <r>   41.0110    0.0000 </r>
       <r>   41.0751    0.0000 </r>
       <r>   41.0761    0.0000 </r>
       <r>   41.7693    0.0000 </r>
       <r>   41.7700    0.0000 </r>
       <r>   42.0022    0.0000 </r>
       <r>   42.0032    0.0000 </r>
       <r>   42.1020    0.0000 </r>
       <r>   42.1027    0.0000 </r>
       <r>   42.3779    0.0000 </r>
       <r>   42.3782    0.0000 </r>
       <r>   43.0648    0.0000 </r>
       <r>   43.0655    0.0000 </r>
       <r>   44.1694    0.0000 </r>
       <r>   44.1702    0.0000 </r>
       <r>   44.1874    0.0000 </r>
       <r>   44.1880    0.0000 </r>
       <r>   44.5754    0.0000 </r>
       <r>   44.5760    0.0000 </r>
       <r>   44.8154    0.0000 </r>
       <r>   44.8167    0.0000 </r>
       <r>   45.3875    0.0000 </r>
       <r>   45.3881    0.0000 </r>
       <r>   47.3653    0.0000 </r>
       <r>   47.3670    0.0000 </r>
       <r>   48.1593    0.0000 </r>
       <r>   48.1599    0.0000 </r>
       <r>   48.5049    0.0000 </r>
       <r>   48.5063    0.0000 </r>
       <r>   50.1120    0.0000 </r>
       <r>   50.1126    0.0000 </r>
       <r>   51.3055    0.0000 </r>
       <r>   51.3063    0.0000 </r>
       <r>   51.3511    0.0000 </r>
       <r>   51.3524    0.0000 </r>
       <r>   51.4171    0.0000 </r>
       <r>   51.4187    0.0000 </r>
      </set>
      <set comment="kpoint 9">
       <r>  -30.4589    1.0000 </r>
       <r>  -30.4586    1.0000 </r>
       <r>  -30.4577    1.0000 </r>
       <r>  -30.4575    1.0000 </r>
       <r>  -23.7864    1.0000 </r>
       <r>  -23.7859    1.0000 </r>
       <r>  -23.7834    1.0000 </r>
       <r>  -23.7829    1.0000 </r>
       <r>  -23.7795    1.0000 </r>
       <r>  -23.7787    1.0000 </r>
       <r>  -20.1424    1.0000 </r>
       <r>  -20.1416    1.0000 </r>
       <r>   -7.1855    1.0000 </r>
       <r>   -7.1846    1.0000 </r>
       <r>    1.2661    1.0000 </r>
       <r>    1.2692    1.0000 </r>
       <r>    3.0117    1.0000 </r>
       <r>    3.0155    1.0000 </r>
       <r>    6.9348    0.0000 </r>
       <r>    6.9354    0.0000 </r>
       <r>    9.1343    0.0000 </r>
       <r>    9.1358    0.0000 </r>
       <r>    9.6555    0.0000 </r>
       <r>    9.6567    0.0000 </r>
       <r>   11.6554    0.0000 </r>
       <r>   11.6561    0.0000 </r>
       <r>   12.9273    0.0000 </r>
       <r>   12.9285    0.0000 </r>
       <r>   13.5690    0.0000 </r>
       <r>   13.5693    0.0000 </r>
       <r>   14.3499    0.0000 </r>
       <r>   14.3512    0.0000 </r>
[...]
       <r>    31.1276     0.0000     0.0000 </r>
       <r>    31.4365     0.0000     0.0000 </r>
       <r>    31.7454     0.0000     0.0000 </r>
       <r>    32.0544     0.0000     0.0000 </r>
       <r>    32.3633     0.0000     0.0000 </r>
       <r>    32.6722     0.0000     0.0000 </r>
       <r>    32.9811     0.0000     0.0000 </r>
       <r>    33.2900     0.0000     0.0000 </r>
       <r>    33.5990     0.0000     0.0000 </r>
       <r>    33.9079     0.0000     0.0000 </r>
       <r>    34.2168     0.0000     0.0000 </r>
       <r>    34.5257     0.0000     0.0000 </r>
       <r>    34.8347     0.0000     0.0000 </r>
       <r>    35.1436     0.0000     0.0000 </r>
       <r>    35.4525     0.0000     0.0000 </r>
       <r>    35.7614     0.0000     0.0000 </r>
       <r>    36.0703     0.0000     0.0000 </r>
       <r>    36.3793     0.0000     0.0000 </r>
       <r>    36.6882     0.0000     0.0000 </r>
       <r>    36.9971     0.0000     0.0000 </r>
       <r>    37.3060     0.0000     0.0000 </r>
       <r>    37.6150     0.0000     0.0000 </r>
       <r>    37.9239     0.0000     0.0000 </r>
       <r>    38.2328     0.0000     0.0000 </r>
       <r>    38.5417     0.0000     0.0000 </r>
       <r>    38.8506     0.0000     0.0000 </r>
       <r>    39.1596     0.0000     0.0000 </r>
       <r>    39.4685     0.0000     0.0000 </r>
       <r>    39.7774     0.0000     0.0000 </r>
       <r>    40.0863     0.0000     0.0000 </r>
       <r>    40.3952     0.0000     0.0000 </r>
       <r>    40.7042     0.0000     0.0000 </r>
       <r>    41.0131     0.0000     0.0000 </r>
       <r>    41.3220     0.0000     0.0000 </r>
       <r>    41.6309     0.0000     0.0000 </r>
       <r>    41.9399     0.0000     0.0000 </r>
       <r>    42.2488     0.0000     0.0000 </r>
       <r>    42.5577     0.0000     0.0000 </r>
       <r>    42.8666     0.0000     0.0000 </r>
       <r>    43.1755     0.0000     0.0000 </r>
       <r>    43.4845     0.0000     0.0000 </r>
       <r>    43.7934     0.0000     0.0000 </r>
       <r>    44.1023     0.0000     0.0000 </r>
       <r>    44.4112     0.0000     0.0000 </r>
       <r>    44.7202     0.0000     0.0000 </r>
       <r>    45.0291     0.0000     0.0000 </r>
       <r>    45.3380     0.0000     0.0000 </r>
       <r>    45.6469     0.0000     0.0000 </r>
       <r>    45.9558     0.0000     0.0000 </r>
       <r>    46.2648     0.0000     0.0000 </r>
       <r>    46.5737     0.0000     0.0000 </r>
       <r>    46.8826     0.0000     0.0000 </r>
       <r>    47.1915     0.0000     0.0000 </r>
       <r>    47.5005     0.0000     0.0000 </r>
       <r>    47.8094     0.0000     0.0000 </r>
       <r>    48.1183     0.0000     0.0000 </r>
       <r>    48.4272     0.0000     0.0000 </r>
       <r>    48.7361     0.0000     0.0000 </r>
       <r>    49.0451     0.0000     0.0000 </r>
       <r>    49.3540     0.0000     0.0000 </r>
       <r>    49.6629     0.0000     0.0000 </r>
       <r>    49.9718     0.0000     0.0000 </r>
       <r>    50.2807     0.0000     0.0000 </r>
       <r>    50.5897     0.0000     0.0000 </r>
       <r>    50.8986     0.0000     0.0000 </r>
       <r>    51.2075     0.0000     0.0000 </r>
       <r>    51.5164     0.0000     0.0000 </r>
       <r>    51.8254     0.0000     0.0000 </r>
       <r>    52.1343     0.0000     0.0000 </r>
       <r>    52.4432     0.0000     0.0000 </r>
       <r>    52.7521     0.0000     0.0000 </r>
       <r>    53.0610     0.0000     0.0000 </r>
       <r>    53.3700     0.0000     0.0000 </r>
       <r>    53.6789     0.0000     0.0000 </r>
       <r>    53.9878     0.0000     0.0000 </r>
       <r>    54.2967     0.0000     0.0000 </r>
       <r>    54.6057     0.0000     0.0000 </r>
       <r>    54.9146     0.0000     0.0000 </r>
       <r>    55.2235     0.0000     0.0000 </r>
       <r>    55.5324     0.0000     0.0000 </r>
       <r>    55.8413     0.0000     0.0000 </r>
       <r>    56.1503     0.0000     0.0000 </r>
       <r>    56.4592     0.0000     0.0000 </r>
       <r>    56.7681     0.0000     0.0000 </r>
       <r>    57.0770     0.0000     0.0000 </r>
       <r>    57.3860     0.0000     0.0000 </r>
       <r>    57.6949     0.0000     0.0000 </r>
       <r>    58.0038     0.0000     0.0000 </r>
      </set>
      <set comment="spin 4">
       <r>   -34.6728     0.0000     0.0000 </r>
       <r>   -34.3639     0.0000     0.0000 </r>
       <r>   -34.0549     0.0000     0.0000 </r>
       <r>   -33.7460     0.0000     0.0000 </r>
       <r>   -33.4371     0.0000     0.0000 </r>
       <r>   -33.1282     0.0000     0.0000 </r>
       <r>   -32.8192     0.0000     0.0000 </r>
       <r>   -32.5103     0.0000     0.0000 </r>
       <r>   -32.2014     0.0000     0.0000 </r>
       <r>   -31.8925     0.0000     0.0000 </r>
       <r>   -31.5836     0.0000     0.0000 </r>
       <r>   -31.2746     0.0000     0.0000 </r>
       <r>   -30.9657     0.0000     0.0000 </r>
       <r>   -30.6568     0.0000     0.0000 </r>
       <r>   -30.3479     0.0000     0.0000 </r>
       <r>   -30.0390     0.0000     0.0000 </r>
       <r>   -29.7300     0.0000     0.0000 </r>
       <r>   -29.4211     0.0000     0.0000 </r>
       <r>   -29.1122     0.0000     0.0000 </r>
       <r>   -28.8033     0.0000     0.0000 </r>
       <r>   -28.4943     0.0000     0.0000 </r>
       <r>   -28.1854     0.0000     0.0000 </r>
       <r>   -27.8765     0.0000     0.0000 </r>
       <r>   -27.5676     0.0000     0.0000 </r>
       <r>   -27.2587     0.0000     0.0000 </r>
       <r>   -26.9497     0.0000     0.0000 </r>
       <r>   -26.6408     0.0000     0.0000 </r>
       <r>   -26.3319     0.0000     0.0000 </r>
       <r>   -26.0230     0.0000     0.0000 </r>
       <r>   -25.7140     0.0000     0.0000 </r>
       <r>   -25.4051     0.0000     0.0000 </r>
       <r>   -25.0962     0.0000     0.0000 </r>
       <r>   -24.7873     0.0000     0.0000 </r>
       <r>   -24.4784     0.0000     0.0000 </r>
       <r>   -24.1694     0.0000     0.0000 </r>
       <r>   -23.8605     0.0000     0.0000 </r>
       <r>   -23.5516     0.0000     0.0000 </r>
       <r>   -23.2427     0.0000     0.0000 </r>
       <r>   -22.9337     0.0000     0.0000 </r>
       <r>   -22.6248     0.0000     0.0000 </r>
       <r>   -22.3159     0.0000     0.0000 </r>
       <r>   -22.0070     0.0000     0.0000 </r>
       <r>   -21.6981     0.0000     0.0000 </r>
       <r>   -21.3891     0.0000     0.0000 </r>
       <r>   -21.0802     0.0000     0.0000 </r>
       <r>   -20.7713     0.0000     0.0000 </r>
       <r>   -20.4624     0.0000     0.0000 </r>
       <r>   -20.1535     0.0000     0.0000 </r>
       <r>   -19.8445     0.0000     0.0000 </r>
       <r>   -19.5356     0.0000     0.0000 </r>
       <r>   -19.2267     0.0000     0.0000 </r>
       <r>   -18.9178     0.0000     0.0000 </r>
       <r>   -18.6088     0.0000     0.0000 </r>
       <r>   -18.2999     0.0000     0.0000 </r>
       <r>   -17.9910     0.0000     0.0000 </r>
       <r>   -17.6821     0.0000     0.0000 </r>
       <r>   -17.3732     0.0000     0.0000 </r>
       <r>   -17.0642     0.0000     0.0000 </r>
       <r>   -16.7553     0.0000     0.0000 </r>
       <r>   -16.4464     0.0000     0.0000 </r>
       <r>   -16.1375     0.0000     0.0000 </r>
       <r>   -15.8285     0.0000     0.0000 </r>
       <r>   -15.5196     0.0000     0.0000 </r>
       <r>   -15.2107     0.0000     0.0000 </r>
       <r>   -14.9018     0.0000     0.0000 </r>
       <r>   -14.5929     0.0000     0.0000 </r>
       <r>   -14.2839     0.0000     0.0000 </r>
       <r>   -13.9750     0.0000     0.0000 </r>
       <r>   -13.6661     0.0000     0.0000 </r>
       <r>   -13.3572     0.0000     0.0000 </r>
       <r>   -13.0482     0.0000     0.0000 </r>
       <r>   -12.7393     0.0000     0.0000 </r>
       <r>   -12.4304     0.0000     0.0000 </r>
       <r>   -12.1215     0.0000     0.0000 </r>
       <r>   -11.8126     0.0000     0.0000 </r>
       <r>   -11.5036     0.0000     0.0000 </r>
       <r>   -11.1947     0.0000     0.0000 </r>
       <r>   -10.8858     0.0000     0.0000 </r>
       <r>   -10.5769     0.0000     0.0000 </r>
       <r>   -10.2679     0.0000     0.0000 </r>
       <r>    -9.9590     0.0000     0.0000 </r>
       <r>    -9.6501     0.0000     0.0000 </r>
       <r>    -9.3412     0.0000     0.0000 </r>
       <r>    -9.0323     0.0000     0.0000 </r>
       <r>    -8.7233     0.0000     0.0000 </r>
       <r>    -8.4144     0.0000     0.0000 </r>
       <r>    -8.1055     0.0000     0.0000 </r>
       <r>    -7.7966     0.0000     0.0000 </r>
       <r>    -7.4877     0.0000     0.0000 </r>
       <r>    -7.1787     0.0000     0.0000 </r>
       <r>    -6.8698     0.0000     0.0000 </r>
       <r>    -6.5609     0.0000     0.0000 </r>
       <r>    -6.2520     0.0000     0.0000 </r>
       <r>    -5.9430     0.0000     0.0000 </r>
       <r>    -5.6341     0.0000     0.0000 </r>
       <r>    -5.3252     0.0000     0.0000 </r>
       <r>    -5.0163     0.0000     0.0000 </r>
       <r>    -4.7074     0.0000     0.0000 </r>
       <r>    -4.3984     0.0000     0.0000 </r>
       <r>    -4.0895     0.0000     0.0000 </r>
       <r>    -3.7806     0.0000     0.0000 </r>
       <r>    -3.4717     0.0000     0.0000 </r>
       <r>    -3.1627     0.0000     0.0000 </r>
       <r>    -2.8538     0.0000     0.0000 </r>
       <r>    -2.5449     0.0000     0.0000 </r>
       <r>    -2.2360     0.0000     0.0000 </r>
       <r>    -1.9271     0.0000     0.0000 </r>
       <r>    -1.6181     0.0000     0.0000 </r>
       <r>    -1.3092     0.0000     0.0000 </r>
       <r>    -1.0003     0.0000     0.0000 </r>
       <r>    -0.6914     0.0000     0.0000 </r>
       <r>    -0.3824     0.0000     0.0000 </r>
       <r>    -0.0735     0.0000     0.0000 </r>
       <r>     0.2354     0.0000     0.0000 </r>
       <r>     0.5443     0.0000     0.0000 </r>
       <r>     0.8532     0.0000     0.0000 </r>
       <r>     1.1622     0.0000     0.0000 </r>
       <r>     1.4711     0.0000     0.0000 </r>
       <r>     1.7800     0.0000     0.0000 </r>
       <r>     2.0889     0.0000     0.0000 </r>
       <r>     2.3979     0.0000     0.0000 </r>
       <r>     2.7068     0.0000     0.0000 </r>
       <r>     3.0157     0.0000     0.0000 </r>
       <r>     3.3246     0.0000     0.0000 </r>
       <r>     3.6335     0.0000     0.0000 </r>
       <r>     3.9425     0.0000     0.0000 </r>
       <r>     4.2514     0.0000     0.0000 </r>
       <r>     4.5603     0.0000     0.0000 </r>
       <r>     4.8692     0.0000     0.0000 </r>
       <r>     5.1781     0.0000     0.0000 </r>
       <r>     5.4871     0.0000     0.0000 </r>
       <r>     5.7960     0.0000     0.0000 </r>
       <r>     6.1049     0.0000     0.0000 </r>
       <r>     6.4138     0.0000     0.0000 </r>
       <r>     6.7228     0.0000     0.0000 </r>
       <r>     7.0317     0.0000     0.0000 </r>
       <r>     7.3406     0.0000     0.0000 </r>
       <r>     7.6495     0.0000     0.0000 </r>
       <r>     7.9584     0.0000     0.0000 </r>
       <r>     8.2674     0.0000     0.0000 </r>
       <r>     8.5763     0.0000     0.0000 </r>
       <r>     8.8852     0.0000     0.0000 </r>
       <r>     9.1941     0.0000     0.0000 </r>
       <r>     9.5031     0.0000     0.0000 </r>
       <r>     9.8120     0.0000     0.0000 </r>
       <r>    10.1209     0.0000     0.0000 </r>
       <r>    10.4298     0.0000     0.0000 </r>
       <r>    10.7387     0.0000     0.0000 </r>
       <r>    11.0477     0.0000     0.0000 </r>
       <r>    11.3566     0.0000     0.0000 </r>
       <r>    11.6655     0.0000     0.0000 </r>
       <r>    11.9744     0.0000     0.0000 </r>
       <r>    12.2834     0.0000     0.0000 </r>
       <r>    12.5923     0.0000     0.0000 </r>
       <r>    12.9012     0.0000     0.0000 </r>
       <r>    13.2101     0.0000     0.0000 </r>
       <r>    13.5190     0.0000     0.0000 </r>
       <r>    13.8280     0.0000     0.0000 </r>
       <r>    14.1369     0.0000     0.0000 </r>
       <r>    14.4458     0.0000     0.0000 </r>
       <r>    14.7547     0.0000     0.0000 </r>
       <r>    15.0636     0.0000     0.0000 </r>
       <r>    15.3726     0.0000     0.0000 </r>
       <r>    15.6815     0.0000     0.0000 </r>
       <r>    15.9904     0.0000     0.0000 </r>
       <r>    16.2993     0.0000     0.0000 </r>
       <r>    16.6083     0.0000     0.0000 </r>
       <r>    16.9172     0.0000     0.0000 </r>
       <r>    17.2261     0.0000     0.0000 </r>
       <r>    17.5350     0.0000     0.0000 </r>
       <r>    17.8439     0.0000     0.0000 </r>
       <r>    18.1529     0.0000     0.0000 </r>
       <r>    18.4618     0.0000     0.0000 </r>
       <r>    18.7707     0.0000     0.0000 </r>
       <r>    19.0796     0.0000     0.0000 </r>
       <r>    19.3886     0.0000     0.0000 </r>
       <r>    19.6975     0.0000     0.0000 </r>
       <r>    20.0064     0.0000     0.0000 </r>
       <r>    20.3153     0.0000     0.0000 </r>
       <r>    20.6242     0.0000     0.0000 </r>
       <r>    20.9332     0.0000     0.0000 </r>
       <r>    21.2421     0.0000     0.0000 </r>
       <r>    21.5510     0.0000     0.0000 </r>
       <r>    21.8599     0.0000     0.0000 </r>
       <r>    22.1689     0.0000     0.0000 </r>
       <r>    22.4778     0.0000     0.0000 </r>
       <r>    22.7867     0.0000     0.0000 </r>
       <r>    23.0956     0.0000     0.0000 </r>
       <r>    23.4045     0.0000     0.0000 </r>
       <r>    23.7135     0.0000     0.0000 </r>
       <r>    24.0224     0.0000     0.0000 </r>
       <r>    24.3313     0.0000     0.0000 </r>
       <r>    24.6402     0.0000     0.0000 </r>
       <r>    24.9492     0.0000     0.0000 </r>
       <r>    25.2581     0.0000     0.0000 </r>
       <r>    25.5670     0.0000     0.0000 </r>
       <r>    25.8759     0.0000     0.0000 </r>
       <r>    26.1848     0.0000     0.0000 </r>
       <r>    26.4938     0.0000     0.0000 </r>
       <r>    26.8027     0.0000     0.0000 </r>
       <r>    27.1116     0.0000     0.0000 </r>
       <r>    27.4205     0.0000     0.0000 </r>
       <r>    27.7294     0.0000     0.0000 </r>
       <r>    28.0384     0.0000     0.0000 </r>
       <r>    28.3473     0.0000     0.0000 </r>
       <r>    28.6562     0.0000     0.0000 </r>
       <r>    28.9651     0.0000     0.0000 </r>
       <r>    29.2741     0.0000     0.0000 </r>
       <r>    29.5830     0.0000     0.0000 </r>
       <r>    29.8919     0.0000     0.0000 </r>
       <r>    30.2008     0.0000     0.0000 </r>
       <r>    30.5097     0.0000     0.0000 </r>
       <r>    30.8187     0.0000     0.0000 </r>
       <r>    31.1276     0.0000     0.0000 </r>
       <r>    31.4365     0.0000     0.0000 </r>
       <r>    31.7454     0.0000     0.0000 </r>
       <r>    32.0544     0.0000     0.0000 </r>
       <r>    32.3633     0.0000     0.0000 </r>
       <r>    32.6722     0.0000     0.0000 </r>
       <r>    32.9811     0.0000     0.0000 </r>
       <r>    33.2900     0.0000     0.0000 </r>
       <r>    33.5990     0.0000     0.0000 </r>
       <r>    33.9079     0.0000     0.0000 </r>
       <r>    34.2168     0.0000     0.0000 </r>
       <r>    34.5257     0.0000     0.0000 </r>
       <r>    34.8347     0.0000     0.0000 </r>
       <r>    35.1436     0.0000     0.0000 </r>
       <r>    35.4525     0.0000     0.0000 </r>
       <r>    35.7614     0.0000     0.0000 </r>
       <r>    36.0703     0.0000     0.0000 </r>
       <r>    36.3793     0.0000     0.0000 </r>
       <r>    36.6882     0.0000     0.0000 </r>
       <r>    36.9971     0.0000     0.0000 </r>
       <r>    37.3060     0.0000     0.0000 </r>
       <r>    37.6150     0.0000     0.0000 </r>
       <r>    37.9239     0.0000     0.0000 </r>
       <r>    38.2328     0.0000     0.0000 </r>
       <r>    38.5417     0.0000     0.0000 </r>
       <r>    38.8506     0.0000     0.0000 </r>
       <r>    39.1596     0.0000     0.0000 </r>
       <r>    39.4685     0.0000     0.0000 </r>
       <r>    39.7774     0.0000     0.0000 </r>
       <r>    40.0863     0.0000     0.0000 </r>
       <r>    40.3952     0.0000     0.0000 </r>
       <r>    40.7042     0.0000     0.0000 </r>
       <r>    41.0131     0.0000     0.0000 </r>
       <r>    41.3220     0.0000     0.0000 </r>
       <r>    41.6309     0.0000     0.0000 </r>
       <r>    41.9399     0.0000     0.0000 </r>
       <r>    42.2488     0.0000     0.0000 </r>
       <r>    42.5577     0.0000     0.0000 </r>
       <r>    42.8666     0.0000     0.0000 </r>
       <r>    43.1755     0.0000     0.0000 </r>
       <r>    43.4845     0.0000     0.0000 </r>
       <r>    43.7934     0.0000     0.0000 </r>
       <r>    44.1023     0.0000     0.0000 </r>
       <r>    44.4112     0.0000     0.0000 </r>
       <r>    44.7202     0.0000     0.0000 </r>
       <r>    45.0291     0.0000     0.0000 </r>
       <r>    45.3380     0.0000     0.0000 </r>
       <r>    45.6469     0.0000     0.0000 </r>
       <r>    45.9558     0.0000     0.0000 </r>
       <r>    46.2648     0.0000     0.0000 </r>
       <r>    46.5737     0.0000     0.0000 </r>
       <r>    46.8826     0.0000     0.0000 </r>
       <r>    47.1915     0.0000     0.0000 </r>
       <r>    47.5005     0.0000     0.0000 </r>
       <r>    47.8094     0.0000     0.0000 </r>
       <r>    48.1183     0.0000     0.0000 </r>
       <r>    48.4272     0.0000     0.0000 </r>
       <r>    48.7361     0.0000     0.0000 </r>
       <r>    49.0451     0.0000     0.0000 </r>
       <r>    49.3540     0.0000     0.0000 </r>
       <r>    49.6629     0.0000     0.0000 </r>
       <r>    49.9718     0.0000     0.0000 </r>
       <r>    50.2807     0.0000     0.0000 </r>
       <r>    50.5897     0.0000     0.0000 </r>
       <r>    50.8986     0.0000     0.0000 </r>
       <r>    51.2075     0.0000     0.0000 </r>
       <r>    51.5164     0.0000     0.0000 </r>
       <r>    51.8254     0.0000     0.0000 </r>
       <r>    52.1343     0.0000     0.0000 </r>
       <r>    52.4432     0.0000     0.0000 </r>
       <r>    52.7521     0.0000     0.0000 </r>
       <r>    53.0610     0.0000     0.0000 </r>
       <r>    53.3700     0.0000     0.0000 </r>
       <r>    53.6789     0.0000     0.0000 </r>
       <r>    53.9878     0.0000     0.0000 </r>
       <r>    54.2967     0.0000     0.0000 </r>
       <r>    54.6057     0.0000     0.0000 </r>
       <r>    54.9146     0.0000     0.0000 </r>
       <r>    55.2235     0.0000     0.0000 </r>
       <r>    55.5324     0.0000     0.0000 </r>
       <r>    55.8413     0.0000     0.0000 </r>
       <r>    56.1503     0.0000     0.0000 </r>
       <r>    56.4592     0.0000     0.0000 </r>
       <r>    56.7681     0.0000     0.0000 </r>
       <r>    57.0770     0.0000     0.0000 </r>
       <r>    57.3860     0.0000     0.0000 </r>
       <r>    57.6949     0.0000     0.0000 </r>
       <r>    58.0038     0.0000     0.0000 </r>
      </set>
     </set>
    </array>
   </total>
  </dos>
 </calculation>
 <structure name="finalpos" >
  <crystal>
   <varray name="basis" >
    <v>       4.34234588       0.00000000       0.00000000 </v>
    <v>       2.17117294       3.76058184      -0.00000000 </v>
    <v>       2.17117294       1.25352728       3.54551056 </v>
   </varray>
   <i name="volume">     57.89729060 </i>
   <varray name="rec_basis" >
    <v>       0.23029027      -0.13295815      -0.09401561 </v>
    <v>       0.00000000       0.26591630      -0.09401561 </v>
    <v>      -0.00000000       0.00000000       0.28204683 </v>
   </varray>
  </crystal>
  <varray name="positions" >
   <v>       0.00000000       0.00000000       0.00000000 </v>
  </varray>
  <varray name="velocities" >
   <v>       0.00000000       0.00000000       0.00000000 </v>
  </varray>
 </structure>
</modeling>
