   1   1   0   0
  0.6083477E+02  0.4414576E-09  0.4414576E-09  0.4414576E-09  0.1000000E-15
  1.000000000000000E-004
  CAR 
 Og_FCC                                  
    129.40298437    -59.07347499  301     -3.00172833      1.00000000
    -59.073  0.0000E+00  0.0000E+00
    -58.445  0.0000E+00  0.0000E+00
    -57.817  0.0000E+00  0.0000E+00
    -57.189  0.0000E+00  0.0000E+00
    -56.560  0.0000E+00  0.0000E+00
    -55.932  0.0000E+00  0.0000E+00
    -55.304  0.0000E+00  0.0000E+00
    -54.676  0.0000E+00  0.0000E+00
    -54.047  0.0000E+00  0.0000E+00
    -53.419  0.0000E+00  0.0000E+00
    -52.791  0.0000E+00  0.0000E+00
    -52.163  0.0000E+00  0.0000E+00
    -51.534  0.0000E+00  0.0000E+00
    -50.906  0.0000E+00  0.0000E+00
    -50.278  0.6367E+01  0.4000E+01
    -49.650  0.0000E+00  0.4000E+01
    -49.021  0.0000E+00  0.4000E+01
    -48.393  0.0000E+00  0.4000E+01
    -47.765  0.0000E+00  0.4000E+01
    -47.137  0.0000E+00  0.4000E+01
    -46.508  0.0000E+00  0.4000E+01
    -45.880  0.1192E-02  0.4001E+01
    -45.252  0.0000E+00  0.1000E+02
    -44.624  0.0000E+00  0.1000E+02
    -43.995  0.0000E+00  0.1000E+02
    -43.367  0.0000E+00  0.1000E+02
    -42.739  0.0000E+00  0.1000E+02
    -42.111  0.0000E+00  0.1000E+02
    -41.482  0.0000E+00  0.1000E+02
    -40.854  0.0000E+00  0.1000E+02
    -40.226  0.0000E+00  0.1000E+02
    -39.598  0.0000E+00  0.1000E+02
    -38.969  0.0000E+00  0.1000E+02
    -38.341  0.0000E+00  0.1000E+02
    -37.713  0.0000E+00  0.1000E+02
    -37.085  0.0000E+00  0.1000E+02
    -36.456  0.0000E+00  0.1000E+02
    -35.828  0.0000E+00  0.1000E+02
    -35.200  0.0000E+00  0.1000E+02
    -34.572  0.0000E+00  0.1000E+02
    -33.943  0.0000E+00  0.1000E+02
    -33.315  0.0000E+00  0.1000E+02
    -32.687  0.0000E+00  0.1000E+02
    -32.059  0.0000E+00  0.1000E+02
    -31.430  0.0000E+00  0.1000E+02
    -30.802  0.0000E+00  0.1000E+02
    -30.174  0.0000E+00  0.1000E+02
    -29.545  0.0000E+00  0.1000E+02
    -28.917  0.0000E+00  0.1000E+02
    -28.289  0.0000E+00  0.1000E+02
    -27.661  0.0000E+00  0.1000E+02
    -27.032  0.0000E+00  0.1000E+02
    -26.404  0.0000E+00  0.1000E+02
    -25.776  0.0000E+00  0.1000E+02
    -25.148  0.0000E+00  0.1000E+02
    -24.519  0.0000E+00  0.1000E+02
    -23.891  0.0000E+00  0.1000E+02
    -23.263  0.0000E+00  0.1000E+02
    -22.635  0.0000E+00  0.1000E+02
    -22.006  0.0000E+00  0.1000E+02
    -21.378  0.0000E+00  0.1000E+02
    -20.750  0.0000E+00  0.1000E+02
    -20.122  0.1163E+00  0.1007E+02
    -19.493  0.2211E+00  0.1200E+02
    -18.865  0.0000E+00  0.1200E+02
    -18.237  0.0000E+00  0.1200E+02
    -17.609  0.0000E+00  0.1200E+02
    -16.980  0.0000E+00  0.1200E+02
    -16.352  0.0000E+00  0.1200E+02
    -15.724  0.0000E+00  0.1200E+02
    -15.096  0.0000E+00  0.1200E+02
    -14.467  0.0000E+00  0.1200E+02
    -13.839  0.0000E+00  0.1200E+02
    -13.211  0.0000E+00  0.1200E+02
    -12.583  0.0000E+00  0.1200E+02
    -11.954  0.0000E+00  0.1200E+02
    -11.326  0.0000E+00  0.1200E+02
    -10.698  0.0000E+00  0.1200E+02
    -10.070  0.0000E+00  0.1200E+02
     -9.441  0.0000E+00  0.1200E+02
     -8.813  0.0000E+00  0.1200E+02
     -8.185  0.4329E-01  0.1203E+02
     -7.557  0.7368E+00  0.1386E+02
     -6.928  0.1474E-01  0.1400E+02
     -6.300  0.0000E+00  0.1400E+02
     -5.672  0.1762E-13  0.1400E+02
     -5.044  0.2281E+01  0.1543E+02
     -4.415  0.1266E+01  0.1655E+02
     -3.787  0.1354E+01  0.1768E+02
     -3.159  0.1474E+00  0.1800E+02
     -2.531  0.0000E+00  0.1800E+02
     -1.902  0.0000E+00  0.1800E+02
     -1.274  0.0000E+00  0.1800E+02
     -0.646  0.0000E+00  0.1800E+02
     -0.018  0.0000E+00  0.1800E+02
      0.611  0.0000E+00  0.1800E+02
      1.239  0.0000E+00  0.1800E+02
      1.867  0.0000E+00  0.1800E+02
      2.496  0.0000E+00  0.1800E+02
      3.124  0.0000E+00  0.1800E+02
      3.752  0.1474E-01  0.1801E+02
      4.380  0.1070E-05  0.1801E+02
      5.009  0.8843E-01  0.1814E+02
      5.637  0.2378E+00  0.1832E+02
      6.265  0.7374E+00  0.1913E+02
      6.893  0.7742E+00  0.2007E+02
      7.522  0.4462E+00  0.2059E+02
      8.150  0.1129E+01  0.2201E+02
      8.778  0.5050E+00  0.2235E+02
      9.406  0.1327E+01  0.2360E+02
     10.035  0.1122E+01  0.2469E+02
     10.663  0.1341E+00  0.2558E+02
     11.291  0.3165E+00  0.2603E+02
     11.919  0.8861E+00  0.2730E+02
     12.548  0.9183E+00  0.2835E+02
     13.176  0.1130E+01  0.2915E+02
     13.804  0.1318E+01  0.3038E+02
     14.432  0.6666E+00  0.3117E+02
     15.061  0.6212E+00  0.3170E+02
     15.689  0.3395E+01  0.3456E+02
     16.317  0.3436E+01  0.3785E+02
     16.945  0.3659E+01  0.4162E+02
     17.574  0.2262E+01  0.4347E+02
     18.202  0.1228E+01  0.4447E+02
     18.830  0.7075E+00  0.4548E+02
     19.458  0.1580E+01  0.4702E+02
     20.087  0.7956E+00  0.4794E+02
     20.715  0.8878E+00  0.4951E+02
     21.343  0.1373E+01  0.5124E+02
     21.971  0.2386E+01  0.5313E+02
     22.600  0.2328E+01  0.5530E+02
     23.228  0.1574E+01  0.5670E+02
     23.856  0.2439E+00  0.5776E+02
     24.484  0.8975E+00  0.5867E+02
     25.113  0.9438E+00  0.6020E+02
     25.741  0.9531E+00  0.6146E+02
     26.369  0.2205E+01  0.6320E+02
     26.997  0.1389E+01  0.6447E+02
     27.626  0.1550E+01  0.6606E+02
     28.254  0.2572E+01  0.6828E+02
     28.882  0.2373E+01  0.7052E+02
     29.510  0.9663E+00  0.7178E+02
     30.139  0.9713E+00  0.7296E+02
     30.767  0.1903E+01  0.7416E+02
     31.395  0.5921E+00  0.7506E+02
     32.023  0.2420E+01  0.7774E+02
     32.652  0.2156E+01  0.7997E+02
     33.280  0.1471E+01  0.8168E+02
     33.908  0.9795E+00  0.8316E+02
     34.536  0.2131E+01  0.8494E+02
     35.165  0.1950E+01  0.8659E+02
     35.793  0.1110E+01  0.8775E+02
     36.421  0.9775E+00  0.8921E+02
     37.050  0.1698E+01  0.9077E+02
     37.678  0.2090E+01  0.9246E+02
     38.306  0.2085E+01  0.9460E+02
     38.934  0.1514E+01  0.9625E+02
     39.563  0.1104E+01  0.9792E+02
     40.191  0.1367E+01  0.9938E+02
     40.819  0.1434E+01  0.1015E+03
     41.447  0.1435E+01  0.1032E+03
     42.076  0.2121E+01  0.1054E+03
     42.704  0.2388E+01  0.1080E+03
     43.332  0.6614E+00  0.1088E+03
     43.960  0.2603E+01  0.1106E+03
     44.589  0.2239E+01  0.1127E+03
     45.217  0.1563E+01  0.1148E+03
     45.845  0.2092E+01  0.1169E+03
     46.473  0.1142E+01  0.1185E+03
     47.102  0.2295E+01  0.1205E+03
     47.730  0.1402E+01  0.1218E+03
     48.358  0.2038E+01  0.1234E+03
     48.986  0.1935E+01  0.1255E+03
     49.615  0.1458E+01  0.1278E+03
     50.243  0.2617E+01  0.1303E+03
     50.871  0.1633E+01  0.1320E+03
     51.499  0.1811E+01  0.1340E+03
     52.128  0.2549E+01  0.1359E+03
     52.756  0.1101E+01  0.1376E+03
     53.384  0.2627E+01  0.1398E+03
     54.012  0.2118E+01  0.1419E+03
     54.641  0.1983E+01  0.1432E+03
     55.269  0.1983E+01  0.1455E+03
     55.897  0.1886E+01  0.1473E+03
     56.525  0.2289E+01  0.1489E+03
     57.154  0.1907E+01  0.1514E+03
     57.782  0.2367E+01  0.1539E+03
     58.410  0.2121E+01  0.1560E+03
     59.038  0.2151E+01  0.1580E+03
     59.667  0.1461E+01  0.1597E+03
     60.295  0.3009E+01  0.1619E+03
     60.923  0.2696E+01  0.1653E+03
     61.551  0.3396E+01  0.1681E+03
     62.180  0.1720E+01  0.1698E+03
     62.808  0.1599E+01  0.1711E+03
     63.436  0.2397E+01  0.1734E+03
     64.064  0.2543E+01  0.1752E+03
     64.693  0.1251E+01  0.1771E+03
     65.321  0.2881E+01  0.1798E+03
     65.949  0.2301E+01  0.1820E+03
     66.577  0.2830E+01  0.1845E+03
     67.206  0.1670E+01  0.1863E+03
     67.834  0.2814E+01  0.1885E+03
     68.462  0.1514E+01  0.1903E+03
     69.091  0.2693E+01  0.1929E+03
     69.719  0.2098E+01  0.1946E+03
     70.347  0.1544E+01  0.1968E+03
     70.975  0.3535E+01  0.2001E+03
     71.604  0.2738E+01  0.2028E+03
     72.232  0.2413E+01  0.2047E+03
     72.860  0.2237E+01  0.2068E+03
     73.488  0.2866E+01  0.2091E+03
     74.117  0.1403E+01  0.2111E+03
     74.745  0.1811E+01  0.2137E+03
     75.373  0.2132E+01  0.2157E+03
     76.001  0.3149E+01  0.2187E+03
     76.630  0.2103E+01  0.2208E+03
     77.258  0.1410E+01  0.2226E+03
     77.886  0.2634E+01  0.2253E+03
     78.514  0.3068E+01  0.2279E+03
     79.143  0.1871E+01  0.2306E+03
     79.771  0.2233E+01  0.2326E+03
     80.399  0.2432E+01  0.2351E+03
     81.027  0.1538E+01  0.2371E+03
     81.656  0.3185E+01  0.2396E+03
     82.284  0.2172E+01  0.2421E+03
     82.912  0.1935E+01  0.2443E+03
     83.540  0.3305E+01  0.2479E+03
     84.169  0.1435E+01  0.2492E+03
     84.797  0.3467E+01  0.2522E+03
     85.425  0.2829E+01  0.2546E+03
     86.053  0.2791E+01  0.2576E+03
     86.682  0.2617E+01  0.2605E+03
     87.310  0.1731E+01  0.2621E+03
     87.938  0.3583E+01  0.2653E+03
     88.566  0.1776E+01  0.2678E+03
     89.195  0.1882E+01  0.2698E+03
     89.823  0.3467E+01  0.2734E+03
     90.451  0.3107E+01  0.2757E+03
     91.079  0.2113E+01  0.2775E+03
     91.708  0.1372E+01  0.2797E+03
     92.336  0.3088E+01  0.2820E+03
     92.964  0.2251E+01  0.2844E+03
     93.592  0.2039E+01  0.2869E+03
     94.221  0.3845E+01  0.2904E+03
     94.849  0.3491E+01  0.2932E+03
     95.477  0.4403E+01  0.2967E+03
     96.105  0.2566E+01  0.2991E+03
     96.734  0.3046E+01  0.3018E+03
     97.362  0.3188E+01  0.3044E+03
     97.990  0.3337E+01  0.3071E+03
     98.618  0.1590E+01  0.3085E+03
     99.247  0.2416E+01  0.3114E+03
     99.875  0.2914E+01  0.3141E+03
    100.503  0.3113E+01  0.3167E+03
    101.132  0.1915E+01  0.3186E+03
    101.760  0.2965E+01  0.3214E+03
    102.388  0.1792E+01  0.3239E+03
    103.016  0.2179E+01  0.3268E+03
    103.645  0.3273E+01  0.3298E+03
    104.273  0.2813E+01  0.3325E+03
    104.901  0.3506E+01  0.3364E+03
    105.529  0.2061E+01  0.3388E+03
    106.158  0.3028E+01  0.3423E+03
    106.786  0.2581E+01  0.3453E+03
    107.414  0.2596E+01  0.3478E+03
    108.042  0.2168E+01  0.3498E+03
    108.671  0.2985E+01  0.3525E+03
    109.299  0.1619E+01  0.3550E+03
    109.927  0.2084E+01  0.3573E+03
    110.555  0.3091E+01  0.3600E+03
    111.184  0.3500E+01  0.3632E+03
    111.812  0.2744E+01  0.3657E+03
    112.440  0.3613E+01  0.3689E+03
    113.068  0.3728E+01  0.3726E+03
    113.697  0.1360E+01  0.3749E+03
    114.325  0.3880E+01  0.3783E+03
    114.953  0.1360E+01  0.3803E+03
    115.581  0.1172E+01  0.3815E+03
    116.210  0.1592E+01  0.3832E+03
    116.838  0.4121E+00  0.3835E+03
    117.466  0.1763E-03  0.3836E+03
    118.094  0.2235E-01  0.3838E+03
    118.723  0.1474E-01  0.3839E+03
    119.351  0.1179E+00  0.3840E+03
    119.979  0.2948E-01  0.3840E+03
    120.607  0.1308E-10  0.3840E+03
    121.236  0.2948E-01  0.3840E+03
    121.864  0.0000E+00  0.3840E+03
    122.492  0.0000E+00  0.3840E+03
    123.120  0.0000E+00  0.3840E+03
    123.749  0.0000E+00  0.3840E+03
    124.377  0.0000E+00  0.3840E+03
    125.005  0.0000E+00  0.3840E+03
    125.633  0.0000E+00  0.3840E+03
    126.262  0.0000E+00  0.3840E+03
    126.890  0.0000E+00  0.3840E+03
    127.518  0.0000E+00  0.3840E+03
    128.146  0.0000E+00  0.3840E+03
    128.775  0.0000E+00  0.3840E+03
    129.403  0.0000E+00  0.3840E+03
