   1   1   0   0
  0.5789729E+02  0.4342346E-09  0.4342346E-09  0.4342346E-09  0.1000000E-15
  1.000000000000000E-004
  CAR 
 Og_FCC                                  
     33.77286748    -33.52754373  301      3.96439368      1.00000000
    -33.528  0.0000E+00  0.0000E+00
    -33.303  0.0000E+00  0.0000E+00
    -33.079  0.0000E+00  0.0000E+00
    -32.855  0.0000E+00  0.0000E+00
    -32.630  0.0000E+00  0.0000E+00
    -32.406  0.0000E+00  0.0000E+00
    -32.182  0.0000E+00  0.0000E+00
    -31.957  0.0000E+00  0.0000E+00
    -31.733  0.0000E+00  0.0000E+00
    -31.509  0.0000E+00  0.0000E+00
    -31.284  0.0000E+00  0.0000E+00
    -31.060  0.0000E+00  0.0000E+00
    -30.836  0.0000E+00  0.0000E+00
    -30.611  0.0000E+00  0.0000E+00
    -30.387  0.0000E+00  0.4000E+01
    -30.163  0.0000E+00  0.4000E+01
    -29.938  0.0000E+00  0.4000E+01
    -29.714  0.0000E+00  0.4000E+01
    -29.490  0.0000E+00  0.4000E+01
    -29.265  0.0000E+00  0.4000E+01
    -29.041  0.0000E+00  0.4000E+01
    -28.817  0.0000E+00  0.4000E+01
    -28.592  0.0000E+00  0.4000E+01
    -28.368  0.0000E+00  0.4000E+01
    -28.144  0.0000E+00  0.4000E+01
    -27.919  0.0000E+00  0.4000E+01
    -27.695  0.0000E+00  0.4000E+01
    -27.471  0.0000E+00  0.4000E+01
    -27.246  0.0000E+00  0.4000E+01
    -27.022  0.0000E+00  0.4000E+01
    -26.798  0.0000E+00  0.4000E+01
    -26.573  0.0000E+00  0.4000E+01
    -26.349  0.0000E+00  0.4000E+01
    -26.124  0.0000E+00  0.4000E+01
    -25.900  0.0000E+00  0.4000E+01
    -25.676  0.0000E+00  0.4000E+01
    -25.451  0.0000E+00  0.4000E+01
    -25.227  0.0000E+00  0.4000E+01
    -25.003  0.0000E+00  0.4000E+01
    -24.778  0.0000E+00  0.4000E+01
    -24.554  0.0000E+00  0.4000E+01
    -24.330  0.0000E+00  0.4000E+01
    -24.105  0.0000E+00  0.4000E+01
    -23.881  0.0000E+00  0.4000E+01
    -23.657  0.0000E+00  0.1000E+02
    -23.432  0.0000E+00  0.1000E+02
    -23.208  0.0000E+00  0.1000E+02
    -22.984  0.0000E+00  0.1000E+02
    -22.759  0.0000E+00  0.1000E+02
    -22.535  0.0000E+00  0.1000E+02
    -22.311  0.0000E+00  0.1000E+02
    -22.086  0.0000E+00  0.1000E+02
    -21.862  0.0000E+00  0.1000E+02
    -21.638  0.0000E+00  0.1000E+02
    -21.413  0.0000E+00  0.1000E+02
    -21.189  0.0000E+00  0.1000E+02
    -20.965  0.0000E+00  0.1000E+02
    -20.740  0.0000E+00  0.1000E+02
    -20.516  0.0000E+00  0.1000E+02
    -20.292  0.0000E+00  0.1000E+02
    -20.067  0.1672E+01  0.1172E+02
    -19.843  0.0000E+00  0.1200E+02
    -19.619  0.0000E+00  0.1200E+02
    -19.394  0.0000E+00  0.1200E+02
    -19.170  0.0000E+00  0.1200E+02
    -18.946  0.0000E+00  0.1200E+02
    -18.721  0.0000E+00  0.1200E+02
    -18.497  0.0000E+00  0.1200E+02
    -18.273  0.0000E+00  0.1200E+02
    -18.048  0.0000E+00  0.1200E+02
    -17.824  0.0000E+00  0.1200E+02
    -17.600  0.0000E+00  0.1200E+02
    -17.375  0.0000E+00  0.1200E+02
    -17.151  0.0000E+00  0.1200E+02
    -16.927  0.0000E+00  0.1200E+02
    -16.702  0.0000E+00  0.1200E+02
    -16.478  0.0000E+00  0.1200E+02
    -16.254  0.0000E+00  0.1200E+02
    -16.029  0.0000E+00  0.1200E+02
    -15.805  0.0000E+00  0.1200E+02
    -15.581  0.0000E+00  0.1200E+02
    -15.356  0.0000E+00  0.1200E+02
    -15.132  0.0000E+00  0.1200E+02
    -14.908  0.0000E+00  0.1200E+02
    -14.683  0.0000E+00  0.1200E+02
    -14.459  0.0000E+00  0.1200E+02
    -14.235  0.0000E+00  0.1200E+02
    -14.010  0.0000E+00  0.1200E+02
    -13.786  0.0000E+00  0.1200E+02
    -13.562  0.0000E+00  0.1200E+02
    -13.337  0.0000E+00  0.1200E+02
    -13.113  0.0000E+00  0.1200E+02
    -12.889  0.0000E+00  0.1200E+02
    -12.664  0.0000E+00  0.1200E+02
    -12.440  0.0000E+00  0.1200E+02
    -12.216  0.0000E+00  0.1200E+02
    -11.991  0.0000E+00  0.1200E+02
    -11.767  0.0000E+00  0.1200E+02
    -11.543  0.0000E+00  0.1200E+02
    -11.318  0.0000E+00  0.1200E+02
    -11.094  0.0000E+00  0.1200E+02
    -10.870  0.0000E+00  0.1200E+02
    -10.645  0.0000E+00  0.1200E+02
    -10.421  0.0000E+00  0.1200E+02
    -10.197  0.0000E+00  0.1200E+02
     -9.972  0.0000E+00  0.1200E+02
     -9.748  0.0000E+00  0.1200E+02
     -9.524  0.0000E+00  0.1200E+02
     -9.299  0.0000E+00  0.1200E+02
     -9.075  0.0000E+00  0.1200E+02
     -8.851  0.0000E+00  0.1200E+02
     -8.626  0.0000E+00  0.1200E+02
     -8.402  0.0000E+00  0.1200E+02
     -8.178  0.0000E+00  0.1200E+02
     -7.953  0.0000E+00  0.1200E+02
     -7.729  0.0000E+00  0.1200E+02
     -7.505  0.0000E+00  0.1200E+02
     -7.280  0.2130E-03  0.1303E+02
     -7.056  0.0000E+00  0.1397E+02
     -6.832  0.0000E+00  0.1400E+02
     -6.607  0.0000E+00  0.1400E+02
     -6.383  0.0000E+00  0.1400E+02
     -6.159  0.0000E+00  0.1400E+02
     -5.934  0.0000E+00  0.1400E+02
     -5.710  0.0000E+00  0.1400E+02
     -5.486  0.0000E+00  0.1400E+02
     -5.261  0.0000E+00  0.1400E+02
     -5.037  0.0000E+00  0.1400E+02
     -4.813  0.0000E+00  0.1400E+02
     -4.588  0.0000E+00  0.1400E+02
     -4.364  0.0000E+00  0.1400E+02
     -4.140  0.0000E+00  0.1400E+02
     -3.915  0.0000E+00  0.1400E+02
     -3.691  0.0000E+00  0.1400E+02
     -3.467  0.0000E+00  0.1400E+02
     -3.242  0.0000E+00  0.1400E+02
     -3.018  0.0000E+00  0.1400E+02
     -2.794  0.0000E+00  0.1400E+02
     -2.569  0.0000E+00  0.1400E+02
     -2.345  0.0000E+00  0.1400E+02
     -2.121  0.0000E+00  0.1400E+02
     -1.896  0.0000E+00  0.1400E+02
     -1.672  0.0000E+00  0.1400E+02
     -1.448  0.0000E+00  0.1400E+02
     -1.223  0.0000E+00  0.1400E+02
     -0.999  0.0000E+00  0.1400E+02
     -0.775  0.0000E+00  0.1400E+02
     -0.550  0.0000E+00  0.1400E+02
     -0.326  0.0000E+00  0.1400E+02
     -0.102  0.0000E+00  0.1400E+02
      0.123  0.0000E+00  0.1400E+02
      0.347  0.0000E+00  0.1400E+02
      0.571  0.0000E+00  0.1400E+02
      0.796  0.0000E+00  0.1422E+02
      1.020  0.0000E+00  0.1553E+02
      1.244  0.0000E+00  0.1553E+02
      1.469  0.0000E+00  0.1553E+02
      1.693  0.0000E+00  0.1616E+02
      1.917  0.0000E+00  0.1616E+02
      2.142  0.0000E+00  0.1616E+02
      2.366  0.0000E+00  0.1700E+02
      2.590  0.1070E+01  0.1724E+02
      2.815  0.0000E+00  0.1738E+02
      3.039  0.0000E+00  0.1756E+02
      3.263  0.0000E+00  0.1756E+02
      3.488  0.0000E+00  0.1769E+02
      3.712  0.3171E-01  0.1794E+02
      3.936  0.0000E+00  0.1797E+02
      4.161  0.0000E+00  0.1803E+02
      4.385  0.0000E+00  0.1803E+02
      4.609  0.0000E+00  0.1803E+02
      4.834  0.0000E+00  0.1803E+02
      5.058  0.0000E+00  0.1803E+02
      5.282  0.0000E+00  0.1803E+02
      5.507  0.0000E+00  0.1803E+02
      5.731  0.0000E+00  0.1803E+02
      5.955  0.0000E+00  0.1803E+02
      6.180  0.0000E+00  0.1828E+02
      6.404  0.0000E+00  0.1850E+02
      6.628  0.0000E+00  0.1850E+02
      6.853  0.0000E+00  0.1850E+02
      7.077  0.0000E+00  0.1869E+02
      7.301  0.0000E+00  0.1944E+02
      7.526  0.0000E+00  0.1944E+02
      7.750  0.1393E+00  0.2009E+02
      7.974  0.0000E+00  0.2009E+02
      8.199  0.0000E+00  0.2009E+02
      8.423  0.0000E+00  0.2009E+02
      8.647  0.0000E+00  0.2028E+02
      8.872  0.0000E+00  0.2141E+02
      9.096  0.0000E+00  0.2141E+02
      9.320  0.0000E+00  0.2141E+02
      9.545  0.0000E+00  0.2141E+02
      9.769  0.0000E+00  0.2159E+02
      9.993  0.0000E+00  0.2222E+02
     10.218  0.0000E+00  0.2222E+02
     10.442  0.0000E+00  0.2347E+02
     10.666  0.0000E+00  0.2359E+02
     10.891  0.1590E+00  0.2400E+02
     11.115  0.1927E-03  0.2431E+02
     11.339  0.0000E+00  0.2462E+02
     11.564  0.0000E+00  0.2500E+02
     11.788  0.0000E+00  0.2525E+02
     12.012  0.0000E+00  0.2619E+02
     12.237  0.0000E+00  0.2631E+02
     12.461  0.1245E-01  0.2632E+02
     12.685  0.0000E+00  0.2694E+02
     12.910  0.9770E+00  0.2716E+02
     13.134  0.0000E+00  0.2738E+02
     13.358  0.0000E+00  0.2741E+02
     13.583  0.0000E+00  0.2822E+02
     13.807  0.8874E-01  0.2843E+02
     14.031  0.0000E+00  0.2878E+02
     14.256  0.0000E+00  0.2878E+02
     14.480  0.0000E+00  0.2884E+02
     14.704  0.8345E+00  0.2916E+02
     14.929  0.0000E+00  0.3003E+02
     15.153  0.0000E+00  0.3191E+02
     15.377  0.0000E+00  0.3216E+02
     15.602  0.0000E+00  0.3291E+02
     15.826  0.0000E+00  0.3291E+02
     16.050  0.0000E+00  0.3291E+02
     16.275  0.0000E+00  0.3306E+02
     16.499  0.0000E+00  0.3325E+02
     16.723  0.7333E-01  0.3327E+02
     16.948  0.0000E+00  0.3444E+02
     17.172  0.0000E+00  0.3481E+02
     17.396  0.0000E+00  0.3494E+02
     17.621  0.0000E+00  0.3597E+02
     17.845  0.0000E+00  0.3672E+02
     18.069  0.4179E+00  0.3737E+02
     18.294  0.0000E+00  0.3831E+02
     18.518  0.0000E+00  0.3916E+02
     18.742  0.0000E+00  0.4041E+02
     18.967  0.0000E+00  0.4041E+02
     19.191  0.0000E+00  0.4147E+02
     19.415  0.0000E+00  0.4184E+02
     19.640  0.0000E+00  0.4253E+02
     19.864  0.0000E+00  0.4253E+02
     20.088  0.0000E+00  0.4347E+02
     20.313  0.0000E+00  0.4422E+02
     20.537  0.0000E+00  0.4544E+02
     20.761  0.0000E+00  0.4625E+02
     20.986  0.7860E+00  0.4643E+02
     21.210  0.0000E+00  0.4644E+02
     21.434  0.0000E+00  0.4644E+02
     21.659  0.0000E+00  0.4644E+02
     21.883  0.0000E+00  0.4644E+02
     22.107  0.0000E+00  0.4766E+02
     22.332  0.0000E+00  0.4766E+02
     22.556  0.0000E+00  0.4784E+02
     22.780  0.0000E+00  0.4784E+02
     23.005  0.5131E-01  0.4826E+02
     23.229  0.1712E-01  0.4947E+02
     23.453  0.0000E+00  0.4988E+02
     23.678  0.0000E+00  0.4988E+02
     23.902  0.0000E+00  0.4988E+02
     24.126  0.0000E+00  0.5038E+02
     24.351  0.0000E+00  0.5138E+02
     24.575  0.0000E+00  0.5147E+02
     24.799  0.0000E+00  0.5259E+02
     25.024  0.2292E+01  0.5311E+02
     25.248  0.0000E+00  0.5391E+02
     25.472  0.0000E+00  0.5559E+02
     25.697  0.0000E+00  0.5647E+02
     25.921  0.0000E+00  0.5647E+02
     26.145  0.0000E+00  0.5684E+02
     26.370  0.0000E+00  0.5691E+02
     26.594  0.0000E+00  0.5694E+02
     26.818  0.0000E+00  0.5694E+02
     27.043  0.0000E+00  0.5769E+02
     27.267  0.2607E+00  0.5859E+02
     27.491  0.0000E+00  0.5891E+02
     27.716  0.0000E+00  0.5984E+02
     27.940  0.0000E+00  0.6006E+02
     28.164  0.0000E+00  0.6125E+02
     28.389  0.0000E+00  0.6194E+02
     28.613  0.0000E+00  0.6194E+02
     28.838  0.0000E+00  0.6194E+02
     29.062  0.0000E+00  0.6194E+02
     29.286  0.0000E+00  0.6269E+02
     29.511  0.0000E+00  0.6297E+02
     29.735  0.0000E+00  0.6297E+02
     29.959  0.0000E+00  0.6306E+02
     30.184  0.1393E+00  0.6309E+02
     30.408  0.0000E+00  0.6356E+02
     30.632  0.0000E+00  0.6356E+02
     30.857  0.0000E+00  0.6400E+02
     31.081  0.0000E+00  0.6400E+02
     31.305  0.0000E+00  0.6400E+02
     31.530  0.0000E+00  0.6400E+02
     31.754  0.0000E+00  0.6400E+02
     31.978  0.0000E+00  0.6400E+02
     32.203  0.0000E+00  0.6400E+02
     32.427  0.0000E+00  0.6400E+02
     32.651  0.0000E+00  0.6400E+02
     32.876  0.0000E+00  0.6400E+02
     33.100  0.0000E+00  0.6400E+02
     33.324  0.0000E+00  0.6400E+02
     33.549  0.0000E+00  0.6400E+02
     33.773  0.0000E+00  0.6400E+02
