   1   1   0   0
  0.6083477E+02  0.4414576E-09  0.4414576E-09  0.4414576E-09  0.1000000E-15
  1.000000000000000E-004
  CAR 
 Og_FCC                                  
     77.13319132    -49.52355211  301     -0.76070589      1.00000000
    -49.524  0.0000E+00  0.0000E+00
    -49.101  0.0000E+00  0.0000E+00
    -48.679  0.0000E+00  0.0000E+00
    -48.257  0.0000E+00  0.0000E+00
    -47.835  0.0000E+00  0.0000E+00
    -47.413  0.0000E+00  0.0000E+00
    -46.990  0.0000E+00  0.0000E+00
    -46.568  0.0000E+00  0.0000E+00
    -46.146  0.0000E+00  0.0000E+00
    -45.724  0.0000E+00  0.0000E+00
    -45.302  0.0000E+00  0.0000E+00
    -44.879  0.0000E+00  0.0000E+00
    -44.457  0.0000E+00  0.0000E+00
    -44.035  0.0000E+00  0.0000E+00
    -43.613  0.0000E+00  0.4000E+01
    -43.191  0.0000E+00  0.4000E+01
    -42.769  0.0000E+00  0.4000E+01
    -42.346  0.0000E+00  0.4000E+01
    -41.924  0.0000E+00  0.4000E+01
    -41.502  0.0000E+00  0.4000E+01
    -41.080  0.0000E+00  0.4000E+01
    -40.658  0.0000E+00  0.4000E+01
    -40.235  0.0000E+00  0.4000E+01
    -39.813  0.0000E+00  0.4000E+01
    -39.391  0.0000E+00  0.4000E+01
    -38.969  0.0000E+00  0.1000E+02
    -38.547  0.0000E+00  0.1000E+02
    -38.124  0.0000E+00  0.1000E+02
    -37.702  0.0000E+00  0.1000E+02
    -37.280  0.0000E+00  0.1000E+02
    -36.858  0.0000E+00  0.1000E+02
    -36.436  0.0000E+00  0.1000E+02
    -36.013  0.0000E+00  0.1000E+02
    -35.591  0.0000E+00  0.1000E+02
    -35.169  0.0000E+00  0.1000E+02
    -34.747  0.0000E+00  0.1000E+02
    -34.325  0.0000E+00  0.1000E+02
    -33.903  0.0000E+00  0.1000E+02
    -33.480  0.0000E+00  0.1000E+02
    -33.058  0.0000E+00  0.1000E+02
    -32.636  0.0000E+00  0.1000E+02
    -32.214  0.0000E+00  0.1000E+02
    -31.792  0.0000E+00  0.1000E+02
    -31.369  0.0000E+00  0.1000E+02
    -30.947  0.0000E+00  0.1000E+02
    -30.525  0.0000E+00  0.1000E+02
    -30.103  0.0000E+00  0.1000E+02
    -29.681  0.0000E+00  0.1000E+02
    -29.258  0.0000E+00  0.1000E+02
    -28.836  0.0000E+00  0.1000E+02
    -28.414  0.0000E+00  0.1000E+02
    -27.992  0.0000E+00  0.1000E+02
    -27.570  0.0000E+00  0.1000E+02
    -27.148  0.0000E+00  0.1000E+02
    -26.725  0.0000E+00  0.1000E+02
    -26.303  0.0000E+00  0.1000E+02
    -25.881  0.0000E+00  0.1000E+02
    -25.459  0.0000E+00  0.1000E+02
    -25.037  0.0000E+00  0.1000E+02
    -24.614  0.0000E+00  0.1000E+02
    -24.192  0.0000E+00  0.1000E+02
    -23.770  0.0000E+00  0.1000E+02
    -23.348  0.0000E+00  0.1000E+02
    -22.926  0.0000E+00  0.1000E+02
    -22.503  0.0000E+00  0.1000E+02
    -22.081  0.0000E+00  0.1000E+02
    -21.659  0.0000E+00  0.1000E+02
    -21.237  0.0000E+00  0.1000E+02
    -20.815  0.0000E+00  0.1000E+02
    -20.393  0.0000E+00  0.1000E+02
    -19.970  0.0000E+00  0.1000E+02
    -19.548  0.0000E+00  0.1000E+02
    -19.126  0.0000E+00  0.1000E+02
    -18.704  0.0000E+00  0.1000E+02
    -18.282  0.0000E+00  0.1000E+02
    -17.859  0.0000E+00  0.1000E+02
    -17.437  0.0000E+00  0.1000E+02
    -17.015  0.1755E+00  0.1008E+02
    -16.593  0.0000E+00  0.1200E+02
    -16.171  0.0000E+00  0.1200E+02
    -15.748  0.0000E+00  0.1200E+02
    -15.326  0.0000E+00  0.1200E+02
    -14.904  0.0000E+00  0.1200E+02
    -14.482  0.0000E+00  0.1200E+02
    -14.060  0.0000E+00  0.1200E+02
    -13.637  0.0000E+00  0.1200E+02
    -13.215  0.0000E+00  0.1200E+02
    -12.793  0.0000E+00  0.1200E+02
    -12.371  0.0000E+00  0.1200E+02
    -11.949  0.0000E+00  0.1200E+02
    -11.527  0.0000E+00  0.1200E+02
    -11.104  0.0000E+00  0.1200E+02
    -10.682  0.0000E+00  0.1200E+02
    -10.260  0.0000E+00  0.1200E+02
     -9.838  0.0000E+00  0.1200E+02
     -9.416  0.0000E+00  0.1200E+02
     -8.993  0.0000E+00  0.1200E+02
     -8.571  0.0000E+00  0.1200E+02
     -8.149  0.0000E+00  0.1200E+02
     -7.727  0.0000E+00  0.1200E+02
     -7.305  0.0000E+00  0.1200E+02
     -6.882  0.0000E+00  0.1200E+02
     -6.460  0.0000E+00  0.1200E+02
     -6.038  0.0000E+00  0.1200E+02
     -5.616  0.0000E+00  0.1200E+02
     -5.194  0.0000E+00  0.1345E+02
     -4.772  0.0000E+00  0.1399E+02
     -4.349  0.0000E+00  0.1400E+02
     -3.927  0.0000E+00  0.1400E+02
     -3.505  0.0000E+00  0.1400E+02
     -3.083  0.0000E+00  0.1400E+02
     -2.661  0.0000E+00  0.1400E+02
     -2.238  0.0000E+00  0.1545E+02
     -1.816  0.5632E-04  0.1619E+02
     -1.394  0.0000E+00  0.1741E+02
     -0.972  0.1576E-01  0.1791E+02
     -0.550  0.0000E+00  0.1800E+02
     -0.127  0.0000E+00  0.1800E+02
      0.295  0.0000E+00  0.1800E+02
      0.717  0.0000E+00  0.1800E+02
      1.139  0.0000E+00  0.1800E+02
      1.561  0.0000E+00  0.1800E+02
      1.984  0.0000E+00  0.1800E+02
      2.406  0.0000E+00  0.1800E+02
      2.828  0.2193E-01  0.1801E+02
      3.250  0.0000E+00  0.1801E+02
      3.672  0.0000E+00  0.1801E+02
      4.094  0.0000E+00  0.1814E+02
      4.517  0.0000E+00  0.1817E+02
      4.939  0.5552E-03  0.1844E+02
      5.361  0.0000E+00  0.1922E+02
      5.783  0.1316E+00  0.1986E+02
      6.205  0.0000E+00  0.2031E+02
      6.628  0.0000E+00  0.2086E+02
      7.050  0.0000E+00  0.2203E+02
      7.472  0.0000E+00  0.2232E+02
      7.894  0.0000E+00  0.2303E+02
      8.316  0.0000E+00  0.2367E+02
      8.739  0.0000E+00  0.2467E+02
      9.161  0.0000E+00  0.2550E+02
      9.583  0.0000E+00  0.2583E+02
     10.005  0.9800E-14  0.2620E+02
     10.427  0.0000E+00  0.2719E+02
     10.849  0.0000E+00  0.2770E+02
     11.272  0.0000E+00  0.2843E+02
     11.694  0.0000E+00  0.2887E+02
     12.116  0.0000E+00  0.2967E+02
     12.538  0.0000E+00  0.3058E+02
     12.960  0.0000E+00  0.3110E+02
     13.383  0.0000E+00  0.3148E+02
     13.805  0.0000E+00  0.3355E+02
     14.227  0.0000E+00  0.3453E+02
     14.649  0.5998E-14  0.3533E+02
     15.071  0.0000E+00  0.3575E+02
     15.494  0.0000E+00  0.3616E+02
     15.916  0.2429E+00  0.3711E+02
     16.338  0.8611E-13  0.3873E+02
     16.760  0.0000E+00  0.4125E+02
     17.182  0.0000E+00  0.4256E+02
     17.605  0.0000E+00  0.4414E+02
     18.027  0.0000E+00  0.4427E+02
     18.449  0.0000E+00  0.4504E+02
     18.871  0.0000E+00  0.4548E+02
     19.293  0.0000E+00  0.4636E+02
     19.715  0.0000E+00  0.4744E+02
     20.138  0.0000E+00  0.4806E+02
     20.560  0.0000E+00  0.4912E+02
     20.982  0.0000E+00  0.5038E+02
     21.404  0.1421E-10  0.5124E+02
     21.826  0.2922E-16  0.5274E+02
     22.249  0.1105E-08  0.5392E+02
     22.671  0.0000E+00  0.5538E+02
     23.093  0.0000E+00  0.5660E+02
     23.515  0.0000E+00  0.5760E+02
     23.937  0.0000E+00  0.5783E+02
     24.360  0.0000E+00  0.5856E+02
     24.782  0.0000E+00  0.5964E+02
     25.204  0.0000E+00  0.6053E+02
     25.626  0.0000E+00  0.6137E+02
     26.048  0.5264E+00  0.6227E+02
     26.470  0.0000E+00  0.6329E+02
     26.893  0.0000E+00  0.6408E+02
     27.315  0.0000E+00  0.6531E+02
     27.737  0.0000E+00  0.6633E+02
     28.159  0.0000E+00  0.6811E+02
     28.581  0.0000E+00  0.6994E+02
     29.004  0.0000E+00  0.7099E+02
     29.426  0.0000E+00  0.7171E+02
     29.848  0.0000E+00  0.7241E+02
     30.270  0.0000E+00  0.7296E+02
     30.692  0.0000E+00  0.7363E+02
     31.115  0.1770E-11  0.7483E+02
     31.537  0.0000E+00  0.7572E+02
     31.959  0.5921E+00  0.7761E+02
     32.381  0.0000E+00  0.7876E+02
     32.803  0.2922E-16  0.8020E+02
     33.226  0.0000E+00  0.8151E+02
     33.648  0.0000E+00  0.8288E+02
     34.070  0.0000E+00  0.8344E+02
     34.492  0.0000E+00  0.8487E+02
     34.914  0.2970E-08  0.8547E+02
     35.336  0.2895E-04  0.8681E+02
     35.759  0.0000E+00  0.8763E+02
     36.181  0.0000E+00  0.8891E+02
     36.603  0.0000E+00  0.8937E+02
     37.025  0.0000E+00  0.9078E+02
     37.447  0.0000E+00  0.9154E+02
     37.870  0.2179E-01  0.9329E+02
     38.292  0.0000E+00  0.9461E+02
     38.714  0.0000E+00  0.9593E+02
     39.136  0.0000E+00  0.9719E+02
     39.558  0.0000E+00  0.9794E+02
     39.981  0.0000E+00  0.9876E+02
     40.403  0.0000E+00  0.1003E+03
     40.825  0.4026E-01  0.1015E+03
     41.247  0.6579E-01  0.1029E+03
     41.669  0.3564E+00  0.1039E+03
     42.091  0.0000E+00  0.1054E+03
     42.514  0.0000E+00  0.1073E+03
     42.936  0.0000E+00  0.1084E+03
     43.358  0.0000E+00  0.1088E+03
     43.780  0.0000E+00  0.1100E+03
     44.202  0.2629E+00  0.1114E+03
     44.625  0.0000E+00  0.1128E+03
     45.047  0.1698E+00  0.1144E+03
     45.469  0.0000E+00  0.1156E+03
     45.891  0.1755E+00  0.1171E+03
     46.313  0.0000E+00  0.1184E+03
     46.736  0.2089E-05  0.1190E+03
     47.158  0.2632E+00  0.1206E+03
     47.580  0.0000E+00  0.1214E+03
     48.002  0.0000E+00  0.1224E+03
     48.424  0.0000E+00  0.1237E+03
     48.847  0.7305E-17  0.1247E+03
     49.269  0.0000E+00  0.1269E+03
     49.691  0.0000E+00  0.1281E+03
     50.113  0.5264E+00  0.1300E+03
     50.535  0.0000E+00  0.1310E+03
     50.957  0.0000E+00  0.1324E+03
     51.380  0.0000E+00  0.1333E+03
     51.802  0.0000E+00  0.1344E+03
     52.224  0.4229E-05  0.1359E+03
     52.646  0.0000E+00  0.1372E+03
     53.068  0.1229E+00  0.1385E+03
     53.491  0.0000E+00  0.1403E+03
     53.913  0.0000E+00  0.1415E+03
     54.335  0.0000E+00  0.1425E+03
     54.757  0.0000E+00  0.1441E+03
     55.179  0.0000E+00  0.1452E+03
     55.602  0.3378E+00  0.1470E+03
     56.024  0.0000E+00  0.1473E+03
     56.446  0.5264E+00  0.1486E+03
     56.868  0.0000E+00  0.1506E+03
     57.290  0.0000E+00  0.1524E+03
     57.712  0.0000E+00  0.1537E+03
     58.135  0.0000E+00  0.1548E+03
     58.557  0.0000E+00  0.1565E+03
     58.979  0.5264E+00  0.1579E+03
     59.401  0.0000E+00  0.1591E+03
     59.823  0.0000E+00  0.1598E+03
     60.246  0.3176E-04  0.1616E+03
     60.668  0.1514E-01  0.1640E+03
     61.090  0.0000E+00  0.1654E+03
     61.512  0.0000E+00  0.1680E+03
     61.934  0.4980E+00  0.1692E+03
     62.357  0.0000E+00  0.1700E+03
     62.779  0.0000E+00  0.1710E+03
     63.201  0.5263E+00  0.1728E+03
     63.623  0.0000E+00  0.1736E+03
     64.045  0.1109E-02  0.1751E+03
     64.468  0.0000E+00  0.1766E+03
     64.890  0.0000E+00  0.1780E+03
     65.312  0.0000E+00  0.1798E+03
     65.734  0.0000E+00  0.1814E+03
     66.156  0.1465E-01  0.1827E+03
     66.578  0.0000E+00  0.1845E+03
     67.001  0.0000E+00  0.1858E+03
     67.423  0.0000E+00  0.1868E+03
     67.845  0.0000E+00  0.1886E+03
     68.267  0.0000E+00  0.1900E+03
     68.689  0.0000E+00  0.1910E+03
     69.112  0.0000E+00  0.1925E+03
     69.534  0.0000E+00  0.1932E+03
     69.956  0.6619E-10  0.1946E+03
     70.378  0.0000E+00  0.1953E+03
     70.800  0.6560E-01  0.1956E+03
     71.223  0.0000E+00  0.1957E+03
     71.645  0.0000E+00  0.1960E+03
     72.067  0.0000E+00  0.1960E+03
     72.489  0.0000E+00  0.1960E+03
     72.911  0.0000E+00  0.1960E+03
     73.333  0.0000E+00  0.1960E+03
     73.756  0.0000E+00  0.1960E+03
     74.178  0.0000E+00  0.1960E+03
     74.600  0.0000E+00  0.1960E+03
     75.022  0.0000E+00  0.1960E+03
     75.444  0.0000E+00  0.1960E+03
     75.867  0.0000E+00  0.1960E+03
     76.289  0.0000E+00  0.1960E+03
     76.711  0.0000E+00  0.1960E+03
     77.133  0.0000E+00  0.1960E+03
