<?xml version="1.0" encoding="ISO-8859-1"?>
<modeling>
 <generator>
  <i name="program" type="string">vasp </i>
  <i name="version" type="string">5.4.4.18Apr17-6-g9f103f2a35  </i>
  <i name="subversion" type="string">(build Nov 03 2018 10:20:46) complex            parallel </i>
  <i name="platform" type="string">LinuxIFC </i>
  <i name="date" type="string">2018 12 10 </i>
  <i name="time" type="string">11:52:31 </i>
 </generator>
 <incar>
  <i type="string" name="SYSTEM">   Og_FCC</i>
  <i type="string" name="PREC">accurate</i>
  <i type="string" name="ALGO">   EXACT</i>
  <i type="logical" name="ADDGRID"> T  </i>
  <i type="logical" name="LSORBIT"> T  </i>
  <i type="int" name="ISPIN">     1</i>
  <i type="int" name="MAXMIX">    50</i>
  <i type="int" name="NELM">    50</i>
  <i type="int" name="NELMDL">    -5</i>
  <i type="int" name="NELMIN">     2</i>
  <i type="int" name="IBRION">    -1</i>
  <i type="int" name="NFREE">     5</i>
  <i name="EDIFF">      0.00000001</i>
  <i name="EDIFFG">      0.00001000</i>
  <i type="int" name="NSW">     1</i>
  <i type="int" name="ISIF">     3</i>
  <i type="int" name="ISYM">     0</i>
  <i name="SYMPREC">      0.00000010</i>
  <i name="ENCUT">    300.00000000</i>
  <i type="int" name="NBANDS">   196</i>
  <i name="POTIM">      0.10000000</i>
  <i type="logical" name="LREAL"> F  </i>
  <i type="int" name="ISMEAR">     0</i>
  <i name="SIGMA">      0.00100000</i>
  <i type="int" name="NWRITE">     2</i>
  <i type="logical" name="LWAVE"> T  </i>
  <i type="logical" name="LCHARG"> F  </i>
  <i type="logical" name="LVTOT"> F  </i>
  <i type="logical" name="LOPTICS"> T  </i>
  <i type="logical" name="GGA_COMPAT"> F  </i>
  <v type="int" name="KPOINT_BSE">    -1     0     0     0</v>
  <i type="int" name="NELM">    50</i>
  <i type="string" name="GGA"> PE</i>
 </incar>
 <structure name="primitive_cell" >
  <crystal>
   <varray name="basis" >
    <v>       4.41457561       0.00000000       0.00000000 </v>
    <v>       2.20728780       3.82313462      -0.00000000 </v>
    <v>       2.20728780       1.27437821       3.60448589 </v>
   </varray>
   <i name="volume">     60.83477135 </i>
   <varray name="rec_basis" >
    <v>       0.22652234      -0.13078273      -0.09247736 </v>
    <v>       0.00000000       0.26156547      -0.09247736 </v>
    <v>      -0.00000000       0.00000000       0.27743208 </v>
   </varray>
  </crystal>
  <varray name="positions" >
   <v>       0.00000000       0.00000000       0.00000000 </v>
  </varray>
 </structure>
 <varray name="primitive_index" >
  <v type="int" >        1 </v>
 </varray>
 <kpoints>
  <generation param="Gamma">
   <v type="int" name="divisions">       6        6        6 </v>
   <v name="usershift">      0.00000000       0.00000000       0.00000000 </v>
   <v name="genvec1">      0.16666667      -0.00000000       0.00000000 </v>
   <v name="genvec2">      0.00000000       0.16666667       0.00000000 </v>
   <v name="genvec3">     -0.00000000       0.00000000       0.16666667 </v>
   <v name="shift">      0.00000000       0.00000000       0.00000000 </v>
  </generation>
  <varray name="kpointlist" >
   <v>       0.00000000       0.00000000       0.00000000 </v>
   <v>       0.16666667       0.00000000       0.00000000 </v>
   <v>       0.33333333       0.00000000       0.00000000 </v>
   <v>       0.50000000       0.00000000       0.00000000 </v>
   <v>      -0.33333333      -0.00000000      -0.00000000 </v>
   <v>      -0.16666667      -0.00000000      -0.00000000 </v>
   <v>       0.00000000       0.16666667      -0.00000000 </v>
   <v>       0.16666667       0.16666667       0.00000000 </v>
   <v>       0.33333333       0.16666667       0.00000000 </v>
   <v>       0.50000000       0.16666667       0.00000000 </v>
   <v>      -0.33333333       0.16666667      -0.00000000 </v>
   <v>      -0.16666667       0.16666667      -0.00000000 </v>
   <v>       0.00000000       0.33333333       0.00000000 </v>
   <v>       0.16666667       0.33333333       0.00000000 </v>
   <v>       0.33333333       0.33333333       0.00000000 </v>
   <v>       0.50000000       0.33333333       0.00000000 </v>
   <v>      -0.33333333       0.33333333      -0.00000000 </v>
   <v>      -0.16666667       0.33333333      -0.00000000 </v>
   <v>       0.00000000       0.50000000       0.00000000 </v>
   <v>       0.16666667       0.50000000       0.00000000 </v>
   <v>       0.33333333       0.50000000       0.00000000 </v>
   <v>       0.50000000       0.50000000       0.00000000 </v>
   <v>      -0.33333333       0.50000000      -0.00000000 </v>
   <v>      -0.16666667       0.50000000      -0.00000000 </v>
   <v>       0.00000000      -0.33333333       0.00000000 </v>
   <v>       0.16666667      -0.33333333       0.00000000 </v>
   <v>       0.33333333      -0.33333333       0.00000000 </v>
   <v>       0.50000000      -0.33333333       0.00000000 </v>
   <v>      -0.33333333      -0.33333333      -0.00000000 </v>
   <v>      -0.16666667      -0.33333333      -0.00000000 </v>
   <v>       0.00000000      -0.16666667       0.00000000 </v>
   <v>       0.16666667      -0.16666667       0.00000000 </v>
   <v>       0.33333333      -0.16666667       0.00000000 </v>
   <v>       0.50000000      -0.16666667       0.00000000 </v>
   <v>      -0.33333333      -0.16666667      -0.00000000 </v>
   <v>      -0.16666667      -0.16666667      -0.00000000 </v>
   <v>       0.00000000      -0.00000000       0.16666667 </v>
   <v>       0.16666667       0.00000000       0.16666667 </v>
   <v>       0.33333333       0.00000000       0.16666667 </v>
   <v>       0.50000000       0.00000000       0.16666667 </v>
   <v>      -0.33333333      -0.00000000       0.16666667 </v>
   <v>      -0.16666667      -0.00000000       0.16666667 </v>
   <v>       0.00000000       0.16666667       0.16666667 </v>
   <v>       0.16666667       0.16666667       0.16666667 </v>
   <v>       0.33333333       0.16666667       0.16666667 </v>
   <v>       0.50000000       0.16666667       0.16666667 </v>
   <v>      -0.33333333       0.16666667       0.16666667 </v>
   <v>      -0.16666667       0.16666667       0.16666667 </v>
   <v>       0.00000000       0.33333333       0.16666667 </v>
   <v>       0.16666667       0.33333333       0.16666667 </v>
   <v>       0.33333333       0.33333333       0.16666667 </v>
   <v>       0.50000000       0.33333333       0.16666667 </v>
   <v>      -0.33333333       0.33333333       0.16666667 </v>
   <v>      -0.16666667       0.33333333       0.16666667 </v>
   <v>       0.00000000       0.50000000       0.16666667 </v>
   <v>       0.16666667       0.50000000       0.16666667 </v>
   <v>       0.33333333       0.50000000       0.16666667 </v>
   <v>       0.50000000       0.50000000       0.16666667 </v>
   <v>      -0.33333333       0.50000000       0.16666667 </v>
   <v>      -0.16666667       0.50000000       0.16666667 </v>
   <v>      -0.00000000      -0.33333333       0.16666667 </v>
   <v>       0.16666667      -0.33333333       0.16666667 </v>
   <v>       0.33333333      -0.33333333       0.16666667 </v>
   <v>       0.50000000      -0.33333333       0.16666667 </v>
   <v>      -0.33333333      -0.33333333       0.16666667 </v>
   <v>      -0.16666667      -0.33333333       0.16666667 </v>
   <v>      -0.00000000      -0.16666667       0.16666667 </v>
   <v>       0.16666667      -0.16666667       0.16666667 </v>
   <v>       0.33333333      -0.16666667       0.16666667 </v>
   <v>       0.50000000      -0.16666667       0.16666667 </v>
   <v>      -0.33333333      -0.16666667       0.16666667 </v>
   <v>      -0.16666667      -0.16666667       0.16666667 </v>
   <v>      -0.00000000      -0.00000000       0.33333333 </v>
   <v>       0.16666667       0.00000000       0.33333333 </v>
   <v>       0.33333333       0.00000000       0.33333333 </v>
   <v>       0.50000000       0.00000000       0.33333333 </v>
   <v>      -0.33333333      -0.00000000       0.33333333 </v>
   <v>      -0.16666667      -0.00000000       0.33333333 </v>
   <v>      -0.00000000       0.16666667       0.33333333 </v>
   <v>       0.16666667       0.16666667       0.33333333 </v>
   <v>       0.33333333       0.16666667       0.33333333 </v>
   <v>       0.50000000       0.16666667       0.33333333 </v>
   <v>      -0.33333333       0.16666667       0.33333333 </v>
   <v>      -0.16666667       0.16666667       0.33333333 </v>
   <v>      -0.00000000       0.33333333       0.33333333 </v>
   <v>       0.16666667       0.33333333       0.33333333 </v>
   <v>       0.33333333       0.33333333       0.33333333 </v>
   <v>       0.50000000       0.33333333       0.33333333 </v>
   <v>      -0.33333333       0.33333333       0.33333333 </v>
   <v>      -0.16666667       0.33333333       0.33333333 </v>
   <v>       0.00000000       0.50000000       0.33333333 </v>
   <v>       0.16666667       0.50000000       0.33333333 </v>
   <v>       0.33333333       0.50000000       0.33333333 </v>
   <v>       0.50000000       0.50000000       0.33333333 </v>
   <v>      -0.33333333       0.50000000       0.33333333 </v>
   <v>      -0.16666667       0.50000000       0.33333333 </v>
   <v>      -0.00000000      -0.33333333       0.33333333 </v>
   <v>       0.16666667      -0.33333333       0.33333333 </v>
   <v>       0.33333333      -0.33333333       0.33333333 </v>
   <v>       0.50000000      -0.33333333       0.33333333 </v>
   <v>      -0.33333333      -0.33333333       0.33333333 </v>
   <v>      -0.16666667      -0.33333333       0.33333333 </v>
   <v>      -0.00000000      -0.16666667       0.33333333 </v>
   <v>       0.16666667      -0.16666667       0.33333333 </v>
   <v>       0.33333333      -0.16666667       0.33333333 </v>
   <v>       0.50000000      -0.16666667       0.33333333 </v>
   <v>      -0.33333333      -0.16666667       0.33333333 </v>
   <v>      -0.16666667      -0.16666667       0.33333333 </v>
   <v>      -0.00000000      -0.00000000       0.50000000 </v>
   <v>       0.16666667       0.00000000       0.50000000 </v>
   <v>       0.33333333       0.00000000       0.50000000 </v>
   <v>       0.50000000       0.00000000       0.50000000 </v>
   <v>      -0.33333333      -0.00000000       0.50000000 </v>
   <v>      -0.16666667      -0.00000000       0.50000000 </v>
   <v>      -0.00000000       0.16666667       0.50000000 </v>
   <v>       0.16666667       0.16666667       0.50000000 </v>
   <v>       0.33333333       0.16666667       0.50000000 </v>
   <v>       0.50000000       0.16666667       0.50000000 </v>
   <v>      -0.33333333       0.16666667       0.50000000 </v>
   <v>      -0.16666667       0.16666667       0.50000000 </v>
   <v>      -0.00000000       0.33333333       0.50000000 </v>
   <v>       0.16666667       0.33333333       0.50000000 </v>
   <v>       0.33333333       0.33333333       0.50000000 </v>
   <v>       0.50000000       0.33333333       0.50000000 </v>
   <v>      -0.33333333       0.33333333       0.50000000 </v>
   <v>      -0.16666667       0.33333333       0.50000000 </v>
   <v>      -0.00000000       0.50000000       0.50000000 </v>
   <v>       0.16666667       0.50000000       0.50000000 </v>
   <v>       0.33333333       0.50000000       0.50000000 </v>
   <v>       0.50000000       0.50000000       0.50000000 </v>
   <v>      -0.33333333       0.50000000       0.50000000 </v>
   <v>      -0.16666667       0.50000000       0.50000000 </v>
   <v>       0.00000000      -0.33333333       0.50000000 </v>
   <v>       0.16666667      -0.33333333       0.50000000 </v>
   <v>       0.33333333      -0.33333333       0.50000000 </v>
   <v>       0.50000000      -0.33333333       0.50000000 </v>
   <v>      -0.33333333      -0.33333333       0.50000000 </v>
   <v>      -0.16666667      -0.33333333       0.50000000 </v>
   <v>       0.00000000      -0.16666667       0.50000000 </v>
   <v>       0.16666667      -0.16666667       0.50000000 </v>
   <v>       0.33333333      -0.16666667       0.50000000 </v>
   <v>       0.50000000      -0.16666667       0.50000000 </v>
   <v>      -0.33333333      -0.16666667       0.50000000 </v>
   <v>      -0.16666667      -0.16666667       0.50000000 </v>
   <v>       0.00000000       0.00000000      -0.33333333 </v>
   <v>       0.16666667       0.00000000      -0.33333333 </v>
   <v>       0.33333333       0.00000000      -0.33333333 </v>
   <v>       0.50000000       0.00000000      -0.33333333 </v>
   <v>      -0.33333333      -0.00000000      -0.33333333 </v>
   <v>      -0.16666667      -0.00000000      -0.33333333 </v>
   <v>       0.00000000       0.16666667      -0.33333333 </v>
   <v>       0.16666667       0.16666667      -0.33333333 </v>
   <v>       0.33333333       0.16666667      -0.33333333 </v>
   <v>       0.50000000       0.16666667      -0.33333333 </v>
   <v>      -0.33333333       0.16666667      -0.33333333 </v>
   <v>      -0.16666667       0.16666667      -0.33333333 </v>
   <v>       0.00000000       0.33333333      -0.33333333 </v>
   <v>       0.16666667       0.33333333      -0.33333333 </v>
   <v>       0.33333333       0.33333333      -0.33333333 </v>
   <v>       0.50000000       0.33333333      -0.33333333 </v>
   <v>      -0.33333333       0.33333333      -0.33333333 </v>
   <v>      -0.16666667       0.33333333      -0.33333333 </v>
   <v>       0.00000000       0.50000000      -0.33333333 </v>
   <v>       0.16666667       0.50000000      -0.33333333 </v>
   <v>       0.33333333       0.50000000      -0.33333333 </v>
   <v>       0.50000000       0.50000000      -0.33333333 </v>
   <v>      -0.33333333       0.50000000      -0.33333333 </v>
   <v>      -0.16666667       0.50000000      -0.33333333 </v>
   <v>       0.00000000      -0.33333333      -0.33333333 </v>
   <v>       0.16666667      -0.33333333      -0.33333333 </v>
   <v>       0.33333333      -0.33333333      -0.33333333 </v>
   <v>       0.50000000      -0.33333333      -0.33333333 </v>
   <v>      -0.33333333      -0.33333333      -0.33333333 </v>
   <v>      -0.16666667      -0.33333333      -0.33333333 </v>
   <v>       0.00000000      -0.16666667      -0.33333333 </v>
   <v>       0.16666667      -0.16666667      -0.33333333 </v>
   <v>       0.33333333      -0.16666667      -0.33333333 </v>
   <v>       0.50000000      -0.16666667      -0.33333333 </v>
   <v>      -0.33333333      -0.16666667      -0.33333333 </v>
   <v>      -0.16666667      -0.16666667      -0.33333333 </v>
   <v>       0.00000000       0.00000000      -0.16666667 </v>
   <v>       0.16666667       0.00000000      -0.16666667 </v>
   <v>       0.33333333       0.00000000      -0.16666667 </v>
   <v>       0.50000000       0.00000000      -0.16666667 </v>
   <v>      -0.33333333      -0.00000000      -0.16666667 </v>
   <v>      -0.16666667      -0.00000000      -0.16666667 </v>
   <v>       0.00000000       0.16666667      -0.16666667 </v>
   <v>       0.16666667       0.16666667      -0.16666667 </v>
   <v>       0.33333333       0.16666667      -0.16666667 </v>
   <v>       0.50000000       0.16666667      -0.16666667 </v>
   <v>      -0.33333333       0.16666667      -0.16666667 </v>
   <v>      -0.16666667       0.16666667      -0.16666667 </v>
   <v>       0.00000000       0.33333333      -0.16666667 </v>
   <v>       0.16666667       0.33333333      -0.16666667 </v>
   <v>       0.33333333       0.33333333      -0.16666667 </v>
   <v>       0.50000000       0.33333333      -0.16666667 </v>
   <v>      -0.33333333       0.33333333      -0.16666667 </v>
   <v>      -0.16666667       0.33333333      -0.16666667 </v>
   <v>      -0.00000000       0.50000000      -0.16666667 </v>
   <v>       0.16666667       0.50000000      -0.16666667 </v>
   <v>       0.33333333       0.50000000      -0.16666667 </v>
   <v>       0.50000000       0.50000000      -0.16666667 </v>
   <v>      -0.33333333       0.50000000      -0.16666667 </v>
   <v>      -0.16666667       0.50000000      -0.16666667 </v>
   <v>      -0.00000000      -0.33333333      -0.16666667 </v>
   <v>       0.16666667      -0.33333333      -0.16666667 </v>
   <v>       0.33333333      -0.33333333      -0.16666667 </v>
   <v>       0.50000000      -0.33333333      -0.16666667 </v>
   <v>      -0.33333333      -0.33333333      -0.16666667 </v>
   <v>      -0.16666667      -0.33333333      -0.16666667 </v>
   <v>      -0.00000000      -0.16666667      -0.16666667 </v>
   <v>       0.16666667      -0.16666667      -0.16666667 </v>
   <v>       0.33333333      -0.16666667      -0.16666667 </v>
   <v>       0.50000000      -0.16666667      -0.16666667 </v>
   <v>      -0.33333333      -0.16666667      -0.16666667 </v>
   <v>      -0.16666667      -0.16666667      -0.16666667 </v>
  </varray>
  <varray name="weights" >
   <v>       0.00462963 </v>
   <v>       0.00462963 </v>
   <v>       0.00462963 </v>
   <v>       0.00462963 </v>
   <v>       0.00462963 </v>
   <v>       0.00462963 </v>
   <v>       0.00462963 </v>
   <v>       0.00462963 </v>
   <v>       0.00462963 </v>
   <v>       0.00462963 </v>
   <v>       0.00462963 </v>
   <v>       0.00462963 </v>
   <v>       0.00462963 </v>
   <v>       0.00462963 </v>
   <v>       0.00462963 </v>
   <v>       0.00462963 </v>
   <v>       0.00462963 </v>
   <v>       0.00462963 </v>
   <v>       0.00462963 </v>
   <v>       0.00462963 </v>
   <v>       0.00462963 </v>
   <v>       0.00462963 </v>
   <v>       0.00462963 </v>
   <v>       0.00462963 </v>
   <v>       0.00462963 </v>
   <v>       0.00462963 </v>
   <v>       0.00462963 </v>
   <v>       0.00462963 </v>
   <v>       0.00462963 </v>
   <v>       0.00462963 </v>
   <v>       0.00462963 </v>
   <v>       0.00462963 </v>
   <v>       0.00462963 </v>
   <v>       0.00462963 </v>
   <v>       0.00462963 </v>
   <v>       0.00462963 </v>
   <v>       0.00462963 </v>
   <v>       0.00462963 </v>
   <v>       0.00462963 </v>
   <v>       0.00462963 </v>
   <v>       0.00462963 </v>
   <v>       0.00462963 </v>
   <v>       0.00462963 </v>
   <v>       0.00462963 </v>
   <v>       0.00462963 </v>
   <v>       0.00462963 </v>
   <v>       0.00462963 </v>
   <v>       0.00462963 </v>
   <v>       0.00462963 </v>
   <v>       0.00462963 </v>
   <v>       0.00462963 </v>
   <v>       0.00462963 </v>
   <v>       0.00462963 </v>
   <v>       0.00462963 </v>
   <v>       0.00462963 </v>
   <v>       0.00462963 </v>
   <v>       0.00462963 </v>
   <v>       0.00462963 </v>
   <v>       0.00462963 </v>
   <v>       0.00462963 </v>
   <v>       0.00462963 </v>
   <v>       0.00462963 </v>
   <v>       0.00462963 </v>
   <v>       0.00462963 </v>
   <v>       0.00462963 </v>
   <v>       0.00462963 </v>
   <v>       0.00462963 </v>
   <v>       0.00462963 </v>
   <v>       0.00462963 </v>
   <v>       0.00462963 </v>
   <v>       0.00462963 </v>
   <v>       0.00462963 </v>
   <v>       0.00462963 </v>
   <v>       0.00462963 </v>
   <v>       0.00462963 </v>
   <v>       0.00462963 </v>
   <v>       0.00462963 </v>
   <v>       0.00462963 </v>
   <v>       0.00462963 </v>
   <v>       0.00462963 </v>
   <v>       0.00462963 </v>
   <v>       0.00462963 </v>
   <v>       0.00462963 </v>
   <v>       0.00462963 </v>
   <v>       0.00462963 </v>
   <v>       0.00462963 </v>
   <v>       0.00462963 </v>
   <v>       0.00462963 </v>
   <v>       0.00462963 </v>
   <v>       0.00462963 </v>
   <v>       0.00462963 </v>
   <v>       0.00462963 </v>
   <v>       0.00462963 </v>
   <v>       0.00462963 </v>
   <v>       0.00462963 </v>
   <v>       0.00462963 </v>
   <v>       0.00462963 </v>
   <v>       0.00462963 </v>
   <v>       0.00462963 </v>
   <v>       0.00462963 </v>
   <v>       0.00462963 </v>
   <v>       0.00462963 </v>
   <v>       0.00462963 </v>
   <v>       0.00462963 </v>
   <v>       0.00462963 </v>
   <v>       0.00462963 </v>
   <v>       0.00462963 </v>
   <v>       0.00462963 </v>
   <v>       0.00462963 </v>
   <v>       0.00462963 </v>
   <v>       0.00462963 </v>
   <v>       0.00462963 </v>
   <v>       0.00462963 </v>
   <v>       0.00462963 </v>
   <v>       0.00462963 </v>
   <v>       0.00462963 </v>
   <v>       0.00462963 </v>
   <v>       0.00462963 </v>
   <v>       0.00462963 </v>
   <v>       0.00462963 </v>
   <v>       0.00462963 </v>
   <v>       0.00462963 </v>
   <v>       0.00462963 </v>
   <v>       0.00462963 </v>
   <v>       0.00462963 </v>
   <v>       0.00462963 </v>
   <v>       0.00462963 </v>
   <v>       0.00462963 </v>
   <v>       0.00462963 </v>
   <v>       0.00462963 </v>
   <v>       0.00462963 </v>
   <v>       0.00462963 </v>
   <v>       0.00462963 </v>
   <v>       0.00462963 </v>
   <v>       0.00462963 </v>
   <v>       0.00462963 </v>
   <v>       0.00462963 </v>
   <v>       0.00462963 </v>
   <v>       0.00462963 </v>
   <v>       0.00462963 </v>
   <v>       0.00462963 </v>
   <v>       0.00462963 </v>
   <v>       0.00462963 </v>
   <v>       0.00462963 </v>
   <v>       0.00462963 </v>
   <v>       0.00462963 </v>
   <v>       0.00462963 </v>
   <v>       0.00462963 </v>
   <v>       0.00462963 </v>
   <v>       0.00462963 </v>
   <v>       0.00462963 </v>
   <v>       0.00462963 </v>
   <v>       0.00462963 </v>
   <v>       0.00462963 </v>
   <v>       0.00462963 </v>
   <v>       0.00462963 </v>
   <v>       0.00462963 </v>
   <v>       0.00462963 </v>
   <v>       0.00462963 </v>
   <v>       0.00462963 </v>
   <v>       0.00462963 </v>
   <v>       0.00462963 </v>
   <v>       0.00462963 </v>
   <v>       0.00462963 </v>
   <v>       0.00462963 </v>
   <v>       0.00462963 </v>
   <v>       0.00462963 </v>
   <v>       0.00462963 </v>
   <v>       0.00462963 </v>
   <v>       0.00462963 </v>
   <v>       0.00462963 </v>
   <v>       0.00462963 </v>
   <v>       0.00462963 </v>
   <v>       0.00462963 </v>
   <v>       0.00462963 </v>
   <v>       0.00462963 </v>
   <v>       0.00462963 </v>
   <v>       0.00462963 </v>
   <v>       0.00462963 </v>
   <v>       0.00462963 </v>
   <v>       0.00462963 </v>
   <v>       0.00462963 </v>
   <v>       0.00462963 </v>
   <v>       0.00462963 </v>
   <v>       0.00462963 </v>
   <v>       0.00462963 </v>
   <v>       0.00462963 </v>
   <v>       0.00462963 </v>
   <v>       0.00462963 </v>
   <v>       0.00462963 </v>
   <v>       0.00462963 </v>
   <v>       0.00462963 </v>
   <v>       0.00462963 </v>
   <v>       0.00462963 </v>
   <v>       0.00462963 </v>
   <v>       0.00462963 </v>
   <v>       0.00462963 </v>
   <v>       0.00462963 </v>
   <v>       0.00462963 </v>
   <v>       0.00462963 </v>
   <v>       0.00462963 </v>
   <v>       0.00462963 </v>
   <v>       0.00462963 </v>
   <v>       0.00462963 </v>
   <v>       0.00462963 </v>
   <v>       0.00462963 </v>
   <v>       0.00462963 </v>
   <v>       0.00462963 </v>
   <v>       0.00462963 </v>
   <v>       0.00462963 </v>
   <v>       0.00462963 </v>
   <v>       0.00462963 </v>
   <v>       0.00462963 </v>
   <v>       0.00462963 </v>
   <v>       0.00462963 </v>
   <v>       0.00462963 </v>
  </varray>
 </kpoints>
 <parameters>
  <separator name="general" >
   <i type="string" name="SYSTEM">Og_FCC</i>
   <i type="logical" name="LCOMPAT"> F  </i>
  </separator>
  <separator name="electronic" >
   <i type="string" name="PREC">accura</i>
   <i name="ENMAX">    300.00000000</i>
   <i name="ENAUG">    715.60700000</i>
   <i name="EDIFF">      0.00000001</i>
   <i type="int" name="IALGO">    90</i>
   <i type="int" name="IWAVPR">    10</i>
   <i type="int" name="NBANDS">   196</i>
   <i name="NELECT">     18.00000000</i>
   <i type="int" name="TURBO">     0</i>
   <i type="int" name="IRESTART">     0</i>
   <i type="int" name="NREBOOT">     0</i>
   <i type="int" name="NMIN">     0</i>
   <i name="EREF">      0.00000000</i>
   <separator name="electronic smearing" >
    <i type="int" name="ISMEAR">     0</i>
    <i name="SIGMA">      0.00100000</i>
    <i name="KSPACING">      0.50000000</i>
    <i type="logical" name="KGAMMA"> T  </i>
   </separator>
   <separator name="electronic projectors" >
    <i type="logical" name="LREAL"> F  </i>
    <v name="ROPT">      0.00000000</v>
    <i type="int" name="LMAXPAW">  -100</i>
    <i type="int" name="LMAXMIX">     2</i>
    <i type="logical" name="NLSPLINE"> F  </i>
   </separator>
   <separator name="electronic startup" >
    <i type="int" name="ISTART">     1</i>
    <i type="int" name="ICHARG">     0</i>
    <i type="int" name="INIWAV">     1</i>
   </separator>
   <separator name="electronic spin" >
    <i type="int" name="ISPIN">     1</i>
    <i type="logical" name="LNONCOLLINEAR"> T  </i>
    <v name="MAGMOM">      1.00000000      1.00000000      1.00000000</v>
    <i name="NUPDOWN">     -1.00000000</i>
    <i type="logical" name="LSORBIT"> T  </i>
    <v name="SAXIS">      0.00000000      0.00000000      1.00000000</v>
    <i type="logical" name="LSPIRAL"> F  </i>
    <v name="QSPIRAL">      0.00000000      0.00000000      0.00000000</v>
    <i type="logical" name="LZEROZ"> F  </i>
   </separator>
   <separator name="electronic exchange-correlation" >
    <i type="logical" name="LASPH"> F  </i>
    <i type="logical" name="LMETAGGA"> F  </i>
   </separator>
   <separator name="electronic convergence" >
    <i type="int" name="NELM">    50</i>
    <i type="int" name="NELMDL">    -5</i>
    <i type="int" name="NELMIN">     2</i>
    <i name="ENINI">    300.00000000</i>
    <separator name="electronic convergence detail" >
     <i type="logical" name="LDIAG"> T  </i>
     <i type="logical" name="LSUBROT"> F  </i>
     <i name="WEIMIN">      0.00000000</i>
     <i name="EBREAK">      0.00000000</i>
     <i name="DEPER">      0.30000000</i>
     <i type="int" name="NRMM">     4</i>
     <i name="TIME">      0.40000000</i>
    </separator>
   </separator>
   <separator name="electronic mixer" >
    <i name="AMIX">      0.40000000</i>
    <i name="BMIX">      1.00000000</i>
    <i name="AMIN">      0.10000000</i>
    <i name="AMIX_MAG">      1.60000000</i>
    <i name="BMIX_MAG">      1.00000000</i>
    <separator name="electronic mixer details" >
     <i type="int" name="IMIX">     4</i>
     <i type="logical" name="MIXFIRST"> F  </i>
     <i type="int" name="MAXMIX">    50</i>
     <i name="WC">    100.00000000</i>
     <i type="int" name="INIMIX">     1</i>
     <i type="int" name="MIXPRE">     1</i>
     <i type="int" name="MREMOVE">     5</i>
    </separator>
   </separator>
   <separator name="electronic dipolcorrection" >
    <i type="logical" name="LDIPOL"> F  </i>
    <i type="logical" name="LMONO"> F  </i>
    <i type="int" name="IDIPOL">     0</i>
    <i name="EPSILON">      1.00000000</i>
    <v name="DIPOL">   -100.00000000   -100.00000000   -100.00000000</v>
    <i name="EFIELD">      0.00000000</i>
   </separator>
  </separator>
  <separator name="grids" >
   <i type="int" name="NGX">    28</i>
   <i type="int" name="NGY">    28</i>
   <i type="int" name="NGZ">    28</i>
   <i type="int" name="NGXF">    56</i>
   <i type="int" name="NGYF">    56</i>
   <i type="int" name="NGZF">    56</i>
   <i type="logical" name="ADDGRID"> T  </i>
  </separator>
  <separator name="ionic" >
   <i type="int" name="NSW">     1</i>
   <i type="int" name="IBRION">    -1</i>
   <i type="int" name="MDALGO">     0</i>
   <i type="int" name="ISIF">     3</i>
   <i name="PSTRESS">      0.00000000</i>
   <i name="EDIFFG">      0.00001000</i>
   <i type="int" name="NFREE">     5</i>
   <i name="POTIM">      0.10000000</i>
   <i name="SMASS">     -3.00000000</i>
   <i name="SCALEE">      1.00000000</i>
  </separator>
  <separator name="ionic md" >
   <i name="TEBEG">      0.00010000</i>
   <i name="TEEND">      0.00010000</i>
   <i type="int" name="NBLOCK">     1</i>
   <i type="int" name="KBLOCK">     1</i>
   <i type="int" name="NPACO">   256</i>
   <i name="APACO">     16.00000000</i>
  </separator>
  <separator name="symmetry" >
   <i type="int" name="ISYM">     0</i>
   <i name="SYMPREC">      0.00000010</i>
  </separator>
  <separator name="dos" >
   <i type="int" name="LORBIT">     0</i>
   <v name="RWIGS">     -1.00000000</v>
   <i type="int" name="NEDOS">   301</i>
   <i name="EMIN">     10.00000000</i>
   <i name="EMAX">    -10.00000000</i>
   <i name="EFERMI">      0.00000000</i>
  </separator>
  <separator name="writing" >
   <i type="int" name="NWRITE">     2</i>
   <i type="logical" name="LWAVE"> T  </i>
   <i type="logical" name="LDOWNSAMPLE"> F  </i>
   <i type="logical" name="LCHARG"> F  </i>
   <i type="logical" name="LPARD"> F  </i>
   <i type="logical" name="LVTOT"> F  </i>
   <i type="logical" name="LVHAR"> F  </i>
   <i type="logical" name="LELF"> F  </i>
   <i type="logical" name="LOPTICS"> T  </i>
   <v name="STM">      0.00000000      0.00000000      0.00000000      0.00000000      0.00000000      0.00000000      0.00000000</v>
  </separator>
  <separator name="performance" >
   <i type="int" name="NPAR">     2</i>
   <i type="int" name="NSIM">     4</i>
   <i type="int" name="NBLK">    -1</i>
   <i type="logical" name="LPLANE"> T  </i>
   <i type="logical" name="LSCALAPACK"> T  </i>
   <i type="logical" name="LSCAAWARE"> T  </i>
   <i type="logical" name="LSCALU"> F  </i>
   <i type="logical" name="LASYNC"> F  </i>
   <i type="logical" name="LORBITALREAL"> F  </i>
  </separator>
  <separator name="miscellaneous" >
   <i type="int" name="IDIOT">     3</i>
   <i type="int" name="ISPECIAL">     0</i>
   <i type="logical" name="LMUSIC"> F  </i>
   <v name="POMASS">    220.17000000</v>
   <v name="DARWINR">      0.00000000</v>
   <v name="DARWINV">      1.00000000</v>
   <i type="logical" name="LCORR"> T  </i>
  </separator>
  <i type="logical" name="GGA_COMPAT"> F  </i>
  <i type="logical" name="LBERRY"> F  </i>
  <i type="int" name="ICORELEVEL">     0</i>
  <i type="logical" name="LDAU"> F  </i>
  <i type="int" name="I_CONSTRAINED_M">     0</i>
  <separator name="electronic exchange-correlation" >
   <i type="string" name="GGA">PE</i>
   <i type="int" name="VOSKOWN">     0</i>
   <i type="logical" name="LHFCALC"> F  </i>
   <i type="string" name="PRECFOCK"></i>
   <i type="logical" name="LSYMGRAD"> F  </i>
   <i type="logical" name="LHFONE"> F  </i>
   <i type="logical" name="LRHFCALC"> F  </i>
   <i type="logical" name="LTHOMAS"> F  </i>
   <i type="logical" name="LMODELHF"> F  </i>
   <i name="ENCUT4O">     -1.00000000</i>
   <i type="int" name="EXXOEP">     0</i>
   <i type="int" name="FOURORBIT">     0</i>
   <i name="AEXX">      0.00000000</i>
   <i name="HFALPHA">      0.00000000</i>
   <i name="MCALPHA">      0.00000000</i>
   <i name="ALDAX">      1.00000000</i>
   <i name="AGGAX">      1.00000000</i>
   <i name="ALDAC">      1.00000000</i>
   <i name="AGGAC">      1.00000000</i>
   <i type="int" name="NKREDX">     1</i>
   <i type="int" name="NKREDY">     1</i>
   <i type="int" name="NKREDZ">     1</i>
   <i type="logical" name="SHIFTRED"> F  </i>
   <i type="logical" name="ODDONLY"> F  </i>
   <i type="logical" name="EVENONLY"> F  </i>
   <i type="int" name="LMAXFOCK">     0</i>
   <i type="int" name="NMAXFOCKAE">     0</i>
   <i type="logical" name="LFOCKAEDFT"> F  </i>
   <i name="HFSCREEN">      0.00000000</i>
   <i name="HFSCREENC">      0.00000000</i>
   <i type="int" name="NBANDSGWLOW">     0</i>
  </separator>
  <separator name="vdW DFT" >
   <i type="logical" name="LUSE_VDW"> F  </i>
   <i name="Zab_VDW">     -0.84910000</i>
   <i name="PARAM1">      0.12340000</i>
   <i name="PARAM2">      1.00000000</i>
   <i name="PARAM3">      0.00000000</i>
  </separator>
  <separator name="model GW" >
   <i type="int" name="MODEL_GW">     0</i>
   <i name="MODEL_EPS0">     36.50086281</i>
   <i name="MODEL_ALPHA">      1.00000000</i>
  </separator>
  <separator name="linear response parameters" >
   <i type="logical" name="LEPSILON"> F  </i>
   <i type="logical" name="LRPA"> F  </i>
   <i type="logical" name="LNABLA"> F  </i>
   <i type="logical" name="LVEL"> F  </i>
   <i type="int" name="KINTER">     0</i>
   <i name="CSHIFT">      0.10000000</i>
   <i name="OMEGAMAX">     -1.00000000</i>
   <i name="DEG_THRESHOLD">      0.00200000</i>
   <i name="RTIME">     -0.10000000</i>
   <i name="WPLASMAI">      0.00000000</i>
   <v name="DFIELD">      0.00000000      0.00000000      0.00000000</v>
   <v name="WPLASMA">      0.00000000      0.00000000      0.00000000      0.00000000      0.00000000      0.00000000      0.00000000      0.00000000      0.00000000</v>
  </separator>
  <separator name="orbital magnetization" >
   <i type="logical" name="NUCIND"> F  </i>
   <v name="MAGPOS">      0.00000000      0.00000000      0.00000000</v>
   <i type="logical" name="LNICSALL"> T  </i>
   <i type="logical" name="ORBITALMAG"> F  </i>
   <i type="logical" name="LMAGBLOCH"> F  </i>
   <i type="logical" name="LCHIMAG"> F  </i>
   <i type="logical" name="LGAUGE"> T  </i>
   <i type="int" name="MAGATOM">     0</i>
   <v name="MAGDIPOL">      0.00000000      0.00000000      0.00000000</v>
   <v name="AVECCONST">      0.00000000      0.00000000      0.00000000</v>
  </separator>
  <separator name="response functions" >
   <i type="logical" name="LADDER"> F  </i>
   <i type="logical" name="LRPAFORCE"> F  </i>
   <i type="logical" name="LFXC"> F  </i>
   <i type="logical" name="LHARTREE"> T  </i>
   <i type="int" name="IBSE">     0</i>
   <v type="int" name="KPOINT">    -1     0     0     0</v>
   <i type="logical" name="LTCTE"> F  </i>
   <i type="logical" name="LTETE"> F  </i>
   <i type="logical" name="LTRIPLET"> F  </i>
   <i type="logical" name="LFXCEPS"> F  </i>
   <i type="logical" name="LFXHEG"> F  </i>
   <i type="int" name="NATURALO">     2</i>
   <i type="logical" name="L2ORDER"> F  </i>
   <i type="logical" name="LMP2LT"> F  </i>
   <i type="logical" name="LUSEW"> F  </i>
   <i name="ENCUTGW">     -2.00000000</i>
   <i name="ENCUTGWSOFT">     -2.00000000</i>
   <i name="ENCUTLF">     -1.00000000</i>
   <i type="int" name="LMAXMP2">    -1</i>
   <i name="SCISSOR">      0.00000000</i>
   <i type="int" name="NOMEGA">     0</i>
   <i type="int" name="NOMEGAR">     0</i>
   <i type="int" name="NBANDSGW">    -1</i>
   <i type="int" name="NBANDSO">    -1</i>
   <i type="int" name="NBANDSV">    -1</i>
   <i type="int" name="NELM">    50</i>
   <i type="int" name="NELMHF">     1</i>
   <i type="int" name="DIM">     3</i>
   <i type="int" name="ANTIRES">     0</i>
   <i name="OMEGAMAX">    -30.00000000</i>
   <i name="OMEGAMIN">    -30.00000000</i>
   <i name="OMEGATL">   -200.00000000</i>
   <i type="int" name="OMEGAGRID">   140</i>
   <i name="CSHIFT">     -0.10000000</i>
   <i type="logical" name="SELFENERGY"> F  </i>
   <i type="logical" name="LSPECTRAL"> F  </i>
   <i type="logical" name="LSPECTRALGW"> F  </i>
   <i type="logical" name="LSINGLES"> F  </i>
   <i type="logical" name="LFERMIGW"> F  </i>
   <i type="logical" name="ODDONLYGW"> F  </i>
   <i type="logical" name="EVENONLYGW"> F  </i>
   <i type="int" name="NKREDLFX">     1</i>
   <i type="int" name="NKREDLFY">     1</i>
   <i type="int" name="NKREDLFZ">     1</i>
   <i type="int" name="MAXMEM">  2800</i>
   <i type="int" name="TELESCOPE">     0</i>
   <i type="int" name="TAUPAR">     1</i>
   <i type="int" name="OMEGAPAR">    -1</i>
   <i name="LAMBDA">      1.00000000</i>
  </separator>
  <separator name="External order field" >
   <i name="OFIELD_KAPPA">      0.00000000</i>
   <v name="OFIELD_K">      0.00000000      0.00000000      0.00000000</v>
   <i name="OFIELD_Q6_NEAR">      0.00000000</i>
   <i name="OFIELD_Q6_FAR">      0.00000000</i>
   <i name="OFIELD_A">      0.00000000</i>
  </separator>
 </parameters>
 <atominfo>
  <atoms>       1 </atoms>
  <types>       1 </types>
  <array name="atoms" >
   <dimension dim="1">ion</dimension>
   <field type="string">element</field>
   <field type="int">atomtype</field>
   <set>
    <rc><c>Rn</c><c>   1</c></rc>
   </set>
  </array>
  <array name="atomtypes" >
   <dimension dim="1">type</dimension>
   <field type="int">atomspertype</field>
   <field type="string">element</field>
   <field>mass</field>
   <field>valence</field>
   <field type="string">pseudopotential</field>
   <set>
    <rc><c>   1</c><c>Rn</c><c>    220.17000000</c><c>     18.00000000</c><c>  PAW_PBE Rn_d_GW 14Apr2014             </c></rc>
   </set>
  </array>
 </atominfo>
 <structure name="initialpos" >
  <crystal>
   <varray name="basis" >
    <v>       4.41457561       0.00000000       0.00000000 </v>
    <v>       2.20728780       3.82313462      -0.00000000 </v>
    <v>       2.20728780       1.27437821       3.60448589 </v>
   </varray>
   <i name="volume">     60.83477135 </i>
   <varray name="rec_basis" >
    <v>       0.22652234      -0.13078273      -0.09247736 </v>
    <v>       0.00000000       0.26156547      -0.09247736 </v>
    <v>      -0.00000000       0.00000000       0.27743208 </v>
   </varray>
  </crystal>
  <varray name="positions" >
   <v>       0.00000000       0.00000000       0.00000000 </v>
  </varray>
  <varray name="velocities" >
   <v>       0.00000000       0.00000000       0.00000000 </v>
  </varray>
 </structure>
 <calculation>
  <scstep>
   <time name="diag">   93.06   93.11</time>
   <time name="total">   93.22   93.27</time>
   <energy>
    <i name="alphaZ">     69.69972675 </i>
    <i name="ewald">  -1713.14217088 </i>
    <i name="hartreedc">   -991.59973728 </i>
    <i name="XCdc">     36.87931669 </i>
    <i name="pawpsdc">   2509.69126664 </i>
    <i name="pawaedc">  -2480.60845555 </i>
    <i name="eentropy">      0.00000000 </i>
    <i name="bandstr">   -463.31824216 </i>
    <i name="atom">   3030.62410580 </i>
    <i name="e_fr_energy">     -1.77418998 </i>
    <i name="e_wo_entrp">     -1.77418998 </i>
    <i name="e_0_energy">     -1.77418998 </i>
   </energy>
  </scstep>
  <scstep>
   <time name="diag">   92.67   92.84</time>
   <time name="total">   92.68   92.84</time>
   <energy>
    <i name="e_fr_energy">     -1.77418998 </i>
    <i name="e_wo_entrp">     -1.77418998 </i>
    <i name="e_0_energy">     -1.77418998 </i>
   </energy>
  </scstep>
  <scstep>
   <time name="diag">   92.60   92.67</time>
   <time name="total">   92.60   92.67</time>
   <energy>
    <i name="e_fr_energy">     -1.77418998 </i>
    <i name="e_wo_entrp">     -1.77418998 </i>
    <i name="e_0_energy">     -1.77418998 </i>
   </energy>
  </scstep>
  <scstep>
   <time name="diag">   93.07   93.27</time>
   <time name="total">   93.08   93.28</time>
   <energy>
    <i name="e_fr_energy">     -1.77418998 </i>
    <i name="e_wo_entrp">     -1.77418998 </i>
    <i name="e_0_energy">     -1.77418998 </i>
   </energy>
  </scstep>
  <scstep>
   <time name="diag">   93.87   93.99</time>
   <time name="total">   94.06   94.18</time>
   <energy>
    <i name="e_fr_energy">     -1.77418998 </i>
    <i name="e_wo_entrp">     -1.77418998 </i>
    <i name="e_0_energy">     -1.77418998 </i>
   </energy>
  </scstep>
  <scstep>
   <time name="diag">   92.57   92.64</time>
   <time name="total">   92.72   92.79</time>
   <energy>
    <i name="alphaZ">     69.69972675 </i>
    <i name="ewald">  -1713.14217088 </i>
    <i name="hartreedc">   -991.59981178 </i>
    <i name="XCdc">     36.87931914 </i>
    <i name="pawpsdc">   2509.69158487 </i>
    <i name="pawaedc">  -2480.60879180 </i>
    <i name="eentropy">      0.00000000 </i>
    <i name="bandstr">   -463.31815208 </i>
    <i name="atom">   3030.62410580 </i>
    <i name="e_fr_energy">     -1.77418998 </i>
    <i name="e_wo_entrp">     -1.77418998 </i>
    <i name="e_0_energy">     -1.77418998 </i>
   </energy>
  </scstep>
  <structure>
   <crystal>
    <varray name="basis" >
     <v>       4.41457561       0.00000000       0.00000000 </v>
     <v>       2.20728780       3.82313462      -0.00000000 </v>
     <v>       2.20728780       1.27437821       3.60448589 </v>
    </varray>
    <i name="volume">     60.83477135 </i>
    <varray name="rec_basis" >
     <v>       0.22652234      -0.13078273      -0.09247736 </v>
     <v>       0.00000000       0.26156547      -0.09247736 </v>
     <v>      -0.00000000       0.00000000       0.27743208 </v>
    </varray>
   </crystal>
   <varray name="positions" >
    <v>       0.00000000       0.00000000       0.00000000 </v>
   </varray>
  </structure>
  <varray name="forces" >
   <v>      -0.00000001      -0.00000000      -0.00000000 </v>
  </varray>
  <varray name="stress" >
   <v>      -0.34622116       0.00022776       0.00017063 </v>
   <v>       0.00022773      -0.34648498       0.00008342 </v>
   <v>       0.00016992       0.00008380      -0.34676821 </v>
  </varray>
  <energy>
   <i name="e_fr_energy">     -1.99818031 </i>
   <i name="e_wo_entrp">     -1.99818031 </i>
   <i name="e_0_energy">      0.00000000 </i>
  </energy>
  <time name="totalsc">  565.13  566.56</time>
  <eigenvalues>
   <array>
    <dimension dim="1">band</dimension>
    <dimension dim="2">kpoint</dimension>
    <dimension dim="3">spin</dimension>
    <field>eigene</field>
    <field>occ</field>
    <set>
     <set comment="spin 1">
      <set comment="kpoint 1">
       <r>  -43.7664    1.0000 </r>
       <r>  -43.7664    1.0000 </r>
       <r>  -43.7664    1.0000 </r>
       <r>  -43.7664    1.0000 </r>
       <r>  -39.3631    1.0000 </r>
       <r>  -39.3631    1.0000 </r>
       <r>  -39.3623    1.0000 </r>
       <r>  -39.3623    1.0000 </r>
       <r>  -39.3623    1.0000 </r>
       <r>  -39.3623    1.0000 </r>
       <r>  -17.0618    1.0000 </r>
       <r>  -17.0618    1.0000 </r>
       <r>   -4.6608    1.0000 </r>
       <r>   -4.6608    1.0000 </r>
       <r>   -0.8921    1.0000 </r>
       <r>   -0.8921    1.0000 </r>
       <r>   -0.8921    1.0000 </r>
       <r>   -0.8921    1.0000 </r>
       <r>    2.8226    0.0000 </r>
       <r>    2.8226    0.0000 </r>
       <r>    8.0763    0.0000 </r>
       <r>    8.0763    0.0000 </r>
       <r>    8.0763    0.0000 </r>
       <r>    8.0763    0.0000 </r>
       <r>    8.2421    0.0000 </r>
       <r>    8.2421    0.0000 </r>
       <r>    9.8345    0.0000 </r>
       <r>    9.8345    0.0000 </r>
       <r>   10.6879    0.0000 </r>
       <r>   10.6879    0.0000 </r>
       <r>   10.6879    0.0000 </r>
       <r>   10.6879    0.0000 </r>
       <r>   11.9030    0.0000 </r>
       <r>   11.9030    0.0000 </r>
       <r>   11.9984    0.0000 </r>
       <r>   11.9984    0.0000 </r>
       <r>   11.9984    0.0000 </r>
       <r>   11.9984    0.0000 </r>
       <r>   14.6543    0.0000 </r>
       <r>   14.6543    0.0000 </r>
       <r>   18.9190    0.0000 </r>
       <r>   18.9190    0.0000 </r>
       <r>   18.9538    0.0000 </r>
       <r>   18.9538    0.0000 </r>
       <r>   18.9538    0.0000 </r>
       <r>   18.9538    0.0000 </r>
       <r>   21.9824    0.0000 </r>
       <r>   21.9824    0.0000 </r>
       <r>   23.1656    0.0000 </r>
       <r>   23.1656    0.0000 </r>
       <r>   23.1656    0.0000 </r>
       <r>   23.1656    0.0000 </r>
       <r>   23.9212    0.0000 </r>
       <r>   23.9212    0.0000 </r>
       <r>   25.5532    0.0000 </r>
       <r>   25.5532    0.0000 </r>
       <r>   25.6024    0.0000 </r>
       <r>   25.6024    0.0000 </r>
       <r>   25.6024    0.0000 </r>
       <r>   25.6024    0.0000 </r>
       <r>   25.9720    0.0000 </r>
       <r>   25.9720    0.0000 </r>
       <r>   26.4943    0.0000 </r>
       <r>   26.4943    0.0000 </r>
       <r>   26.4943    0.0000 </r>
       <r>   26.4943    0.0000 </r>
       <r>   26.7906    0.0000 </r>
       <r>   26.7906    0.0000 </r>
       <r>   26.7906    0.0000 </r>
       <r>   26.7906    0.0000 </r>
       <r>   28.4338    0.0000 </r>
       <r>   28.4338    0.0000 </r>
       <r>   34.3223    0.0000 </r>
       <r>   34.3223    0.0000 </r>
       <r>   34.3530    0.0000 </r>
       <r>   34.3530    0.0000 </r>
       <r>   34.3530    0.0000 </r>
       <r>   34.3530    0.0000 </r>
       <r>   36.5204    0.0000 </r>
       <r>   36.5204    0.0000 </r>
       <r>   36.5204    0.0000 </r>
       <r>   36.5204    0.0000 </r>
       <r>   36.6751    0.0000 </r>
       <r>   36.6751    0.0000 </r>
       <r>   36.9762    0.0000 </r>
       <r>   36.9762    0.0000 </r>
       <r>   36.9762    0.0000 </r>
       <r>   36.9762    0.0000 </r>
       <r>   36.9762    0.0000 </r>
       <r>   36.9762    0.0000 </r>
       <r>   37.6842    0.0000 </r>
       <r>   37.6842    0.0000 </r>
       <r>   37.6842    0.0000 </r>
       <r>   37.6842    0.0000 </r>
       <r>   37.8678    0.0000 </r>
       <r>   37.8678    0.0000 </r>
       <r>   38.2429    0.0000 </r>
       <r>   38.2429    0.0000 </r>
       <r>   38.2429    0.0000 </r>
       <r>   38.2429    0.0000 </r>
       <r>   39.9507    0.0000 </r>
       <r>   39.9507    0.0000 </r>
       <r>   39.9507    0.0000 </r>
       <r>   39.9507    0.0000 </r>
       <r>   39.9877    0.0000 </r>
       <r>   39.9877    0.0000 </r>
       <r>   40.6847    0.0000 </r>
       <r>   40.6847    0.0000 </r>
       <r>   40.6847    0.0000 </r>
       <r>   40.6847    0.0000 </r>
       <r>   40.6940    0.0000 </r>
       <r>   40.6940    0.0000 </r>
       <r>   42.7945    0.0000 </r>
       <r>   42.7945    0.0000 </r>
       <r>   42.8142    0.0000 </r>
       <r>   42.8142    0.0000 </r>
       <r>   42.8142    0.0000 </r>
       <r>   42.8142    0.0000 </r>
       <r>   43.2467    0.0000 </r>
       <r>   43.2467    0.0000 </r>
       <r>   43.8065    0.0000 </r>
       <r>   43.8065    0.0000 </r>
       <r>   44.1597    0.0000 </r>
       <r>   44.1597    0.0000 </r>
       <r>   44.1597    0.0000 </r>
       <r>   44.1597    0.0000 </r>
       <r>   44.1768    0.0000 </r>
       <r>   44.1768    0.0000 </r>
       <r>   44.4468    0.0000 </r>
       <r>   44.4468    0.0000 </r>
       <r>   44.4979    0.0000 </r>
       <r>   44.4979    0.0000 </r>
       <r>   44.4979    0.0000 </r>
       <r>   44.4979    0.0000 </r>
       <r>   47.6532    0.0000 </r>
       <r>   47.6532    0.0000 </r>
       <r>   47.6532    0.0000 </r>
       <r>   47.6532    0.0000 </r>
       <r>   47.7714    0.0000 </r>
       <r>   47.7714    0.0000 </r>
       <r>   50.3493    0.0000 </r>
       <r>   50.3493    0.0000 </r>
       <r>   56.9297    0.0000 </r>
       <r>   56.9297    0.0000 </r>
       <r>   57.2019    0.0000 </r>
       <r>   57.2019    0.0000 </r>
       <r>   57.2019    0.0000 </r>
       <r>   57.2019    0.0000 </r>
       <r>   60.3580    0.0000 </r>
       <r>   60.3580    0.0000 </r>
       <r>   60.6681    0.0000 </r>
       <r>   60.6681    0.0000 </r>
       <r>   60.6681    0.0000 </r>
       <r>   60.6681    0.0000 </r>
       <r>   63.7208    0.0000 </r>
       <r>   63.7208    0.0000 </r>
       <r>   63.7208    0.0000 </r>
       <r>   63.7208    0.0000 </r>
       <r>   65.1736    0.0000 </r>
       <r>   65.1736    0.0000 </r>
       <r>   65.1736    0.0000 </r>
       <r>   65.1736    0.0000 </r>
       <r>   65.2598    0.0000 </r>
       <r>   65.2598    0.0000 </r>
       <r>   67.5656    0.0000 </r>
       <r>   67.5656    0.0000 </r>
       <r>   68.1100    0.0000 </r>
       <r>   68.1100    0.0000 </r>
       <r>   68.1100    0.0000 </r>
       <r>   68.1100    0.0000 </r>
       <r>   68.1100    0.0000 </r>
       <r>   68.1100    0.0000 </r>
       <r>   68.6664    0.0000 </r>
       <r>   68.6664    0.0000 </r>
       <r>   68.6664    0.0000 </r>
       <r>   68.6664    0.0000 </r>
       <r>   69.6960    0.0000 </r>
       <r>   69.6960    0.0000 </r>
       <r>   69.6960    0.0000 </r>
       <r>   69.6960    0.0000 </r>
       <r>   70.5129    0.0000 </r>
       <r>   70.5129    0.0000 </r>
       <r>   70.5129    0.0000 </r>
       <r>   70.5129    0.0000 </r>
       <r>   70.6703    0.0000 </r>
       <r>   70.6703    0.0000 </r>
       <r>   70.6781    0.0000 </r>
       <r>   70.6781    0.0000 </r>
       <r>   70.6781    0.0000 </r>
       <r>   70.6781    0.0000 </r>
       <r>   70.7984    0.0000 </r>
       <r>   70.7984    0.0000 </r>
       <r>   70.7984    0.0000 </r>
       <r>   70.7984    0.0000 </r>
       <r>   70.7984    0.0000 </r>
       <r>   70.7984    0.0000 </r>
      </set>
      <set comment="kpoint 2">
       <r>  -43.7664    1.0000 </r>
       <r>  -43.7664    1.0000 </r>
       <r>  -43.7663    1.0000 </r>
       <r>  -43.7663    1.0000 </r>
       <r>  -39.3627    1.0000 </r>
       <r>  -39.3627    1.0000 </r>
       <r>  -39.3622    1.0000 </r>
       <r>  -39.3622    1.0000 </r>
       <r>  -39.3619    1.0000 </r>
       <r>  -39.3619    1.0000 </r>
       <r>  -17.0197    1.0000 </r>
       <r>  -17.0197    1.0000 </r>
       <r>   -4.8232    1.0000 </r>
       <r>   -4.8232    1.0000 </r>
       <r>   -1.4823    1.0000 </r>
       <r>   -1.4823    1.0000 </r>
       <r>   -0.9709    1.0000 </r>
       <r>   -0.9709    1.0000 </r>
       <r>    3.7103    0.0000 </r>
       <r>    3.7103    0.0000 </r>
       <r>    7.3844    0.0000 </r>
       <r>    7.3844    0.0000 </r>
       <r>    8.2708    0.0000 </r>
       <r>    8.2708    0.0000 </r>
       <r>    8.4292    0.0000 </r>
       <r>    8.4292    0.0000 </r>
       <r>    9.8637    0.0000 </r>
       <r>    9.8637    0.0000 </r>
       <r>    9.9474    0.0000 </r>
       <r>    9.9474    0.0000 </r>
       <r>   10.6658    0.0000 </r>
       <r>   10.6658    0.0000 </r>
       <r>   11.9076    0.0000 </r>
       <r>   11.9076    0.0000 </r>
       <r>   13.5925    0.0000 </r>
       <r>   13.5925    0.0000 </r>
       <r>   13.6431    0.0000 </r>
       <r>   13.6431    0.0000 </r>
       <r>   16.3967    0.0000 </r>
       <r>   16.3967    0.0000 </r>
       <r>   17.9843    0.0000 </r>
       <r>   17.9843    0.0000 </r>
       <r>   18.0698    0.0000 </r>
       <r>   18.0698    0.0000 </r>
       <r>   19.0046    0.0000 </r>
       <r>   19.0046    0.0000 </r>
       <r>   19.9905    0.0000 </r>
       <r>   19.9905    0.0000 </r>
       <r>   21.9816    0.0000 </r>
       <r>   21.9816    0.0000 </r>
       <r>   22.5688    0.0000 </r>
       <r>   22.5688    0.0000 </r>
       <r>   23.5514    0.0000 </r>
       <r>   23.5514    0.0000 </r>
       <r>   24.5628    0.0000 </r>
       <r>   24.5628    0.0000 </r>
       <r>   24.6981    0.0000 </r>
       <r>   24.6981    0.0000 </r>
       <r>   24.8375    0.0000 </r>
       <r>   24.8375    0.0000 </r>
       <r>   26.2828    0.0000 </r>
       <r>   26.2828    0.0000 </r>
       <r>   26.5325    0.0000 </r>
       <r>   26.5325    0.0000 </r>
       <r>   27.3649    0.0000 </r>
       <r>   27.3649    0.0000 </r>
       <r>   27.8161    0.0000 </r>
       <r>   27.8161    0.0000 </r>
       <r>   28.5346    0.0000 </r>
       <r>   28.5346    0.0000 </r>
       <r>   31.4514    0.0000 </r>
       <r>   31.4514    0.0000 </r>
       <r>   33.0881    0.0000 </r>
       <r>   33.0881    0.0000 </r>
       <r>   33.1841    0.0000 </r>
       <r>   33.1841    0.0000 </r>
       <r>   33.4446    0.0000 </r>
       <r>   33.4446    0.0000 </r>
       <r>   33.4544    0.0000 </r>
       <r>   33.4544    0.0000 </r>
       <r>   34.2768    0.0000 </r>
       <r>   34.2768    0.0000 </r>
       <r>   34.5257    0.0000 </r>
       <r>   34.5257    0.0000 </r>
       <r>   36.3981    0.0000 </r>
       <r>   36.3981    0.0000 </r>
       <r>   36.5371    0.0000 </r>
       <r>   36.5371    0.0000 </r>
       <r>   36.9302    0.0000 </r>
       <r>   36.9302    0.0000 </r>
       <r>   37.1579    0.0000 </r>
       <r>   37.1579    0.0000 </r>
       <r>   37.2400    0.0000 </r>
       <r>   37.2400    0.0000 </r>
       <r>   37.9741    0.0000 </r>
       <r>   37.9741    0.0000 </r>
       <r>   38.0058    0.0000 </r>
       <r>   38.0058    0.0000 </r>
       <r>   38.1993    0.0000 </r>
       <r>   38.1993    0.0000 </r>
       <r>   38.4772    0.0000 </r>
       <r>   38.4772    0.0000 </r>
       <r>   40.2004    0.0000 </r>
       <r>   40.2004    0.0000 </r>
       <r>   40.3119    0.0000 </r>
       <r>   40.3119    0.0000 </r>
       <r>   40.8254    0.0000 </r>
       <r>   40.8254    0.0000 </r>
       <r>   41.7566    0.0000 </r>
       <r>   41.7566    0.0000 </r>
       <r>   41.9882    0.0000 </r>
       <r>   41.9882    0.0000 </r>
       <r>   41.9894    0.0000 </r>
       <r>   41.9894    0.0000 </r>
       <r>   44.0066    0.0000 </r>
       <r>   44.0066    0.0000 </r>
       <r>   44.0905    0.0000 </r>
       <r>   44.0905    0.0000 </r>
       <r>   45.0455    0.0000 </r>
       <r>   45.0455    0.0000 </r>
       <r>   45.3085    0.0000 </r>
       <r>   45.3085    0.0000 </r>
       <r>   45.7609    0.0000 </r>
       <r>   45.7609    0.0000 </r>
       <r>   45.8876    0.0000 </r>
       <r>   45.8876    0.0000 </r>
       <r>   45.9410    0.0000 </r>
       <r>   45.9410    0.0000 </r>
       <r>   47.1743    0.0000 </r>
       <r>   47.1743    0.0000 </r>
       <r>   47.2415    0.0000 </r>
       <r>   47.2415    0.0000 </r>
       <r>   47.7010    0.0000 </r>
       <r>   47.7010    0.0000 </r>
       <r>   48.3611    0.0000 </r>
       <r>   48.3611    0.0000 </r>
       <r>   48.4125    0.0000 </r>
       <r>   48.4125    0.0000 </r>
       <r>   49.7059    0.0000 </r>
       <r>   49.7059    0.0000 </r>
       <r>   52.1083    0.0000 </r>
       <r>   52.1083    0.0000 </r>
       <r>   54.6450    0.0000 </r>
       <r>   54.6450    0.0000 </r>
       <r>   54.7049    0.0000 </r>
       <r>   54.7049    0.0000 </r>
       <r>   55.5249    0.0000 </r>
       <r>   55.5249    0.0000 </r>
       <r>   59.9290    0.0000 </r>
       <r>   59.9290    0.0000 </r>
       <r>   60.2330    0.0000 </r>
       <r>   60.2330    0.0000 </r>
       <r>   61.6460    0.0000 </r>
       <r>   61.6460    0.0000 </r>
       <r>   61.7721    0.0000 </r>
       <r>   61.7721    0.0000 </r>
       <r>   61.7956    0.0000 </r>
       <r>   61.7956    0.0000 </r>
       <r>   62.4961    0.0000 </r>
       <r>   62.4961    0.0000 </r>
       <r>   64.0471    0.0000 </r>
       <r>   64.0471    0.0000 </r>
       <r>   64.5617    0.0000 </r>
       <r>   64.5617    0.0000 </r>
       <r>   64.8042    0.0000 </r>
       <r>   64.8042    0.0000 </r>
       <r>   64.8123    0.0000 </r>
       <r>   64.8123    0.0000 </r>
       <r>   65.4820    0.0000 </r>
       <r>   65.4820    0.0000 </r>
       <r>   65.5787    0.0000 </r>
       <r>   65.5787    0.0000 </r>
       <r>   66.4755    0.0000 </r>
       <r>   66.4755    0.0000 </r>
       <r>   66.6381    0.0000 </r>
       <r>   66.6381    0.0000 </r>
       <r>   67.2870    0.0000 </r>
       <r>   67.2870    0.0000 </r>
       <r>   67.7261    0.0000 </r>
       <r>   67.7261    0.0000 </r>
       <r>   67.8147    0.0000 </r>
       <r>   67.8147    0.0000 </r>
       <r>   68.6565    0.0000 </r>
       <r>   68.6565    0.0000 </r>
       <r>   69.0848    0.0000 </r>
       <r>   69.0848    0.0000 </r>
       <r>   69.4479    0.0000 </r>
       <r>   69.4479    0.0000 </r>
       <r>   69.6840    0.0000 </r>
       <r>   69.6840    0.0000 </r>
       <r>   69.7571    0.0000 </r>
       <r>   69.7571    0.0000 </r>
       <r>   70.8712    0.0000 </r>
       <r>   70.8712    0.0000 </r>
       <r>   71.2295    0.0000 </r>
       <r>   71.2295    0.0000 </r>
      </set>
      <set comment="kpoint 3">
       <r>  -43.7663    1.0000 </r>
       <r>  -43.7663    1.0000 </r>
       <r>  -43.7661    1.0000 </r>
       <r>  -43.7661    1.0000 </r>
       <r>  -39.3634    1.0000 </r>
       <r>  -39.3634    1.0000 </r>
       <r>  -39.3626    1.0000 </r>
       <r>  -39.3626    1.0000 </r>
       <r>  -39.3623    1.0000 </r>
       <r>  -39.3623    1.0000 </r>
       <r>  -16.9352    1.0000 </r>
       <r>  -16.9352    1.0000 </r>
       <r>   -5.1722    1.0000 </r>
       <r>   -5.1722    1.0000 </r>
       <r>   -2.2082    1.0000 </r>
       <r>   -2.2082    1.0000 </r>
       <r>   -1.1187    1.0000 </r>
       <r>   -1.1187    1.0000 </r>
       <r>    4.5671    0.0000 </r>
       <r>    4.5671    0.0000 </r>
       <r>    7.7662    0.0000 </r>
       <r>    7.7662    0.0000 </r>
       <r>    7.9474    0.0000 </r>
       <r>    7.9474    0.0000 </r>
       <r>    8.1263    0.0000 </r>
       <r>    8.1263    0.0000 </r>
       <r>    9.8990    0.0000 </r>
       <r>    9.8990    0.0000 </r>
       <r>   10.6792    0.0000 </r>
       <r>   10.6792    0.0000 </r>
       <r>   10.8168    0.0000 </r>
       <r>   10.8168    0.0000 </r>
       <r>   14.8222    0.0000 </r>
       <r>   14.8222    0.0000 </r>
       <r>   15.4039    0.0000 </r>
       <r>   15.4039    0.0000 </r>
       <r>   15.6339    0.0000 </r>
       <r>   15.6339    0.0000 </r>
       <r>   15.9825    0.0000 </r>
       <r>   15.9825    0.0000 </r>
       <r>   16.1233    0.0000 </r>
       <r>   16.1233    0.0000 </r>
       <r>   16.2933    0.0000 </r>
       <r>   16.2933    0.0000 </r>
       <r>   19.1315    0.0000 </r>
       <r>   19.1315    0.0000 </r>
       <r>   19.4403    0.0000 </r>
       <r>   19.4403    0.0000 </r>
       <r>   21.6685    0.0000 </r>
       <r>   21.6685    0.0000 </r>
       <r>   22.2119    0.0000 </r>
       <r>   22.2119    0.0000 </r>
       <r>   22.4848    0.0000 </r>
       <r>   22.4848    0.0000 </r>
       <r>   23.5252    0.0000 </r>
       <r>   23.5252    0.0000 </r>
       <r>   23.9099    0.0000 </r>
       <r>   23.9099    0.0000 </r>
       <r>   24.5299    0.0000 </r>
       <r>   24.5299    0.0000 </r>
       <r>   26.6516    0.0000 </r>
       <r>   26.6516    0.0000 </r>
       <r>   26.7343    0.0000 </r>
       <r>   26.7343    0.0000 </r>
       <r>   27.1228    0.0000 </r>
       <r>   27.1228    0.0000 </r>
       <r>   28.0445    0.0000 </r>
       <r>   28.0445    0.0000 </r>
       <r>   28.3387    0.0000 </r>
       <r>   28.3387    0.0000 </r>
       <r>   29.1044    0.0000 </r>
       <r>   29.1044    0.0000 </r>
       <r>   31.4939    0.0000 </r>
       <r>   31.4939    0.0000 </r>
       <r>   31.6361    0.0000 </r>
       <r>   31.6361    0.0000 </r>
       <r>   31.6582    0.0000 </r>
       <r>   31.6582    0.0000 </r>
       <r>   31.7399    0.0000 </r>
       <r>   31.7399    0.0000 </r>
       <r>   32.6630    0.0000 </r>
       <r>   32.6630    0.0000 </r>
       <r>   32.9608    0.0000 </r>
       <r>   32.9608    0.0000 </r>
       <r>   35.9846    0.0000 </r>
       <r>   35.9846    0.0000 </r>
       <r>   36.0594    0.0000 </r>
       <r>   36.0594    0.0000 </r>
       <r>   36.1063    0.0000 </r>
       <r>   36.1063    0.0000 </r>
       <r>   36.7215    0.0000 </r>
       <r>   36.7215    0.0000 </r>
       <r>   36.8591    0.0000 </r>
       <r>   36.8591    0.0000 </r>
       <r>   38.5980    0.0000 </r>
       <r>   38.5980    0.0000 </r>
       <r>   39.0998    0.0000 </r>
       <r>   39.0998    0.0000 </r>
       <r>   39.1164    0.0000 </r>
       <r>   39.1164    0.0000 </r>
       <r>   39.3549    0.0000 </r>
       <r>   39.3549    0.0000 </r>
       <r>   40.5338    0.0000 </r>
       <r>   40.5338    0.0000 </r>
       <r>   41.6119    0.0000 </r>
       <r>   41.6119    0.0000 </r>
       <r>   41.7799    0.0000 </r>
       <r>   41.7799    0.0000 </r>
       <r>   42.4031    0.0000 </r>
       <r>   42.4031    0.0000 </r>
       <r>   43.4494    0.0000 </r>
       <r>   43.4494    0.0000 </r>
       <r>   43.5826    0.0000 </r>
       <r>   43.5826    0.0000 </r>
       <r>   45.7174    0.0000 </r>
       <r>   45.7174    0.0000 </r>
       <r>   47.6090    0.0000 </r>
       <r>   47.6090    0.0000 </r>
       <r>   47.7353    0.0000 </r>
       <r>   47.7353    0.0000 </r>
       <r>   47.9761    0.0000 </r>
       <r>   47.9761    0.0000 </r>
       <r>   48.1182    0.0000 </r>
       <r>   48.1182    0.0000 </r>
       <r>   48.1890    0.0000 </r>
       <r>   48.1890    0.0000 </r>
       <r>   48.9241    0.0000 </r>
       <r>   48.9241    0.0000 </r>
       <r>   50.0234    0.0000 </r>
       <r>   50.0234    0.0000 </r>
       <r>   50.4684    0.0000 </r>
       <r>   50.4684    0.0000 </r>
       <r>   50.5523    0.0000 </r>
       <r>   50.5523    0.0000 </r>
       <r>   51.5485    0.0000 </r>
       <r>   51.5485    0.0000 </r>
       <r>   51.5933    0.0000 </r>
       <r>   51.5933    0.0000 </r>
       <r>   52.4354    0.0000 </r>
       <r>   52.4354    0.0000 </r>
       <r>   52.5419    0.0000 </r>
       <r>   52.5419    0.0000 </r>
       <r>   52.5439    0.0000 </r>
       <r>   52.5439    0.0000 </r>
       <r>   54.7135    0.0000 </r>
       <r>   54.7135    0.0000 </r>
       <r>   54.9048    0.0000 </r>
       <r>   54.9048    0.0000 </r>
       <r>   55.1355    0.0000 </r>
       <r>   55.1355    0.0000 </r>
       <r>   55.1391    0.0000 </r>
       <r>   55.1391    0.0000 </r>
       <r>   58.0598    0.0000 </r>
       <r>   58.0598    0.0000 </r>
       <r>   58.4947    0.0000 </r>
       <r>   58.4947    0.0000 </r>
       <r>   59.0553    0.0000 </r>
       <r>   59.0553    0.0000 </r>
       <r>   59.3377    0.0000 </r>
       <r>   59.3377    0.0000 </r>
       <r>   60.5138    0.0000 </r>
       <r>   60.5138    0.0000 </r>
       <r>   60.5660    0.0000 </r>
       <r>   60.5660    0.0000 </r>
       <r>   60.9750    0.0000 </r>
       <r>   60.9750    0.0000 </r>
       <r>   61.7138    0.0000 </r>
       <r>   61.7138    0.0000 </r>
       <r>   61.7706    0.0000 </r>
       <r>   61.7706    0.0000 </r>
       <r>   62.0298    0.0000 </r>
       <r>   62.0298    0.0000 </r>
       <r>   64.2711    0.0000 </r>
       <r>   64.2711    0.0000 </r>
       <r>   64.4811    0.0000 </r>
       <r>   64.4811    0.0000 </r>
       <r>   67.6588    0.0000 </r>
       <r>   67.6588    0.0000 </r>
       <r>   68.0214    0.0000 </r>
       <r>   68.0214    0.0000 </r>
       <r>   68.1464    0.0000 </r>
       <r>   68.1464    0.0000 </r>
       <r>   68.8895    0.0000 </r>
       <r>   68.8895    0.0000 </r>
       <r>   68.9599    0.0000 </r>
       <r>   68.9599    0.0000 </r>
       <r>   69.5622    0.0000 </r>
       <r>   69.5622    0.0000 </r>
       <r>   69.6640    0.0000 </r>
       <r>   69.6640    0.0000 </r>
       <r>   69.8943    0.0000 </r>
       <r>   69.8943    0.0000 </r>
       <r>   70.3356    0.0000 </r>
       <r>   70.3356    0.0000 </r>
       <r>   70.4763    0.0000 </r>
       <r>   70.4763    0.0000 </r>
      </set>
      <set comment="kpoint 4">
       <r>  -43.7663    1.0000 </r>
       <r>  -43.7663    1.0000 </r>
       <r>  -43.7659    1.0000 </r>
       <r>  -43.7659    1.0000 </r>
       <r>  -39.3629    1.0000 </r>
       <r>  -39.3629    1.0000 </r>
       <r>  -39.3616    1.0000 </r>
       <r>  -39.3616    1.0000 </r>
       <r>  -39.3615    1.0000 </r>
       <r>  -39.3615    1.0000 </r>
       <r>  -16.8902    1.0000 </r>
       <r>  -16.8902    1.0000 </r>
       <r>   -5.3564    1.0000 </r>
       <r>   -5.3564    1.0000 </r>
       <r>   -2.4615    1.0000 </r>
       <r>   -2.4615    1.0000 </r>
       <r>   -1.1882    1.0000 </r>
       <r>   -1.1882    1.0000 </r>
       <r>    4.6094    0.0000 </r>
       <r>    4.6094    0.0000 </r>
       <r>    7.6850    0.0000 </r>
       <r>    7.6850    0.0000 </r>
       <r>    7.8508    0.0000 </r>
       <r>    7.8508    0.0000 </r>
       <r>    8.4505    0.0000 </r>
       <r>    8.4505    0.0000 </r>
       <r>   10.2223    0.0000 </r>
       <r>   10.2223    0.0000 </r>
       <r>   12.8196    0.0000 </r>
       <r>   12.8196    0.0000 </r>
       <r>   12.8248    0.0000 </r>
       <r>   12.8248    0.0000 </r>
       <r>   12.9666    0.0000 </r>
       <r>   12.9666    0.0000 </r>
       <r>   13.0250    0.0000 </r>
       <r>   13.0250    0.0000 </r>
       <r>   13.8570    0.0000 </r>
       <r>   13.8570    0.0000 </r>
       <r>   17.1333    0.0000 </r>
       <r>   17.1333    0.0000 </r>
       <r>   17.5599    0.0000 </r>
       <r>   17.5599    0.0000 </r>
       <r>   17.5645    0.0000 </r>
       <r>   17.5645    0.0000 </r>
       <r>   19.2039    0.0000 </r>
       <r>   19.2039    0.0000 </r>
       <r>   20.6106    0.0000 </r>
       <r>   20.6106    0.0000 </r>
       <r>   21.6291    0.0000 </r>
       <r>   21.6291    0.0000 </r>
       <r>   21.9825    0.0000 </r>
       <r>   21.9825    0.0000 </r>
       <r>   22.0320    0.0000 </r>
       <r>   22.0320    0.0000 </r>
       <r>   22.3915    0.0000 </r>
       <r>   22.3915    0.0000 </r>
       <r>   23.3186    0.0000 </r>
       <r>   23.3186    0.0000 </r>
       <r>   25.0201    0.0000 </r>
       <r>   25.0201    0.0000 </r>
       <r>   25.5988    0.0000 </r>
       <r>   25.5988    0.0000 </r>
       <r>   26.6815    0.0000 </r>
       <r>   26.6815    0.0000 </r>
       <r>   26.9754    0.0000 </r>
       <r>   26.9754    0.0000 </r>
       <r>   27.4203    0.0000 </r>
       <r>   27.4203    0.0000 </r>
       <r>   27.7948    0.0000 </r>
       <r>   27.7948    0.0000 </r>
       <r>   28.1418    0.0000 </r>
       <r>   28.1418    0.0000 </r>
       <r>   29.2924    0.0000 </r>
       <r>   29.2924    0.0000 </r>
       <r>   31.1014    0.0000 </r>
       <r>   31.1014    0.0000 </r>
       <r>   31.1192    0.0000 </r>
       <r>   31.1192    0.0000 </r>
       <r>   31.1549    0.0000 </r>
       <r>   31.1549    0.0000 </r>
       <r>   32.2974    0.0000 </r>
       <r>   32.2974    0.0000 </r>
       <r>   32.6484    0.0000 </r>
       <r>   32.6484    0.0000 </r>
       <r>   35.6743    0.0000 </r>
       <r>   35.6743    0.0000 </r>
       <r>   35.7504    0.0000 </r>
       <r>   35.7504    0.0000 </r>
       <r>   36.2602    0.0000 </r>
       <r>   36.2602    0.0000 </r>
       <r>   36.5773    0.0000 </r>
       <r>   36.5773    0.0000 </r>
       <r>   36.7428    0.0000 </r>
       <r>   36.7428    0.0000 </r>
       <r>   39.1447    0.0000 </r>
       <r>   39.1447    0.0000 </r>
       <r>   39.1982    0.0000 </r>
       <r>   39.1982    0.0000 </r>
       <r>   39.7038    0.0000 </r>
       <r>   39.7038    0.0000 </r>
       <r>   39.7584    0.0000 </r>
       <r>   39.7584    0.0000 </r>
       <r>   43.2522    0.0000 </r>
       <r>   43.2522    0.0000 </r>
       <r>   43.2704    0.0000 </r>
       <r>   43.2704    0.0000 </r>
       <r>   43.5120    0.0000 </r>
       <r>   43.5120    0.0000 </r>
       <r>   44.1046    0.0000 </r>
       <r>   44.1046    0.0000 </r>
       <r>   45.2147    0.0000 </r>
       <r>   45.2147    0.0000 </r>
       <r>   45.7727    0.0000 </r>
       <r>   45.7727    0.0000 </r>
       <r>   45.8659    0.0000 </r>
       <r>   45.8659    0.0000 </r>
       <r>   46.9849    0.0000 </r>
       <r>   46.9849    0.0000 </r>
       <r>   47.1134    0.0000 </r>
       <r>   47.1134    0.0000 </r>
       <r>   47.4678    0.0000 </r>
       <r>   47.4678    0.0000 </r>
       <r>   48.9608    0.0000 </r>
       <r>   48.9608    0.0000 </r>
       <r>   49.0003    0.0000 </r>
       <r>   49.0003    0.0000 </r>
       <r>   50.6063    0.0000 </r>
       <r>   50.6063    0.0000 </r>
       <r>   50.7265    0.0000 </r>
       <r>   50.7265    0.0000 </r>
       <r>   51.2447    0.0000 </r>
       <r>   51.2447    0.0000 </r>
       <r>   51.3296    0.0000 </r>
       <r>   51.3296    0.0000 </r>
       <r>   51.5256    0.0000 </r>
       <r>   51.5256    0.0000 </r>
       <r>   52.6318    0.0000 </r>
       <r>   52.6318    0.0000 </r>
       <r>   52.7806    0.0000 </r>
       <r>   52.7806    0.0000 </r>
       <r>   53.7413    0.0000 </r>
       <r>   53.7413    0.0000 </r>
       <r>   54.0697    0.0000 </r>
       <r>   54.0697    0.0000 </r>
       <r>   54.4486    0.0000 </r>
       <r>   54.4486    0.0000 </r>
       <r>   55.0993    0.0000 </r>
       <r>   55.0993    0.0000 </r>
       <r>   55.2567    0.0000 </r>
       <r>   55.2567    0.0000 </r>
       <r>   55.2703    0.0000 </r>
       <r>   55.2703    0.0000 </r>
       <r>   55.3941    0.0000 </r>
       <r>   55.3941    0.0000 </r>
       <r>   56.5034    0.0000 </r>
       <r>   56.5034    0.0000 </r>
       <r>   56.7043    0.0000 </r>
       <r>   56.7043    0.0000 </r>
       <r>   57.0258    0.0000 </r>
       <r>   57.0258    0.0000 </r>
       <r>   59.1350    0.0000 </r>
       <r>   59.1350    0.0000 </r>
       <r>   59.2352    0.0000 </r>
       <r>   59.2352    0.0000 </r>
       <r>   60.0363    0.0000 </r>
       <r>   60.0363    0.0000 </r>
       <r>   60.0534    0.0000 </r>
       <r>   60.0534    0.0000 </r>
       <r>   62.4085    0.0000 </r>
       <r>   62.4085    0.0000 </r>
       <r>   62.4152    0.0000 </r>
       <r>   62.4152    0.0000 </r>
       <r>   62.8788    0.0000 </r>
       <r>   62.8788    0.0000 </r>
       <r>   63.9748    0.0000 </r>
       <r>   63.9748    0.0000 </r>
       <r>   64.1804    0.0000 </r>
       <r>   64.1804    0.0000 </r>
       <r>   64.3766    0.0000 </r>
       <r>   64.3766    0.0000 </r>
       <r>   67.8844    0.0000 </r>
       <r>   67.8844    0.0000 </r>
       <r>   68.7465    0.0000 </r>
       <r>   68.7465    0.0000 </r>
       <r>   68.7601    0.0000 </r>
       <r>   68.7601    0.0000 </r>
       <r>   68.8443    0.0000 </r>
       <r>   68.8443    0.0000 </r>
       <r>   68.8925    0.0000 </r>
       <r>   68.8925    0.0000 </r>
       <r>   69.5762    0.0000 </r>
       <r>   69.5762    0.0000 </r>
       <r>   69.8022    0.0000 </r>
       <r>   69.8022    0.0000 </r>
       <r>   69.9602    0.0000 </r>
       <r>   69.9602    0.0000 </r>
      </set>
      <set comment="kpoint 5">
       <r>  -43.7663    1.0000 </r>
       <r>  -43.7663    1.0000 </r>
       <r>  -43.7661    1.0000 </r>
       <r>  -43.7661    1.0000 </r>
       <r>  -39.3634    1.0000 </r>
       <r>  -39.3634    1.0000 </r>
       <r>  -39.3626    1.0000 </r>
       <r>  -39.3626    1.0000 </r>
       <r>  -39.3623    1.0000 </r>
       <r>  -39.3623    1.0000 </r>
       <r>  -16.9352    1.0000 </r>
       <r>  -16.9352    1.0000 </r>
       <r>   -5.1722    1.0000 </r>
       <r>   -5.1722    1.0000 </r>
       <r>   -2.2082    1.0000 </r>
       <r>   -2.2082    1.0000 </r>
       <r>   -1.1187    1.0000 </r>
       <r>   -1.1187    1.0000 </r>
       <r>    4.5671    0.0000 </r>
       <r>    4.5671    0.0000 </r>
       <r>    7.7662    0.0000 </r>
       <r>    7.7662    0.0000 </r>
       <r>    7.9474    0.0000 </r>
       <r>    7.9474    0.0000 </r>
       <r>    8.1263    0.0000 </r>
       <r>    8.1263    0.0000 </r>
       <r>    9.8990    0.0000 </r>
       <r>    9.8990    0.0000 </r>
       <r>   10.6792    0.0000 </r>
       <r>   10.6792    0.0000 </r>
       <r>   10.8168    0.0000 </r>
       <r>   10.8168    0.0000 </r>
       <r>   14.8222    0.0000 </r>
       <r>   14.8222    0.0000 </r>
       <r>   15.4039    0.0000 </r>
       <r>   15.4039    0.0000 </r>
       <r>   15.6339    0.0000 </r>
       <r>   15.6339    0.0000 </r>
       <r>   15.9825    0.0000 </r>
       <r>   15.9825    0.0000 </r>
       <r>   16.1233    0.0000 </r>
       <r>   16.1233    0.0000 </r>
       <r>   16.2933    0.0000 </r>
       <r>   16.2933    0.0000 </r>
       <r>   19.1315    0.0000 </r>
       <r>   19.1315    0.0000 </r>
       <r>   19.4403    0.0000 </r>
       <r>   19.4403    0.0000 </r>
       <r>   21.6685    0.0000 </r>
       <r>   21.6685    0.0000 </r>
       <r>   22.2119    0.0000 </r>
       <r>   22.2119    0.0000 </r>
       <r>   22.4848    0.0000 </r>
       <r>   22.4848    0.0000 </r>
       <r>   23.5252    0.0000 </r>
       <r>   23.5252    0.0000 </r>
       <r>   23.9099    0.0000 </r>
       <r>   23.9099    0.0000 </r>
       <r>   24.5299    0.0000 </r>
       <r>   24.5299    0.0000 </r>
       <r>   26.6516    0.0000 </r>
       <r>   26.6516    0.0000 </r>
       <r>   26.7343    0.0000 </r>
       <r>   26.7343    0.0000 </r>
       <r>   27.1228    0.0000 </r>
       <r>   27.1228    0.0000 </r>
       <r>   28.0445    0.0000 </r>
       <r>   28.0445    0.0000 </r>
       <r>   28.3387    0.0000 </r>
       <r>   28.3387    0.0000 </r>
       <r>   29.1044    0.0000 </r>
       <r>   29.1044    0.0000 </r>
       <r>   31.4939    0.0000 </r>
       <r>   31.4939    0.0000 </r>
       <r>   31.6361    0.0000 </r>
       <r>   31.6361    0.0000 </r>
       <r>   31.6582    0.0000 </r>
       <r>   31.6582    0.0000 </r>
       <r>   31.7399    0.0000 </r>
       <r>   31.7399    0.0000 </r>
       <r>   32.6630    0.0000 </r>
       <r>   32.6630    0.0000 </r>
       <r>   32.9608    0.0000 </r>
       <r>   32.9608    0.0000 </r>
       <r>   35.9846    0.0000 </r>
       <r>   35.9846    0.0000 </r>
       <r>   36.0594    0.0000 </r>
       <r>   36.0594    0.0000 </r>
       <r>   36.1063    0.0000 </r>
       <r>   36.1063    0.0000 </r>
       <r>   36.7215    0.0000 </r>
       <r>   36.7215    0.0000 </r>
       <r>   36.8591    0.0000 </r>
       <r>   36.8591    0.0000 </r>
       <r>   38.5980    0.0000 </r>
       <r>   38.5980    0.0000 </r>
       <r>   39.0998    0.0000 </r>
       <r>   39.0998    0.0000 </r>
       <r>   39.1164    0.0000 </r>
       <r>   39.1164    0.0000 </r>
       <r>   39.3549    0.0000 </r>
       <r>   39.3549    0.0000 </r>
       <r>   40.5338    0.0000 </r>
       <r>   40.5338    0.0000 </r>
       <r>   41.6119    0.0000 </r>
       <r>   41.6119    0.0000 </r>
       <r>   41.7799    0.0000 </r>
       <r>   41.7799    0.0000 </r>
       <r>   42.4031    0.0000 </r>
       <r>   42.4031    0.0000 </r>
       <r>   43.4494    0.0000 </r>
       <r>   43.4494    0.0000 </r>
       <r>   43.5826    0.0000 </r>
       <r>   43.5826    0.0000 </r>
       <r>   45.7174    0.0000 </r>
       <r>   45.7174    0.0000 </r>
       <r>   47.6090    0.0000 </r>
       <r>   47.6090    0.0000 </r>
       <r>   47.7353    0.0000 </r>
       <r>   47.7353    0.0000 </r>
       <r>   47.9761    0.0000 </r>
       <r>   47.9761    0.0000 </r>
       <r>   48.1182    0.0000 </r>
       <r>   48.1182    0.0000 </r>
       <r>   48.1890    0.0000 </r>
       <r>   48.1890    0.0000 </r>
       <r>   48.9241    0.0000 </r>
       <r>   48.9241    0.0000 </r>
       <r>   50.0234    0.0000 </r>
       <r>   50.0234    0.0000 </r>
       <r>   50.4684    0.0000 </r>
       <r>   50.4684    0.0000 </r>
       <r>   50.5523    0.0000 </r>
       <r>   50.5523    0.0000 </r>
       <r>   51.5485    0.0000 </r>
       <r>   51.5485    0.0000 </r>
       <r>   51.5933    0.0000 </r>
       <r>   51.5933    0.0000 </r>
       <r>   52.4354    0.0000 </r>
       <r>   52.4354    0.0000 </r>
       <r>   52.5419    0.0000 </r>
       <r>   52.5419    0.0000 </r>
       <r>   52.5439    0.0000 </r>
       <r>   52.5439    0.0000 </r>
       <r>   54.7135    0.0000 </r>
       <r>   54.7135    0.0000 </r>
       <r>   54.9048    0.0000 </r>
       <r>   54.9048    0.0000 </r>
       <r>   55.1355    0.0000 </r>
       <r>   55.1355    0.0000 </r>
       <r>   55.1391    0.0000 </r>
       <r>   55.1391    0.0000 </r>
       <r>   58.0598    0.0000 </r>
       <r>   58.0598    0.0000 </r>
       <r>   58.4947    0.0000 </r>
       <r>   58.4947    0.0000 </r>
       <r>   59.0553    0.0000 </r>
       <r>   59.0553    0.0000 </r>
       <r>   59.3377    0.0000 </r>
       <r>   59.3377    0.0000 </r>
       <r>   60.5138    0.0000 </r>
       <r>   60.5138    0.0000 </r>
       <r>   60.5660    0.0000 </r>
       <r>   60.5660    0.0000 </r>
       <r>   60.9750    0.0000 </r>
       <r>   60.9750    0.0000 </r>
       <r>   61.7138    0.0000 </r>
       <r>   61.7138    0.0000 </r>
       <r>   61.7706    0.0000 </r>
       <r>   61.7706    0.0000 </r>
       <r>   62.0298    0.0000 </r>
       <r>   62.0298    0.0000 </r>
       <r>   64.2711    0.0000 </r>
       <r>   64.2711    0.0000 </r>
       <r>   64.4811    0.0000 </r>
       <r>   64.4811    0.0000 </r>
       <r>   67.6588    0.0000 </r>
       <r>   67.6588    0.0000 </r>
       <r>   68.0214    0.0000 </r>
       <r>   68.0214    0.0000 </r>
       <r>   68.1464    0.0000 </r>
       <r>   68.1464    0.0000 </r>
       <r>   68.8895    0.0000 </r>
       <r>   68.8895    0.0000 </r>
       <r>   68.9599    0.0000 </r>
       <r>   68.9599    0.0000 </r>
       <r>   69.5622    0.0000 </r>
       <r>   69.5622    0.0000 </r>
       <r>   69.6640    0.0000 </r>
       <r>   69.6640    0.0000 </r>
       <r>   69.8943    0.0000 </r>
       <r>   69.8943    0.0000 </r>
       <r>   70.3356    0.0000 </r>
       <r>   70.3356    0.0000 </r>
       <r>   70.4763    0.0000 </r>
       <r>   70.4763    0.0000 </r>
      </set>
      <set comment="kpoint 6">
       <r>  -43.7664    1.0000 </r>
       <r>  -43.7664    1.0000 </r>
       <r>  -43.7663    1.0000 </r>
       <r>  -43.7663    1.0000 </r>
       <r>  -39.3627    1.0000 </r>
       <r>  -39.3627    1.0000 </r>
       <r>  -39.3622    1.0000 </r>
       <r>  -39.3622    1.0000 </r>
       <r>  -39.3619    1.0000 </r>
       <r>  -39.3619    1.0000 </r>
       <r>  -17.0197    1.0000 </r>
       <r>  -17.0197    1.0000 </r>
       <r>   -4.8232    1.0000 </r>
       <r>   -4.8232    1.0000 </r>
       <r>   -1.4823    1.0000 </r>
       <r>   -1.4823    1.0000 </r>
       <r>   -0.9709    1.0000 </r>
       <r>   -0.9709    1.0000 </r>
       <r>    3.7103    0.0000 </r>
       <r>    3.7103    0.0000 </r>
       <r>    7.3844    0.0000 </r>
       <r>    7.3844    0.0000 </r>
       <r>    8.2708    0.0000 </r>
       <r>    8.2708    0.0000 </r>
       <r>    8.4292    0.0000 </r>
       <r>    8.4292    0.0000 </r>
       <r>    9.8637    0.0000 </r>
       <r>    9.8637    0.0000 </r>
       <r>    9.9474    0.0000 </r>
       <r>    9.9474    0.0000 </r>
       <r>   10.6658    0.0000 </r>
       <r>   10.6658    0.0000 </r>
       <r>   11.9076    0.0000 </r>
       <r>   11.9076    0.0000 </r>
       <r>   13.5925    0.0000 </r>
       <r>   13.5925    0.0000 </r>
       <r>   13.6431    0.0000 </r>
       <r>   13.6431    0.0000 </r>
       <r>   16.3967    0.0000 </r>
       <r>   16.3967    0.0000 </r>
       <r>   17.9843    0.0000 </r>
       <r>   17.9843    0.0000 </r>
       <r>   18.0698    0.0000 </r>
       <r>   18.0698    0.0000 </r>
       <r>   19.0046    0.0000 </r>
       <r>   19.0046    0.0000 </r>
       <r>   19.9905    0.0000 </r>
       <r>   19.9905    0.0000 </r>
       <r>   21.9816    0.0000 </r>
       <r>   21.9816    0.0000 </r>
       <r>   22.5688    0.0000 </r>
       <r>   22.5688    0.0000 </r>
       <r>   23.5514    0.0000 </r>
       <r>   23.5514    0.0000 </r>
       <r>   24.5628    0.0000 </r>
       <r>   24.5628    0.0000 </r>
       <r>   24.6981    0.0000 </r>
       <r>   24.6981    0.0000 </r>
       <r>   24.8375    0.0000 </r>
       <r>   24.8375    0.0000 </r>
       <r>   26.2828    0.0000 </r>
       <r>   26.2828    0.0000 </r>
       <r>   26.5325    0.0000 </r>
       <r>   26.5325    0.0000 </r>
       <r>   27.3649    0.0000 </r>
       <r>   27.3649    0.0000 </r>
       <r>   27.8161    0.0000 </r>
       <r>   27.8161    0.0000 </r>
       <r>   28.5346    0.0000 </r>
       <r>   28.5346    0.0000 </r>
       <r>   31.4514    0.0000 </r>
       <r>   31.4514    0.0000 </r>
       <r>   33.0881    0.0000 </r>
       <r>   33.0881    0.0000 </r>
       <r>   33.1841    0.0000 </r>
       <r>   33.1841    0.0000 </r>
       <r>   33.4446    0.0000 </r>
       <r>   33.4446    0.0000 </r>
       <r>   33.4544    0.0000 </r>
       <r>   33.4544    0.0000 </r>
       <r>   34.2768    0.0000 </r>
       <r>   34.2768    0.0000 </r>
       <r>   34.5257    0.0000 </r>
       <r>   34.5257    0.0000 </r>
       <r>   36.3981    0.0000 </r>
       <r>   36.3981    0.0000 </r>
       <r>   36.5371    0.0000 </r>
       <r>   36.5371    0.0000 </r>
       <r>   36.9302    0.0000 </r>
       <r>   36.9302    0.0000 </r>
       <r>   37.1579    0.0000 </r>
       <r>   37.1579    0.0000 </r>
       <r>   37.2400    0.0000 </r>
       <r>   37.2400    0.0000 </r>
       <r>   37.9741    0.0000 </r>
[...]
       <r>    40.4027     0.0000     0.0000 </r>
       <r>    40.8249     0.0000     0.0000 </r>
       <r>    41.2471     0.0000     0.0000 </r>
       <r>    41.6693     0.0000     0.0000 </r>
       <r>    42.0915     0.0000     0.0000 </r>
       <r>    42.5137     0.0000     0.0000 </r>
       <r>    42.9359     0.0000     0.0000 </r>
       <r>    43.3581     0.0000     0.0000 </r>
       <r>    43.7802     0.0000     0.0000 </r>
       <r>    44.2024     0.0000     0.0000 </r>
       <r>    44.6246     0.0000     0.0000 </r>
       <r>    45.0468     0.0000     0.0000 </r>
       <r>    45.4690     0.0000     0.0000 </r>
       <r>    45.8912     0.0000     0.0000 </r>
       <r>    46.3134     0.0000     0.0000 </r>
       <r>    46.7356     0.0000     0.0000 </r>
       <r>    47.1578     0.0000     0.0000 </r>
       <r>    47.5800     0.0000     0.0000 </r>
       <r>    48.0021     0.0000     0.0000 </r>
       <r>    48.4243     0.0000     0.0000 </r>
       <r>    48.8465     0.0000     0.0000 </r>
       <r>    49.2687     0.0000     0.0000 </r>
       <r>    49.6909     0.0000     0.0000 </r>
       <r>    50.1131     0.0000     0.0000 </r>
       <r>    50.5353     0.0000     0.0000 </r>
       <r>    50.9575     0.0000     0.0000 </r>
       <r>    51.3797     0.0000     0.0000 </r>
       <r>    51.8018     0.0000     0.0000 </r>
       <r>    52.2240     0.0000     0.0000 </r>
       <r>    52.6462     0.0000     0.0000 </r>
       <r>    53.0684     0.0000     0.0000 </r>
       <r>    53.4906     0.0000     0.0000 </r>
       <r>    53.9128     0.0000     0.0000 </r>
       <r>    54.3350     0.0000     0.0000 </r>
       <r>    54.7572     0.0000     0.0000 </r>
       <r>    55.1794     0.0000     0.0000 </r>
       <r>    55.6015     0.0000     0.0000 </r>
       <r>    56.0237     0.0000     0.0000 </r>
       <r>    56.4459     0.0000     0.0000 </r>
       <r>    56.8681     0.0000     0.0000 </r>
       <r>    57.2903     0.0000     0.0000 </r>
       <r>    57.7125     0.0000     0.0000 </r>
       <r>    58.1347     0.0000     0.0000 </r>
       <r>    58.5569     0.0000     0.0000 </r>
       <r>    58.9791     0.0000     0.0000 </r>
       <r>    59.4012     0.0000     0.0000 </r>
       <r>    59.8234     0.0000     0.0000 </r>
       <r>    60.2456     0.0000     0.0000 </r>
       <r>    60.6678     0.0000     0.0000 </r>
       <r>    61.0900     0.0000     0.0000 </r>
       <r>    61.5122     0.0000     0.0000 </r>
       <r>    61.9344     0.0000     0.0000 </r>
       <r>    62.3566     0.0000     0.0000 </r>
       <r>    62.7788     0.0000     0.0000 </r>
       <r>    63.2009     0.0000     0.0000 </r>
       <r>    63.6231     0.0000     0.0000 </r>
       <r>    64.0453     0.0000     0.0000 </r>
       <r>    64.4675     0.0000     0.0000 </r>
       <r>    64.8897     0.0000     0.0000 </r>
       <r>    65.3119     0.0000     0.0000 </r>
       <r>    65.7341     0.0000     0.0000 </r>
       <r>    66.1563     0.0000     0.0000 </r>
       <r>    66.5785     0.0000     0.0000 </r>
       <r>    67.0007     0.0000     0.0000 </r>
       <r>    67.4228     0.0000     0.0000 </r>
       <r>    67.8450     0.0000     0.0000 </r>
       <r>    68.2672     0.0000     0.0000 </r>
       <r>    68.6894     0.0000     0.0000 </r>
       <r>    69.1116     0.0000     0.0000 </r>
       <r>    69.5338     0.0000     0.0000 </r>
       <r>    69.9560     0.0000     0.0000 </r>
       <r>    70.3782     0.0000     0.0000 </r>
       <r>    70.8004     0.0000     0.0000 </r>
       <r>    71.2225     0.0000     0.0000 </r>
       <r>    71.6447     0.0000     0.0000 </r>
       <r>    72.0669     0.0000     0.0000 </r>
       <r>    72.4891     0.0000     0.0000 </r>
       <r>    72.9113     0.0000     0.0000 </r>
       <r>    73.3335     0.0000     0.0000 </r>
       <r>    73.7557     0.0000     0.0000 </r>
       <r>    74.1779     0.0000     0.0000 </r>
       <r>    74.6001     0.0000     0.0000 </r>
       <r>    75.0222     0.0000     0.0000 </r>
       <r>    75.4444     0.0000     0.0000 </r>
       <r>    75.8666     0.0000     0.0000 </r>
       <r>    76.2888     0.0000     0.0000 </r>
       <r>    76.7110     0.0000     0.0000 </r>
       <r>    77.1332     0.0000     0.0000 </r>
      </set>
      <set comment="spin 4">
       <r>   -49.5236     0.0000     0.0000 </r>
       <r>   -49.1014     0.0000     0.0000 </r>
       <r>   -48.6792     0.0000     0.0000 </r>
       <r>   -48.2570     0.0000     0.0000 </r>
       <r>   -47.8348     0.0000     0.0000 </r>
       <r>   -47.4126     0.0000     0.0000 </r>
       <r>   -46.9904     0.0000     0.0000 </r>
       <r>   -46.5682     0.0000     0.0000 </r>
       <r>   -46.1460     0.0000     0.0000 </r>
       <r>   -45.7238     0.0000     0.0000 </r>
       <r>   -45.3017     0.0000     0.0000 </r>
       <r>   -44.8795     0.0000     0.0000 </r>
       <r>   -44.4573     0.0000     0.0000 </r>
       <r>   -44.0351     0.0000     0.0000 </r>
       <r>   -43.6129     0.0000     0.0000 </r>
       <r>   -43.1907     0.0000     0.0000 </r>
       <r>   -42.7685     0.0000     0.0000 </r>
       <r>   -42.3463     0.0000     0.0000 </r>
       <r>   -41.9241     0.0000     0.0000 </r>
       <r>   -41.5020     0.0000     0.0000 </r>
       <r>   -41.0798     0.0000     0.0000 </r>
       <r>   -40.6576     0.0000     0.0000 </r>
       <r>   -40.2354     0.0000     0.0000 </r>
       <r>   -39.8132     0.0000     0.0000 </r>
       <r>   -39.3910     0.0000     0.0000 </r>
       <r>   -38.9688     0.0000     0.0000 </r>
       <r>   -38.5466     0.0000     0.0000 </r>
       <r>   -38.1244     0.0000     0.0000 </r>
       <r>   -37.7023     0.0000     0.0000 </r>
       <r>   -37.2801     0.0000     0.0000 </r>
       <r>   -36.8579     0.0000     0.0000 </r>
       <r>   -36.4357     0.0000     0.0000 </r>
       <r>   -36.0135     0.0000     0.0000 </r>
       <r>   -35.5913     0.0000     0.0000 </r>
       <r>   -35.1691     0.0000     0.0000 </r>
       <r>   -34.7469     0.0000     0.0000 </r>
       <r>   -34.3247     0.0000     0.0000 </r>
       <r>   -33.9026     0.0000     0.0000 </r>
       <r>   -33.4804     0.0000     0.0000 </r>
       <r>   -33.0582     0.0000     0.0000 </r>
       <r>   -32.6360     0.0000     0.0000 </r>
       <r>   -32.2138     0.0000     0.0000 </r>
       <r>   -31.7916     0.0000     0.0000 </r>
       <r>   -31.3694     0.0000     0.0000 </r>
       <r>   -30.9472     0.0000     0.0000 </r>
       <r>   -30.5250     0.0000     0.0000 </r>
       <r>   -30.1029     0.0000     0.0000 </r>
       <r>   -29.6807     0.0000     0.0000 </r>
       <r>   -29.2585     0.0000     0.0000 </r>
       <r>   -28.8363     0.0000     0.0000 </r>
       <r>   -28.4141     0.0000     0.0000 </r>
       <r>   -27.9919     0.0000     0.0000 </r>
       <r>   -27.5697     0.0000     0.0000 </r>
       <r>   -27.1475     0.0000     0.0000 </r>
       <r>   -26.7253     0.0000     0.0000 </r>
       <r>   -26.3031     0.0000     0.0000 </r>
       <r>   -25.8810     0.0000     0.0000 </r>
       <r>   -25.4588     0.0000     0.0000 </r>
       <r>   -25.0366     0.0000     0.0000 </r>
       <r>   -24.6144     0.0000     0.0000 </r>
       <r>   -24.1922     0.0000     0.0000 </r>
       <r>   -23.7700     0.0000     0.0000 </r>
       <r>   -23.3478     0.0000     0.0000 </r>
       <r>   -22.9256     0.0000     0.0000 </r>
       <r>   -22.5034     0.0000     0.0000 </r>
       <r>   -22.0813     0.0000     0.0000 </r>
       <r>   -21.6591     0.0000     0.0000 </r>
       <r>   -21.2369     0.0000     0.0000 </r>
       <r>   -20.8147     0.0000     0.0000 </r>
       <r>   -20.3925     0.0000     0.0000 </r>
       <r>   -19.9703     0.0000     0.0000 </r>
       <r>   -19.5481     0.0000     0.0000 </r>
       <r>   -19.1259     0.0000     0.0000 </r>
       <r>   -18.7037     0.0000     0.0000 </r>
       <r>   -18.2816     0.0000     0.0000 </r>
       <r>   -17.8594     0.0000     0.0000 </r>
       <r>   -17.4372     0.0000     0.0000 </r>
       <r>   -17.0150     0.0000     0.0000 </r>
       <r>   -16.5928     0.0000     0.0000 </r>
       <r>   -16.1706     0.0000     0.0000 </r>
       <r>   -15.7484     0.0000     0.0000 </r>
       <r>   -15.3262     0.0000     0.0000 </r>
       <r>   -14.9040     0.0000     0.0000 </r>
       <r>   -14.4819     0.0000     0.0000 </r>
       <r>   -14.0597     0.0000     0.0000 </r>
       <r>   -13.6375     0.0000     0.0000 </r>
       <r>   -13.2153     0.0000     0.0000 </r>
       <r>   -12.7931     0.0000     0.0000 </r>
       <r>   -12.3709     0.0000     0.0000 </r>
       <r>   -11.9487     0.0000     0.0000 </r>
       <r>   -11.5265     0.0000     0.0000 </r>
       <r>   -11.1043     0.0000     0.0000 </r>
       <r>   -10.6822     0.0000     0.0000 </r>
       <r>   -10.2600     0.0000     0.0000 </r>
       <r>    -9.8378     0.0000     0.0000 </r>
       <r>    -9.4156     0.0000     0.0000 </r>
       <r>    -8.9934     0.0000     0.0000 </r>
       <r>    -8.5712     0.0000     0.0000 </r>
       <r>    -8.1490     0.0000     0.0000 </r>
       <r>    -7.7268     0.0000     0.0000 </r>
       <r>    -7.3046     0.0000     0.0000 </r>
       <r>    -6.8824     0.0000     0.0000 </r>
       <r>    -6.4603     0.0000     0.0000 </r>
       <r>    -6.0381     0.0000     0.0000 </r>
       <r>    -5.6159     0.0000     0.0000 </r>
       <r>    -5.1937     0.0000     0.0000 </r>
       <r>    -4.7715     0.0000     0.0000 </r>
       <r>    -4.3493     0.0000     0.0000 </r>
       <r>    -3.9271     0.0000     0.0000 </r>
       <r>    -3.5049     0.0000     0.0000 </r>
       <r>    -3.0827     0.0000     0.0000 </r>
       <r>    -2.6606     0.0000     0.0000 </r>
       <r>    -2.2384     0.0000     0.0000 </r>
       <r>    -1.8162     0.0000     0.0000 </r>
       <r>    -1.3940     0.0000     0.0000 </r>
       <r>    -0.9718     0.0000     0.0000 </r>
       <r>    -0.5496     0.0000     0.0000 </r>
       <r>    -0.1274     0.0000     0.0000 </r>
       <r>     0.2948     0.0000     0.0000 </r>
       <r>     0.7170     0.0000     0.0000 </r>
       <r>     1.1391     0.0000     0.0000 </r>
       <r>     1.5613     0.0000     0.0000 </r>
       <r>     1.9835     0.0000     0.0000 </r>
       <r>     2.4057     0.0000     0.0000 </r>
       <r>     2.8279     0.0000     0.0000 </r>
       <r>     3.2501     0.0000     0.0000 </r>
       <r>     3.6723     0.0000     0.0000 </r>
       <r>     4.0945     0.0000     0.0000 </r>
       <r>     4.5167     0.0000     0.0000 </r>
       <r>     4.9388     0.0000     0.0000 </r>
       <r>     5.3610     0.0000     0.0000 </r>
       <r>     5.7832     0.0000     0.0000 </r>
       <r>     6.2054     0.0000     0.0000 </r>
       <r>     6.6276     0.0000     0.0000 </r>
       <r>     7.0498     0.0000     0.0000 </r>
       <r>     7.4720     0.0000     0.0000 </r>
       <r>     7.8942     0.0000     0.0000 </r>
       <r>     8.3164     0.0000     0.0000 </r>
       <r>     8.7385     0.0000     0.0000 </r>
       <r>     9.1607     0.0000     0.0000 </r>
       <r>     9.5829     0.0000     0.0000 </r>
       <r>    10.0051     0.0000     0.0000 </r>
       <r>    10.4273     0.0000     0.0000 </r>
       <r>    10.8495     0.0000     0.0000 </r>
       <r>    11.2717     0.0000     0.0000 </r>
       <r>    11.6939     0.0000     0.0000 </r>
       <r>    12.1161     0.0000     0.0000 </r>
       <r>    12.5383     0.0000     0.0000 </r>
       <r>    12.9604     0.0000     0.0000 </r>
       <r>    13.3826     0.0000     0.0000 </r>
       <r>    13.8048     0.0000     0.0000 </r>
       <r>    14.2270     0.0000     0.0000 </r>
       <r>    14.6492     0.0000     0.0000 </r>
       <r>    15.0714     0.0000     0.0000 </r>
       <r>    15.4936     0.0000     0.0000 </r>
       <r>    15.9158     0.0000     0.0000 </r>
       <r>    16.3380     0.0000     0.0000 </r>
       <r>    16.7601     0.0000     0.0000 </r>
       <r>    17.1823     0.0000     0.0000 </r>
       <r>    17.6045     0.0000     0.0000 </r>
       <r>    18.0267     0.0000     0.0000 </r>
       <r>    18.4489     0.0000     0.0000 </r>
       <r>    18.8711     0.0000     0.0000 </r>
       <r>    19.2933     0.0000     0.0000 </r>
       <r>    19.7155     0.0000     0.0000 </r>
       <r>    20.1377     0.0000     0.0000 </r>
       <r>    20.5598     0.0000     0.0000 </r>
       <r>    20.9820     0.0000     0.0000 </r>
       <r>    21.4042     0.0000     0.0000 </r>
       <r>    21.8264     0.0000     0.0000 </r>
       <r>    22.2486     0.0000     0.0000 </r>
       <r>    22.6708     0.0000     0.0000 </r>
       <r>    23.0930     0.0000     0.0000 </r>
       <r>    23.5152     0.0000     0.0000 </r>
       <r>    23.9374     0.0000     0.0000 </r>
       <r>    24.3595     0.0000     0.0000 </r>
       <r>    24.7817     0.0000     0.0000 </r>
       <r>    25.2039     0.0000     0.0000 </r>
       <r>    25.6261     0.0000     0.0000 </r>
       <r>    26.0483     0.0000     0.0000 </r>
       <r>    26.4705     0.0000     0.0000 </r>
       <r>    26.8927     0.0000     0.0000 </r>
       <r>    27.3149     0.0000     0.0000 </r>
       <r>    27.7371     0.0000     0.0000 </r>
       <r>    28.1593     0.0000     0.0000 </r>
       <r>    28.5814     0.0000     0.0000 </r>
       <r>    29.0036     0.0000     0.0000 </r>
       <r>    29.4258     0.0000     0.0000 </r>
       <r>    29.8480     0.0000     0.0000 </r>
       <r>    30.2702     0.0000     0.0000 </r>
       <r>    30.6924     0.0000     0.0000 </r>
       <r>    31.1146     0.0000     0.0000 </r>
       <r>    31.5368     0.0000     0.0000 </r>
       <r>    31.9590     0.0000     0.0000 </r>
       <r>    32.3811     0.0000     0.0000 </r>
       <r>    32.8033     0.0000     0.0000 </r>
       <r>    33.2255     0.0000     0.0000 </r>
       <r>    33.6477     0.0000     0.0000 </r>
       <r>    34.0699     0.0000     0.0000 </r>
       <r>    34.4921     0.0000     0.0000 </r>
       <r>    34.9143     0.0000     0.0000 </r>
       <r>    35.3365     0.0000     0.0000 </r>
       <r>    35.7587     0.0000     0.0000 </r>
       <r>    36.1808     0.0000     0.0000 </r>
       <r>    36.6030     0.0000     0.0000 </r>
       <r>    37.0252     0.0000     0.0000 </r>
       <r>    37.4474     0.0000     0.0000 </r>
       <r>    37.8696     0.0000     0.0000 </r>
       <r>    38.2918     0.0000     0.0000 </r>
       <r>    38.7140     0.0000     0.0000 </r>
       <r>    39.1362     0.0000     0.0000 </r>
       <r>    39.5584     0.0000     0.0000 </r>
       <r>    39.9805     0.0000     0.0000 </r>
       <r>    40.4027     0.0000     0.0000 </r>
       <r>    40.8249     0.0000     0.0000 </r>
       <r>    41.2471     0.0000     0.0000 </r>
       <r>    41.6693     0.0000     0.0000 </r>
       <r>    42.0915     0.0000     0.0000 </r>
       <r>    42.5137     0.0000     0.0000 </r>
       <r>    42.9359     0.0000     0.0000 </r>
       <r>    43.3581     0.0000     0.0000 </r>
       <r>    43.7802     0.0000     0.0000 </r>
       <r>    44.2024     0.0000     0.0000 </r>
       <r>    44.6246     0.0000     0.0000 </r>
       <r>    45.0468     0.0000     0.0000 </r>
       <r>    45.4690     0.0000     0.0000 </r>
       <r>    45.8912     0.0000     0.0000 </r>
       <r>    46.3134     0.0000     0.0000 </r>
       <r>    46.7356     0.0000     0.0000 </r>
       <r>    47.1578     0.0000     0.0000 </r>
       <r>    47.5800     0.0000     0.0000 </r>
       <r>    48.0021     0.0000     0.0000 </r>
       <r>    48.4243     0.0000     0.0000 </r>
       <r>    48.8465     0.0000     0.0000 </r>
       <r>    49.2687     0.0000     0.0000 </r>
       <r>    49.6909     0.0000     0.0000 </r>
       <r>    50.1131     0.0000     0.0000 </r>
       <r>    50.5353     0.0000     0.0000 </r>
       <r>    50.9575     0.0000     0.0000 </r>
       <r>    51.3797     0.0000     0.0000 </r>
       <r>    51.8018     0.0000     0.0000 </r>
       <r>    52.2240     0.0000     0.0000 </r>
       <r>    52.6462     0.0000     0.0000 </r>
       <r>    53.0684     0.0000     0.0000 </r>
       <r>    53.4906     0.0000     0.0000 </r>
       <r>    53.9128     0.0000     0.0000 </r>
       <r>    54.3350     0.0000     0.0000 </r>
       <r>    54.7572     0.0000     0.0000 </r>
       <r>    55.1794     0.0000     0.0000 </r>
       <r>    55.6015     0.0000     0.0000 </r>
       <r>    56.0237     0.0000     0.0000 </r>
       <r>    56.4459     0.0000     0.0000 </r>
       <r>    56.8681     0.0000     0.0000 </r>
       <r>    57.2903     0.0000     0.0000 </r>
       <r>    57.7125     0.0000     0.0000 </r>
       <r>    58.1347     0.0000     0.0000 </r>
       <r>    58.5569     0.0000     0.0000 </r>
       <r>    58.9791     0.0000     0.0000 </r>
       <r>    59.4012     0.0000     0.0000 </r>
       <r>    59.8234     0.0000     0.0000 </r>
       <r>    60.2456     0.0000     0.0000 </r>
       <r>    60.6678     0.0000     0.0000 </r>
       <r>    61.0900     0.0000     0.0000 </r>
       <r>    61.5122     0.0000     0.0000 </r>
       <r>    61.9344     0.0000     0.0000 </r>
       <r>    62.3566     0.0000     0.0000 </r>
       <r>    62.7788     0.0000     0.0000 </r>
       <r>    63.2009     0.0000     0.0000 </r>
       <r>    63.6231     0.0000     0.0000 </r>
       <r>    64.0453     0.0000     0.0000 </r>
       <r>    64.4675     0.0000     0.0000 </r>
       <r>    64.8897     0.0000     0.0000 </r>
       <r>    65.3119     0.0000     0.0000 </r>
       <r>    65.7341     0.0000     0.0000 </r>
       <r>    66.1563     0.0000     0.0000 </r>
       <r>    66.5785     0.0000     0.0000 </r>
       <r>    67.0007     0.0000     0.0000 </r>
       <r>    67.4228     0.0000     0.0000 </r>
       <r>    67.8450     0.0000     0.0000 </r>
       <r>    68.2672     0.0000     0.0000 </r>
       <r>    68.6894     0.0000     0.0000 </r>
       <r>    69.1116     0.0000     0.0000 </r>
       <r>    69.5338     0.0000     0.0000 </r>
       <r>    69.9560     0.0000     0.0000 </r>
       <r>    70.3782     0.0000     0.0000 </r>
       <r>    70.8004     0.0000     0.0000 </r>
       <r>    71.2225     0.0000     0.0000 </r>
       <r>    71.6447     0.0000     0.0000 </r>
       <r>    72.0669     0.0000     0.0000 </r>
       <r>    72.4891     0.0000     0.0000 </r>
       <r>    72.9113     0.0000     0.0000 </r>
       <r>    73.3335     0.0000     0.0000 </r>
       <r>    73.7557     0.0000     0.0000 </r>
       <r>    74.1779     0.0000     0.0000 </r>
       <r>    74.6001     0.0000     0.0000 </r>
       <r>    75.0222     0.0000     0.0000 </r>
       <r>    75.4444     0.0000     0.0000 </r>
       <r>    75.8666     0.0000     0.0000 </r>
       <r>    76.2888     0.0000     0.0000 </r>
       <r>    76.7110     0.0000     0.0000 </r>
       <r>    77.1332     0.0000     0.0000 </r>
      </set>
     </set>
    </array>
   </total>
  </dos>
 </calculation>
 <structure name="finalpos" >
  <crystal>
   <varray name="basis" >
    <v>       4.41457561       0.00000000       0.00000000 </v>
    <v>       2.20728780       3.82313462      -0.00000000 </v>
    <v>       2.20728780       1.27437821       3.60448589 </v>
   </varray>
   <i name="volume">     60.83477135 </i>
   <varray name="rec_basis" >
    <v>       0.22652234      -0.13078273      -0.09247736 </v>
    <v>       0.00000000       0.26156547      -0.09247736 </v>
    <v>      -0.00000000       0.00000000       0.27743208 </v>
   </varray>
  </crystal>
  <varray name="positions" >
   <v>       0.00000000       0.00000000       0.00000000 </v>
  </varray>
  <varray name="velocities" >
   <v>       0.00000000       0.00000000       0.00000000 </v>
  </varray>
 </structure>
</modeling>
