   1   1   0   0
  0.3721384E+02  0.3747484E-09  0.3747484E-09  0.3747484E-09  0.1000000E-15
  1.000000000000000E-004
  CAR 
 Og_FCC                                  
     16.92183987    -21.60726556  301     -5.00764264      1.00000000
    -21.607  0.0000E+00  0.0000E+00
    -21.479  0.0000E+00  0.0000E+00
    -21.350  0.0000E+00  0.0000E+00
    -21.222  0.0000E+00  0.0000E+00
    -21.094  0.0000E+00  0.0000E+00
    -20.965  0.0000E+00  0.0000E+00
    -20.837  0.0000E+00  0.0000E+00
    -20.708  0.0000E+00  0.0000E+00
    -20.580  0.0000E+00  0.0000E+00
    -20.451  0.0000E+00  0.0000E+00
    -20.323  0.0000E+00  0.0000E+00
    -20.195  0.0000E+00  0.0000E+00
    -20.066  0.0000E+00  0.0000E+00
    -19.938  0.0000E+00  0.0000E+00
    -19.809  0.6897E-01  0.1812E-01
    -19.681  0.0000E+00  0.5463E+00
    -19.552  0.0000E+00  0.2000E+01
    -19.424  0.0000E+00  0.2000E+01
    -19.296  0.0000E+00  0.2000E+01
    -19.167  0.0000E+00  0.2000E+01
    -19.039  0.0000E+00  0.2000E+01
    -18.910  0.0000E+00  0.2000E+01
    -18.782  0.0000E+00  0.2000E+01
    -18.653  0.0000E+00  0.2000E+01
    -18.525  0.0000E+00  0.2000E+01
    -18.397  0.0000E+00  0.2000E+01
    -18.268  0.0000E+00  0.2000E+01
    -18.140  0.0000E+00  0.2000E+01
    -18.011  0.0000E+00  0.2000E+01
    -17.883  0.0000E+00  0.2000E+01
    -17.754  0.0000E+00  0.2000E+01
    -17.626  0.0000E+00  0.2000E+01
    -17.497  0.0000E+00  0.2000E+01
    -17.369  0.0000E+00  0.2000E+01
    -17.241  0.0000E+00  0.2000E+01
    -17.112  0.0000E+00  0.2000E+01
    -16.984  0.0000E+00  0.2000E+01
    -16.855  0.0000E+00  0.2000E+01
    -16.727  0.0000E+00  0.2000E+01
    -16.598  0.0000E+00  0.2000E+01
    -16.470  0.0000E+00  0.2000E+01
    -16.342  0.0000E+00  0.2000E+01
    -16.213  0.0000E+00  0.2000E+01
    -16.085  0.0000E+00  0.2000E+01
    -15.956  0.0000E+00  0.2000E+01
    -15.828  0.0000E+00  0.2000E+01
    -15.699  0.0000E+00  0.2000E+01
    -15.571  0.0000E+00  0.2000E+01
    -15.443  0.0000E+00  0.2000E+01
    -15.314  0.0000E+00  0.2000E+01
    -15.186  0.0000E+00  0.2000E+01
    -15.057  0.0000E+00  0.2000E+01
    -14.929  0.0000E+00  0.2000E+01
    -14.800  0.0000E+00  0.2000E+01
    -14.672  0.0000E+00  0.2000E+01
    -14.544  0.0000E+00  0.2000E+01
    -14.415  0.0000E+00  0.2000E+01
    -14.287  0.0000E+00  0.2000E+01
    -14.158  0.0000E+00  0.2000E+01
    -14.030  0.0000E+00  0.2000E+01
    -13.901  0.0000E+00  0.2000E+01
    -13.773  0.0000E+00  0.2000E+01
    -13.645  0.0000E+00  0.2000E+01
    -13.516  0.0000E+00  0.2000E+01
    -13.388  0.0000E+00  0.2000E+01
    -13.259  0.0000E+00  0.2000E+01
    -13.131  0.0000E+00  0.2000E+01
    -13.002  0.0000E+00  0.2000E+01
    -12.874  0.0000E+00  0.2000E+01
    -12.746  0.0000E+00  0.2000E+01
    -12.617  0.0000E+00  0.2000E+01
    -12.489  0.0000E+00  0.2000E+01
    -12.360  0.0000E+00  0.2000E+01
    -12.232  0.0000E+00  0.2000E+01
    -12.103  0.0000E+00  0.2000E+01
    -11.975  0.0000E+00  0.2000E+01
    -11.847  0.0000E+00  0.2000E+01
    -11.718  0.0000E+00  0.2000E+01
    -11.590  0.0000E+00  0.2000E+01
    -11.461  0.0000E+00  0.2000E+01
    -11.333  0.0000E+00  0.2000E+01
    -11.204  0.0000E+00  0.2000E+01
    -11.076  0.0000E+00  0.2000E+01
    -10.948  0.0000E+00  0.2000E+01
    -10.819  0.0000E+00  0.2000E+01
    -10.691  0.0000E+00  0.2000E+01
    -10.562  0.0000E+00  0.2000E+01
    -10.434  0.0000E+00  0.2000E+01
    -10.305  0.0000E+00  0.2000E+01
    -10.177  0.0000E+00  0.2000E+01
    -10.049  0.0000E+00  0.2000E+01
     -9.920  0.0000E+00  0.2000E+01
     -9.792  0.0000E+00  0.2000E+01
     -9.663  0.0000E+00  0.2000E+01
     -9.535  0.0000E+00  0.2000E+01
     -9.406  0.0000E+00  0.2000E+01
     -9.278  0.0000E+00  0.2000E+01
     -9.150  0.0000E+00  0.2000E+01
     -9.021  0.0000E+00  0.2000E+01
     -8.893  0.0000E+00  0.2000E+01
     -8.764  0.0000E+00  0.2000E+01
     -8.636  0.0000E+00  0.2000E+01
     -8.507  0.0000E+00  0.2000E+01
     -8.379  0.0000E+00  0.2000E+01
     -8.251  0.0000E+00  0.2000E+01
     -8.122  0.0000E+00  0.2000E+01
     -7.994  0.0000E+00  0.2000E+01
     -7.865  0.0000E+00  0.2000E+01
     -7.737  0.0000E+00  0.2000E+01
     -7.608  0.0000E+00  0.2000E+01
     -7.480  0.0000E+00  0.2000E+01
     -7.351  0.0000E+00  0.2000E+01
     -7.223  0.0000E+00  0.2000E+01
     -7.095  0.0000E+00  0.2000E+01
     -6.966  0.0000E+00  0.2000E+01
     -6.838  0.0000E+00  0.2000E+01
     -6.709  0.0000E+00  0.2000E+01
     -6.581  0.0000E+00  0.2000E+01
     -6.452  0.0000E+00  0.2000E+01
     -6.324  0.0000E+00  0.2037E+01
     -6.196  0.3522E-02  0.2287E+01
     -6.067  0.3602E-16  0.3361E+01
     -5.939  0.0000E+00  0.3750E+01
     -5.810  0.8651E+00  0.3972E+01
     -5.682  0.0000E+00  0.4306E+01
     -5.553  0.0000E+00  0.4889E+01
     -5.425  0.0000E+00  0.5991E+01
     -5.297  0.9111E-01  0.6984E+01
     -5.168  0.2312E+00  0.7826E+01
     -5.040  0.0000E+00  0.8000E+01
     -4.911  0.0000E+00  0.8000E+01
     -4.783  0.0000E+00  0.8000E+01
     -4.654  0.0000E+00  0.8000E+01
     -4.526  0.0000E+00  0.8000E+01
     -4.398  0.0000E+00  0.8000E+01
     -4.269  0.0000E+00  0.8000E+01
     -4.141  0.0000E+00  0.8000E+01
     -4.012  0.0000E+00  0.8000E+01
     -3.884  0.0000E+00  0.8000E+01
     -3.755  0.0000E+00  0.8000E+01
     -3.627  0.0000E+00  0.8000E+01
     -3.499  0.0000E+00  0.8000E+01
     -3.370  0.0000E+00  0.8000E+01
     -3.242  0.0000E+00  0.8000E+01
     -3.113  0.0000E+00  0.8000E+01
     -2.985  0.0000E+00  0.8000E+01
     -2.856  0.0000E+00  0.8000E+01
     -2.728  0.0000E+00  0.8000E+01
     -2.600  0.0000E+00  0.8000E+01
     -2.471  0.0000E+00  0.8000E+01
     -2.343  0.0000E+00  0.8000E+01
     -2.214  0.0000E+00  0.8000E+01
     -2.086  0.0000E+00  0.8000E+01
     -1.957  0.0000E+00  0.8000E+01
     -1.829  0.0000E+00  0.8000E+01
     -1.701  0.0000E+00  0.8000E+01
     -1.572  0.0000E+00  0.8000E+01
     -1.444  0.0000E+00  0.8000E+01
     -1.315  0.0000E+00  0.8000E+01
     -1.187  0.0000E+00  0.8000E+01
     -1.058  0.0000E+00  0.8000E+01
     -0.930  0.0000E+00  0.8000E+01
     -0.802  0.0000E+00  0.8000E+01
     -0.673  0.0000E+00  0.8000E+01
     -0.545  0.0000E+00  0.8000E+01
     -0.416  0.0000E+00  0.8000E+01
     -0.288  0.0000E+00  0.8000E+01
     -0.159  0.0000E+00  0.8000E+01
     -0.031  0.0000E+00  0.8000E+01
      0.097  0.0000E+00  0.8000E+01
      0.226  0.0000E+00  0.8000E+01
      0.354  0.0000E+00  0.8000E+01
      0.483  0.0000E+00  0.8000E+01
      0.611  0.0000E+00  0.8000E+01
      0.740  0.0000E+00  0.8000E+01
      0.868  0.0000E+00  0.8000E+01
      0.996  0.0000E+00  0.8000E+01
      1.125  0.0000E+00  0.8000E+01
      1.253  0.0000E+00  0.8000E+01
      1.382  0.0000E+00  0.8000E+01
      1.510  0.0000E+00  0.8000E+01
      1.639  0.0000E+00  0.8000E+01
      1.767  0.0000E+00  0.8000E+01
      1.895  0.0000E+00  0.8000E+01
      2.024  0.0000E+00  0.8000E+01
      2.152  0.0000E+00  0.8000E+01
      2.281  0.0000E+00  0.8000E+01
      2.409  0.0000E+00  0.8000E+01
      2.538  0.0000E+00  0.8000E+01
      2.666  0.0000E+00  0.8000E+01
      2.795  0.0000E+00  0.8000E+01
      2.923  0.0000E+00  0.8000E+01
      3.051  0.0000E+00  0.8000E+01
      3.180  0.0000E+00  0.8000E+01
      3.308  0.0000E+00  0.8000E+01
      3.437  0.0000E+00  0.8000E+01
      3.565  0.0000E+00  0.8009E+01
      3.694  0.0000E+00  0.8009E+01
      3.822  0.0000E+00  0.8009E+01
      3.950  0.0000E+00  0.8009E+01
      4.079  0.0000E+00  0.8009E+01
      4.207  0.0000E+00  0.8009E+01
      4.336  0.0000E+00  0.8083E+01
      4.464  0.3760E-10  0.8083E+01
      4.593  0.0000E+00  0.8139E+01
      4.721  0.0000E+00  0.8139E+01
      4.849  0.0000E+00  0.8139E+01
      4.978  0.0000E+00  0.8139E+01
      5.106  0.0000E+00  0.8139E+01
      5.235  0.1325E+00  0.8156E+01
      5.363  0.0000E+00  0.8250E+01
      5.492  0.0000E+00  0.8250E+01
      5.620  0.0000E+00  0.8250E+01
      5.748  0.0000E+00  0.8546E+01
      5.877  0.0000E+00  0.8546E+01
      6.005  0.0000E+00  0.8546E+01
      6.134  0.0000E+00  0.8602E+01
      6.262  0.0000E+00  0.8630E+01
      6.391  0.0000E+00  0.8667E+01
      6.519  0.0000E+00  0.8667E+01
      6.647  0.0000E+00  0.9111E+01
      6.776  0.0000E+00  0.9333E+01
      6.904  0.8651E+00  0.9667E+01
      7.033  0.0000E+00  0.9667E+01
      7.161  0.0000E+00  0.9667E+01
      7.290  0.0000E+00  0.9667E+01
      7.418  0.0000E+00  0.9667E+01
      7.546  0.0000E+00  0.1000E+02
      7.675  0.0000E+00  0.1003E+02
      7.803  0.0000E+00  0.1003E+02
      7.932  0.0000E+00  0.1014E+02
      8.060  0.0000E+00  0.1058E+02
      8.189  0.6527E+00  0.1094E+02
      8.317  0.0000E+00  0.1097E+02
      8.445  0.0000E+00  0.1097E+02
      8.574  0.2884E+00  0.1145E+02
      8.702  0.0000E+00  0.1145E+02
      8.831  0.0000E+00  0.1175E+02
      8.959  0.0000E+00  0.1197E+02
      9.088  0.0000E+00  0.1219E+02
      9.216  0.0000E+00  0.1242E+02
      9.344  0.0000E+00  0.1242E+02
      9.473  0.0000E+00  0.1253E+02
      9.601  0.0000E+00  0.1303E+02
      9.730  0.0000E+00  0.1331E+02
      9.858  0.0000E+00  0.1338E+02
      9.987  0.0000E+00  0.1360E+02
     10.115  0.0000E+00  0.1360E+02
     10.243  0.0000E+00  0.1374E+02
     10.372  0.0000E+00  0.1381E+02
     10.500  0.0000E+00  0.1381E+02
     10.629  0.0000E+00  0.1396E+02
     10.757  0.0000E+00  0.1399E+02
     10.886  0.5768E+00  0.1458E+02
     11.014  0.0000E+00  0.1458E+02
     11.142  0.4326E+00  0.1469E+02
     11.271  0.1378E+00  0.1477E+02
     11.399  0.0000E+00  0.1519E+02
     11.528  0.7952E+00  0.1541E+02
     11.656  0.0000E+00  0.1575E+02
     11.785  0.0000E+00  0.1586E+02
     11.913  0.0000E+00  0.1586E+02
     12.041  0.0000E+00  0.1586E+02
     12.170  0.0000E+00  0.1586E+02
     12.298  0.0000E+00  0.1586E+02
     12.427  0.0000E+00  0.1608E+02
     12.555  0.0000E+00  0.1638E+02
     12.684  0.0000E+00  0.1649E+02
     12.812  0.0000E+00  0.1649E+02
     12.940  0.0000E+00  0.1672E+02
     13.069  0.0000E+00  0.1672E+02
     13.197  0.0000E+00  0.1694E+02
     13.326  0.0000E+00  0.1694E+02
     13.454  0.0000E+00  0.1702E+02
     13.583  0.0000E+00  0.1702E+02
     13.711  0.4225E+00  0.1713E+02
     13.840  0.0000E+00  0.1757E+02
     13.968  0.1708E+01  0.1779E+02
     14.096  0.0000E+00  0.1780E+02
     14.225  0.0000E+00  0.1780E+02
     14.353  0.0000E+00  0.1780E+02
     14.482  0.0000E+00  0.1780E+02
     14.610  0.0000E+00  0.1786E+02
     14.739  0.0000E+00  0.1786E+02
     14.867  0.0000E+00  0.1789E+02
     14.995  0.0000E+00  0.1789E+02
     15.124  0.0000E+00  0.1794E+02
     15.252  0.0000E+00  0.1800E+02
     15.381  0.0000E+00  0.1800E+02
     15.509  0.0000E+00  0.1800E+02
     15.638  0.0000E+00  0.1800E+02
     15.766  0.0000E+00  0.1800E+02
     15.894  0.0000E+00  0.1800E+02
     16.023  0.0000E+00  0.1800E+02
     16.151  0.0000E+00  0.1800E+02
     16.280  0.0000E+00  0.1800E+02
     16.408  0.0000E+00  0.1800E+02
     16.537  0.0000E+00  0.1800E+02
     16.665  0.0000E+00  0.1800E+02
     16.793  0.0000E+00  0.1800E+02
     16.922  0.0000E+00  0.1800E+02
