    1    1    1    1
  0.3298244E+02  0.3599697E-09  0.3599697E-09  0.3599697E-09  0.1000000E-15
  1.000000000000000E-004
  CAR 
 Og_FCC                                  
      8    216     20
 
  0.0000000E+00  0.0000000E+00  0.0000000E+00  0.4629630E-02
    1      -19.342568   1.000000
    2      -19.342560   1.000000
    3       -4.507413   1.000000
    4       -4.507410   1.000000
    5       -4.312824   1.000000
    6       -4.312821   1.000000
    7       -4.312819   1.000000
    8       -4.312816   1.000000
    9        4.446975   0.000000
   10        4.447004   0.000000
   11       11.508510   0.000000
   12       11.508515   0.000000
   13       11.508517   0.000000
   14       11.508522   0.000000
   15       11.511256   0.000000
   16       11.511259   0.000000
   17       13.932980   0.000000
   18       13.932982   0.000000
   19       13.932984   0.000000
   20       13.932985   0.000000
 
  0.1666667E+00  0.1890198E-17 -0.2775558E-16  0.4629630E-02
    1      -19.273346   1.000000
    2      -19.273338   1.000000
    3       -4.864156   1.000000
    4       -4.864149   1.000000
    5       -4.468356   1.000000
    6       -4.468355   1.000000
    7       -4.359795   1.000000
    8       -4.359795   1.000000
    9        5.246489   0.000000
   10        5.246516   0.000000
   11       10.628323   0.000000
   12       10.628337   0.000000
   13       11.757105   0.000000
   14       11.757114   0.000000
   15       11.759364   0.000000
   16       11.759373   0.000000
   17       13.551122   0.000000
   18       13.551128   0.000000
   19       13.552944   0.000000
   20       13.552950   0.000000
 
  0.3333333E+00  0.3780395E-17 -0.2775558E-16  0.4629630E-02
    1      -19.129934   1.000000
    2      -19.129926   1.000000
    3       -5.658789   1.000000
    4       -5.658783   1.000000
    5       -4.571654   1.000000
    6       -4.571654   1.000000
    7       -4.450307   1.000000
    8       -4.450307   1.000000
    9        6.689123   0.000000
   10        6.689140   0.000000
   11        9.827255   0.000000
   12        9.827279   0.000000
   13       11.426969   0.000000
   14       11.426977   0.000000
   15       11.429806   0.000000
   16       11.429814   0.000000
   17       14.465029   0.000000
   18       14.465034   0.000000
   19       14.468989   0.000000
   20       14.468994   0.000000
 
  0.5000000E+00  0.5670593E-17 -0.8326673E-16  0.4629630E-02
    1      -19.055518   1.000000
    2      -19.055510   1.000000
    3       -6.019296   1.000000
    4       -6.019290   1.000000
    5       -4.616758   1.000000
    6       -4.616757   1.000000
    7       -4.494429   1.000000
    8       -4.494428   1.000000
    9        7.181723   0.000000
   10        7.181740   0.000000
   11        9.938569   0.000000
   12        9.938619   0.000000
   13       11.107892   0.000000
   14       11.107900   0.000000
   15       11.110732   0.000000
   16       11.110741   0.000000
   17       15.708959   0.000000
   18       15.708961   0.000000
   19       15.711501   0.000000
   20       15.711503   0.000000
 
 -0.3333333E+00 -0.3780395E-17  0.2775558E-16  0.4629630E-02
    1      -19.129934   1.000000
    2      -19.129926   1.000000
    3       -5.658789   1.000000
    4       -5.658783   1.000000
    5       -4.571654   1.000000
    6       -4.571654   1.000000
    7       -4.450307   1.000000
    8       -4.450307   1.000000
    9        6.689123   0.000000
   10        6.689140   0.000000
   11        9.827255   0.000000
   12        9.827279   0.000000
   13       11.426969   0.000000
   14       11.426977   0.000000
   15       11.429806   0.000000
   16       11.429814   0.000000
   17       14.465029   0.000000
   18       14.465035   0.000000
   19       14.468988   0.000000
   20       14.468994   0.000000
 
 -0.1666667E+00 -0.1890198E-17  0.2775558E-16  0.4629630E-02
    1      -19.273346   1.000000
    2      -19.273338   1.000000
    3       -4.864156   1.000000
    4       -4.864149   1.000000
    5       -4.468356   1.000000
    6       -4.468355   1.000000
    7       -4.359795   1.000000
    8       -4.359795   1.000000
    9        5.246489   0.000000
   10        5.246516   0.000000
   11       10.628323   0.000000
   12       10.628337   0.000000
   13       11.757105   0.000000
   14       11.757114   0.000000
   15       11.759364   0.000000
   16       11.759372   0.000000
   17       13.551123   0.000000
   18       13.551128   0.000000
   19       13.552944   0.000000
   20       13.552949   0.000000
 
  0.3851860E-33  0.1666667E+00 -0.1387779E-16  0.4629630E-02
    1      -19.273346   1.000000
    2      -19.273338   1.000000
    3       -4.864155   1.000000
    4       -4.864149   1.000000
    5       -4.468357   1.000000
    6       -4.468355   1.000000
    7       -4.359796   1.000000
    8       -4.359794   1.000000
    9        5.246489   0.000000
   10        5.246516   0.000000
   11       10.628323   0.000000
   12       10.628337   0.000000
   13       11.757108   0.000000
   14       11.757111   0.000000
   15       11.759367   0.000000
   16       11.759370   0.000000
   17       13.551123   0.000000
   18       13.551127   0.000000
   19       13.552945   0.000000
   20       13.552949   0.000000
 
  0.1666667E+00  0.1666667E+00 -0.6938894E-16  0.4629630E-02
    1      -19.250493   1.000000
    2      -19.250485   1.000000
    3       -4.860574   1.000000
    4       -4.860568   1.000000
    5       -4.553365   1.000000
    6       -4.553363   1.000000
    7       -4.453303   1.000000
    8       -4.453300   1.000000
    9        5.495823   0.000000
   10        5.495851   0.000000
   11       10.276577   0.000000
   12       10.276589   0.000000
   13       12.079944   0.000000
   14       12.079952   0.000000
   15       12.086522   0.000000
   16       12.086530   0.000000
   17       12.173563   0.000000
   18       12.173572   0.000000
   19       14.311556   0.000000
   20       14.311562   0.000000
 
  0.3333333E+00  0.1666667E+00 -0.5551115E-16  0.4629630E-02
    1      -19.131882   1.000000
    2      -19.131874   1.000000
    3       -5.430525   1.000000
    4       -5.430518   1.000000
    5       -4.691105   1.000000
    6       -4.691103   1.000000
    7       -4.574470   1.000000
    8       -4.574469   1.000000
    9        6.752298   0.000000
   10        6.752324   0.000000
   11        9.534631   0.000000
   12        9.534647   0.000000
   13       10.773966   0.000000
   14       10.773977   0.000000
   15       12.249339   0.000000
   16       12.249351   0.000000
   17       13.448573   0.000000
   18       13.448584   0.000000
   19       14.987071   0.000000
   20       14.987078   0.000000
 
  0.5000000E+00  0.1666667E+00 -0.1387779E-15  0.4629630E-02
    1      -19.033194   1.000000
    2      -19.033186   1.000000
    3       -5.854744   1.000000
    4       -5.854738   1.000000
    5       -4.836934   1.000000
    6       -4.836928   1.000000
    7       -4.629689   1.000000
    8       -4.629684   1.000000
    9        7.761973   0.000000
   10        7.761985   0.000000
   11        9.175701   0.000000
   12        9.175740   0.000000
   13       10.596639   0.000000
   14       10.596653   0.000000
   15       11.781656   0.000000
   16       11.781668   0.000000
   17       15.268881   0.000000
   18       15.268892   0.000000
   19       15.784360   0.000000
   20       15.784372   0.000000
 
 -0.3333333E+00  0.1666667E+00 -0.6938894E-17  0.4629630E-02
    1      -19.057740   1.000000
    2      -19.057733   1.000000
    3       -5.743825   1.000000
    4       -5.743819   1.000000
    5       -4.886097   1.000000
    6       -4.886090   1.000000
    7       -4.547620   1.000000
    8       -4.547614   1.000000
    9        7.665384   0.000000
   10        7.665400   0.000000
   11        9.451741   0.000000
   12        9.451773   0.000000
   13       10.387141   0.000000
   14       10.387153   0.000000
   15       11.742453   0.000000
   16       11.742464   0.000000
   17       14.157704   0.000000
   18       14.157712   0.000000
   19       16.260610   0.000000
   20       16.260618   0.000000
 
 -0.1666667E+00  0.1666667E+00  0.2128544E-16  0.4629630E-02
    1      -19.179187   1.000000
    2      -19.179180   1.000000
    3       -5.255147   1.000000
    4       -5.255141   1.000000
    5       -4.697463   1.000000
    6       -4.697456   1.000000
    7       -4.429335   1.000000
    8       -4.429329   1.000000
    9        6.327848   0.000000
   10        6.327873   0.000000
   11        9.995757   0.000000
   12        9.995777   0.000000
   13       11.077823   0.000000
   14       11.077836   0.000000
   15       12.398282   0.000000
   16       12.398292   0.000000
   17       12.453423   0.000000
   18       12.453434   0.000000
   19       14.774133   0.000000
   20       14.774139   0.000000
 
  0.7703720E-33  0.3333333E+00  0.0000000E+00  0.4629630E-02
    1      -19.129934   1.000000
    2      -19.129926   1.000000
    3       -5.658789   1.000000
    4       -5.658784   1.000000
    5       -4.571655   1.000000
    6       -4.571653   1.000000
    7       -4.450308   1.000000
    8       -4.450306   1.000000
    9        6.689121   0.000000
   10        6.689141   0.000000
   11        9.827256   0.000000
   12        9.827278   0.000000
   13       11.426971   0.000000
   14       11.426975   0.000000
   15       11.429808   0.000000
   16       11.429812   0.000000
   17       14.465029   0.000000
   18       14.465034   0.000000
   19       14.468989   0.000000
   20       14.468994   0.000000
 
  0.1666667E+00  0.3333333E+00 -0.2775558E-16  0.4629630E-02
    1      -19.131882   1.000000
    2      -19.131874   1.000000
    3       -5.430524   1.000000
    4       -5.430518   1.000000
    5       -4.691106   1.000000
    6       -4.691102   1.000000
    7       -4.574471   1.000000
    8       -4.574468   1.000000
    9        6.752297   0.000000
   10        6.752324   0.000000
   11        9.534631   0.000000
   12        9.534647   0.000000
   13       10.773965   0.000000
   14       10.773978   0.000000
   15       12.249339   0.000000
   16       12.249351   0.000000
   17       13.448574   0.000000
   18       13.448583   0.000000
   19       14.987071   0.000000
   20       14.987078   0.000000
 
  0.3333333E+00  0.3333333E+00 -0.2775558E-16  0.4629630E-02
    1      -19.061337   1.000000
    2      -19.061329   1.000000
    3       -5.567971   1.000000
    4       -5.567965   1.000000
    5       -4.836512   1.000000
    6       -4.836510   1.000000
    7       -4.723304   1.000000
    8       -4.723303   1.000000
    9        6.950295   0.000000
   10        6.950333   0.000000
   11        8.805684   0.000000
   12        8.805702   0.000000
   13       10.762606   0.000000
   14       10.762624   0.000000
   15       13.743943   0.000000
   16       13.743950   0.000000
   17       13.759537   0.000000
   18       13.759544   0.000000
   19       15.177465   0.000000
   20       15.177473   0.000000
 
  0.5000000E+00  0.3333333E+00 -0.1665335E-15  0.4629630E-02
    1      -18.987488   1.000000
    2      -18.987481   1.000000
    3       -5.730998   1.000000
    4       -5.730991   1.000000
    5       -5.055568   1.000000
    6       -5.055563   1.000000
    7       -4.810209   1.000000
    8       -4.810204   1.000000
    9        7.356671   0.000000
   10        7.356711   0.000000
   11        8.711888   0.000000
   12        8.711906   0.000000
   13       10.769690   0.000000
   14       10.769712   0.000000
   15       13.613074   0.000000
   16       13.613085   0.000000
   17       15.264140   0.000000
   18       15.264158   0.000000
   19       15.990659   0.000000
   20       15.990672   0.000000
 
 -0.3333333E+00  0.3333333E+00  0.2028582E-16  0.4629630E-02
    1      -18.985838   1.000000
    2      -18.985831   1.000000
    3       -5.532663   1.000000
    4       -5.532658   1.000000
    5       -5.408779   1.000000
    6       -5.408774   1.000000
    7       -4.710602   1.000000
    8       -4.710596   1.000000
    9        8.282989   0.000000
   10        8.283026   0.000000
   11        8.868512   0.000000
   12        8.868526   0.000000
   13       10.244637   0.000000
   14       10.244661   0.000000
   15       12.717599   0.000000
   16       12.717610   0.000000
   17       14.783184   0.000000
   18       14.783192   0.000000
   19       15.228686   0.000000
   20       15.228702   0.000000
 
 -0.1666667E+00  0.3333333E+00  0.1387779E-16  0.4629630E-02
    1      -19.057740   1.000000
    2      -19.057733   1.000000
    3       -5.743825   1.000000
    4       -5.743820   1.000000
    5       -4.886097   1.000000
    6       -4.886090   1.000000
    7       -4.547620   1.000000
    8       -4.547614   1.000000
    9        7.665383   0.000000
   10        7.665400   0.000000
   11        9.451741   0.000000
   12        9.451772   0.000000
   13       10.387141   0.000000
   14       10.387153   0.000000
   15       11.742453   0.000000
   16       11.742464   0.000000
   17       14.157704   0.000000
   18       14.157712   0.000000
   19       16.260610   0.000000
   20       16.260618   0.000000
 
  0.2311116E-32  0.5000000E+00 -0.2775558E-16  0.4629630E-02
    1      -19.055518   1.000000
    2      -19.055510   1.000000
    3       -6.019295   1.000000
    4       -6.019290   1.000000
    5       -4.616759   1.000000
    6       -4.616756   1.000000
    7       -4.494430   1.000000
    8       -4.494427   1.000000
    9        7.181722   0.000000
   10        7.181741   0.000000
   11        9.938570   0.000000
   12        9.938619   0.000000
   13       11.107894   0.000000
   14       11.107898   0.000000
   15       11.110735   0.000000
   16       11.110738   0.000000
   17       15.708959   0.000000
   18       15.708962   0.000000
   19       15.711500   0.000000
   20       15.711505   0.000000
 
  0.1666667E+00  0.5000000E+00  0.0000000E+00  0.4629630E-02
    1      -19.033194   1.000000
    2      -19.033186   1.000000
    3       -5.854744   1.000000
    4       -5.854738   1.000000
    5       -4.836934   1.000000
    6       -4.836928   1.000000
    7       -4.629689   1.000000
    8       -4.629684   1.000000
    9        7.761972   0.000000
   10        7.761985   0.000000
   11        9.175701   0.000000
   12        9.175740   0.000000
   13       10.596638   0.000000
   14       10.596653   0.000000
   15       11.781656   0.000000
   16       11.781668   0.000000
   17       15.268881   0.000000
   18       15.268892   0.000000
   19       15.784361   0.000000
   20       15.784372   0.000000
 
  0.3333333E+00  0.5000000E+00  0.0000000E+00  0.4629630E-02
    1      -18.987488   1.000000
    2      -18.987481   1.000000
    3       -5.730998   1.000000
    4       -5.730991   1.000000
    5       -5.055569   1.000000
    6       -5.055563   1.000000
    7       -4.810209   1.000000
    8       -4.810204   1.000000
    9        7.356671   0.000000
   10        7.356711   0.000000
   11        8.711888   0.000000
   12        8.711906   0.000000
   13       10.769690   0.000000
   14       10.769713   0.000000
   15       13.613074   0.000000
   16       13.613085   0.000000
   17       15.264140   0.000000
   18       15.264158   0.000000
   19       15.990659   0.000000
   20       15.990672   0.000000
 
  0.5000000E+00  0.5000000E+00 -0.2220446E-15  0.4629630E-02
    1      -18.964066   1.000000
    2      -18.964058   1.000000
    3       -5.865959   1.000000
    4       -5.865952   1.000000
    5       -4.965647   1.000000
    6       -4.965645   1.000000
    7       -4.852493   1.000000
    8       -4.852491   1.000000
    9        6.826849   0.000000
   10        6.826892   0.000000
   11        8.266448   0.000000
   12        8.266467   0.000000
   13       11.679583   0.000000
   14       11.679608   0.000000
   15       15.719699   0.000000
   16       15.719710   0.000000
   17       16.276535   0.000000
   18       16.277961   0.000000
   19       16.300431   0.000000
   20       16.340808   0.000000
 
 -0.3333333E+00  0.5000000E+00 -0.2775558E-16  0.4629630E-02
    1      -18.987488   1.000000
    2      -18.987481   1.000000
    3       -5.730998   1.000000
    4       -5.730991   1.000000
    5       -5.055569   1.000000
    6       -5.055563   1.000000
    7       -4.810209   1.000000
    8       -4.810204   1.000000
    9        7.356671   0.000000
   10        7.356711   0.000000
   11        8.711888   0.000000
   12        8.711906   0.000000
   13       10.769690   0.000000
   14       10.769713   0.000000
   15       13.613074   0.000000
   16       13.613085   0.000000
   17       15.264140   0.000000
   18       15.264158   0.000000
   19       15.990659   0.000000
   20       15.990672   0.000000
 
 -0.1666667E+00  0.5000000E+00 -0.2775558E-16  0.4629630E-02
    1      -19.033194   1.000000
    2      -19.033186   1.000000
    3       -5.854744   1.000000
    4       -5.854738   1.000000
    5       -4.836934   1.000000
    6       -4.836928   1.000000
    7       -4.629689   1.000000
    8       -4.629684   1.000000
    9        7.761972   0.000000
   10        7.761985   0.000000
   11        9.175701   0.000000
   12        9.175740   0.000000
   13       10.596638   0.000000
   14       10.596653   0.000000
   15       11.781656   0.000000
   16       11.781668   0.000000
   17       15.268881   0.000000
   18       15.268892   0.000000
   19       15.784361   0.000000
   20       15.784372   0.000000
 
 -0.7703720E-33 -0.3333333E+00  0.0000000E+00  0.4629630E-02
    1      -19.129934   1.000000
    2      -19.129926   1.000000
    3       -5.658789   1.000000
    4       -5.658784   1.000000
    5       -4.571655   1.000000
    6       -4.571653   1.000000
    7       -4.450308   1.000000
    8       -4.450306   1.000000
    9        6.689121   0.000000
   10        6.689141   0.000000
   11        9.827256   0.000000
   12        9.827278   0.000000
   13       11.426971   0.000000
   14       11.426975   0.000000
   15       11.429808   0.000000
   16       11.429812   0.000000
   17       14.465030   0.000000
   18       14.465034   0.000000
   19       14.468989   0.000000
   20       14.468993   0.000000
 
  0.1666667E+00 -0.3333333E+00 -0.1387779E-16  0.4629630E-02
    1      -19.057740   1.000000
    2      -19.057733   1.000000
    3       -5.743825   1.000000
    4       -5.743820   1.000000
    5       -4.886097   1.000000
    6       -4.886090   1.000000
    7       -4.547620   1.000000
    8       -4.547614   1.000000
    9        7.665383   0.000000
   10        7.665400   0.000000
   11        9.451741   0.000000
   12        9.451772   0.000000
   13       10.387141   0.000000
   14       10.387153   0.000000
   15       11.742453   0.000000
   16       11.742464   0.000000
   17       14.157704   0.000000
   18       14.157712   0.000000
   19       16.260610   0.000000
   20       16.260618   0.000000
 
  0.3333333E+00 -0.3333333E+00 -0.2028582E-16  0.4629630E-02
    1      -18.985838   1.000000
    2      -18.985831   1.000000
    3       -5.532663   1.000000
    4       -5.532658   1.000000
    5       -5.408779   1.000000
    6       -5.408773   1.000000
    7       -4.710602   1.000000
    8       -4.710596   1.000000
    9        8.282989   0.000000
   10        8.283026   0.000000
   11        8.868512   0.000000
   12        8.868526   0.000000
   13       10.244637   0.000000
   14       10.244661   0.000000
   15       12.717599   0.000000
   16       12.717610   0.000000
   17       14.783184   0.000000
   18       14.783192   0.000000
   19       15.228686   0.000000
   20       15.228702   0.000000
 
  0.5000000E+00 -0.3333333E+00 -0.6938894E-16  0.4629630E-02
    1      -18.987488   1.000000
    2      -18.987481   1.000000
    3       -5.730998   1.000000
    4       -5.730991   1.000000
    5       -5.055568   1.000000
    6       -5.055563   1.000000
    7       -4.810209   1.000000
    8       -4.810204   1.000000
    9        7.356671   0.000000
   10        7.356711   0.000000
   11        8.711888   0.000000
   12        8.711906   0.000000
   13       10.769690   0.000000
   14       10.769712   0.000000
   15       13.613074   0.000000
   16       13.613085   0.000000
   17       15.264140   0.000000
   18       15.264158   0.000000
   19       15.990659   0.000000
   20       15.990672   0.000000
 
 -0.3333333E+00 -0.3333333E+00  0.2775558E-16  0.4629630E-02
    1      -19.061337   1.000000
    2      -19.061329   1.000000
    3       -5.567971   1.000000
    4       -5.567965   1.000000
    5       -4.836512   1.000000
    6       -4.836510   1.000000
    7       -4.723304   1.000000
    8       -4.723303   1.000000
    9        6.950295   0.000000
   10        6.950333   0.000000
   11        8.805684   0.000000
   12        8.805702   0.000000
   13       10.762606   0.000000
   14       10.762624   0.000000
   15       13.743944   0.000000
   16       13.743951   0.000000
   17       13.759537   0.000000
   18       13.759544   0.000000
   19       15.177465   0.000000
   20       15.177473   0.000000
 
 -0.1666667E+00 -0.3333333E+00  0.2775558E-16  0.4629630E-02
    1      -19.131882   1.000000
    2      -19.131874   1.000000
    3       -5.430524   1.000000
    4       -5.430518   1.000000
    5       -4.691106   1.000000
    6       -4.691102   1.000000
    7       -4.574471   1.000000
    8       -4.574468   1.000000
    9        6.752297   0.000000
   10        6.752324   0.000000
   11        9.534631   0.000000
   12        9.534647   0.000000
   13       10.773965   0.000000
   14       10.773978   0.000000
   15       12.249339   0.000000
   16       12.249351   0.000000
   17       13.448574   0.000000
   18       13.448583   0.000000
   19       14.987071   0.000000
   20       14.987078   0.000000
 
 -0.3851860E-33 -0.1666667E+00  0.1387779E-16  0.4629630E-02
    1      -19.273346   1.000000
    2      -19.273338   1.000000
    3       -4.864155   1.000000
    4       -4.864149   1.000000
    5       -4.468357   1.000000
    6       -4.468355   1.000000
    7       -4.359796   1.000000
    8       -4.359794   1.000000
    9        5.246489   0.000000
   10        5.246516   0.000000
   11       10.628323   0.000000
   12       10.628337   0.000000
   13       11.757108   0.000000
   14       11.757111   0.000000
   15       11.759366   0.000000
   16       11.759369   0.000000
   17       13.551124   0.000000
   18       13.551127   0.000000
   19       13.552945   0.000000
   20       13.552948   0.000000
 
  0.1666667E+00 -0.1666667E+00 -0.1408695E-16  0.4629630E-02
    1      -19.179187   1.000000
    2      -19.179180   1.000000
    3       -5.255147   1.000000
    4       -5.255141   1.000000
    5       -4.697463   1.000000
    6       -4.697456   1.000000
    7       -4.429335   1.000000
    8       -4.429329   1.000000
    9        6.327848   0.000000
   10        6.327873   0.000000
   11        9.995757   0.000000
   12        9.995777   0.000000
   13       11.077823   0.000000
   14       11.077836   0.000000
   15       12.398282   0.000000
   16       12.398292   0.000000
   17       12.453423   0.000000
   18       12.453434   0.000000
   19       14.774133   0.000000
   20       14.774139   0.000000
 
  0.3333333E+00 -0.1666667E+00 -0.3469447E-16  0.4629630E-02
    1      -19.057740   1.000000
    2      -19.057733   1.000000
    3       -5.743825   1.000000
    4       -5.743819   1.000000
    5       -4.886097   1.000000
    6       -4.886090   1.000000
    7       -4.547620   1.000000
    8       -4.547614   1.000000
    9        7.665384   0.000000
   10        7.665400   0.000000
   11        9.451741   0.000000
   12        9.451773   0.000000
   13       10.387141   0.000000
   14       10.387153   0.000000
   15       11.742453   0.000000
   16       11.742464   0.000000
   17       14.157704   0.000000
   18       14.157712   0.000000
   19       16.260610   0.000000
   20       16.260618   0.000000
 
  0.5000000E+00 -0.1666667E+00 -0.5551115E-16  0.4629630E-02
    1      -19.033194   1.000000
    2      -19.033186   1.000000
    3       -5.854744   1.000000
    4       -5.854738   1.000000
    5       -4.836934   1.000000
    6       -4.836928   1.000000
    7       -4.629689   1.000000
    8       -4.629684   1.000000
    9        7.761973   0.000000
   10        7.761985   0.000000
   11        9.175701   0.000000
   12        9.175740   0.000000
   13       10.596639   0.000000
   14       10.596653   0.000000
   15       11.781656   0.000000
   16       11.781668   0.000000
   17       15.268881   0.000000
   18       15.268892   0.000000
   19       15.784360   0.000000
   20       15.784372   0.000000
 
 -0.3333333E+00 -0.1666667E+00  0.5551115E-16  0.4629630E-02
    1      -19.131882   1.000000
    2      -19.131874   1.000000
    3       -5.430525   1.000000
    4       -5.430518   1.000000
    5       -4.691105   1.000000
    6       -4.691103   1.000000
    7       -4.574470   1.000000
    8       -4.574469   1.000000
    9        6.752298   0.000000
   10        6.752324   0.000000
   11        9.534631   0.000000
   12        9.534647   0.000000
   13       10.773966   0.000000
   14       10.773977   0.000000
   15       12.249339   0.000000
   16       12.249351   0.000000
   17       13.448573   0.000000
   18       13.448584   0.000000
   19       14.987071   0.000000
   20       14.987078   0.000000
 
 -0.1666667E+00 -0.1666667E+00  0.6938894E-16  0.4629630E-02
    1      -19.250493   1.000000
    2      -19.250485   1.000000
    3       -4.860574   1.000000
    4       -4.860568   1.000000
    5       -4.553365   1.000000
    6       -4.553363   1.000000
    7       -4.453303   1.000000
    8       -4.453300   1.000000
    9        5.495823   0.000000
   10        5.495851   0.000000
   11       10.276577   0.000000
   12       10.276589   0.000000
   13       12.079944   0.000000
   14       12.079952   0.000000
   15       12.086522   0.000000
   16       12.086530   0.000000
   17       12.173563   0.000000
   18       12.173572   0.000000
   19       14.311556   0.000000
   20       14.311562   0.000000
 
 -0.7703720E-33  0.7703720E-33  0.1666667E+00  0.4629630E-02
    1      -19.273346   1.000000
    2      -19.273338   1.000000
    3       -4.864155   1.000000
    4       -4.864149   1.000000
    5       -4.468358   1.000000
    6       -4.468354   1.000000
    7       -4.359797   1.000000
    8       -4.359793   1.000000
    9        5.246489   0.000000
   10        5.246517   0.000000
   11       10.628323   0.000000
   12       10.628336   0.000000
   13       11.757107   0.000000
   14       11.757112   0.000000
   15       11.759367   0.000000
   16       11.759369   0.000000
   17       13.551124   0.000000
   18       13.551127   0.000000
   19       13.552945   0.000000
   20       13.552948   0.000000
 
  0.1666667E+00  0.1009739E-16  0.1666667E+00  0.4629630E-02
    1      -19.250493   1.000000
    2      -19.250485   1.000000
    3       -4.860574   1.000000
    4       -4.860568   1.000000
    5       -4.553366   1.000000
    6       -4.553363   1.000000
    7       -4.453303   1.000000
    8       -4.453300   1.000000
    9        5.495823   0.000000
   10        5.495851   0.000000
   11       10.276574   0.000000
   12       10.276591   0.000000
   13       12.079945   0.000000
   14       12.079951   0.000000
   15       12.086523   0.000000
   16       12.086529   0.000000
   17       12.173563   0.000000
   18       12.173572   0.000000
   19       14.311557   0.000000
   20       14.311561   0.000000
 
  0.3333333E+00 -0.1890198E-17  0.1666667E+00  0.4629630E-02
    1      -19.131882   1.000000
    2      -19.131874   1.000000
    3       -5.430525   1.000000
    4       -5.430518   1.000000
    5       -4.691105   1.000000
    6       -4.691103   1.000000
    7       -4.574470   1.000000
    8       -4.574468   1.000000
    9        6.752297   0.000000
   10        6.752324   0.000000
   11        9.534630   0.000000
   12        9.534648   0.000000
   13       10.773966   0.000000
   14       10.773976   0.000000
   15       12.249342   0.000000
   16       12.249348   0.000000
   17       13.448573   0.000000
   18       13.448585   0.000000
   19       14.987071   0.000000
   20       14.987078   0.000000
 
  0.5000000E+00  0.2428613E-31  0.1666667E+00  0.4629630E-02
    1      -19.033194   1.000000
    2      -19.033186   1.000000
    3       -5.854744   1.000000
    4       -5.854738   1.000000
    5       -4.836933   1.000000
    6       -4.836928   1.000000
    7       -4.629689   1.000000
    8       -4.629684   1.000000
    9        7.761970   0.000000
   10        7.761987   0.000000
   11        9.175702   0.000000
   12        9.175740   0.000000
   13       10.596638   0.000000
   14       10.596654   0.000000
   15       11.781659   0.000000
   16       11.781665   0.000000
   17       15.268880   0.000000
   18       15.268893   0.000000
   19       15.784360   0.000000
   20       15.784372   0.000000
 
 -0.3333333E+00 -0.9450988E-17  0.1666667E+00  0.4629630E-02
    1      -19.057740   1.000000
    2      -19.057733   1.000000
    3       -5.743825   1.000000
    4       -5.743819   1.000000
    5       -4.886096   1.000000
    6       -4.886091   1.000000
    7       -4.547620   1.000000
    8       -4.547614   1.000000
    9        7.665384   0.000000
   10        7.665400   0.000000
   11        9.451740   0.000000
   12        9.451774   0.000000
   13       10.387139   0.000000
   14       10.387155   0.000000
   15       11.742456   0.000000
   16       11.742461   0.000000
   17       14.157705   0.000000
   18       14.157712   0.000000
   19       16.260610   0.000000
   20       16.260618   0.000000
 
 -0.1666667E+00 -0.7560790E-17  0.1666667E+00  0.4629630E-02
    1      -19.179187   1.000000
    2      -19.179180   1.000000
    3       -5.255147   1.000000