    1    1    1    1
  0.3721384E+02  0.3747484E-09  0.3747484E-09  0.3747484E-09  0.1000000E-15
  1.000000000000000E-004
  CAR 
 Og_FCC                                  
      8    216     18
 
  0.0000000E+00  0.0000000E+00  0.0000000E+00  0.4629630E-02
    1      -19.855943   1.000000
    2      -19.855923   1.000000
    3       -5.262965   1.000000
    4       -5.262961   1.000000
    5       -5.071792   1.000000
    6       -5.071787   1.000000
    7       -5.071782   1.000000
    8       -5.071777   1.000000
    9        3.534624   0.000000
   10        3.534710   0.000000
   11       10.647533   0.000000
   12       10.647536   0.000000
   13       10.647541   0.000000
   14       10.647543   0.000000
   15       10.650055   0.000000
   16       10.650061   0.000000
   17       12.899688   0.000000
   18       12.899689   0.000000
 
  0.1666667E+00  0.1576799E-16  0.2775558E-16  0.4629630E-02
    1      -19.808418   1.000000
    2      -19.808399   1.000000
    3       -5.518638   1.000000
    4       -5.518623   1.000000
    5       -5.207251   1.000000
    6       -5.207249   1.000000
    7       -5.106953   1.000000
    8       -5.106951   1.000000
    9        4.245604   0.000000
   10        4.245689   0.000000
   11        9.774612   0.000000
   12        9.774625   0.000000
   13       10.875802   0.000000
   14       10.875805   0.000000
   15       10.877784   0.000000
   16       10.877787   0.000000
   17       12.536185   0.000000
   18       12.536267   0.000000
 
  0.3333333E+00  0.3153597E-16  0.5551115E-16  0.4629630E-02
    1      -19.711041   1.000000
    2      -19.711022   1.000000
    3       -6.127457   1.000000
    4       -6.127440   1.000000
    5       -5.295903   1.000000
    6       -5.295901   1.000000
    7       -5.178470   1.000000
    8       -5.178468   1.000000
    9        5.678664   0.000000
   10        5.678726   0.000000
   11        8.783827   0.000000
   12        8.783898   0.000000
   13       10.566120   0.000000
   14       10.566126   0.000000
   15       10.568669   0.000000
   16       10.568675   0.000000
   17       13.372455   0.000000
   18       13.372846   0.000000
 
  0.5000000E+00  0.6118174E-16  0.2775558E-16  0.4629630E-02
    1      -19.661074   1.000000
    2      -19.661055   1.000000
    3       -6.408735   1.000000
    4       -6.408718   1.000000
    5       -5.331882   1.000000
    6       -5.331881   1.000000
    7       -5.212886   1.000000
    8       -5.212885   1.000000
    9        6.362317   0.000000
   10        6.362322   0.000000
   11        8.569928   0.000000
   12        8.570101   0.000000
   13       10.275803   0.000000
   14       10.275809   0.000000
   15       10.278357   0.000000
   16       10.278363   0.000000
   17       14.549436   0.000000
   18       14.549552   0.000000
 
 -0.3333333E+00 -0.3153597E-16 -0.5551115E-16  0.4629630E-02
    1      -19.711041   1.000000
    2      -19.711022   1.000000
    3       -6.127457   1.000000
    4       -6.127440   1.000000
    5       -5.295903   1.000000
    6       -5.295901   1.000000
    7       -5.178470   1.000000
    8       -5.178468   1.000000
    9        5.678664   0.000000
   10        5.678726   0.000000
   11        8.783827   0.000000
   12        8.783898   0.000000
   13       10.566120   0.000000
   14       10.566126   0.000000
   15       10.568669   0.000000
   16       10.568675   0.000000
   17       13.372824   0.000000
   18       13.373957   0.000000
 
 -0.1666667E+00 -0.1576799E-16 -0.2775558E-16  0.4629630E-02
    1      -19.808418   1.000000
    2      -19.808399   1.000000
    3       -5.518638   1.000000
    4       -5.518624   1.000000
    5       -5.207251   1.000000
    6       -5.207249   1.000000
    7       -5.106953   1.000000
    8       -5.106951   1.000000
    9        4.245604   0.000000
   10        4.245689   0.000000
   11        9.774612   0.000000
   12        9.774625   0.000000
   13       10.875802   0.000000
   14       10.875805   0.000000
   15       10.877784   0.000000
   16       10.877787   0.000000
   17       12.536169   0.000000
   18       12.536222   0.000000
 
  0.0000000E+00  0.1666667E+00  0.1387779E-16  0.4629630E-02
    1      -19.808418   1.000000
    2      -19.808399   1.000000
    3       -5.518638   1.000000
    4       -5.518624   1.000000
    5       -5.207252   1.000000
    6       -5.207247   1.000000
    7       -5.106954   1.000000
    8       -5.106949   1.000000
    9        4.245604   0.000000
   10        4.245689   0.000000
   11        9.774612   0.000000
   12        9.774625   0.000000
   13       10.875802   0.000000
   14       10.875804   0.000000
   15       10.877784   0.000000
   16       10.877787   0.000000
   17       12.536054   0.000000
   18       12.536512   0.000000
 
  0.1666667E+00  0.1666667E+00  0.4163336E-16  0.4629630E-02
    1      -19.792759   1.000000
    2      -19.792739   1.000000
    3       -5.519735   1.000000
    4       -5.519721   1.000000
    5       -5.270556   1.000000
    6       -5.270552   1.000000
    7       -5.179964   1.000000
    8       -5.179958   1.000000
    9        4.468573   0.000000
   10        4.468662   0.000000
   11        9.500868   0.000000
   12        9.500874   0.000000
   13       11.129215   0.000000
   14       11.129221   0.000000
   15       11.135272   0.000000
   16       11.135277   0.000000
   17       11.231741   0.000000
   18       11.231762   0.000000
 
  0.3333333E+00  0.1666667E+00  0.2775558E-16  0.4629630E-02
    1      -19.712119   1.000000
    2      -19.712100   1.000000
    3       -5.952303   1.000000
    4       -5.952287   1.000000
    5       -5.385129   1.000000
    6       -5.385125   1.000000
    7       -5.273368   1.000000
    8       -5.273364   1.000000
    9        5.671045   0.000000
   10        5.671137   0.000000
   11        8.723465   0.000000
   12        8.723484   0.000000
   13        9.904371   0.000000
   14        9.904404   0.000000
   15       11.274705   0.000000
   16       11.274712   0.000000
   17       12.350312   0.000000
   18       12.350322   0.000000
 
  0.5000000E+00  0.1666667E+00  0.0000000E+00  0.4629630E-02
    1      -19.645806   1.000000
    2      -19.645787   1.000000
    3       -6.280109   1.000000
    4       -6.280093   1.000000
    5       -5.493746   1.000000
    6       -5.493735   1.000000
    7       -5.321924   1.000000
    8       -5.321913   1.000000
    9        6.844026   0.000000
   10        6.844059   0.000000
   11        8.151330   0.000000
   12        8.151468   0.000000
   13        9.623770   0.000000
   14        9.623777   0.000000
   15       10.863315   0.000000
   16       10.863322   0.000000
   17       13.966188   0.000000
   18       13.967503   0.000000
 
 -0.3333333E+00  0.1666667E+00 -0.4857226E-16  0.4629630E-02
    1      -19.662293   1.000000
    2      -19.662273   1.000000
    3       -6.193600   1.000000
    4       -6.193584   1.000000
    5       -5.528132   1.000000
    6       -5.528119   1.000000
    7       -5.261534   1.000000
    8       -5.261520   1.000000
    9        6.626124   0.000000
   10        6.626179   0.000000
   11        8.454239   0.000000
   12        8.454343   0.000000
   13        9.493941   0.000000
   14        9.493959   0.000000
   15       10.844474   0.000000
   16       10.844481   0.000000
   17       13.094145   0.000000
   18       13.094152   0.000000
 
 -0.1666667E+00  0.1666667E+00 -0.1489901E-16  0.4629630E-02
    1      -19.744246   1.000000
    2      -19.744227   1.000000
    3       -5.817010   1.000000
    4       -5.816994   1.000000
    5       -5.381218   1.000000
    6       -5.381205   1.000000
    7       -5.167748   1.000000
    8       -5.167735   1.000000
    9        5.235360   0.000000
   10        5.235445   0.000000
   11        9.152473   0.000000
   12        9.152479   0.000000
   13       10.185024   0.000000
   14       10.185073   0.000000
   15       11.460386   0.000000
   16       11.460395   0.000000
   17       11.526771   0.000000
   18       11.526780   0.000000
 
  0.0000000E+00  0.3333333E+00  0.2775558E-16  0.4629630E-02
    1      -19.711041   1.000000
    2      -19.711022   1.000000
    3       -6.127457   1.000000
    4       -6.127440   1.000000
    5       -5.295904   1.000000
    6       -5.295899   1.000000
    7       -5.178471   1.000000
    8       -5.178466   1.000000
    9        5.678663   0.000000
   10        5.678726   0.000000
   11        8.783827   0.000000
   12        8.783899   0.000000
   13       10.566122   0.000000
   14       10.566123   0.000000
   15       10.568670   0.000000
   16       10.568673   0.000000
   17       13.372221   0.000000
   18       13.373777   0.000000
 
  0.1666667E+00  0.3333333E+00  0.5551115E-16  0.4629630E-02
    1      -19.712119   1.000000
    2      -19.712100   1.000000
    3       -5.952303   1.000000
    4       -5.952287   1.000000
    5       -5.385130   1.000000
    6       -5.385124   1.000000
    7       -5.273369   1.000000
    8       -5.273363   1.000000
    9        5.671045   0.000000
   10        5.671137   0.000000
   11        8.723465   0.000000
   12        8.723484   0.000000
   13        9.904371   0.000000
   14        9.904404   0.000000
   15       11.274704   0.000000
   16       11.274712   0.000000
   17       12.350313   0.000000
   18       12.350322   0.000000
 
  0.3333333E+00  0.3333333E+00  0.0000000E+00  0.4629630E-02
    1      -19.664282   1.000000
    2      -19.664262   1.000000
    3       -6.061375   1.000000
    4       -6.061360   1.000000
    5       -5.499264   1.000000
    6       -5.499258   1.000000
    7       -5.389850   1.000000
    8       -5.389844   1.000000
    9        6.033135   0.000000
   10        6.033261   0.000000
   11        8.137789   0.000000
   12        8.137793   0.000000
   13        9.616510   0.000000
   14        9.616530   0.000000
   15       12.571914   0.000000
   16       12.571920   0.000000
   17       12.587200   0.000000
   18       12.587206   0.000000
 
  0.5000000E+00  0.3333333E+00  0.0000000E+00  0.4629630E-02
    1      -19.614729   1.000000
    2      -19.614709   1.000000
    3       -6.187445   1.000000
    4       -6.187431   1.000000
    5       -5.659057   1.000000
    6       -5.659044   1.000000
    7       -5.462983   1.000000
    8       -5.462971   1.000000
    9        6.605809   0.000000
   10        6.605952   0.000000
   11        7.971348   0.000000
   12        7.971358   0.000000
   13        9.500713   0.000000
   14        9.500724   0.000000
   15       12.479105   0.000000
   16       12.479112   0.000000
   17       13.745671   0.000000
   18       13.745695   0.000000
 
 -0.3333333E+00  0.3333333E+00 -0.3252599E-16  0.4629630E-02
    1      -19.613829   1.000000
    2      -19.613810   1.000000
    3       -6.041053   1.000000
    4       -6.041039   1.000000
    5       -5.916913   1.000000
    6       -5.916900   1.000000
    7       -5.389789   1.000000
    8       -5.389774   1.000000
    9        7.511091   0.000000
   10        7.511254   0.000000
   11        7.877859   0.000000
   12        7.877871   0.000000
   13        9.126835   0.000000
   14        9.126843   0.000000
   15       11.682424   0.000000
   16       11.682433   0.000000
   17       13.689678   0.000000
   18       13.709603   0.000000
 
 -0.1666667E+00  0.3333333E+00  0.6938894E-17  0.4629630E-02
    1      -19.662293   1.000000
    2      -19.662273   1.000000
    3       -6.193600   1.000000
    4       -6.193584   1.000000
    5       -5.528132   1.000000
    6       -5.528119   1.000000
    7       -5.261534   1.000000
    8       -5.261520   1.000000
    9        6.626124   0.000000
   10        6.626178   0.000000
   11        8.454239   0.000000
   12        8.454344   0.000000
   13        9.493941   0.000000
   14        9.493959   0.000000
   15       10.844473   0.000000
   16       10.844481   0.000000
   17       13.094145   0.000000
   18       13.094152   0.000000
 
  0.7703720E-33  0.5000000E+00  0.2775558E-16  0.4629630E-02
    1      -19.661074   1.000000
    2      -19.661055   1.000000
    3       -6.408735   1.000000
    4       -6.408718   1.000000
    5       -5.331884   1.000000
    6       -5.331879   1.000000
    7       -5.212888   1.000000
    8       -5.212883   1.000000
    9        6.362316   0.000000
   10        6.362322   0.000000
   11        8.569929   0.000000
   12        8.570102   0.000000
   13       10.275804   0.000000
   14       10.275807   0.000000
   15       10.278358   0.000000
   16       10.278361   0.000000
   17       14.549071   0.000000
   18       14.549909   0.000000
 
  0.1666667E+00  0.5000000E+00  0.5551115E-16  0.4629630E-02
    1      -19.645806   1.000000
    2      -19.645787   1.000000
    3       -6.280109   1.000000
    4       -6.280093   1.000000
    5       -5.493746   1.000000
    6       -5.493735   1.000000
    7       -5.321924   1.000000
    8       -5.321912   1.000000
    9        6.844025   0.000000
   10        6.844058   0.000000
   11        8.151330   0.000000
   12        8.151468   0.000000
   13        9.623770   0.000000
   14        9.623777   0.000000
   15       10.863314   0.000000
   16       10.863321   0.000000
   17       13.966186   0.000000
   18       13.966239   0.000000
 
  0.3333333E+00  0.5000000E+00  0.0000000E+00  0.4629630E-02
    1      -19.614729   1.000000
    2      -19.614709   1.000000
    3       -6.187445   1.000000
    4       -6.187431   1.000000
    5       -5.659057   1.000000
    6       -5.659044   1.000000
    7       -5.462983   1.000000
    8       -5.462971   1.000000
    9        6.605809   0.000000
   10        6.605952   0.000000
   11        7.971348   0.000000
   12        7.971358   0.000000
   13        9.500712   0.000000
   14        9.500724   0.000000
   15       12.479105   0.000000
   16       12.479112   0.000000
   17       13.745672   0.000000
   18       13.745696   0.000000
 
  0.5000000E+00  0.5000000E+00  0.1110223E-15  0.4629630E-02
    1      -19.598944   1.000000
    2      -19.598925   1.000000
    3       -6.293811   1.000000
    4       -6.293798   1.000000
    5       -5.601187   1.000000
    6       -5.601181   1.000000
    7       -5.490861   1.000000
    8       -5.490856   1.000000
    9        6.193062   0.000000
   10        6.193211   0.000000
   11        7.639872   0.000000
   12        7.639876   0.000000
   13       10.135729   0.000000
   14       10.135740   0.000000
   15       14.541424   0.000000
   16       14.543211   0.000000
   17       14.795788   0.000000
   18       14.813752   0.000000
 
 -0.3333333E+00  0.5000000E+00  0.6938894E-17  0.4629630E-02
    1      -19.614729   1.000000
    2      -19.614709   1.000000
    3       -6.187445   1.000000
    4       -6.187431   1.000000
    5       -5.659057   1.000000
    6       -5.659044   1.000000
    7       -5.462983   1.000000
    8       -5.462971   1.000000
    9        6.605809   0.000000
   10        6.605952   0.000000
   11        7.971348   0.000000
   12        7.971358   0.000000
   13        9.500712   0.000000
   14        9.500724   0.000000
   15       12.479105   0.000000
   16       12.479112   0.000000
   17       13.745672   0.000000
   18       13.745696   0.000000
 
 -0.1666667E+00  0.5000000E+00  0.0000000E+00  0.4629630E-02
    1      -19.645806   1.000000
    2      -19.645787   1.000000
    3       -6.280109   1.000000
    4       -6.280093   1.000000
    5       -5.493746   1.000000
    6       -5.493735   1.000000
    7       -5.321924   1.000000
    8       -5.321912   1.000000
    9        6.844025   0.000000
   10        6.844058   0.000000
   11        8.151330   0.000000
   12        8.151468   0.000000
   13        9.623770   0.000000
   14        9.623777   0.000000
   15       10.863314   0.000000
   16       10.863321   0.000000
   17       13.966186   0.000000
   18       13.966224   0.000000
 
  0.0000000E+00 -0.3333333E+00 -0.2775558E-16  0.4629630E-02
    1      -19.711041   1.000000
    2      -19.711022   1.000000
    3       -6.127457   1.000000
    4       -6.127440   1.000000
    5       -5.295904   1.000000
    6       -5.295899   1.000000
    7       -5.178471   1.000000
    8       -5.178466   1.000000
    9        5.678663   0.000000
   10        5.678726   0.000000
   11        8.783827   0.000000
   12        8.783899   0.000000
   13       10.566122   0.000000
   14       10.566123   0.000000
   15       10.568670   0.000000
   16       10.568673   0.000000
   17       13.372171   0.000000
   18       13.373542   0.000000
 
  0.1666667E+00 -0.3333333E+00 -0.6938894E-17  0.4629630E-02
    1      -19.662293   1.000000
    2      -19.662273   1.000000
    3       -6.193600   1.000000
    4       -6.193584   1.000000
    5       -5.528132   1.000000
    6       -5.528119   1.000000
    7       -5.261534   1.000000
    8       -5.261520   1.000000
    9        6.626124   0.000000
   10        6.626178   0.000000
   11        8.454239   0.000000
   12        8.454344   0.000000
   13        9.493941   0.000000
   14        9.493959   0.000000
   15       10.844473   0.000000
   16       10.844481   0.000000
   17       13.094145   0.000000
   18       13.094152   0.000000
 
  0.3333333E+00 -0.3333333E+00  0.3252599E-16  0.4629630E-02
    1      -19.613829   1.000000
    2      -19.613810   1.000000
    3       -6.041053   1.000000
    4       -6.041039   1.000000
    5       -5.916913   1.000000
    6       -5.916900   1.000000
    7       -5.389789   1.000000
    8       -5.389774   1.000000
    9        7.511091   0.000000
   10        7.511254   0.000000
   11        7.877859   0.000000
   12        7.877871   0.000000
   13        9.126835   0.000000
   14        9.126843   0.000000
   15       11.682424   0.000000
   16       11.682433   0.000000
   17       13.689733   0.000000
   18       13.709666   0.000000
 
  0.5000000E+00 -0.3333333E+00  0.1387779E-16  0.4629630E-02
    1      -19.614729   1.000000
    2      -19.614709   1.000000
    3       -6.187445   1.000000
    4       -6.187431   1.000000
    5       -5.659057   1.000000
    6       -5.659044   1.000000
    7       -5.462983   1.000000
    8       -5.462971   1.000000
    9        6.605809   0.000000
   10        6.605952   0.000000
   11        7.971348   0.000000
   12        7.971358   0.000000
   13        9.500713   0.000000
   14        9.500724   0.000000
   15       12.479105   0.000000
   16       12.479112   0.000000
   17       13.745671   0.000000
   18       13.745695   0.000000
 
 -0.3333333E+00 -0.3333333E+00  0.0000000E+00  0.4629630E-02
    1      -19.664282   1.000000
    2      -19.664262   1.000000
    3       -6.061375   1.000000
    4       -6.061360   1.000000
    5       -5.499264   1.000000
    6       -5.499258   1.000000
    7       -5.389850   1.000000
    8       -5.389844   1.000000
    9        6.033135   0.000000
   10        6.033261   0.000000
   11        8.137789   0.000000
   12        8.137793   0.000000
   13        9.616510   0.000000
   14        9.616530   0.000000
   15       12.571914   0.000000
   16       12.571920   0.000000
   17       12.587200   0.000000
   18       12.587206   0.000000
 
 -0.1666667E+00 -0.3333333E+00 -0.5551115E-16  0.4629630E-02
    1      -19.712119   1.000000
    2      -19.712100   1.000000
    3       -5.952303   1.000000
    4       -5.952287   1.000000
    5       -5.385130   1.000000
    6       -5.385124   1.000000
    7       -5.273369   1.000000
    8       -5.273363   1.000000
    9        5.671045   0.000000
   10        5.671137   0.000000
   11        8.723465   0.000000
   12        8.723484   0.000000
   13        9.904371   0.000000
   14        9.904404   0.000000
   15       11.274704   0.000000
   16       11.274712   0.000000
   17       12.350313   0.000000
   18       12.350322   0.000000
 
  0.0000000E+00 -0.1666667E+00 -0.2081668E-16  0.4629630E-02
    1      -19.808418   1.000000
    2      -19.808399   1.000000
    3       -5.518638   1.000000
    4       -5.518624   1.000000
    5       -5.207252   1.000000
    6       -5.207247   1.000000
    7       -5.106954   1.000000
    8       -5.106949   1.000000
    9        4.245604   0.000000
   10        4.245689   0.000000
   11        9.774612   0.000000
   12        9.774625   0.000000
   13       10.875802   0.000000
   14       10.875804   0.000000
   15       10.877784   0.000000
   16       10.877787   0.000000
   17       12.535888   0.000000
   18       12.536474   0.000000
 
  0.1666667E+00 -0.1666667E+00  0.1988471E-16  0.4629630E-02
    1      -19.744246   1.000000
    2      -19.744227   1.000000
    3       -5.817010   1.000000
    4       -5.816994   1.000000
    5       -5.381218   1.000000
    6       -5.381205   1.000000
    7       -5.167748   1.000000
    8       -5.167735   1.000000
    9        5.235360   0.000000
   10        5.235445   0.000000
   11        9.152473   0.000000
   12        9.152479   0.000000
   13       10.185024   0.000000
   14       10.185073   0.000000
   15       11.460386   0.000000
   16       11.460395   0.000000
   17       11.526771   0.000000
   18       11.526780   0.000000
 
  0.3333333E+00 -0.1666667E+00  0.6938894E-17  0.4629630E-02
    1      -19.662293   1.000000
    2      -19.662273   1.000000
    3       -6.193600   1.000000
    4       -6.193584   1.000000
    5       -5.528132   1.000000
    6       -5.528119   1.000000
    7       -5.261534   1.000000
    8       -5.261520   1.000000
    9        6.626124   0.000000
   10        6.626179   0.000000
   11        8.454239   0.000000
   12        8.454343   0.000000
   13        9.493941   0.000000
   14        9.493959   0.000000
   15       10.844474   0.000000
   16       10.844481   0.000000
   17       13.094145   0.000000
   18       13.094152   0.000000
 
  0.5000000E+00 -0.1666667E+00  0.2775558E-16  0.4629630E-02
    1      -19.645806   1.000000
    2      -19.645787   1.000000
    3       -6.280109   1.000000
    4       -6.280093   1.000000
    5       -5.493746   1.000000
    6       -5.493735   1.000000
    7       -5.321924   1.000000
    8       -5.321913   1.000000
    9        6.844026   0.000000
   10        6.844059   0.000000
   11        8.151330   0.000000
   12        8.151468   0.000000
   13        9.623770   0.000000
   14        9.623777   0.000000
   15       10.863315   0.000000
   16       10.863322   0.000000
   17       13.966186   0.000000
   18       13.966342   0.000000
 
 -0.3333333E+00 -0.1666667E+00 -0.5551115E-16  0.4629630E-02
    1      -19.712119   1.000000
    2      -19.712100   1.000000
    3       -5.952303   1.000000
    4       -5.952287   1.000000
    5       -5.385129   1.000000
    6       -5.385125   1.000000
    7       -5.273368   1.000000
    8       -5.273364   1.000000
    9        5.671045   0.000000
   10        5.671137   0.000000
   11        8.723465   0.000000
   12        8.723484   0.000000
   13        9.904371   0.000000
   14        9.904404   0.000000
   15       11.274705   0.000000
   16       11.274712   0.000000
   17       12.350312   0.000000
   18       12.350322   0.000000
 
 -0.1666667E+00 -0.1666667E+00  0.0000000E+00  0.4629630E-02
    1      -19.792759   1.000000
    2      -19.792739   1.000000
    3       -5.519735   1.000000
    4       -5.519721   1.000000
    5       -5.270556   1.000000
    6       -5.270552   1.000000
    7       -5.179964   1.000000
    8       -5.179958   1.000000
    9        4.468573   0.000000
   10        4.468662   0.000000
   11        9.500868   0.000000
   12        9.500874   0.000000
   13       11.129215   0.000000
   14       11.129221   0.000000
   15       11.135272   0.000000
   16       11.135277   0.000000
   17       11.231741   0.000000
   18       11.231762   0.000000
 
  0.0000000E+00  0.0000000E+00  0.1666667E+00  0.4629630E-02
    1      -19.808418   1.000000
    2      -19.808399   1.000000
    3       -5.518638   1.000000
    4       -5.518624   1.000000
    5       -5.207253   1.000000
    6       -5.207246   1.000000
    7       -5.106956   1.000000
    8       -5.106948   1.000000
    9        4.245604   0.000000
   10        4.245689   0.000000
   11        9.774612   0.000000
   12        9.774625   0.000000
   13       10.875801   0.000000
   14       10.875805   0.000000
   15       10.877783   0.000000
   16       10.877788   0.000000
   17       12.535633   0.000000
   18       12.536646   0.000000
 
  0.1666667E+00  0.3785297E-16  0.1666667E+00  0.4629630E-02
    1      -19.792759   1.000000
    2      -19.792739   1.000000
    3       -5.519735   1.000000
    4       -5.519722   1.000000
    5       -5.270557   1.000000
    6       -5.270551   1.000000
    7       -5.179965   1.000000
    8       -5.179957   1.000000
    9        4.468573   0.000000
   10        4.468662   0.000000
   11        9.500867   0.000000
   12        9.500873   0.000000
   13       11.129215   0.000000
   14       11.129222   0.000000
   15       11.135271   0.000000
   16       11.135279   0.000000
   17       11.231741   0.000000
   18       11.231762   0.000000
 
  0.3333333E+00  0.2586538E-16  0.1666667E+00  0.4629630E-02
    1      -19.712119   1.000000
    2      -19.712100   1.000000
    3       -5.952303   1.000000
    4       -5.952287   1.000000
    5       -5.385130   1.000000
    6       -5.385125   1.000000
    7       -5.273368   1.000000
    8       -5.273363   1.000000
    9        5.671045   0.000000
   10        5.671137   0.000000
   11        8.723465   0.000000
   12        8.723483   0.000000
   13        9.904371   0.000000
   14        9.904404   0.000000
   15       11.274705   0.000000
   16       11.274712   0.000000
   17       12.350313   0.000000
   18       12.350323   0.000000
 
  0.5000000E+00  0.5551115E-16  0.1666667E+00  0.4629630E-02
    1      -19.645806   1.000000
    2      -19.645787   1.000000
    3       -6.280109   1.000000
    4       -6.280093   1.000000
    5       -5.493746   1.000000
    6       -5.493735   1.000000
    7       -5.321924   1.000000
    8       -5.321912   1.000000
    9        6.844026   0.000000
   10        6.844059   0.000000
   11        8.151330   0.000000
   12        8.151467   0.000000
   13        9.623770   0.000000
   14        9.623777   0.000000
   15       10.863315   0.000000
   16       10.863322   0.000000
   17       13.966187   0.000000
   18       13.966251   0.000000
 
 -0.3333333E+00 -0.3720656E-16  0.1666667E+00  0.4629630E-02
    1      -19.662293   1.000000
    2      -19.662273   1.000000
    3       -6.193600   1.000000
    4       -6.193584   1.000000
    5       -5.528132   1.000000
    6       -5.528119   1.000000
    7       -5.261534   1.000000
    8       -5.261520   1.000000
    9        6.626124   0.000000
   10        6.626179   0.000000
   11        8.454239   0.000000
   12        8.454344   0.000000
   13        9.493941   0.000000
   14        9.493959   0.000000
   15       10.844474   0.000000
   16       10.844481   0.000000
   17       13.094146   0.000000
   18       13.094153   0.000000
 
 -0.1666667E+00 -0.7560790E-17  0.1666667E+00  0.4629630E-02
    1      -19.744246   1.000000
    2      -19.744227   1.000000
    3       -5.817010   1.000000
    4       -5.816994   1.000000
    5       -5.381218   1.000000
    6       -5.381205   1.000000
    7       -5.167748   1.000000
    8       -5.167735   1.000000
    9        5.235360   0.000000
   10        5.235445   0.000000
   11        9.152473   0.000000
   12        9.152480   0.000000
   13       10.185024   0.000000
   14       10.185073   0.000000
   15       11.460386   0.000000
   16       11.460395   0.000000
   17       11.526771   0.000000
   18       11.526781   0.000000
 
  0.0000000E+00  0.1666667E+00  0.1666667E+00  0.4629630E-02
    1      -19.792759   1.000000
    2      -19.792739   1.000000
    3       -5.519735   1.000000
    4       -5.519722   1.000000
    5       -5.270558   1.000000
    6       -5.270550   1.000000
    7       -5.179967   1.000000
    8       -5.179955   1.000000
    9        4.468573   0.000000
   10        4.468662   0.000000
   11        9.500867   0.000000
   12        9.500875   0.000000
   13       11.129215   0.000000
   14       11.129221   0.000000
   15       11.135271   0.000000
   16       11.135278   0.000000
   17       11.231741   0.000000
   18       11.231762   0.000000
 
  0.1666667E+00  0.1666667E+00  0.1666667E+00  0.4629630E-02
    1      -19.808418   1.000000
    2      -19.808399   1.000000
    3       -5.518638   1.000000
    4       -5.518624   1.000000
    5       -5.207256   1.000000
    6       -5.207244   1.000000
    7       -5.106959   1.000000
    8       -5.106945   1.000000
    9        4.245604   0.000000
   10        4.245689   0.000000
   11        9.774612   0.000000
   12        9.774625   0.000000
   13       10.875799   0.000000
   14       10.875807   0.000000
   15       10.877781   0.000000
   16       10.877790   0.000000
   17       12.535424   0.000000
   18       12.537042   0.000000
 
  0.3333333E+00  0.1666667E+00  0.1666667E+00  0.4629630E-02
    1      -19.744246   1.000000
    2      -19.744227   1.000000
    3       -5.817010   1.000000
    4       -5.816994   1.000000
    5       -5.381218   1.000000
    6       -5.381205   1.000000
    7       -5.167748   1.000000
    8       -5.167735   1.000000
    9        5.235360   0.000000
   10        5.235445   0.000000
   11        9.152473   0.000000
   12        9.152479   0.000000
   13       10.185026   0.000000
   14       10.185074   0.000000
   15       11.460385   0.000000
   16       11.460394   0.000000
   17       11.526770   0.000000
   18       11.526780   0.000000
 
  0.5000000E+00  0.1666667E+00  0.1666667E+00  0.4629630E-02
    1      -19.662293   1.000000
    2      -19.662273   1.000000
    3       -6.193600   1.000000
    4       -6.193584   1.000000
    5       -5.528132   1.000000