   1   1   0   0
  0.6939272E+02  0.4612570E-09  0.4612570E-09  0.4612570E-09  0.1000000E-15
  1.000000000000000E-004
  CAR 
 Og_FCC                                  
     15.67164888    -34.01608665  301      2.19320007      1.00000000
    -34.016  0.0000E+00  0.0000E+00
    -33.850  0.0000E+00  0.0000E+00
    -33.685  0.0000E+00  0.0000E+00
    -33.519  0.0000E+00  0.0000E+00
    -33.354  0.0000E+00  0.0000E+00
    -33.188  0.0000E+00  0.0000E+00
    -33.022  0.0000E+00  0.0000E+00
    -32.857  0.0000E+00  0.0000E+00
    -32.691 -0.7896E-36 -0.1308E-36
    -32.525 -0.1152E-23 -0.1908E-24
    -32.360 -0.6638E-14 -0.1100E-14
    -32.194 -0.1391E-06 -0.2304E-07
    -32.029 -0.1002E-01 -0.1659E-02
    -31.863 -0.7236E+00 -0.1215E+00
    -31.697  0.2290E+02  0.3671E+01
    -31.532  0.2066E+01  0.4013E+01
    -31.366 -0.7901E-01  0.4000E+01
    -31.200 -0.5835E-05  0.4000E+01
    -31.035 -0.1323E-11  0.4000E+01
    -30.869  0.0000E+00  0.4000E+01
    -30.704  0.0000E+00  0.4000E+01
    -30.538  0.0000E+00  0.4000E+01
    -30.372  0.0000E+00  0.4000E+01
    -30.207  0.0000E+00  0.4000E+01
    -30.041  0.0000E+00  0.4000E+01
    -29.875  0.0000E+00  0.4000E+01
    -29.710  0.0000E+00  0.4000E+01
    -29.544  0.0000E+00  0.4000E+01
    -29.379  0.0000E+00  0.4000E+01
    -29.213  0.0000E+00  0.4000E+01
    -29.047  0.0000E+00  0.4000E+01
    -28.882  0.0000E+00  0.4000E+01
    -28.716  0.0000E+00  0.4000E+01
    -28.550  0.0000E+00  0.4000E+01
    -28.385  0.0000E+00  0.4000E+01
    -28.219  0.0000E+00  0.4000E+01
    -28.054  0.0000E+00  0.4000E+01
    -27.888  0.0000E+00  0.4000E+01
    -27.722  0.0000E+00  0.4000E+01
    -27.557  0.0000E+00  0.4000E+01
    -27.391  0.0000E+00  0.4000E+01
    -27.225  0.0000E+00  0.4000E+01
    -27.060  0.0000E+00  0.4000E+01
    -26.894  0.0000E+00  0.4000E+01
    -26.729  0.0000E+00  0.4000E+01
    -26.563  0.0000E+00  0.4000E+01
    -26.397  0.0000E+00  0.4000E+01
    -26.232  0.0000E+00  0.4000E+01
    -26.066  0.0000E+00  0.4000E+01
    -25.900 -0.2510E-28  0.4000E+01
    -25.735 -0.1489E-17  0.4000E+01
    -25.569 -0.3316E-09  0.4000E+01
    -25.404 -0.2718E-03  0.4000E+01
    -25.238 -0.5776E+00  0.3904E+01
    -25.072  0.1548E+02  0.6468E+01
    -24.907  0.2224E+02  0.1015E+02
    -24.741 -0.9170E+00  0.1000E+02
    -24.575 -0.1019E-02  0.1000E+02
    -24.410 -0.2576E-08  0.1000E+02
    -24.244  0.0000E+00  0.1000E+02
    -24.079  0.0000E+00  0.1000E+02
    -23.913  0.0000E+00  0.1000E+02
    -23.747  0.0000E+00  0.1000E+02
    -23.582  0.0000E+00  0.1000E+02
    -23.416  0.0000E+00  0.1000E+02
    -23.250  0.0000E+00  0.1000E+02
    -23.085  0.0000E+00  0.1000E+02
    -22.919  0.0000E+00  0.1000E+02
    -22.754  0.0000E+00  0.1000E+02
    -22.588  0.0000E+00  0.1000E+02
    -22.422  0.0000E+00  0.1000E+02
    -22.257 -0.1636E-30  0.1000E+02
    -22.091 -0.1267E-19  0.1000E+02
    -21.925 -0.4230E-11  0.1000E+02
    -21.760 -0.6738E-05  0.1000E+02
    -21.594 -0.4682E-01  0.9992E+01
    -21.429  0.1206E+01  0.1019E+02
    -21.263  0.1123E+02  0.1205E+02
    -21.097 -0.3040E+00  0.1200E+02
    -20.932 -0.5922E-02  0.1200E+02
    -20.766 -0.1100E-06  0.1200E+02
    -20.600 -0.7312E-14  0.1200E+02
    -20.435  0.0000E+00  0.1200E+02
    -20.269  0.0000E+00  0.1200E+02
    -20.104  0.0000E+00  0.1200E+02
    -19.938  0.0000E+00  0.1200E+02
    -19.772  0.0000E+00  0.1200E+02
    -19.607  0.0000E+00  0.1200E+02
    -19.441  0.0000E+00  0.1200E+02
    -19.275  0.0000E+00  0.1200E+02
    -19.110  0.0000E+00  0.1200E+02
    -18.944  0.0000E+00  0.1200E+02
    -18.779  0.0000E+00  0.1200E+02
    -18.613  0.0000E+00  0.1200E+02
    -18.447  0.0000E+00  0.1200E+02
    -18.282  0.0000E+00  0.1200E+02
    -18.116  0.0000E+00  0.1200E+02
    -17.950  0.0000E+00  0.1200E+02
    -17.785  0.0000E+00  0.1200E+02
    -17.619  0.0000E+00  0.1200E+02
    -17.454  0.0000E+00  0.1200E+02
    -17.288  0.0000E+00  0.1200E+02
    -17.122  0.0000E+00  0.1200E+02
    -16.957  0.0000E+00  0.1200E+02
    -16.791  0.0000E+00  0.1200E+02
    -16.625  0.0000E+00  0.1200E+02
    -16.460  0.0000E+00  0.1200E+02
    -16.294  0.0000E+00  0.1200E+02
    -16.129  0.0000E+00  0.1200E+02
    -15.963  0.0000E+00  0.1200E+02
    -15.797  0.0000E+00  0.1200E+02
    -15.632  0.0000E+00  0.1200E+02
    -15.466  0.0000E+00  0.1200E+02
    -15.300  0.0000E+00  0.1200E+02
    -15.135  0.0000E+00  0.1200E+02
    -14.969  0.0000E+00  0.1200E+02
    -14.803  0.0000E+00  0.1200E+02
    -14.638  0.0000E+00  0.1200E+02
    -14.472  0.0000E+00  0.1200E+02
    -14.307  0.0000E+00  0.1200E+02
    -14.141  0.0000E+00  0.1200E+02
    -13.975  0.0000E+00  0.1200E+02
    -13.810  0.0000E+00  0.1200E+02
    -13.644  0.0000E+00  0.1200E+02
    -13.478  0.0000E+00  0.1200E+02
    -13.313  0.0000E+00  0.1200E+02
    -13.147  0.0000E+00  0.1200E+02
    -12.982  0.0000E+00  0.1200E+02
    -12.816  0.0000E+00  0.1200E+02
    -12.650  0.0000E+00  0.1200E+02
    -12.485  0.0000E+00  0.1200E+02
    -12.319  0.0000E+00  0.1200E+02
    -12.153  0.0000E+00  0.1200E+02
    -11.988  0.0000E+00  0.1200E+02
    -11.822  0.0000E+00  0.1200E+02
    -11.657  0.0000E+00  0.1200E+02
    -11.491  0.0000E+00  0.1200E+02
    -11.325  0.0000E+00  0.1200E+02
    -11.160  0.0000E+00  0.1200E+02
    -10.994  0.0000E+00  0.1200E+02
    -10.828  0.0000E+00  0.1200E+02
    -10.663  0.0000E+00  0.1200E+02
    -10.497  0.0000E+00  0.1200E+02
    -10.332  0.0000E+00  0.1200E+02
    -10.166  0.0000E+00  0.1200E+02
    -10.000  0.0000E+00  0.1200E+02
     -9.835  0.0000E+00  0.1200E+02
     -9.669  0.0000E+00  0.1200E+02
     -9.503 -0.1003E-38  0.1200E+02
     -9.338 -0.3426E-26  0.1200E+02
     -9.172 -0.4381E-16  0.1200E+02
     -9.007 -0.2184E-08  0.1200E+02
     -8.841 -0.4297E-03  0.1200E+02
     -8.675 -0.2199E+00  0.1196E+02
     -8.510  0.5349E+01  0.1285E+02
     -8.344  0.6690E+01  0.1396E+02
     -8.178  0.2771E+00  0.1400E+02
     -8.013 -0.1943E-01  0.1400E+02
     -7.847 -0.2585E-04  0.1400E+02
     -7.682 -0.1438E-09  0.1400E+02
     -7.516 -0.3678E-17  0.1400E+02
     -7.350  0.0000E+00  0.1400E+02
     -7.185  0.0000E+00  0.1400E+02
     -7.019  0.0000E+00  0.1400E+02
     -6.853  0.0000E+00  0.1400E+02
     -6.688  0.0000E+00  0.1400E+02
     -6.522  0.0000E+00  0.1400E+02
     -6.357  0.0000E+00  0.1400E+02
     -6.191  0.0000E+00  0.1400E+02
     -6.025  0.0000E+00  0.1400E+02
     -5.860  0.0000E+00  0.1400E+02
     -5.694  0.0000E+00  0.1400E+02
     -5.528  0.0000E+00  0.1400E+02
     -5.363  0.0000E+00  0.1400E+02
     -5.197  0.0000E+00  0.1400E+02
     -5.032  0.0000E+00  0.1400E+02
     -4.866  0.0000E+00  0.1400E+02
     -4.700  0.0000E+00  0.1400E+02
     -4.535  0.0000E+00  0.1400E+02
     -4.369  0.0000E+00  0.1400E+02
     -4.203  0.0000E+00  0.1400E+02
     -4.038  0.0000E+00  0.1400E+02
     -3.872  0.0000E+00  0.1400E+02
     -3.707  0.0000E+00  0.1400E+02
     -3.541  0.0000E+00  0.1400E+02
     -3.375  0.0000E+00  0.1400E+02
     -3.210  0.0000E+00  0.1400E+02
     -3.044  0.0000E+00  0.1400E+02
     -2.878  0.0000E+00  0.1400E+02
     -2.713  0.0000E+00  0.1400E+02
     -2.547  0.0000E+00  0.1400E+02
     -2.382  0.0000E+00  0.1400E+02
     -2.216  0.0000E+00  0.1400E+02
     -2.050  0.0000E+00  0.1400E+02
     -1.885  0.0000E+00  0.1400E+02
     -1.719  0.0000E+00  0.1400E+02
     -1.553  0.0000E+00  0.1400E+02
     -1.388  0.0000E+00  0.1400E+02
     -1.222  0.0000E+00  0.1400E+02
     -1.057 -0.2010E-31  0.1400E+02
     -0.891 -0.2091E-20  0.1400E+02
     -0.725 -0.8328E-12  0.1400E+02
     -0.560 -0.1304E-05  0.1400E+02
     -0.394 -0.7792E-02  0.1400E+02
     -0.228  0.1483E-01  0.1400E+02
     -0.063  0.5617E+01  0.1493E+02
      0.103  0.3648E+01  0.1554E+02
      0.268  0.8675E+00  0.1568E+02
      0.434  0.8195E+00  0.1582E+02
      0.600  0.4424E+00  0.1589E+02
      0.765  0.1347E+01  0.1611E+02
      0.931  0.2630E+01  0.1655E+02
      1.097  0.1551E+01  0.1680E+02
      1.262  0.1931E+01  0.1712E+02
      1.428  0.1455E+01  0.1736E+02
      1.593  0.1443E+01  0.1760E+02
      1.759  0.1125E+01  0.1779E+02
      1.925  0.7919E+00  0.1792E+02
      2.090  0.3912E+00  0.1799E+02
      2.256  0.8876E-01  0.1800E+02
      2.422 -0.4556E-02  0.1800E+02
      2.587  0.1227E-01  0.1800E+02
      2.753  0.4978E-02  0.1800E+02
      2.918 -0.1733E-03  0.1800E+02
      3.084 -0.2733E-05  0.1800E+02
      3.250 -0.3031E-02  0.1800E+02
      3.415  0.7471E-01  0.1801E+02
      3.581  0.7624E-01  0.1803E+02
      3.747  0.8744E-01  0.1804E+02
      3.912 -0.6656E-02  0.1804E+02
      4.078  0.8582E-01  0.1805E+02
      4.243  0.1222E+00  0.1808E+02
      4.409  0.3512E+00  0.1813E+02
      4.575  0.1792E+00  0.1816E+02
      4.740 -0.7457E-02  0.1816E+02
      4.906  0.5825E+00  0.1826E+02
      5.072  0.6531E+00  0.1837E+02
      5.237  0.6151E+00  0.1847E+02
      5.403  0.1294E+01  0.1868E+02
      5.568  0.6300E+00  0.1879E+02
      5.734  0.1732E+01  0.1907E+02
      5.900  0.1554E+01  0.1933E+02
      6.065  0.1611E+01  0.1960E+02
      6.231  0.8184E+00  0.1973E+02
      6.397  0.1610E+01  0.2000E+02
      6.562  0.3367E-01  0.2001E+02
      6.728  0.1701E+00  0.2003E+02
      6.893  0.5857E+00  0.2013E+02
      7.059  0.4266E+00  0.2020E+02
      7.225  0.2349E+01  0.2059E+02
      7.390  0.3096E+01  0.2110E+02
      7.556  0.4096E+00  0.2117E+02
      7.722  0.1599E+01  0.2144E+02
      7.887  0.3623E+00  0.2150E+02
      8.053  0.2167E+01  0.2186E+02
      8.218  0.2917E+01  0.2234E+02
      8.384  0.1893E+01  0.2265E+02
      8.550  0.1079E+01  0.2283E+02
      8.715  0.9915E+00  0.2299E+02
      8.881  0.3857E+01  0.2363E+02
      9.047  0.1155E+01  0.2382E+02
      9.212  0.4551E+00  0.2390E+02
      9.378  0.1475E+01  0.2414E+02
      9.543  0.1175E+01  0.2434E+02
      9.709  0.1451E+01  0.2458E+02
      9.875  0.4139E+01  0.2526E+02
     10.040  0.1111E+01  0.2545E+02
     10.206  0.1689E+01  0.2573E+02
     10.372  0.1471E+01  0.2597E+02
     10.537  0.1116E+01  0.2616E+02
     10.703  0.5629E+00  0.2625E+02
     10.869  0.1810E+01  0.2655E+02
     11.034  0.2256E+01  0.2692E+02
     11.200  0.1408E+01  0.2716E+02
     11.365  0.1124E+01  0.2734E+02
     11.531  0.1521E+01  0.2760E+02
     11.697  0.8988E+00  0.2774E+02
     11.862  0.4154E+00  0.2781E+02
     12.028  0.2165E+00  0.2785E+02
     12.194  0.2424E+00  0.2789E+02
     12.359  0.2214E+00  0.2793E+02
     12.525  0.2548E+00  0.2797E+02
     12.690  0.1261E+00  0.2799E+02
     12.856  0.4653E-01  0.2800E+02
     13.022  0.6825E-02  0.2800E+02
     13.187 -0.3138E-03  0.2800E+02
     13.353  0.1361E-02  0.2800E+02
     13.519  0.1575E-01  0.2800E+02
     13.684 -0.4875E-03  0.2800E+02
     13.850 -0.7126E-05  0.2800E+02
     14.015 -0.1015E-09  0.2800E+02
     14.181 -0.3678E-17  0.2800E+02
     14.347  0.0000E+00  0.2800E+02
     14.512  0.0000E+00  0.2800E+02
     14.678  0.0000E+00  0.2800E+02
     14.844  0.0000E+00  0.2800E+02
     15.009  0.0000E+00  0.2800E+02
     15.175  0.0000E+00  0.2800E+02
     15.340  0.0000E+00  0.2800E+02
     15.506  0.0000E+00  0.2800E+02
     15.672  0.0000E+00  0.2800E+02
