    1    1    1    1
  0.6939272E+02  0.4612570E-09  0.4612570E-09  0.4612570E-09  0.1000000E-15
  1.000000000000000E-004
  CAR 
 Og_FCC                                  
     18    365     28
 
  0.0000000E+00  0.0000000E+00  0.0000000E+00  0.1371742E-02
    1      -31.757553   1.000000
    2      -31.757553   1.000000
    3      -31.757553   1.000000
    4      -31.757553   1.000000
    5      -25.064889   1.000000
    6      -25.064888   1.000000
    7      -25.063264   1.000000
    8      -25.063264   1.000000
    9      -25.063264   1.000000
   10      -25.063264   1.000000
   11      -21.421769   1.000000
   12      -21.421768   1.000000
   13       -8.289676   1.000000
   14       -8.289676   1.000000
   15        2.144102   0.865101
   16        2.144103   0.865100
   17        2.144103   0.865099
   18        2.144103   0.865098
   19        2.561482  -0.000001
   20        2.561485  -0.000001
   21        9.225309   0.000000
   22        9.225309   0.000000
   23        9.225309   0.000000
   24        9.225310   0.000000
   25        9.580305   0.000000
   26        9.580306   0.000000
   27        9.860112   0.000000
   28        9.860114   0.000000
 
  0.1111111E+00 -0.1288453E-16  0.6938894E-17  0.2743484E-02
    1      -31.757538   1.000000
    2      -31.757538   1.000000
    3      -31.757445   1.000000
    4      -31.757444   1.000000
    5      -25.064539   1.000000
    6      -25.064538   1.000000
    7      -25.063301   1.000000
    8      -25.063300   1.000000
    9      -25.062860   1.000000
   10      -25.062860   1.000000
   11      -21.415760   1.000000
   12      -21.415759   1.000000
   13       -8.313980   1.000000
   14       -8.313979   1.000000
   15        1.376803   1.000000
   16        1.376803   1.000000
   17        2.092957   1.025377
   18        2.092957   1.025377
   19        3.410085  -0.000000
   20        3.410086  -0.000000
   21        8.591630   0.000000
   22        8.591630   0.000000
   23        9.325540   0.000000
   24        9.325540   0.000000
   25        9.590111   0.000000
   26        9.590111   0.000000
   27       10.766026   0.000000
   28       10.875346   0.000000
 
  0.2222222E+00  0.1986508E-17  0.1387779E-16  0.2743484E-02
    1      -31.757443   1.000000
    2      -31.757443   1.000000
    3      -31.757048   1.000000
    4      -31.757047   1.000000
    5      -25.064056   1.000000
    6      -25.064056   1.000000
    7      -25.062977   1.000000
    8      -25.062977   1.000000
    9      -25.061822   1.000000
   10      -25.061822   1.000000
   11      -21.400281   1.000000
   12      -21.400280   1.000000
   13       -8.375274   1.000000
   14       -8.375274   1.000000
   15        0.615304   1.000000
   16        0.615305   1.000000
   17        1.969895   1.003508
   18        1.969895   1.003508
   19        4.303854  -0.000000
   20        4.303855  -0.000000
   21        8.209659   0.000000
   22        8.209660   0.000000
   23        9.316942   0.000000
   24        9.316942   0.000000
   25        9.646526   0.000000
   26        9.646568   0.000000
   27       10.370228   0.000000
   28       10.656375   0.000000
 
  0.3333333E+00 -0.2477581E-16  0.1387779E-16  0.2743484E-02
    1      -31.757366   1.000000
    2      -31.757366   1.000000
    3      -31.756664   1.000000
    4      -31.756663   1.000000
    5      -25.064178   1.000000
    6      -25.064177   1.000000
    7      -25.061956   1.000000
    8      -25.061956   1.000000
    9      -25.060648   1.000000
   10      -25.060648   1.000000
   11      -21.382682   1.000000
   12      -21.382681   1.000000
   13       -8.445074   1.000000
   14       -8.445074   1.000000
   15        0.081566   1.000000
   16        0.081566   1.000000
   17        1.839658   1.000003
   18        1.839658   1.000003
   19        4.788534  -0.000000
   20        4.788536  -0.000000
   21        8.485353   0.000000
   22        8.485354   0.000000
   23        9.013399   0.000000
   24        9.013399   0.000000
   25        9.367413   0.000000
   26        9.367413   0.000000
   27        9.924784   0.000000
   28        9.924785   0.000000
 
  0.4444444E+00  0.3973016E-17  0.2775558E-16  0.2743484E-02
    1      -31.757289   1.000000
    2      -31.757289   1.000000
    3      -31.756380   1.000000
    4      -31.756379   1.000000
    5      -25.064335   1.000000
    6      -25.064335   1.000000
    7      -25.061206   1.000000
    8      -25.061205   1.000000
    9      -25.059878   1.000000
   10      -25.059878   1.000000
   11      -21.371028   1.000000
   12      -21.371027   1.000000
   13       -8.490507   1.000000
   14       -8.490506   1.000000
   15       -0.191735   1.000000
   16       -0.191735   1.000000
   17        1.759451   1.000000
   18        1.759451   1.000000
   19        4.909552  -0.000000
   20        4.909553  -0.000000
   21        8.792866   0.000000
   22        8.792866   0.000000
   23        8.838141   0.000000
   24        8.838144   0.000000
   25        9.137825   0.000000
   26        9.137825   0.000000
   27       10.092783   0.000000
   28       10.092783   0.000000
 
  0.0000000E+00  0.1111111E+00 -0.1387779E-16  0.2743484E-02
    1      -31.757538   1.000000
    2      -31.757538   1.000000
    3      -31.757445   1.000000
    4      -31.757444   1.000000
    5      -25.064539   1.000000
    6      -25.064538   1.000000
    7      -25.063301   1.000000
    8      -25.063300   1.000000
    9      -25.062860   1.000000
   10      -25.062860   1.000000
   11      -21.415760   1.000000
   12      -21.415759   1.000000
   13       -8.313980   1.000000
   14       -8.313979   1.000000
   15        1.376803   1.000000
   16        1.376803   1.000000
   17        2.092957   1.025377
   18        2.092958   1.025377
   19        3.410085  -0.000000
   20        3.410086  -0.000000
   21        8.591630   0.000000
   22        8.591630   0.000000
   23        9.325540   0.000000
   24        9.325540   0.000000
   25        9.590111   0.000000
   26        9.590114   0.000000
   27       10.956436   0.000000
   28       11.044503   0.000000
 
  0.1111111E+00  0.1111111E+00 -0.1387779E-16  0.2743484E-02
    1      -31.757504   1.000000
    2      -31.757504   1.000000
    3      -31.757435   1.000000
    4      -31.757435   1.000000
    5      -25.064478   1.000000
    6      -25.064478   1.000000
    7      -25.063067   1.000000
    8      -25.063066   1.000000
    9      -25.062914   1.000000
   10      -25.062914   1.000000
   11      -21.413764   1.000000
   12      -21.413764   1.000000
   13       -8.321880   1.000000
   14       -8.321879   1.000000
   15        1.294511   1.000000
   16        1.294512   1.000000
   17        1.976196   1.004443
   18        1.976196   1.004443
   19        3.630821  -0.000000
   20        3.630822  -0.000000
   21        8.364909   0.000000
   22        8.364909   0.000000
   23        9.330516   0.000000
   24        9.330517   0.000000
   25        9.803517   0.000000
   26        9.803518   0.000000
   27       10.099186   0.000000
   28       10.099193   0.000000
 
  0.2222222E+00  0.1111111E+00  0.0000000E+00  0.2743484E-02
    1      -31.757417   1.000000
    2      -31.757417   1.000000
    3      -31.757133   1.000000
    4      -31.757132   1.000000
    5      -25.064013   1.000000
    6      -25.064013   1.000000
    7      -25.063003   1.000000
    8      -25.063003   1.000000
    9      -25.061971   1.000000
   10      -25.061971   1.000000
   11      -21.401427   1.000000
   12      -21.401426   1.000000
   13       -8.370260   1.000000
   14       -8.370259   1.000000
   15        0.727382   1.000000
   16        0.727382   1.000000
   17        1.827482   1.000001
   18        1.827482   1.000001
   19        4.402544  -0.000000
   20        4.402545  -0.000000
   21        7.956540   0.000000
   22        7.956540   0.000000
   23        9.002202   0.000000
   24        9.002204   0.000000
   25        9.712093   0.000000
   26        9.712094   0.000000
   27       10.273246   0.000000
   28       10.273250   0.000000
 
  0.3333333E+00  0.1111111E+00  0.2775558E-16  0.2743484E-02
    1      -31.757314   1.000000
    2      -31.757314   1.000000
    3      -31.756766   1.000000
    4      -31.756766   1.000000
    5      -25.063857   1.000000
    6      -25.063857   1.000000
    7      -25.062322   1.000000
    8      -25.062321   1.000000
    9      -25.060812   1.000000
   10      -25.060812   1.000000
   11      -21.384537   1.000000
   12      -21.384536   1.000000
   13       -8.436414   1.000000
   14       -8.436413   1.000000
   15        0.204285   1.000000
   16        0.204285   1.000000
   17        1.663028   1.000000
   18        1.663028   1.000000
   19        5.028743   0.000000
   20        5.028745   0.000000
   21        8.030540   0.000000
   22        8.030541   0.000000
   23        8.462441   0.000000
   24        8.462443   0.000000
   25        9.599579   0.000000
   26        9.599579   0.000000
   27       10.885667   0.000000
   28       10.990112   0.000000
 
  0.4444444E+00  0.1111111E+00  0.2775558E-16  0.2743484E-02
    1      -31.757224   1.000000
    2      -31.757224   1.000000
    3      -31.756449   1.000000
    4      -31.756448   1.000000
    5      -25.063972   1.000000
    6      -25.063972   1.000000
    7      -25.061373   1.000000
    8      -25.061373   1.000000
    9      -25.060045   1.000000
   10      -25.060045   1.000000
   11      -21.370870   1.000000
   12      -21.370869   1.000000
   13       -8.489206   1.000000
   14       -8.489206   1.000000
   15       -0.119093   1.000000
   16       -0.119093   1.000000
   17        1.534198   1.000000
   18        1.534199   1.000000
   19        5.269821   0.000000
   20        5.269822   0.000000
   21        7.959619   0.000000
   22        7.959622   0.000000
   23        8.846879   0.000000
   24        8.846879   0.000000
   25        9.414193   0.000000
   26        9.414194   0.000000
   27       10.760807   0.000000
   28       10.762015   0.000000
 
 -0.4444444E+00  0.1111111E+00 -0.5551115E-16  0.2743484E-02
    1      -31.757208   1.000000
    2      -31.757208   1.000000
    3      -31.756368   1.000000
    4      -31.756368   1.000000
    5      -25.064004   1.000000
    6      -25.064004   1.000000
    7      -25.061024   1.000000
    8      -25.061024   1.000000
    9      -25.059911   1.000000
   10      -25.059911   1.000000
   11      -21.367003   1.000000
   12      -21.367002   1.000000
   13       -8.504195   1.000000
   14       -8.504194   1.000000
   15       -0.202172   1.000000
   16       -0.202172   1.000000
   17        1.496225   1.000000
   18        1.496225   1.000000
   19        5.315883   0.000000
   20        5.315884   0.000000
   21        7.900496   0.000000
   22        7.900499   0.000000
   23        9.025633   0.000000
   24        9.025634   0.000000
   25        9.503210   0.000000
   26        9.503211   0.000000
   27       10.875631   0.000000
   28       10.875764   0.000000
 
 -0.3333333E+00  0.1111111E+00 -0.6938894E-16  0.2743484E-02
    1      -31.757244   1.000000
    2      -31.757244   1.000000
    3      -31.756530   1.000000
    4      -31.756529   1.000000
    5      -25.063886   1.000000
    6      -25.063886   1.000000
    7      -25.061639   1.000000
    8      -25.061639   1.000000
    9      -25.060315   1.000000
   10      -25.060314   1.000000
   11      -21.374724   1.000000
   12      -21.374723   1.000000
   13       -8.474402   1.000000
   14       -8.474401   1.000000
   15       -0.038078   1.000000
   16       -0.038077   1.000000
   17        1.568221   1.000000
   18        1.568222   1.000000
   19        5.246172   0.000000
   20        5.246174   0.000000
   21        8.064440   0.000000
   22        8.064443   0.000000
   23        8.779698   0.000000
   24        8.779699   0.000000
   25        9.271155   0.000000
   26        9.271157   0.000000
   27       10.964813   0.000000
   28       11.224785   0.000000
 
 -0.2222222E+00  0.1111111E+00 -0.2081668E-16  0.2743484E-02
    1      -31.757350   1.000000
    2      -31.757349   1.000000
    3      -31.756882   1.000000
    4      -31.756882   1.000000
    5      -25.063712   1.000000
    6      -25.063712   1.000000
    7      -25.062767   1.000000
    8      -25.062767   1.000000
    9      -25.061204   1.000000
   10      -25.061203   1.000000
   11      -21.390389   1.000000
   12      -21.390388   1.000000
   13       -8.413717   1.000000
   14       -8.413716   1.000000
   15        0.352885   1.000000
   16        0.352886   1.000000
   17        1.732230   1.000000
   18        1.732231   1.000000
   19        4.861376  -0.000000
   20        4.861378  -0.000000
   21        8.042016   0.000000
   22        8.042017   0.000000
   23        8.762564   0.000000
   24        8.762566   0.000000
   25        9.540165   0.000000
   26        9.540167   0.000000
   27       10.380664   0.000000
   28       10.381062   0.000000
 
 -0.1111111E+00  0.1111111E+00 -0.2506212E-16  0.2743484E-02
    1      -31.757470   1.000000
    2      -31.757470   1.000000
    3      -31.757229   1.000000
    4      -31.757228   1.000000
    5      -25.064057   1.000000
    6      -25.064057   1.000000
    7      -25.063290   1.000000
    8      -25.063289   1.000000
    9      -25.062252   1.000000
   10      -25.062252   1.000000
   11      -21.406550   1.000000
   12      -21.406549   1.000000
   13       -8.350318   1.000000
   14       -8.350318   1.000000
   15        0.900015   1.000000
   16        0.900015   1.000000
   17        1.939944   1.001000
   18        1.939944   1.001000
   19        4.087611  -0.000000
   20        4.087612  -0.000000
   21        8.193058   0.000000
   22        8.193058   0.000000
   23        9.250731   0.000000
   24        9.250733   0.000000
   25        9.695630   0.000000
   26        9.695635   0.000000
   27       10.274698   0.000000
   28       10.296805   0.000000
 
  0.3851860E-33  0.2222222E+00  0.0000000E+00  0.2743484E-02
    1      -31.757443   1.000000
    2      -31.757443   1.000000
    3      -31.757048   1.000000
    4      -31.757047   1.000000
    5      -25.064057   1.000000
    6      -25.064056   1.000000
    7      -25.062977   1.000000
    8      -25.062977   1.000000
    9      -25.061822   1.000000
   10      -25.061822   1.000000
   11      -21.400281   1.000000
   12      -21.400280   1.000000
   13       -8.375274   1.000000
   14       -8.375274   1.000000
   15        0.615304   1.000000
   16        0.615305   1.000000
   17        1.969895   1.003508
   18        1.969895   1.003508
   19        4.303854  -0.000000
   20        4.303855  -0.000000
   21        8.209660   0.000000
   22        8.209660   0.000000
   23        9.316942   0.000000
   24        9.316942   0.000000
   25        9.646526   0.000000
   26        9.646563   0.000000
   27       10.390840   0.000000
   28       10.790999   0.000000
 
  0.1111111E+00  0.2222222E+00 -0.1387779E-16  0.2743484E-02
    1      -31.757417   1.000000
    2      -31.757417   1.000000
    3      -31.757133   1.000000
    4      -31.757132   1.000000
    5      -25.064013   1.000000
    6      -25.064013   1.000000
    7      -25.063003   1.000000
    8      -25.063003   1.000000
    9      -25.061971   1.000000
   10      -25.061971   1.000000
   11      -21.401427   1.000000
   12      -21.401426   1.000000
   13       -8.370260   1.000000
   14       -8.370259   1.000000
   15        0.727382   1.000000
   16        0.727382   1.000000
   17        1.827482   1.000001
   18        1.827482   1.000001
   19        4.402544  -0.000000
   20        4.402545  -0.000000
   21        7.956540   0.000000
   22        7.956540   0.000000
   23        9.002202   0.000000
   24        9.002204   0.000000
   25        9.712093   0.000000
   26        9.712093   0.000000
   27       10.273243   0.000000
   28       10.273250   0.000000
 
  0.2222222E+00  0.2222222E+00 -0.2775558E-16  0.2743484E-02
    1      -31.757271   1.000000
    2      -31.757271   1.000000
    3      -31.757019   1.000000
    4      -31.757019   1.000000
    5      -25.064003   1.000000
    6      -25.064003   1.000000
    7      -25.062565   1.000000
    8      -25.062565   1.000000
    9      -25.061435   1.000000
   10      -25.061435   1.000000
   11      -21.393177   1.000000
   12      -21.393176   1.000000
   13       -8.401293   1.000000
   14       -8.401293   1.000000
   15        0.541895   1.000000
   16        0.541896   1.000000
   17        1.598170   1.000000
   18        1.598170   1.000000
   19        4.883371  -0.000000
   20        4.883372  -0.000000
   21        7.477048   0.000000
   22        7.477048   0.000000
   23        8.503002   0.000000
   24        8.503004   0.000000
   25        9.857238   0.000000
   26        9.857239   0.000000
   27       10.643866   0.000000
   28       10.643866   0.000000
 
  0.3333333E+00  0.2222222E+00  0.2775558E-16  0.2743484E-02
    1      -31.757164   1.000000
    2      -31.757164   1.000000
    3      -31.756750   1.000000
    4      -31.756750   1.000000
    5      -25.063729   1.000000
    6      -25.063729   1.000000
    7      -25.062290   1.000000
    8      -25.062289   1.000000
    9      -25.060359   1.000000
   10      -25.060359   1.000000
   11      -21.379432   1.000000
   12      -21.379431   1.000000
   13       -8.453578   1.000000
   14       -8.453577   1.000000
   15        0.211681   1.000000
   16        0.211682   1.000000
   17        1.386563   1.000000
   18        1.386563   1.000000
   19        5.403321   0.000000
   20        5.403323   0.000000
   21        7.306569   0.000000
   22        7.306569   0.000000
   23        8.074992   0.000000
   24        8.074995   0.000000
   25       10.105147   0.000000
   26       10.105147   0.000000
   27       11.117915   0.000000
   28       11.117916   0.000000
 
  0.4444444E+00  0.2222222E+00  0.2775558E-16  0.2743484E-02
    1      -31.757061   1.000000
    2      -31.757060   1.000000
    3      -31.756490   1.000000
    4      -31.756490   1.000000
    5      -25.063462   1.000000
    6      -25.063462   1.000000
    7      -25.061697   1.000000
    8      -25.061696   1.000000
    9      -25.059707   1.000000
   10      -25.059707   1.000000
   11      -21.366528   1.000000
   12      -21.366527   1.000000
   13       -8.502078   1.000000
   14       -8.502078   1.000000
   15       -0.043303   1.000000
   16       -0.043303   1.000000
   17        1.168590   1.000000
   18        1.168590   1.000000
   19        5.761618   0.000000
   20        5.761620   0.000000
   21        7.338178   0.000000
   22        7.338180   0.000000
   23        8.215455   0.000000
   24        8.215455   0.000000
   25        9.982245   0.000000
   26        9.982246   0.000000
   27       11.400690   0.000000
   28       11.400695   0.000000
 
 -0.4444444E+00  0.2222222E+00 -0.2775558E-16  0.2743484E-02
    1      -31.757007   1.000000
    2      -31.757007   1.000000
    3      -31.756382   1.000000
    4      -31.756382   1.000000
    5      -25.063331   1.000000
    6      -25.063331   1.000000
    7      -25.060964   1.000000
    8      -25.060963   1.000000
    9      -25.059884   1.000000
   10      -25.059884   1.000000
   11      -21.360583   1.000000
   12      -21.360583   1.000000
   13       -8.524304   1.000000
   14       -8.524303   1.000000
   15       -0.148709   1.000000
   16       -0.148709   1.000000
   17        1.046545   1.000000
   18        1.046545   1.000000
   19        5.982525   0.000000
   20        5.982527   0.000000
   21        7.225177   0.000000
   22        7.225180   0.000000
   23        8.990251   0.000000
   24        8.990251   0.000000
   25        9.856490   0.000000
   26        9.856492   0.000000
   27       10.836789   0.000000
   28       10.836789   0.000000
 
 -0.3333333E+00  0.2222222E+00 -0.1040834E-15  0.2743484E-02
    1      -31.757044   1.000000
    2      -31.757044   1.000000
    3      -31.756453   1.000000
    4      -31.756452   1.000000
    5      -25.063220   1.000000
    6      -25.063220   1.000000
    7      -25.061090   1.000000
    8      -25.061090   1.000000
    9      -25.060315   1.000000
   10      -25.060314   1.000000
   11      -21.364429   1.000000
   12      -21.364428   1.000000
   13       -8.510434   1.000000
   14       -8.510434   1.000000
   15       -0.097662   1.000000
   16       -0.097661   1.000000
   17        1.106462   1.000000
   18        1.106463   1.000000
   19        6.064618   0.000000
   20        6.064619   0.000000
   21        7.276436   0.000000
   22        7.276439   0.000000
   23        8.788801   0.000000
   24        8.788801   0.000000
   25        9.813460   0.000000
   26        9.813462   0.000000
   27       11.197498   0.000000
   28       11.292023   0.000000
 
 -0.2222222E+00  0.2222222E+00 -0.5339127E-16  0.2743484E-02
    1      -31.757178   1.000000
    2      -31.757178   1.000000
    3      -31.756662   1.000000
    4      -31.756662   1.000000
    5      -25.063194   1.000000
    6      -25.063194   1.000000
    7      -25.062266   1.000000
    8      -25.062266   1.000000
    9      -25.060553   1.000000
   10      -25.060552   1.000000
   11      -21.376240   1.000000
   12      -21.376239   1.000000
   13       -8.466994   1.000000
   14       -8.466994   1.000000
   15        0.086483   1.000000
   16        0.086483   1.000000
   17        1.361744   1.000000
   18        1.361744   1.000000
   19        5.660180   0.000000
   20        5.660181   0.000000
   21        7.655316   0.000000
   22        7.655318   0.000000
   23        8.360617   0.000000
   24        8.360619   0.000000
   25        9.704428   0.000000
   26        9.704431   0.000000
   27       10.451981   0.000000
   28       10.451983   0.000000
 
 -0.1111111E+00  0.2222222E+00 -0.2775558E-16  0.2743484E-02
    1      -31.757350   1.000000
    2      -31.757349   1.000000
    3      -31.756882   1.000000
    4      -31.756882   1.000000
    5      -25.063712   1.000000
    6      -25.063712   1.000000
    7      -25.062767   1.000000
    8      -25.062767   1.000000
    9      -25.061204   1.000000
   10      -25.061203   1.000000
   11      -21.390389   1.000000
   12      -21.390388   1.000000
   13       -8.413717   1.000000
   14       -8.413716   1.000000
   15        0.352885   1.000000
   16        0.352886   1.000000
   17        1.732230   1.000000
   18        1.732231   1.000000
   19        4.861376  -0.000000
   20        4.861378  -0.000000
   21        8.042016   0.000000
   22        8.042017   0.000000
   23        8.762564   0.000000
   24        8.762566   0.000000
   25        9.540165   0.000000
   26        9.540167   0.000000
   27       10.380759   0.000000
   28       10.397776   0.000000
 
 -0.3851860E-33  0.3333333E+00 -0.2775558E-16  0.2743484E-02
    1      -31.757366   1.000000
    2      -31.757365   1.000000
    3      -31.756664   1.000000
    4      -31.756663   1.000000
    5      -25.064178   1.000000
    6      -25.064177   1.000000
    7      -25.061956   1.000000
    8      -25.061956   1.000000
    9      -25.060648   1.000000
   10      -25.060648   1.000000
   11      -21.382682   1.000000
   12      -21.382681   1.000000
   13       -8.445074   1.000000
   14       -8.445074   1.000000
   15        0.081566   1.000000
   16        0.081566   1.000000
   17        1.839658   1.000003
   18        1.839658   1.000003
   19        4.788534  -0.000000
   20        4.788536  -0.000000
   21        8.485353   0.000000
   22        8.485354   0.000000
   23        9.013398   0.000000
   24        9.013399   0.000000
   25        9.367413   0.000000
   26        9.367414   0.000000
   27        9.924785   0.000000
   28        9.924786   0.000000
 
  0.1111111E+00  0.3333333E+00 -0.5551115E-16  0.2743484E-02
    1      -31.757314   1.000000
    2      -31.757314   1.000000
    3      -31.756766   1.000000
    4      -31.756766   1.000000
    5      -25.063857   1.000000
    6      -25.063857   1.000000
    7      -25.062322   1.000000
    8      -25.062321   1.000000
    9      -25.060812   1.000000
   10      -25.060812   1.000000
   11      -21.384537   1.000000
   12      -21.384536   1.000000
   13       -8.436414   1.000000
   14       -8.436413   1.000000
   15        0.204285   1.000000
   16        0.204285   1.000000
   17        1.663028   1.000000
   18        1.663028   1.000000
   19        5.028743   0.000000
   20        5.028745   0.000000
   21        8.030540   0.000000
   22        8.030541   0.000000
   23        8.462441   0.000000
   24        8.462443   0.000000
   25        9.599579   0.000000
   26        9.599581   0.000000
   27       10.881614   0.000000
   28       11.058089   0.000000
 
  0.2222222E+00  0.3333333E+00 -0.2775558E-16  0.2743484E-02
    1      -31.757164   1.000000
    2      -31.757164   1.000000
    3      -31.756750   1.000000
    4      -31.756750   1.000000
    5      -25.063729   1.000000
    6      -25.063729   1.000000
    7      -25.062290   1.000000
    8      -25.062289   1.000000
    9      -25.060359   1.000000
   10      -25.060359   1.000000
   11      -21.379432   1.000000
   12      -21.379431   1.000000
   13       -8.453578   1.000000
   14       -8.453577   1.000000
   15        0.211681   1.000000
   16        0.211682   1.000000
   17        1.386563   1.000000
   18        1.386563   1.000000
   19        5.403321   0.000000
   20        5.403323   0.000000
   21        7.306569   0.000000
   22        7.306569   0.000000
   23        8.074992   0.000000
   24        8.074995   0.000000
   25       10.105147   0.000000
   26       10.105147   0.000000
   27       11.117915   0.000000
   28       11.117915   0.000000
 
  0.3333333E+00  0.3333333E+00  0.2775558E-16  0.2743484E-02
    1      -31.757021   1.000000
    2      -31.757021   1.000000
    3      -31.756567   1.000000
    4      -31.756566   1.000000
    5      -25.063815   1.000000
    6      -25.063815   1.000000
    7      -25.062006   1.000000
    8      -25.062006   1.000000
    9      -25.059404   1.000000
   10      -25.059404   1.000000
   11      -21.369725   1.000000
   12      -21.369724   1.000000
   13       -8.488571   1.000000
   14       -8.488571   1.000000
   15        0.063291   1.000000
   16        0.063291   1.000000
   17        1.228013   1.000000
   18        1.228013   1.000000
   19        5.456453   0.000000
   20        5.456456   0.000000
   21        6.876201   0.000000
   22        6.876202   0.000000
   23        8.178399   0.000000
   24        8.178400   0.000000
   25       10.644543   0.000000
   26       10.644544   0.000000
   27       11.704434   0.000000
   28       11.704439   0.000000
 
  0.4444444E+00  0.3333333E+00  0.0000000E+00  0.2743484E-02
    1      -31.756950   1.000000
    2      -31.756950   1.000000
    3      -31.756415   1.000000
    4      -31.756414   1.000000
    5      -25.063569   1.000000
    6      -25.063568   1.000000
    7      -25.061756   1.000000
    8      -25.061756   1.000000
    9      -25.058771   1.000000
   10      -25.058770   1.000000
   11      -21.360040   1.000000
   12      -21.360040   1.000000
   13       -8.524063   1.000000
   14       -8.524063   1.000000
   15       -0.076096   1.000000
   16       -0.076096   1.000000
   17        1.027094   1.000000
   18        1.027094   1.000000
   19        5.557673   0.000000
   20        5.557676   0.000000
   21        6.854973   0.000000
   22        6.854973   0.000000
   23        8.369449   0.000000
   24        8.369449   0.000000
   25       10.834626   0.000000
   26       10.834627   0.000000
   27       12.028841   0.000000
   28       12.028846   0.000000
 
 -0.4444444E+00  0.3333333E+00 -0.7632783E-16  0.2743484E-02
    1      -31.756855   1.000000
    2      -31.756855   1.000000
    3      -31.756343   1.000000
    4      -31.756343   1.000000
    5      -25.063134   1.000000
    6      -25.063134   1.000000
    7      -25.061364   1.000000
    8      -25.061364   1.000000
    9      -25.058987   1.000000
   10      -25.058986   1.000000
   11      -21.354772   1.000000
   12      -21.354771   1.000000
   13       -8.542864   1.000000
   14       -8.542864   1.000000
   15       -0.113413   1.000000
   16       -0.113412   1.000000
   17        0.808499   1.000000
   18        0.808500   1.000000
   19        5.847484   0.000000
   20        5.847487   0.000000
   21        7.102529   0.000000
   22        7.102530   0.000000
   23        8.730284   0.000000
   24        8.730284   0.000000
   25       10.320398   0.000000
   26       10.320398   0.000000
   27       11.335794   0.000000
   28       11.335797   0.000000
 
 -0.3333333E+00  0.3333333E+00 -0.9306181E-16  0.2743484E-02
    1      -31.756873   1.000000
    2      -31.756873   1.000000
    3      -31.756396   1.000000
    4      -31.756395   1.000000
    5      -25.062935   1.000000
    6      -25.062935   1.000000
    7      -25.060802   1.000000
    8      -25.060801   1.000000
    9      -25.059958   1.000000
   10      -25.059958   1.000000
   11      -21.356522   1.000000
   12      -21.356521   1.000000
   13       -8.537209   1.000000
   14       -8.537208   1.000000
   15       -0.104517   1.000000
   16       -0.104517   1.000000
   17        0.799439   1.000000
   18        0.799439   1.000000
   19        6.223405   0.000000
   20        6.223408   0.000000
   21        7.122075   0.000000
   22        7.122077   0.000000
   23        9.309158   0.000000
   24        9.309159   0.000000
   25        9.786660   0.000000
   26        9.786661   0.000000
   27       10.539310   0.000000
   28       10.539322   0.000000
 
 -0.2222222E+00  0.3333333E+00 -0.4857226E-16  0.2743484E-02
    1      -31.757044   1.000000
    2      -31.757044   1.000000
    3      -31.756453   1.000000
    4      -31.756452   1.000000