       N       E                     dE             d eps       ncg     rms          rms(c)
DAV:   1     0.316244523050E+03    0.31624E+03   -0.91583E+03 20744   0.124E+03
DAV:   2     0.432717296851E+01   -0.31192E+03   -0.30154E+03 27652   0.447E+02
DAV:   3    -0.128944740147E+02   -0.17222E+02   -0.17154E+02 24268   0.132E+02
DAV:   4    -0.133969761094E+02   -0.50250E+00   -0.50222E+00 30148   0.282E+01
DAV:   5    -0.134141194240E+02   -0.17143E-01   -0.17142E-01 27448   0.428E+00    0.631E+00
RMM:   6    -0.132454593248E+02    0.16866E+00   -0.94549E-01 22335   0.116E+01    0.209E+00
RMM:   7    -0.132973027967E+02   -0.51843E-01   -0.24547E-01 23287   0.500E+00    0.844E-01
RMM:   8    -0.133094139417E+02   -0.12111E-01   -0.43187E-02 23692   0.279E+00    0.447E-01
RMM:   9    -0.133152585879E+02   -0.58446E-02   -0.73545E-03 26283   0.105E+00    0.277E-01
RMM:  10    -0.133169239293E+02   -0.16653E-02   -0.35714E-03 27228   0.756E-01    0.717E-02
RMM:  11    -0.133170232850E+02   -0.99356E-04   -0.65484E-04 25505   0.329E-01    0.190E-02
RMM:  12    -0.133171033074E+02   -0.80022E-04   -0.22884E-04 24787   0.213E-01    0.110E-02
RMM:  13    -0.133171179245E+02   -0.14617E-04   -0.48668E-05 25980   0.787E-02    0.445E-03
RMM:  14    -0.133171219607E+02   -0.40361E-05   -0.15042E-05 26755   0.493E-02    0.968E-04
RMM:  15    -0.133171232811E+02   -0.13204E-05   -0.39415E-06 28958   0.169E-02    0.122E-03
RMM:  16    -0.133171219969E+02    0.12842E-05   -0.92021E-07 27195   0.103E-02    0.477E-04
RMM:  17    -0.133171217102E+02    0.28674E-06   -0.28229E-07 23041   0.528E-03    0.157E-04
RMM:  18    -0.133171218415E+02   -0.13132E-06   -0.54357E-08 19132   0.339E-03    0.569E-05
RMM:  19    -0.133171219704E+02   -0.12894E-06   -0.27210E-08 15997   0.255E-03    0.586E-05
RMM:  20    -0.133171219693E+02    0.11219E-08   -0.13730E-08 14567   0.195E-03
   1 F= -.13317122E+02 E0= -.13317165E+02  d E =0.128591E-03  mag=     0.0000    -0.0000    -0.0000
