Og_FCC                                  
           1
     4.391258    0.000000    0.000000
     2.195629    3.802941   -0.000000
     2.195629    1.267647    3.585447
   Og
   1
Direct configuration=     1
   0.00000000  0.00000000  0.00000000
