Og_FCC                                  
           1
     4.612570    0.000000    0.000000
     2.306285    3.994603   -0.000000
     2.306285    1.331534    3.766148
   Og
   1
Direct configuration=     1
   0.00000000  0.00000000  0.00000000
