   1   1   0   0
  0.3721384E+02  0.3747484E-09  0.3747484E-09  0.3747484E-09  0.1000000E-15
  1.000000000000000E-004
  CAR 
 Og_FCC                                  
     81.81996314    -24.69766667  301     -4.99190515      1.00000000
    -24.698  0.0000E+00  0.0000E+00
    -24.343  0.0000E+00  0.0000E+00
    -23.988  0.0000E+00  0.0000E+00
    -23.632  0.0000E+00  0.0000E+00
    -23.277  0.0000E+00  0.0000E+00
    -22.922  0.0000E+00  0.0000E+00
    -22.567  0.0000E+00  0.0000E+00
    -22.212  0.0000E+00  0.0000E+00
    -21.857  0.0000E+00  0.0000E+00
    -21.502  0.0000E+00  0.0000E+00
    -21.147  0.0000E+00  0.0000E+00
    -20.792  0.0000E+00  0.0000E+00
    -20.437  0.0000E+00  0.0000E+00
    -20.082  0.0000E+00  0.0000E+00
    -19.727  0.0000E+00  0.3440E+00
    -19.372  0.0000E+00  0.2000E+01
    -19.017  0.0000E+00  0.2000E+01
    -18.662  0.0000E+00  0.2000E+01
    -18.307  0.0000E+00  0.2000E+01
    -17.952  0.0000E+00  0.2000E+01
    -17.596  0.0000E+00  0.2000E+01
    -17.241  0.0000E+00  0.2000E+01
    -16.886  0.0000E+00  0.2000E+01
    -16.531  0.0000E+00  0.2000E+01
    -16.176  0.0000E+00  0.2000E+01
    -15.821  0.0000E+00  0.2000E+01
    -15.466  0.0000E+00  0.2000E+01
    -15.111  0.0000E+00  0.2000E+01
    -14.756  0.0000E+00  0.2000E+01
    -14.401  0.0000E+00  0.2000E+01
    -14.046  0.0000E+00  0.2000E+01
    -13.691  0.0000E+00  0.2000E+01
    -13.336  0.0000E+00  0.2000E+01
    -12.981  0.0000E+00  0.2000E+01
    -12.626  0.0000E+00  0.2000E+01
    -12.271  0.0000E+00  0.2000E+01
    -11.916  0.0000E+00  0.2000E+01
    -11.560  0.0000E+00  0.2000E+01
    -11.205  0.0000E+00  0.2000E+01
    -10.850  0.0000E+00  0.2000E+01
    -10.495  0.0000E+00  0.2000E+01
    -10.140  0.0000E+00  0.2000E+01
     -9.785  0.0000E+00  0.2000E+01
     -9.430  0.0000E+00  0.2000E+01
     -9.075  0.0000E+00  0.2000E+01
     -8.720  0.0000E+00  0.2000E+01
     -8.365  0.0000E+00  0.2000E+01
     -8.010  0.0000E+00  0.2000E+01
     -7.655  0.0000E+00  0.2000E+01
     -7.300  0.0000E+00  0.2000E+01
     -6.945  0.0000E+00  0.2000E+01
     -6.590  0.0000E+00  0.2000E+01
     -6.235  0.6605E-10  0.2222E+01
     -5.880  0.0000E+00  0.3843E+01
     -5.524  0.3820E+00  0.5063E+01
     -5.169  0.0000E+00  0.7790E+01
     -4.814  0.0000E+00  0.8000E+01
     -4.459  0.0000E+00  0.8000E+01
     -4.104  0.0000E+00  0.8000E+01
     -3.749  0.0000E+00  0.8000E+01
     -3.394  0.0000E+00  0.8000E+01
     -3.039  0.0000E+00  0.8000E+01
     -2.684  0.0000E+00  0.8000E+01
     -2.329  0.0000E+00  0.8000E+01
     -1.974  0.0000E+00  0.8000E+01
     -1.619  0.0000E+00  0.8000E+01
     -1.264  0.0000E+00  0.8000E+01
     -0.909  0.0000E+00  0.8000E+01
     -0.554  0.0000E+00  0.8000E+01
     -0.199  0.0000E+00  0.8000E+01
      0.156  0.0000E+00  0.8000E+01
      0.512  0.0000E+00  0.8000E+01
      0.867  0.0000E+00  0.8000E+01
      1.222  0.0000E+00  0.8000E+01
      1.577  0.0000E+00  0.8000E+01
      1.932  0.0000E+00  0.8000E+01
      2.287  0.0000E+00  0.8000E+01
      2.642  0.0000E+00  0.8000E+01
      2.997  0.0000E+00  0.8000E+01
      3.352  0.0000E+00  0.8000E+01
      3.707  0.0000E+00  0.8006E+01
      4.062  0.0000E+00  0.8006E+01
      4.417  0.0000E+00  0.8087E+01
      4.772  0.0000E+00  0.8087E+01
      5.127  0.0000E+00  0.8157E+01
      5.482  0.0000E+00  0.8344E+01
      5.837  0.0000E+00  0.8379E+01
      6.192  0.0000E+00  0.8519E+01
      6.548  0.0000E+00  0.9090E+01
      6.903  0.0000E+00  0.9370E+01
      7.258  0.0000E+00  0.9790E+01
      7.613  0.0000E+00  0.1000E+02
      7.968  0.0000E+00  0.1024E+02
      8.323  0.0000E+00  0.1115E+02
      8.678  0.0000E+00  0.1152E+02
      9.033  0.3941E+00  0.1205E+02
      9.388  0.0000E+00  0.1296E+02
      9.743  0.3941E+00  0.1314E+02
     10.098  0.0000E+00  0.1360E+02
     10.453  0.0000E+00  0.1384E+02
     10.808  0.0000E+00  0.1416E+02
     11.163  0.0000E+00  0.1460E+02
     11.518  0.0000E+00  0.1530E+02
     11.873  0.0000E+00  0.1569E+02
     12.228  0.0000E+00  0.1617E+02
     12.584  0.5255E+00  0.1655E+02
     12.939  0.0000E+00  0.1656E+02
     13.294  0.0000E+00  0.1704E+02
     13.649  0.0000E+00  0.1760E+02
     14.004  0.2046E+00  0.1792E+02
     14.359  0.0000E+00  0.1857E+02
     14.714  0.0000E+00  0.1951E+02
     15.069  0.0000E+00  0.1991E+02
     15.424  0.0000E+00  0.2009E+02
     15.779  0.0000E+00  0.2017E+02
     16.134  0.0000E+00  0.2101E+02
     16.489  0.0000E+00  0.2155E+02
     16.844  0.0000E+00  0.2210E+02
     17.199  0.0000E+00  0.2250E+02
     17.554  0.0000E+00  0.2272E+02
     17.909  0.0000E+00  0.2307E+02
     18.264  0.7883E+00  0.2398E+02
     18.620  0.3875E-05  0.2459E+02
     18.975  0.0000E+00  0.2513E+02
     19.330  0.0000E+00  0.2555E+02
     19.685  0.0000E+00  0.2609E+02
     20.040  0.0000E+00  0.2651E+02
     20.395  0.0000E+00  0.2693E+02
     20.750  0.0000E+00  0.2749E+02
     21.105  0.1971E+00  0.2767E+02
     21.460  0.0000E+00  0.2806E+02
     21.815  0.0000E+00  0.2823E+02
     22.170  0.0000E+00  0.2851E+02
     22.525  0.0000E+00  0.2921E+02
     22.880  0.0000E+00  0.2963E+02
     23.235  0.0000E+00  0.2966E+02
     23.590  0.0000E+00  0.3008E+02
     23.945  0.0000E+00  0.3068E+02
     24.300  0.1971E+00  0.3156E+02
     24.656  0.0000E+00  0.3226E+02
     25.011  0.0000E+00  0.3300E+02
     25.366  0.0000E+00  0.3341E+02
     25.721  0.0000E+00  0.3348E+02
     26.076  0.0000E+00  0.3383E+02
     26.431  0.2173E-08  0.3424E+02
     26.786  0.0000E+00  0.3491E+02
     27.141  0.0000E+00  0.3556E+02
     27.496  0.0000E+00  0.3564E+02
     27.851  0.0000E+00  0.3634E+02
     28.206  0.0000E+00  0.3662E+02
     28.561  0.0000E+00  0.3742E+02
     28.916  0.0000E+00  0.3833E+02
     29.271  0.0000E+00  0.3861E+02
     29.626  0.0000E+00  0.3945E+02
     29.981  0.0000E+00  0.4015E+02
     30.336  0.0000E+00  0.4026E+02
     30.692  0.0000E+00  0.4040E+02
     31.047  0.0000E+00  0.4103E+02
     31.402  0.0000E+00  0.4193E+02
     31.757  0.3302E-03  0.4268E+02
     32.112  0.0000E+00  0.4283E+02
     32.467  0.0000E+00  0.4346E+02
     32.822  0.0000E+00  0.4408E+02
     33.177  0.0000E+00  0.4464E+02
     33.532  0.0000E+00  0.4520E+02
     33.887  0.0000E+00  0.4548E+02
     34.242  0.3941E+00  0.4631E+02
     34.597  0.3941E+00  0.4718E+02
     34.952  0.0000E+00  0.4746E+02
     35.307  0.0000E+00  0.4813E+02
     35.662  0.0000E+00  0.4855E+02
     36.017  0.0000E+00  0.4904E+02
     36.372  0.0000E+00  0.4977E+02
     36.727  0.0000E+00  0.5033E+02
     37.083  0.0000E+00  0.5054E+02
     37.438  0.0000E+00  0.5132E+02
     37.793  0.0000E+00  0.5166E+02
     38.148  0.0000E+00  0.5260E+02
     38.503  0.3058E-04  0.5345E+02
     38.858  0.3731E+00  0.5410E+02
     39.213  0.0000E+00  0.5442E+02
     39.568  0.0000E+00  0.5517E+02
     39.923  0.0000E+00  0.5552E+02
     40.278  0.0000E+00  0.5608E+02
     40.633  0.0000E+00  0.5706E+02
     40.988  0.7672E-12  0.5727E+02
     41.343  0.0000E+00  0.5828E+02
     41.698  0.0000E+00  0.5893E+02
     42.053  0.0000E+00  0.5954E+02
     42.408  0.0000E+00  0.5996E+02
     42.763  0.0000E+00  0.6055E+02
     43.119  0.0000E+00  0.6093E+02
     43.474  0.0000E+00  0.6158E+02
     43.829  0.0000E+00  0.6202E+02
     44.184  0.0000E+00  0.6283E+02
     44.539  0.3941E+00  0.6382E+02
     44.894  0.8302E-10  0.6412E+02
     45.249  0.0000E+00  0.6514E+02
     45.604  0.0000E+00  0.6571E+02
     45.959  0.3941E+00  0.6645E+02
     46.314  0.8954E-02  0.6725E+02
     46.669  0.0000E+00  0.6804E+02
     47.024  0.0000E+00  0.6871E+02
     47.379  0.0000E+00  0.6894E+02
     47.734  0.0000E+00  0.6942E+02
     48.089  0.0000E+00  0.7019E+02
     48.444  0.0000E+00  0.7079E+02
     48.799  0.0000E+00  0.7121E+02
     49.155  0.0000E+00  0.7146E+02
     49.510  0.0000E+00  0.7232E+02
     49.865  0.0000E+00  0.7330E+02
     50.220  0.6762E-14  0.7364E+02
     50.575  0.0000E+00  0.7448E+02
     50.930  0.1711E-03  0.7550E+02
     51.285  0.0000E+00  0.7578E+02
     51.640  0.0000E+00  0.7608E+02
     51.995  0.3215E-08  0.7683E+02
     52.350  0.1425E+00  0.7772E+02
     52.705  0.0000E+00  0.7827E+02
     53.060  0.0000E+00  0.7868E+02
     53.415  0.0000E+00  0.7982E+02
     53.770  0.0000E+00  0.8053E+02
     54.125  0.0000E+00  0.8184E+02
     54.480  0.1353E-01  0.8238E+02
     54.835  0.0000E+00  0.8318E+02
     55.191  0.0000E+00  0.8343E+02
     55.546  0.0000E+00  0.8388E+02
     55.901  0.0000E+00  0.8437E+02
     56.256  0.0000E+00  0.8532E+02
     56.611  0.0000E+00  0.8613E+02
     56.966  0.3941E+00  0.8662E+02
     57.321  0.0000E+00  0.8723E+02
     57.676  0.7869E+00  0.8829E+02
     58.031  0.0000E+00  0.8914E+02
     58.386  0.3941E+00  0.8997E+02
     58.741  0.0000E+00  0.9077E+02
     59.096  0.0000E+00  0.9133E+02
     59.451  0.0000E+00  0.9203E+02
     59.806  0.9886E-01  0.9280E+02
     60.161  0.0000E+00  0.9379E+02
     60.516  0.0000E+00  0.9424E+02
     60.871  0.3941E+00  0.9527E+02
     61.227  0.4804E-12  0.9611E+02
     61.582  0.0000E+00  0.9690E+02
     61.937  0.0000E+00  0.9755E+02
     62.292  0.9990E-10  0.9850E+02
     62.647  0.0000E+00  0.9917E+02
     63.002  0.0000E+00  0.9982E+02
     63.357  0.3941E+00  0.1004E+03
     63.712  0.0000E+00  0.1011E+03
     64.067  0.0000E+00  0.1017E+03
     64.422  0.3941E+00  0.1022E+03
     64.777  0.0000E+00  0.1029E+03
     65.132  0.0000E+00  0.1036E+03
     65.487  0.0000E+00  0.1047E+03
     65.842  0.2801E-11  0.1056E+03
     66.197  0.0000E+00  0.1065E+03
     66.552  0.0000E+00  0.1067E+03
     66.907  0.0000E+00  0.1075E+03
     67.263  0.0000E+00  0.1083E+03
     67.618  0.0000E+00  0.1092E+03
     67.973  0.0000E+00  0.1103E+03
     68.328  0.0000E+00  0.1113E+03
     68.683  0.5944E-01  0.1120E+03
     69.038  0.5083E-13  0.1125E+03
     69.393  0.0000E+00  0.1132E+03
     69.748  0.8182E-01  0.1139E+03
     70.103  0.0000E+00  0.1146E+03
     70.458  0.0000E+00  0.1152E+03
     70.813  0.0000E+00  0.1164E+03
     71.168  0.0000E+00  0.1167E+03
     71.523  0.0000E+00  0.1172E+03
     71.878  0.0000E+00  0.1182E+03
     72.233  0.0000E+00  0.1191E+03
     72.588  0.2690E+00  0.1200E+03
     72.943  0.0000E+00  0.1213E+03
     73.299  0.0000E+00  0.1220E+03
     73.654  0.0000E+00  0.1230E+03
     74.009  0.2266E+00  0.1236E+03
     74.364  0.3941E+00  0.1247E+03
     74.719  0.0000E+00  0.1257E+03
     75.074  0.0000E+00  0.1262E+03
     75.429  0.0000E+00  0.1268E+03
     75.784  0.0000E+00  0.1272E+03
     76.139  0.3940E+00  0.1278E+03
     76.494  0.0000E+00  0.1278E+03
     76.849  0.0000E+00  0.1279E+03
     77.204  0.0000E+00  0.1280E+03
     77.559  0.0000E+00  0.1280E+03
     77.914  0.0000E+00  0.1280E+03
     78.269  0.0000E+00  0.1280E+03
     78.624  0.0000E+00  0.1280E+03
     78.979  0.0000E+00  0.1280E+03
     79.335  0.0000E+00  0.1280E+03
     79.690  0.0000E+00  0.1280E+03
     80.045  0.0000E+00  0.1280E+03
     80.400  0.0000E+00  0.1280E+03
     80.755  0.0000E+00  0.1280E+03
     81.110  0.0000E+00  0.1280E+03
     81.465  0.0000E+00  0.1280E+03
     81.820  0.0000E+00  0.1280E+03
