Og_FCC                                  
           1
     3.747484    0.000000    0.000000
     1.873742    3.245417   -0.000000
     1.873742    1.081806    3.059808
   Ar
   1
Direct configuration=     1
   0.00000000  0.00000000  0.00000000
