   1   1   0   0
  0.3298244E+02  0.3599697E-09  0.3599697E-09  0.3599697E-09  0.1000000E-15
  1.000000000000000E-004
  CAR 
 Og_FCC                                  
     18.41371202    -21.14047951  301     -4.23106263      1.00000000
    -21.140  0.0000E+00  0.0000E+00
    -21.009  0.0000E+00  0.0000E+00
    -20.877  0.0000E+00  0.0000E+00
    -20.745  0.0000E+00  0.0000E+00
    -20.613  0.0000E+00  0.0000E+00
    -20.481  0.0000E+00  0.0000E+00
    -20.349  0.0000E+00  0.0000E+00
    -20.218  0.0000E+00  0.0000E+00
    -20.086  0.0000E+00  0.0000E+00
    -19.954  0.0000E+00  0.0000E+00
    -19.822  0.0000E+00  0.0000E+00
    -19.690  0.0000E+00  0.0000E+00
    -19.558  0.0000E+00  0.0000E+00
    -19.426  0.0000E+00  0.0000E+00
    -19.295  0.2093E-08  0.5831E-02
    -19.163  0.3538E+00  0.3440E+00
    -19.031  0.1255E+01  0.1011E+01
    -18.899  0.0000E+00  0.2000E+01
    -18.767  0.0000E+00  0.2000E+01
    -18.635  0.0000E+00  0.2000E+01
    -18.504  0.0000E+00  0.2000E+01
    -18.372  0.0000E+00  0.2000E+01
    -18.240  0.0000E+00  0.2000E+01
    -18.108  0.0000E+00  0.2000E+01
    -17.976  0.0000E+00  0.2000E+01
    -17.844  0.0000E+00  0.2000E+01
    -17.712  0.0000E+00  0.2000E+01
    -17.581  0.0000E+00  0.2000E+01
    -17.449  0.0000E+00  0.2000E+01
    -17.317  0.0000E+00  0.2000E+01
    -17.185  0.0000E+00  0.2000E+01
    -17.053  0.0000E+00  0.2000E+01
    -16.921  0.0000E+00  0.2000E+01
    -16.790  0.0000E+00  0.2000E+01
    -16.658  0.0000E+00  0.2000E+01
    -16.526  0.0000E+00  0.2000E+01
    -16.394  0.0000E+00  0.2000E+01
    -16.262  0.0000E+00  0.2000E+01
    -16.130  0.0000E+00  0.2000E+01
    -15.998  0.0000E+00  0.2000E+01
    -15.867  0.0000E+00  0.2000E+01
    -15.735  0.0000E+00  0.2000E+01
    -15.603  0.0000E+00  0.2000E+01
    -15.471  0.0000E+00  0.2000E+01
    -15.339  0.0000E+00  0.2000E+01
    -15.207  0.0000E+00  0.2000E+01
    -15.076  0.0000E+00  0.2000E+01
    -14.944  0.0000E+00  0.2000E+01
    -14.812  0.0000E+00  0.2000E+01
    -14.680  0.0000E+00  0.2000E+01
    -14.548  0.0000E+00  0.2000E+01
    -14.416  0.0000E+00  0.2000E+01
    -14.284  0.0000E+00  0.2000E+01
    -14.153  0.0000E+00  0.2000E+01
    -14.021  0.0000E+00  0.2000E+01
    -13.889  0.0000E+00  0.2000E+01
    -13.757  0.0000E+00  0.2000E+01
    -13.625  0.0000E+00  0.2000E+01
    -13.493  0.0000E+00  0.2000E+01
    -13.361  0.0000E+00  0.2000E+01
    -13.230  0.0000E+00  0.2000E+01
    -13.098  0.0000E+00  0.2000E+01
    -12.966  0.0000E+00  0.2000E+01
    -12.834  0.0000E+00  0.2000E+01
    -12.702  0.0000E+00  0.2000E+01
    -12.570  0.0000E+00  0.2000E+01
    -12.439  0.0000E+00  0.2000E+01
    -12.307  0.0000E+00  0.2000E+01
    -12.175  0.0000E+00  0.2000E+01
    -12.043  0.0000E+00  0.2000E+01
    -11.911  0.0000E+00  0.2000E+01
    -11.779  0.0000E+00  0.2000E+01
    -11.647  0.0000E+00  0.2000E+01
    -11.516  0.0000E+00  0.2000E+01
    -11.384  0.0000E+00  0.2000E+01
    -11.252  0.0000E+00  0.2000E+01
    -11.120  0.0000E+00  0.2000E+01
    -10.988  0.0000E+00  0.2000E+01
    -10.856  0.0000E+00  0.2000E+01
    -10.725  0.0000E+00  0.2000E+01
    -10.593  0.0000E+00  0.2000E+01
    -10.461  0.0000E+00  0.2000E+01
    -10.329  0.0000E+00  0.2000E+01
    -10.197  0.0000E+00  0.2000E+01
    -10.065  0.0000E+00  0.2000E+01
     -9.933  0.0000E+00  0.2000E+01
     -9.802  0.0000E+00  0.2000E+01
     -9.670  0.0000E+00  0.2000E+01
     -9.538  0.0000E+00  0.2000E+01
     -9.406  0.0000E+00  0.2000E+01
     -9.274  0.0000E+00  0.2000E+01
     -9.142  0.0000E+00  0.2000E+01
     -9.011  0.0000E+00  0.2000E+01
     -8.879  0.0000E+00  0.2000E+01
     -8.747  0.0000E+00  0.2000E+01
     -8.615  0.0000E+00  0.2000E+01
     -8.483  0.0000E+00  0.2000E+01
     -8.351  0.0000E+00  0.2000E+01
     -8.219  0.0000E+00  0.2000E+01
     -8.088  0.0000E+00  0.2000E+01
     -7.956  0.0000E+00  0.2000E+01
     -7.824  0.0000E+00  0.2000E+01
     -7.692  0.0000E+00  0.2000E+01
     -7.560  0.0000E+00  0.2000E+01
     -7.428  0.0000E+00  0.2000E+01
     -7.297  0.0000E+00  0.2000E+01
     -7.165  0.0000E+00  0.2000E+01
     -7.033  0.0000E+00  0.2000E+01
     -6.901  0.0000E+00  0.2000E+01
     -6.769  0.0000E+00  0.2000E+01
     -6.637  0.0000E+00  0.2000E+01
     -6.505  0.0000E+00  0.2000E+01
     -6.374  0.0000E+00  0.2000E+01
     -6.242  0.0000E+00  0.2000E+01
     -6.110  0.0000E+00  0.2000E+01
     -5.978  0.0000E+00  0.2000E+01
     -5.846  0.0000E+00  0.2187E+01
     -5.714  0.0000E+00  0.2431E+01
     -5.582  0.0000E+00  0.3341E+01
     -5.451  0.1040E-02  0.3621E+01
     -5.319  0.0000E+00  0.3843E+01
     -5.187  0.0000E+00  0.4192E+01
     -5.055  0.0000E+00  0.4752E+01
     -4.923  0.8994E-08  0.4787E+01
     -4.791  0.2534E-14  0.5592E+01
     -4.660  0.0000E+00  0.6548E+01
     -4.528  0.0000E+00  0.7376E+01
     -4.396  0.5307E+00  0.7942E+01
     -4.264  0.0000E+00  0.8000E+01
     -4.132  0.0000E+00  0.8000E+01
     -4.000  0.0000E+00  0.8000E+01
     -3.868  0.0000E+00  0.8000E+01
     -3.737  0.0000E+00  0.8000E+01
     -3.605  0.0000E+00  0.8000E+01
     -3.473  0.0000E+00  0.8000E+01
     -3.341  0.0000E+00  0.8000E+01
     -3.209  0.0000E+00  0.8000E+01
     -3.077  0.0000E+00  0.8000E+01
     -2.946  0.0000E+00  0.8000E+01
     -2.814  0.0000E+00  0.8000E+01
     -2.682  0.0000E+00  0.8000E+01
     -2.550  0.0000E+00  0.8000E+01
     -2.418  0.0000E+00  0.8000E+01
     -2.286  0.0000E+00  0.8000E+01
     -2.154  0.0000E+00  0.8000E+01
     -2.023  0.0000E+00  0.8000E+01
     -1.891  0.0000E+00  0.8000E+01
     -1.759  0.0000E+00  0.8000E+01
     -1.627  0.0000E+00  0.8000E+01
     -1.495  0.0000E+00  0.8000E+01
     -1.363  0.0000E+00  0.8000E+01
     -1.232  0.0000E+00  0.8000E+01
     -1.100  0.0000E+00  0.8000E+01
     -0.968  0.0000E+00  0.8000E+01
     -0.836  0.0000E+00  0.8000E+01
     -0.704  0.0000E+00  0.8000E+01
     -0.572  0.0000E+00  0.8000E+01
     -0.440  0.0000E+00  0.8000E+01
     -0.309  0.0000E+00  0.8000E+01
     -0.177  0.0000E+00  0.8000E+01
     -0.045  0.0000E+00  0.8000E+01
      0.087  0.0000E+00  0.8000E+01
      0.219  0.0000E+00  0.8000E+01
      0.351  0.0000E+00  0.8000E+01
      0.482  0.0000E+00  0.8000E+01
      0.614  0.0000E+00  0.8000E+01
      0.746  0.0000E+00  0.8000E+01
      0.878  0.0000E+00  0.8000E+01
      1.010  0.0000E+00  0.8000E+01
      1.142  0.0000E+00  0.8000E+01
      1.274  0.0000E+00  0.8000E+01
      1.405  0.0000E+00  0.8000E+01
      1.537  0.0000E+00  0.8000E+01
      1.669  0.0000E+00  0.8000E+01
      1.801  0.0000E+00  0.8000E+01
      1.933  0.0000E+00  0.8000E+01
      2.065  0.0000E+00  0.8000E+01
      2.196  0.0000E+00  0.8000E+01
      2.328  0.0000E+00  0.8000E+01
      2.460  0.0000E+00  0.8000E+01
      2.592  0.0000E+00  0.8000E+01
      2.724  0.0000E+00  0.8000E+01
      2.856  0.0000E+00  0.8000E+01
      2.988  0.0000E+00  0.8000E+01
      3.119  0.0000E+00  0.8000E+01
      3.251  0.0000E+00  0.8000E+01
      3.383  0.0000E+00  0.8000E+01
      3.515  0.0000E+00  0.8000E+01
      3.647  0.0000E+00  0.8000E+01
      3.779  0.0000E+00  0.8000E+01
      3.911  0.0000E+00  0.8000E+01
      4.042  0.0000E+00  0.8000E+01
      4.174  0.0000E+00  0.8000E+01
      4.306  0.0000E+00  0.8000E+01
      4.438  0.0000E+00  0.8000E+01
      4.570  0.0000E+00  0.8006E+01
      4.702  0.0000E+00  0.8006E+01
      4.833  0.0000E+00  0.8006E+01
      4.965  0.0000E+00  0.8006E+01
      5.097  0.0000E+00  0.8052E+01
      5.229  0.0000E+00  0.8052E+01
      5.361  0.0000E+00  0.8087E+01
      5.493  0.0000E+00  0.8087E+01
      5.625  0.0000E+00  0.8087E+01
      5.756  0.0000E+00  0.8087E+01
      5.888  0.0000E+00  0.8087E+01
      6.020  0.0000E+00  0.8157E+01
      6.152  0.0000E+00  0.8157E+01
      6.284  0.0000E+00  0.8157E+01
      6.416  0.0000E+00  0.8344E+01
      6.547  0.0000E+00  0.8344E+01
      6.679  0.0000E+00  0.8344E+01
      6.811  0.0000E+00  0.8379E+01
      6.943  0.0000E+00  0.8414E+01
      7.075  0.0000E+00  0.8414E+01
      7.207  0.0000E+00  0.8671E+01
      7.339  0.0000E+00  0.8950E+01
      7.470  0.0000E+00  0.9090E+01
      7.602  0.0000E+00  0.9230E+01
      7.734  0.0000E+00  0.9370E+01
      7.866  0.0000E+00  0.9370E+01
      7.998  0.0000E+00  0.9370E+01
      8.130  0.0000E+00  0.9650E+01
      8.261  0.0000E+00  0.9930E+01
      8.393  0.0000E+00  0.9965E+01
      8.525  0.6229E-06  0.1003E+02
      8.657  0.0000E+00  0.1010E+02
      8.789  0.0000E+00  0.1010E+02
      8.921  0.0000E+00  0.1052E+02
      9.053  0.0000E+00  0.1087E+02
      9.184  0.0000E+00  0.1091E+02
      9.316  0.0000E+00  0.1105E+02
      9.448  0.0000E+00  0.1147E+02
      9.580  0.0000E+00  0.1147E+02
      9.712  0.0000E+00  0.1161E+02
      9.844  0.0000E+00  0.1175E+02
      9.975  0.0000E+00  0.1191E+02
     10.107  0.3535E-15  0.1219E+02
     10.239  0.0000E+00  0.1254E+02
     10.371  0.0000E+00  0.1254E+02
     10.503  0.1061E+01  0.1282E+02
     10.635  0.5438E-03  0.1314E+02
     10.767  0.0000E+00  0.1342E+02
     10.898  0.0000E+00  0.1350E+02
     11.030  0.0000E+00  0.1350E+02
     11.162  0.0000E+00  0.1350E+02
     11.294  0.0000E+00  0.1380E+02
     11.426  0.0000E+00  0.1391E+02
     11.558  0.0000E+00  0.1406E+02
     11.689  0.0000E+00  0.1416E+02
     11.821  0.0000E+00  0.1453E+02
     11.953  0.0000E+00  0.1460E+02
     12.085  0.0000E+00  0.1460E+02
     12.217  0.5307E+00  0.1481E+02
     12.349  0.0000E+00  0.1516E+02
     12.481  0.0000E+00  0.1530E+02
     12.612  0.5307E+00  0.1541E+02
     12.744  0.0000E+00  0.1569E+02
     12.876  0.0000E+00  0.1569E+02
     13.008  0.0000E+00  0.1569E+02
     13.140  0.0000E+00  0.1583E+02
     13.272  0.0000E+00  0.1617E+02
     13.404  0.0000E+00  0.1631E+02
     13.535  0.0000E+00  0.1631E+02
     13.667  0.0000E+00  0.1655E+02
     13.799  0.0000E+00  0.1655E+02
     13.931  0.1366E-03  0.1655E+02
     14.063  0.4188E-01  0.1666E+02
     14.195  0.0000E+00  0.1672E+02
     14.326  0.1202E-06  0.1676E+02
     14.458  0.0000E+00  0.1690E+02
     14.590  0.1061E+01  0.1718E+02
     14.722  0.0000E+00  0.1760E+02
     14.854  0.0000E+00  0.1760E+02
     14.986  0.0000E+00  0.1763E+02
     15.118  0.0000E+00  0.1763E+02
     15.249  0.0000E+00  0.1770E+02
     15.381  0.0000E+00  0.1812E+02
     15.513  0.0000E+00  0.1836E+02
     15.645  0.2036E-02  0.1853E+02
     15.777  0.0000E+00  0.1888E+02
     15.909  0.0000E+00  0.1916E+02
     16.040  0.0000E+00  0.1937E+02
     16.172  0.0000E+00  0.1958E+02
     16.304  0.0000E+00  0.1958E+02
     16.436  0.0000E+00  0.1986E+02
     16.568  0.0000E+00  0.1986E+02
     16.700  0.0000E+00  0.2000E+02
     16.832  0.0000E+00  0.2000E+02
     16.963  0.0000E+00  0.2000E+02
     17.095  0.0000E+00  0.2000E+02
     17.227  0.0000E+00  0.2000E+02
     17.359  0.0000E+00  0.2000E+02
     17.491  0.0000E+00  0.2000E+02
     17.623  0.0000E+00  0.2000E+02
     17.754  0.0000E+00  0.2000E+02
     17.886  0.0000E+00  0.2000E+02
     18.018  0.0000E+00  0.2000E+02
     18.150  0.0000E+00  0.2000E+02
     18.282  0.0000E+00  0.2000E+02
     18.414  0.0000E+00  0.2000E+02
