   1   1   0   0
  0.3298244E+02  0.3599697E-09  0.3599697E-09  0.3599697E-09  0.1000000E-15
  1.000000000000000E-004
  CAR 
 Og_FCC                                  
     18.69589233    -21.15392274  301     -4.25095951      1.00000000
    -21.154  0.0000E+00  0.0000E+00
    -21.021  0.0000E+00  0.0000E+00
    -20.888  0.0000E+00  0.0000E+00
    -20.755  0.0000E+00  0.0000E+00
    -20.623  0.0000E+00  0.0000E+00
    -20.490  0.0000E+00  0.0000E+00
    -20.357  0.0000E+00  0.0000E+00
    -20.224  0.0000E+00  0.0000E+00
    -20.091  0.0000E+00  0.0000E+00
    -19.958  0.0000E+00  0.0000E+00
    -19.826  0.0000E+00  0.0000E+00
    -19.693  0.0000E+00  0.0000E+00
    -19.560  0.0000E+00  0.0000E+00
    -19.427  0.0000E+00  0.0000E+00
    -19.294  0.0000E+00  0.9259E-02
    -19.161  0.0000E+00  0.2500E+00
    -19.029  0.3346E+01  0.1306E+01
    -18.896  0.0000E+00  0.2000E+01
    -18.763  0.0000E+00  0.2000E+01
    -18.630  0.0000E+00  0.2000E+01
    -18.497  0.0000E+00  0.2000E+01
    -18.364  0.0000E+00  0.2000E+01
    -18.232  0.0000E+00  0.2000E+01
    -18.099  0.0000E+00  0.2000E+01
    -17.966  0.0000E+00  0.2000E+01
    -17.833  0.0000E+00  0.2000E+01
    -17.700  0.0000E+00  0.2000E+01
    -17.567  0.0000E+00  0.2000E+01
    -17.435  0.0000E+00  0.2000E+01
    -17.302  0.0000E+00  0.2000E+01
    -17.169  0.0000E+00  0.2000E+01
    -17.036  0.0000E+00  0.2000E+01
    -16.903  0.0000E+00  0.2000E+01
    -16.770  0.0000E+00  0.2000E+01
    -16.638  0.0000E+00  0.2000E+01
    -16.505  0.0000E+00  0.2000E+01
    -16.372  0.0000E+00  0.2000E+01
    -16.239  0.0000E+00  0.2000E+01
    -16.106  0.0000E+00  0.2000E+01
    -15.973  0.0000E+00  0.2000E+01
    -15.841  0.0000E+00  0.2000E+01
    -15.708  0.0000E+00  0.2000E+01
    -15.575  0.0000E+00  0.2000E+01
    -15.442  0.0000E+00  0.2000E+01
    -15.309  0.0000E+00  0.2000E+01
    -15.176  0.0000E+00  0.2000E+01
    -15.044  0.0000E+00  0.2000E+01
    -14.911  0.0000E+00  0.2000E+01
    -14.778  0.0000E+00  0.2000E+01
    -14.645  0.0000E+00  0.2000E+01
    -14.512  0.0000E+00  0.2000E+01
    -14.379  0.0000E+00  0.2000E+01
    -14.247  0.0000E+00  0.2000E+01
    -14.114  0.0000E+00  0.2000E+01
    -13.981  0.0000E+00  0.2000E+01
    -13.848  0.0000E+00  0.2000E+01
    -13.715  0.0000E+00  0.2000E+01
    -13.582  0.0000E+00  0.2000E+01
    -13.450  0.0000E+00  0.2000E+01
    -13.317  0.0000E+00  0.2000E+01
    -13.184  0.0000E+00  0.2000E+01
    -13.051  0.0000E+00  0.2000E+01
    -12.918  0.0000E+00  0.2000E+01
    -12.785  0.0000E+00  0.2000E+01
    -12.653  0.0000E+00  0.2000E+01
    -12.520  0.0000E+00  0.2000E+01
    -12.387  0.0000E+00  0.2000E+01
    -12.254  0.0000E+00  0.2000E+01
    -12.121  0.0000E+00  0.2000E+01
    -11.988  0.0000E+00  0.2000E+01
    -11.856  0.0000E+00  0.2000E+01
    -11.723  0.0000E+00  0.2000E+01
    -11.590  0.0000E+00  0.2000E+01
    -11.457  0.0000E+00  0.2000E+01
    -11.324  0.0000E+00  0.2000E+01
    -11.191  0.0000E+00  0.2000E+01
    -11.059  0.0000E+00  0.2000E+01
    -10.926  0.0000E+00  0.2000E+01
    -10.793  0.0000E+00  0.2000E+01
    -10.660  0.0000E+00  0.2000E+01
    -10.527  0.0000E+00  0.2000E+01
    -10.394  0.0000E+00  0.2000E+01
    -10.262  0.0000E+00  0.2000E+01
    -10.129  0.0000E+00  0.2000E+01
     -9.996  0.0000E+00  0.2000E+01
     -9.863  0.0000E+00  0.2000E+01
     -9.730  0.0000E+00  0.2000E+01
     -9.597  0.0000E+00  0.2000E+01
     -9.465  0.0000E+00  0.2000E+01
     -9.332  0.0000E+00  0.2000E+01
     -9.199  0.0000E+00  0.2000E+01
     -9.066  0.0000E+00  0.2000E+01
     -8.933  0.0000E+00  0.2000E+01
     -8.800  0.0000E+00  0.2000E+01
     -8.668  0.0000E+00  0.2000E+01
     -8.535  0.0000E+00  0.2000E+01
     -8.402  0.0000E+00  0.2000E+01
     -8.269  0.0000E+00  0.2000E+01
     -8.136  0.0000E+00  0.2000E+01
     -8.003  0.0000E+00  0.2000E+01
     -7.871  0.0000E+00  0.2000E+01
     -7.738  0.0000E+00  0.2000E+01
     -7.605  0.0000E+00  0.2000E+01
     -7.472  0.0000E+00  0.2000E+01
     -7.339  0.0000E+00  0.2000E+01
     -7.206  0.0000E+00  0.2000E+01
     -7.074  0.0000E+00  0.2000E+01
     -6.941  0.0000E+00  0.2000E+01
     -6.808  0.0000E+00  0.2000E+01
     -6.675  0.0000E+00  0.2000E+01
     -6.542  0.0000E+00  0.2000E+01
     -6.409  0.0000E+00  0.2000E+01
     -6.277  0.0000E+00  0.2000E+01
     -6.144  0.0000E+00  0.2000E+01
     -6.011  0.0000E+00  0.2037E+01
     -5.878  0.0000E+00  0.2037E+01
     -5.745  0.2784E-01  0.2291E+01
     -5.612  0.1672E+01  0.3361E+01
     -5.480  0.0000E+00  0.3528E+01
     -5.347  0.0000E+00  0.3861E+01
     -5.214  0.1673E+01  0.4194E+01
     -5.081  0.0000E+00  0.4306E+01
     -4.948  0.1271E-08  0.4778E+01
     -4.815  0.6034E-13  0.5546E+01
     -4.683  0.0000E+00  0.6713E+01
     -4.550  0.4197E+00  0.7324E+01
     -4.417  0.0000E+00  0.7907E+01
     -4.284  0.0000E+00  0.8000E+01
     -4.151  0.0000E+00  0.8000E+01
     -4.019  0.0000E+00  0.8000E+01
     -3.886  0.0000E+00  0.8000E+01
     -3.753  0.0000E+00  0.8000E+01
     -3.620  0.0000E+00  0.8000E+01
     -3.487  0.0000E+00  0.8000E+01
     -3.354  0.0000E+00  0.8000E+01
     -3.222  0.0000E+00  0.8000E+01
     -3.089  0.0000E+00  0.8000E+01
     -2.956  0.0000E+00  0.8000E+01
     -2.823  0.0000E+00  0.8000E+01
     -2.690  0.0000E+00  0.8000E+01
     -2.557  0.0000E+00  0.8000E+01
     -2.425  0.0000E+00  0.8000E+01
     -2.292  0.0000E+00  0.8000E+01
     -2.159  0.0000E+00  0.8000E+01
     -2.026  0.0000E+00  0.8000E+01
     -1.893  0.0000E+00  0.8000E+01
     -1.760  0.0000E+00  0.8000E+01
     -1.628  0.0000E+00  0.8000E+01
     -1.495  0.0000E+00  0.8000E+01
     -1.362  0.0000E+00  0.8000E+01
     -1.229  0.0000E+00  0.8000E+01
     -1.096  0.0000E+00  0.8000E+01
     -0.963  0.0000E+00  0.8000E+01
     -0.831  0.0000E+00  0.8000E+01
     -0.698  0.0000E+00  0.8000E+01
     -0.565  0.0000E+00  0.8000E+01
     -0.432  0.0000E+00  0.8000E+01
     -0.299  0.0000E+00  0.8000E+01
     -0.166  0.0000E+00  0.8000E+01
     -0.034  0.0000E+00  0.8000E+01
      0.099  0.0000E+00  0.8000E+01
      0.232  0.0000E+00  0.8000E+01
      0.365  0.0000E+00  0.8000E+01
      0.498  0.0000E+00  0.8000E+01
      0.631  0.0000E+00  0.8000E+01
      0.763  0.0000E+00  0.8000E+01
      0.896  0.0000E+00  0.8000E+01
      1.029  0.0000E+00  0.8000E+01
      1.162  0.0000E+00  0.8000E+01
      1.295  0.0000E+00  0.8000E+01
      1.428  0.0000E+00  0.8000E+01
      1.560  0.0000E+00  0.8000E+01
      1.693  0.0000E+00  0.8000E+01
      1.826  0.0000E+00  0.8000E+01
      1.959  0.0000E+00  0.8000E+01
      2.092  0.0000E+00  0.8000E+01
      2.225  0.0000E+00  0.8000E+01
      2.357  0.0000E+00  0.8000E+01
      2.490  0.0000E+00  0.8000E+01
      2.623  0.0000E+00  0.8000E+01
      2.756  0.0000E+00  0.8000E+01
      2.889  0.0000E+00  0.8000E+01
      3.022  0.0000E+00  0.8000E+01
      3.154  0.0000E+00  0.8000E+01
      3.287  0.0000E+00  0.8000E+01
      3.420  0.0000E+00  0.8000E+01
      3.553  0.0000E+00  0.8000E+01
      3.686  0.0000E+00  0.8000E+01
      3.819  0.0000E+00  0.8000E+01
      3.951  0.0000E+00  0.8000E+01
      4.084  0.0000E+00  0.8000E+01
      4.217  0.0000E+00  0.8000E+01
      4.350  0.0000E+00  0.8000E+01
      4.483  0.0000E+00  0.8009E+01
      4.616  0.0000E+00  0.8009E+01
      4.748  0.0000E+00  0.8009E+01
      4.881  0.0000E+00  0.8009E+01
      5.014  0.0000E+00  0.8009E+01
      5.147  0.0000E+00  0.8009E+01
      5.280  0.0000E+00  0.8083E+01
      5.413  0.0000E+00  0.8083E+01
      5.545  0.0000E+00  0.8139E+01
      5.678  0.0000E+00  0.8139E+01
      5.811  0.0000E+00  0.8139E+01
      5.944  0.0000E+00  0.8139E+01
      6.077  0.0000E+00  0.8139E+01
      6.210  0.0000E+00  0.8139E+01
      6.342  0.0000E+00  0.8250E+01
      6.475  0.0000E+00  0.8250E+01
      6.608  0.0000E+00  0.8250E+01
      6.741  0.0000E+00  0.8324E+01
      6.874  0.0000E+00  0.8574E+01
      7.007  0.0000E+00  0.8630E+01
      7.139  0.0000E+00  0.8630E+01
      7.272  0.0000E+00  0.8667E+01
      7.405  0.0000E+00  0.8889E+01
      7.538  0.0000E+00  0.8889E+01
      7.671  0.1673E+01  0.9222E+01
      7.804  0.0000E+00  0.9667E+01
      7.936  0.0000E+00  0.9667E+01
      8.069  0.0000E+00  0.9667E+01
      8.202  0.0000E+00  0.9667E+01
      8.335  0.0000E+00  0.9806E+01
      8.468  0.0000E+00  0.1003E+02
      8.601  0.0000E+00  0.1003E+02
      8.733  0.0000E+00  0.1025E+02
      8.866  0.6196E-03  0.1031E+02
      8.999  0.8365E+00  0.1075E+02
      9.132  0.0000E+00  0.1075E+02
      9.265  0.0000E+00  0.1097E+02
      9.398  0.0000E+00  0.1119E+02
      9.530  0.2312E-08  0.1142E+02
      9.663  0.0000E+00  0.1164E+02
      9.796  0.1673E+01  0.1186E+02
      9.929  0.0000E+00  0.1194E+02
     10.062  0.0000E+00  0.1231E+02
     10.195  0.0000E+00  0.1231E+02
     10.327  0.0000E+00  0.1247E+02
     10.460  0.0000E+00  0.1269E+02
     10.593  0.4341E-06  0.1269E+02
     10.726  0.0000E+00  0.1310E+02
     10.859  0.0000E+00  0.1360E+02
     10.992  0.0000E+00  0.1360E+02
     11.124  0.0000E+00  0.1379E+02
     11.257  0.0000E+00  0.1379E+02
     11.390  0.0000E+00  0.1379E+02
     11.523  0.0000E+00  0.1396E+02
     11.656  0.0000E+00  0.1396E+02
     11.789  0.1673E+01  0.1458E+02
     11.921  0.0000E+00  0.1458E+02
     12.054  0.0000E+00  0.1458E+02
     12.187  0.0000E+00  0.1475E+02
     12.320  0.0000E+00  0.1497E+02
     12.453  0.1426E+00  0.1532E+02
     12.586  0.0000E+00  0.1542E+02
     12.718  0.7325E+00  0.1551E+02
     12.851  0.0000E+00  0.1586E+02
     12.984  0.0000E+00  0.1586E+02
     13.117  0.0000E+00  0.1586E+02
     13.250  0.0000E+00  0.1586E+02
     13.383  0.0000E+00  0.1586E+02
     13.515  0.0000E+00  0.1608E+02
     13.648  0.0000E+00  0.1645E+02
     13.781  0.0000E+00  0.1656E+02
     13.914  0.0000E+00  0.1656E+02
     14.047  0.0000E+00  0.1681E+02
     14.180  0.0000E+00  0.1703E+02
     14.312  0.3707E+00  0.1708E+02
     14.445  0.0000E+00  0.1708E+02
     14.578  0.0000E+00  0.1723E+02
     14.711  0.0000E+00  0.1723E+02
     14.844  0.0000E+00  0.1745E+02
     14.977  0.0000E+00  0.1745E+02
     15.109  0.0000E+00  0.1790E+02
     15.242  0.0000E+00  0.1806E+02
     15.375  0.0000E+00  0.1851E+02
     15.508  0.0000E+00  0.1851E+02
     15.641  0.0000E+00  0.1851E+02
     15.774  0.0000E+00  0.1861E+02
     15.906  0.0000E+00  0.1883E+02
     16.039  0.0000E+00  0.1906E+02
     16.172  0.0000E+00  0.1906E+02
     16.305  0.8713E+00  0.1943E+02
     16.438  0.0000E+00  0.1966E+02
     16.571  0.0000E+00  0.1967E+02
     16.703  0.0000E+00  0.1989E+02
     16.836  0.0000E+00  0.1989E+02
     16.969  0.0000E+00  0.2000E+02
     17.102  0.0000E+00  0.2000E+02
     17.235  0.0000E+00  0.2000E+02
     17.368  0.0000E+00  0.2000E+02
     17.500  0.0000E+00  0.2000E+02
     17.633  0.0000E+00  0.2000E+02
     17.766  0.0000E+00  0.2000E+02
     17.899  0.0000E+00  0.2000E+02
     18.032  0.0000E+00  0.2000E+02
     18.165  0.0000E+00  0.2000E+02
     18.297  0.0000E+00  0.2000E+02
     18.430  0.0000E+00  0.2000E+02
     18.563  0.0000E+00  0.2000E+02
     18.696  0.0000E+00  0.2000E+02
