       N       E                     dE             d eps       ncg     rms          rms(c)
DAV:   1     0.344644721212E+02    0.34464E+02   -0.23666E+03 13784   0.438E+02
DAV:   2     0.209205015021E+01   -0.32372E+02   -0.30653E+02 18312   0.123E+02
DAV:   3     0.703245815872E+00   -0.13888E+01   -0.13828E+01 17312   0.254E+01
DAV:   4     0.692203810813E+00   -0.11042E-01   -0.11039E-01 17236   0.284E+00
DAV:   5     0.691989362716E+00   -0.21445E-03   -0.21444E-03 16988   0.393E-01    0.663E+00
DAV:   6     0.160512265444E+00   -0.53148E+00   -0.22397E-01 15420   0.360E+00    0.201E+00
DAV:   7     0.112081496216E-01   -0.14930E+00   -0.90453E-02 14288   0.211E+00    0.129E-01
DAV:   8     0.113805456797E-01    0.17240E-03   -0.12142E-03 16248   0.284E-01    0.351E-02
DAV:   9     0.113392201599E-01   -0.41326E-04   -0.18246E-05 15764   0.407E-02    0.165E-02
DAV:  10     0.113184254631E-01   -0.20795E-04   -0.94652E-06 15520   0.279E-02    0.702E-03
DAV:  11     0.113190867579E-01    0.66129E-06   -0.21667E-06 15264   0.132E-02    0.138E-03
DAV:  12     0.113190239585E-01   -0.62799E-07   -0.69069E-08 16784   0.205E-03    0.568E-04
DAV:  13     0.113190095382E-01   -0.14420E-07   -0.10209E-08 15304   0.946E-04    0.214E-04
DAV:  14     0.113189995182E-01   -0.10020E-07   -0.25816E-09 11812   0.450E-04    0.934E-05
DAV:  15     0.113189951724E-01   -0.43458E-08   -0.10150E-09 11012   0.276E-04
   1 F= -.26579259E+00 E0= -.26579259E+00  d E =0.000000E+00  mag=     0.0000     0.0000     0.0000
 imaginary and real dielectric function
