   1   1   0   0
  0.2623385E+02  0.3242103E-09  0.3242103E-09  0.3242103E-09  0.1000000E-15
  1.000000000000000E-004
  CAR 
 Og_FCC                                  
     26.83699630     -7.04462044  301      3.52044411      1.00000000
     -7.045  0.0000E+00  0.0000E+00
     -6.932  0.0000E+00  0.0000E+00
     -6.819  0.0000E+00  0.0000E+00
     -6.706  0.0000E+00  0.0000E+00
     -6.593  0.0000E+00  0.0000E+00
     -6.480  0.0000E+00  0.0000E+00
     -6.367  0.0000E+00  0.0000E+00
     -6.254  0.0000E+00  0.0000E+00
     -6.141  0.0000E+00  0.0000E+00
     -6.028  0.0000E+00  0.0000E+00
     -5.915  0.0000E+00  0.0000E+00
     -5.802  0.0000E+00  0.0000E+00
     -5.689  0.0000E+00  0.0000E+00
     -5.576  0.0000E+00  0.0000E+00
     -5.463  0.0000E+00  0.9259E-02
     -5.351  0.0000E+00  0.9259E-02
     -5.238  0.0000E+00  0.9259E-02
     -5.125  0.0000E+00  0.9259E-02
     -5.012  0.0000E+00  0.9259E-02
     -4.899  0.0000E+00  0.9259E-02
     -4.786  0.0000E+00  0.1204E+00
     -4.673  0.0000E+00  0.1204E+00
     -4.560  0.0000E+00  0.1204E+00
     -4.447  0.0000E+00  0.1204E+00
     -4.334  0.0000E+00  0.1204E+00
     -4.221  0.0000E+00  0.1204E+00
     -4.108  0.3658E-04  0.1204E+00
     -3.995  0.0000E+00  0.1759E+00
     -3.882  0.0000E+00  0.1759E+00
     -3.769  0.0000E+00  0.1759E+00
     -3.656  0.0000E+00  0.1759E+00
     -3.544  0.0000E+00  0.3981E+00
     -3.431  0.0000E+00  0.3981E+00
     -3.318  0.0000E+00  0.3981E+00
     -3.205  0.0000E+00  0.5093E+00
     -3.092  0.0000E+00  0.5093E+00
     -2.979  0.0000E+00  0.5093E+00
     -2.866  0.0000E+00  0.5093E+00
     -2.753  0.0000E+00  0.5648E+00
     -2.640  0.1158E+01  0.6956E+00
     -2.527  0.0000E+00  0.1231E+01
     -2.414  0.0000E+00  0.1231E+01
     -2.301  0.8151E+00  0.1398E+01
     -2.188  0.6559E+00  0.1491E+01
     -2.075  0.0000E+00  0.1491E+01
     -1.962  0.0000E+00  0.1843E+01
     -1.849  0.0000E+00  0.2120E+01
     -1.737  0.1614E+01  0.3617E+01
     -1.624  0.3355E+00  0.4140E+01
     -1.511  0.0000E+00  0.4398E+01
     -1.398  0.0000E+00  0.4398E+01
     -1.285  0.5370E-06  0.4398E+01
     -1.172  0.0000E+00  0.4472E+01
     -1.059  0.0000E+00  0.4806E+01
     -0.946  0.0000E+00  0.4806E+01
     -0.833  0.0000E+00  0.4806E+01
     -0.720  0.0000E+00  0.4806E+01
     -0.607  0.0000E+00  0.4806E+01
     -0.494  0.3935E+01  0.5250E+01
     -0.381  0.0000E+00  0.5250E+01
     -0.268  0.0000E+00  0.5472E+01
     -0.155  0.0000E+00  0.5528E+01
     -0.042  0.0000E+00  0.5750E+01
      0.071  0.0000E+00  0.5750E+01
      0.183  0.0000E+00  0.5806E+01
      0.296  0.0000E+00  0.5880E+01
      0.409  0.0000E+00  0.5880E+01
      0.522  0.0000E+00  0.5880E+01
      0.635  0.0000E+00  0.5991E+01
      0.748  0.0000E+00  0.6065E+01
      0.861  0.0000E+00  0.6065E+01
      0.974  0.0000E+00  0.6074E+01
      1.087  0.0000E+00  0.6296E+01
      1.200  0.1968E+01  0.7185E+01
      1.313  0.1035E-09  0.7574E+01
      1.426  0.0000E+00  0.7870E+01
      1.539  0.0000E+00  0.8333E+01
      1.652  0.0000E+00  0.8796E+01
      1.765  0.0000E+00  0.9130E+01
      1.878  0.0000E+00  0.9648E+01
      1.990  0.0000E+00  0.9815E+01
      2.103  0.0000E+00  0.9815E+01
      2.216  0.0000E+00  0.1013E+02
      2.329  0.0000E+00  0.1080E+02
      2.442  0.0000E+00  0.1091E+02
      2.555  0.0000E+00  0.1091E+02
      2.668  0.0000E+00  0.1091E+02
      2.781  0.1110E-09  0.1091E+02
      2.894  0.0000E+00  0.1119E+02
      3.007  0.0000E+00  0.1170E+02
      3.120  0.1163E-01  0.1193E+02
      3.233  0.4919E+00  0.1199E+02
      3.346  0.0000E+00  0.1199E+02
      3.459  0.0000E+00  0.1199E+02
      3.572  0.4028E-12  0.1200E+02
      3.685  0.0000E+00  0.1206E+02
      3.797  0.0000E+00  0.1206E+02
      3.910  0.0000E+00  0.1206E+02
      4.023  0.0000E+00  0.1206E+02
      4.136  0.0000E+00  0.1206E+02
      4.249  0.0000E+00  0.1206E+02
      4.362  0.0000E+00  0.1206E+02
      4.475  0.0000E+00  0.1206E+02
      4.588  0.0000E+00  0.1206E+02
      4.701  0.0000E+00  0.1206E+02
      4.814  0.0000E+00  0.1206E+02
      4.927  0.0000E+00  0.1206E+02
      5.040  0.0000E+00  0.1217E+02
      5.153  0.0000E+00  0.1217E+02
      5.266  0.0000E+00  0.1217E+02
      5.379  0.0000E+00  0.1217E+02
      5.492  0.0000E+00  0.1217E+02
      5.605  0.0000E+00  0.1218E+02
      5.717  0.0000E+00  0.1218E+02
      5.830  0.3935E+01  0.1262E+02
      5.943  0.0000E+00  0.1262E+02
      6.056  0.0000E+00  0.1262E+02
      6.169  0.0000E+00  0.1262E+02
      6.282  0.0000E+00  0.1262E+02
      6.395  0.0000E+00  0.1273E+02
      6.508  0.0000E+00  0.1273E+02
      6.621  0.0000E+00  0.1295E+02
      6.734  0.6559E+00  0.1314E+02
      6.847  0.0000E+00  0.1314E+02
      6.960  0.0000E+00  0.1321E+02
      7.073  0.0000E+00  0.1321E+02
      7.186  0.0000E+00  0.1321E+02
      7.299  0.0000E+00  0.1321E+02
      7.412  0.0000E+00  0.1321E+02
      7.524  0.0000E+00  0.1321E+02
      7.637  0.9838E+00  0.1332E+02
      7.750  0.0000E+00  0.1332E+02
      7.863  0.0000E+00  0.1332E+02
      7.976  0.0000E+00  0.1338E+02
      8.089  0.0000E+00  0.1360E+02
      8.202  0.0000E+00  0.1360E+02
      8.315  0.0000E+00  0.1360E+02
      8.428  0.0000E+00  0.1360E+02
      8.541  0.0000E+00  0.1360E+02
      8.654  0.0000E+00  0.1360E+02
      8.767  0.0000E+00  0.1360E+02
      8.880  0.1183E-07  0.1360E+02
      8.993  0.0000E+00  0.1368E+02
      9.106  0.0000E+00  0.1368E+02
      9.219  0.0000E+00  0.1368E+02
      9.331  0.0000E+00  0.1390E+02
      9.444  0.0000E+00  0.1390E+02
      9.557  0.0000E+00  0.1390E+02
      9.670  0.0000E+00  0.1390E+02
      9.783  0.0000E+00  0.1390E+02
      9.896  0.0000E+00  0.1390E+02
     10.009  0.0000E+00  0.1390E+02
     10.122  0.0000E+00  0.1390E+02
     10.235  0.0000E+00  0.1401E+02
     10.348  0.0000E+00  0.1423E+02
     10.461  0.0000E+00  0.1436E+02
     10.574  0.0000E+00  0.1436E+02
     10.687  0.0000E+00  0.1436E+02
     10.800  0.0000E+00  0.1436E+02
     10.913  0.0000E+00  0.1436E+02
     11.026  0.0000E+00  0.1436E+02
     11.139  0.0000E+00  0.1436E+02
     11.251  0.0000E+00  0.1442E+02
     11.364  0.0000E+00  0.1442E+02
     11.477  0.0000E+00  0.1442E+02
     11.590  0.0000E+00  0.1447E+02
     11.703  0.0000E+00  0.1492E+02
     11.816  0.0000E+00  0.1499E+02
     11.929  0.1529E-11  0.1499E+02
     12.042  0.0000E+00  0.1510E+02
     12.155  0.0000E+00  0.1521E+02
     12.268  0.0000E+00  0.1521E+02
     12.381  0.0000E+00  0.1521E+02
     12.494  0.0000E+00  0.1532E+02
     12.607  0.0000E+00  0.1532E+02
     12.720  0.0000E+00  0.1549E+02
     12.833  0.0000E+00  0.1549E+02
     12.946  0.0000E+00  0.1549E+02
     13.058  0.0000E+00  0.1549E+02
     13.171  0.0000E+00  0.1549E+02
     13.284  0.0000E+00  0.1577E+02
     13.397  0.0000E+00  0.1577E+02
     13.510  0.0000E+00  0.1577E+02
     13.623  0.0000E+00  0.1577E+02
     13.736  0.0000E+00  0.1584E+02
     13.849  0.0000E+00  0.1584E+02
     13.962  0.0000E+00  0.1585E+02
     14.075  0.0000E+00  0.1585E+02
     14.188  0.0000E+00  0.1596E+02
     14.301  0.0000E+00  0.1619E+02
     14.414  0.0000E+00  0.1619E+02
     14.527  0.0000E+00  0.1619E+02
     14.640  0.0000E+00  0.1619E+02
     14.753  0.0000E+00  0.1619E+02
     14.865  0.0000E+00  0.1619E+02
     14.978  0.0000E+00  0.1630E+02
     15.091  0.0000E+00  0.1630E+02
     15.204  0.0000E+00  0.1630E+02
     15.317  0.0000E+00  0.1637E+02
     15.430  0.0000E+00  0.1681E+02
     15.543  0.0000E+00  0.1687E+02
     15.656  0.0000E+00  0.1687E+02
     15.769  0.0000E+00  0.1731E+02
     15.882  0.0000E+00  0.1731E+02
     15.995  0.0000E+00  0.1731E+02
     16.108  0.0000E+00  0.1737E+02
     16.221  0.0000E+00  0.1737E+02
     16.334  0.0000E+00  0.1737E+02
     16.447  0.0000E+00  0.1737E+02
     16.560  0.0000E+00  0.1737E+02
     16.673  0.0000E+00  0.1737E+02
     16.785  0.0000E+00  0.1748E+02
     16.898  0.0000E+00  0.1770E+02
     17.011  0.0000E+00  0.1770E+02
     17.124  0.0000E+00  0.1770E+02
     17.237  0.0000E+00  0.1770E+02
     17.350  0.0000E+00  0.1776E+02
     17.463  0.0000E+00  0.1778E+02
     17.576  0.2740E-02  0.1789E+02
     17.689  0.0000E+00  0.1794E+02
     17.802  0.0000E+00  0.1794E+02
     17.915  0.0000E+00  0.1806E+02
     18.028  0.0000E+00  0.1806E+02
     18.141  0.0000E+00  0.1806E+02
     18.254  0.0000E+00  0.1806E+02
     18.367  0.0000E+00  0.1806E+02
     18.480  0.0000E+00  0.1806E+02
     18.592  0.9838E+00  0.1831E+02
     18.705  0.0000E+00  0.1836E+02
     18.818  0.0000E+00  0.1858E+02
     18.931  0.0000E+00  0.1858E+02
     19.044  0.0000E+00  0.1881E+02
     19.157  0.0000E+00  0.1881E+02
     19.270  0.1181E-02  0.1881E+02
     19.383  0.0000E+00  0.1892E+02
     19.496  0.0000E+00  0.1914E+02
     19.609  0.0000E+00  0.1914E+02
     19.722  0.2693E+00  0.1917E+02
     19.835  0.0000E+00  0.1936E+02
     19.948  0.0000E+00  0.1942E+02
     20.061  0.0000E+00  0.1942E+02
     20.174  0.0000E+00  0.1942E+02
     20.287  0.0000E+00  0.1942E+02
     20.399  0.0000E+00  0.1947E+02
     20.512  0.0000E+00  0.1958E+02
     20.625  0.0000E+00  0.2008E+02
     20.738  0.0000E+00  0.2031E+02
     20.851  0.0000E+00  0.2031E+02
     20.964  0.0000E+00  0.2038E+02
     21.077  0.0000E+00  0.2060E+02
     21.190  0.0000E+00  0.2071E+02
     21.303  0.7143E-02  0.2094E+02
     21.416  0.0000E+00  0.2105E+02
     21.529  0.0000E+00  0.2116E+02
     21.642  0.0000E+00  0.2116E+02
     21.755  0.1866E-01  0.2116E+02
     21.868  0.0000E+00  0.2145E+02
     21.981  0.3935E+01  0.2195E+02
     22.094  0.0000E+00  0.2203E+02
     22.207  0.0000E+00  0.2203E+02
     22.319  0.0000E+00  0.2214E+02
     22.432  0.0000E+00  0.2219E+02
     22.545  0.0000E+00  0.2219E+02
     22.658  0.0000E+00  0.2219E+02
     22.771  0.0000E+00  0.2231E+02
     22.884  0.0000E+00  0.2258E+02
     22.997  0.0000E+00  0.2281E+02
     23.110  0.0000E+00  0.2281E+02
     23.223  0.0000E+00  0.2292E+02
     23.336  0.0000E+00  0.2352E+02
     23.449  0.0000E+00  0.2352E+02
     23.562  0.0000E+00  0.2352E+02
     23.675  0.0000E+00  0.2353E+02
     23.788  0.0000E+00  0.2353E+02
     23.901  0.0000E+00  0.2364E+02
     24.014  0.0000E+00  0.2364E+02
     24.126  0.0000E+00  0.2364E+02
     24.239  0.0000E+00  0.2364E+02
     24.352  0.0000E+00  0.2364E+02
     24.465  0.0000E+00  0.2365E+02
     24.578  0.0000E+00  0.2365E+02
     24.691  0.0000E+00  0.2376E+02
     24.804  0.0000E+00  0.2383E+02
     24.917  0.0000E+00  0.2394E+02
     25.030  0.0000E+00  0.2394E+02
     25.143  0.0000E+00  0.2394E+02
     25.256  0.0000E+00  0.2394E+02
     25.369  0.0000E+00  0.2400E+02
     25.482  0.0000E+00  0.2400E+02
     25.595  0.0000E+00  0.2400E+02
     25.708  0.0000E+00  0.2400E+02
     25.821  0.0000E+00  0.2400E+02
     25.933  0.0000E+00  0.2400E+02
     26.046  0.0000E+00  0.2400E+02
     26.159  0.0000E+00  0.2400E+02
     26.272  0.0000E+00  0.2400E+02
     26.385  0.0000E+00  0.2400E+02
     26.498  0.0000E+00  0.2400E+02
     26.611  0.0000E+00  0.2400E+02
     26.724  0.0000E+00  0.2400E+02
     26.837  0.0000E+00  0.2400E+02
