    1    1    1    1
  0.2623385E+02  0.3242103E-09  0.3242103E-09  0.3242103E-09  0.1000000E-15
  1.000000000000000E-004
  CAR 
 Og_FCC                                  
     12    216     24
 
  0.0000000E+00  0.0000000E+00  0.0000000E+00  0.4629630E-02
    1       -5.504547   1.000000
    2       -5.504547   1.000000
    3       -1.789765   1.000000
    4       -1.789765   1.000000
    5       -1.789746   1.000000
    6       -1.789746   1.000000
    7        0.882094   1.000000
    8        0.882094   1.000000
    9        1.800367   1.000000
   10        1.800367   1.000000
   11        1.800420   1.000000
   12        1.800420   1.000000
   13       13.929658   0.000000
   14       13.929658   0.000000
   15       18.570714   0.000000
   16       18.570714   0.000000
   17       18.570714   0.000000
   18       18.570714   0.000000
   19       18.570862   0.000000
   20       18.570862   0.000000
   21       23.267317   0.000000
   22       23.267317   0.000000
   23       23.588486   0.000000
   24       23.588639   0.000000
 
  0.1666667E+00  0.0000000E+00  0.0000000E+00  0.4629630E-02
    1       -4.803965   1.000000
    2       -4.803965   1.000000
    3       -1.793811   1.000000
    4       -1.793811   1.000000
    5       -1.684997   1.000000
    6       -1.684997   1.000000
    7        1.033097   1.000000
    8        1.033097   1.000000
    9        1.605146   1.000000
   10        1.605146   1.000000
   11        1.922013   1.000000
   12        1.922013   1.000000
   13       12.063976   0.000000
   14       12.063976   0.000000
   15       17.485137   0.000000
   16       17.485137   0.000000
   17       18.589279   0.000000
   18       18.589279   0.000000
   19       19.272267   0.000000
   20       19.272267   0.000000
   21       19.482990   0.000000
   22       19.482990   0.000000
   23       21.485578   0.000000
   24       21.485578   0.000000
 
  0.3333333E+00  0.2775558E-16 -0.2775558E-16  0.4629630E-02
    1       -3.302936   1.000000
    2       -3.302936   1.000000
    3       -1.860947   1.000000
    4       -1.860947   1.000000
    5       -1.114639   1.000000
    6       -1.114639   1.000000
    7        1.233726   1.000000
    8        1.233726   1.000000
    9        1.726439   1.000000
   10        1.726439   1.000000
   11        2.358619   1.000000
   12        2.358619   1.000000
   13        7.631733   0.000000
   14        7.631733   0.000000
   15       14.089454   0.000000
   16       14.089454   0.000000
   17       16.715153   0.000000
   18       16.715153   0.000000
   19       19.486357   0.000000
   20       19.486357   0.000000
   21       21.304745   0.000000
   22       21.304745   0.000000
   23       22.742670   0.000000
   24       22.742670   0.000000
 
  0.5000000E+00  0.0000000E+00  0.0000000E+00  0.4629630E-02
    1       -2.838308   1.000000
    2       -2.838308   1.000000
    3       -1.921745   1.000000
    4       -1.921745   1.000000
    5        0.136569   1.000000
    6        0.136569   1.000000
    7        1.171407   1.000000
    8        1.171407   1.000000
    9        2.785454   1.000000
   10        2.785454   1.000000
   11        3.225032   1.000000
   12        3.225032   1.000000
   13        3.576594   0.000000
   14        3.576594   0.000000
   15       12.703790   0.000000
   16       12.703790   0.000000
   17       15.526749   0.000000
   18       15.526749   0.000000
   19       19.887111   0.000000
   20       19.887111   0.000000
   21       22.354989   0.000000
   22       22.354989   0.000000
   23       22.846863   0.000000
   24       22.846863   0.000000
 
 -0.3333333E+00 -0.2775558E-16  0.2775558E-16  0.4629630E-02
    1       -3.302936   1.000000
    2       -3.302936   1.000000
    3       -1.860947   1.000000
    4       -1.860947   1.000000
    5       -1.114639   1.000000
    6       -1.114639   1.000000
    7        1.233726   1.000000
    8        1.233726   1.000000
    9        1.726439   1.000000
   10        1.726439   1.000000
   11        2.358619   1.000000
   12        2.358619   1.000000
   13        7.631733   0.000000
   14        7.631733   0.000000
   15       14.089454   0.000000
   16       14.089454   0.000000
   17       16.715153   0.000000
   18       16.715153   0.000000
   19       19.486357   0.000000
   20       19.486357   0.000000
   21       21.304745   0.000000
   22       21.304745   0.000000
   23       22.742670   0.000000
   24       22.742670   0.000000
 
 -0.1666667E+00  0.0000000E+00  0.0000000E+00  0.4629630E-02
    1       -4.803965   1.000000
    2       -4.803965   1.000000
    3       -1.793811   1.000000
    4       -1.793811   1.000000
    5       -1.684997   1.000000
    6       -1.684997   1.000000
    7        1.033097   1.000000
    8        1.033097   1.000000
    9        1.605146   1.000000
   10        1.605146   1.000000
   11        1.922013   1.000000
   12        1.922013   1.000000
   13       12.063976   0.000000
   14       12.063976   0.000000
   15       17.485137   0.000000
   16       17.485137   0.000000
   17       18.589279   0.000000
   18       18.589279   0.000000
   19       19.272267   0.000000
   20       19.272267   0.000000
   21       19.482990   0.000000
   22       19.482990   0.000000
   23       21.485578   0.000000
   24       21.485578   0.000000
 
  0.0000000E+00  0.1666667E+00  0.1387779E-16  0.4629630E-02
    1       -4.803965   1.000000
    2       -4.803965   1.000000
    3       -1.793811   1.000000
    4       -1.793811   1.000000
    5       -1.684997   1.000000
    6       -1.684997   1.000000
    7        1.033097   1.000000
    8        1.033097   1.000000
    9        1.605146   1.000000
   10        1.605146   1.000000
   11        1.922013   1.000000
   12        1.922013   1.000000
   13       12.063976   0.000000
   14       12.063976   0.000000
   15       17.485137   0.000000
   16       17.485137   0.000000
   17       18.589279   0.000000
   18       18.589279   0.000000
   19       19.272267   0.000000
   20       19.272267   0.000000
   21       19.482990   0.000000
   22       19.482990   0.000000
   23       21.485578   0.000000
   24       21.485578   0.000000
 
  0.1666667E+00  0.1666667E+00  0.2775558E-16  0.4629630E-02
    1       -3.595938   1.000000
    2       -3.595938   1.000000
    3       -1.786629   1.000000
    4       -1.786629   1.000000
    5       -1.538653   1.000000
    6       -1.538653   1.000000
    7        1.301300   1.000000
    8        1.301300   1.000000
    9        1.454113   1.000000
   10        1.454113   1.000000
   11        2.264322   1.000000
   12        2.264322   1.000000
   13        9.238542   0.000000
   14        9.238542   0.000000
   15       14.265540   0.000000
   16       14.265540   0.000000
   17       16.871396   0.000000
   18       16.871396   0.000000
   19       19.722708   0.000000
   20       19.722708   0.000000
   21       20.979469   0.000000
   22       20.979469   0.000000
   23       22.892216   0.000000
   24       22.892216   0.000000
 
  0.3333333E+00  0.1666667E+00  0.2775558E-16  0.4629630E-02
    1       -2.543116   1.000000
    2       -2.543116   1.000000
    3       -1.814834   1.000000
    4       -1.814834   1.000000
    5       -0.496897   1.000000
    6       -0.496897   1.000000
    7        1.162832   1.000000
    8        1.162832   1.000000
    9        1.828586   1.000000
   10        1.828586   1.000000
   11        2.922933   1.000000
   12        2.922933   1.000000
   13        5.825337   0.000000
   14        5.825337   0.000000
   15       11.596542   0.000000
   16       11.596542   0.000000
   17       15.344019   0.000000
   18       15.344019   0.000000
   19       20.605455   0.000000
   20       20.605455   0.000000
   21       21.973343   0.000000
   22       21.973343   0.000000
   23       23.234349   0.000000
   24       23.234349   0.000000
 
  0.5000000E+00  0.1666667E+00  0.5551115E-16  0.4629630E-02
    1       -2.543112   1.000000
    2       -2.543112   1.000000
    3       -1.814835   1.000000
    4       -1.814835   1.000000
    5       -0.496883   1.000000
    6       -0.496883   1.000000
    7        1.162830   1.000000
    8        1.162830   1.000000
    9        1.828601   1.000000
   10        1.828601   1.000000
   11        2.923018   1.000000
   12        2.923018   1.000000
   13        5.825228   0.000000
   14        5.825228   0.000000
   15       11.596562   0.000000
   16       11.596562   0.000000
   17       15.344026   0.000000
   18       15.344026   0.000000
   19       20.605420   0.000000
   20       20.605420   0.000000
   21       21.973316   0.000000
   22       21.973316   0.000000
   23       23.234358   0.000000
   24       23.234358   0.000000
 
 -0.3333333E+00  0.1666667E+00 -0.1387779E-16  0.4629630E-02
    1       -3.595904   1.000000
    2       -3.595904   1.000000
    3       -1.786621   1.000000
    4       -1.786621   1.000000
    5       -1.538642   1.000000
    6       -1.538642   1.000000
    7        1.301303   1.000000
    8        1.301303   1.000000
    9        1.454115   1.000000
   10        1.454115   1.000000
   11        2.264310   1.000000
   12        2.264310   1.000000
   13        9.238559   0.000000
   14        9.238559   0.000000
   15       14.265570   0.000000
   16       14.265570   0.000000
   17       16.871460   0.000000
   18       16.871460   0.000000
   19       19.722649   0.000000
   20       19.722649   0.000000
   21       20.979399   0.000000
   22       20.979399   0.000000
   23       22.892114   0.000000
   24       22.892114   0.000000
 
 -0.1666667E+00  0.1666667E+00 -0.1743022E-17  0.4629630E-02
    1       -4.803946   1.000000
    2       -4.803946   1.000000
    3       -1.793796   1.000000
    4       -1.793796   1.000000
    5       -1.685002   1.000000
    6       -1.685002   1.000000
    7        1.033093   1.000000
    8        1.033093   1.000000
    9        1.605155   1.000000
   10        1.605155   1.000000
   11        1.921982   1.000000
   12        1.921982   1.000000
   13       12.064056   0.000000
   14       12.064056   0.000000
   15       17.485237   0.000000
   16       17.485237   0.000000
   17       18.589233   0.000000
   18       18.589233   0.000000
   19       19.272231   0.000000
   20       19.272231   0.000000
   21       19.482974   0.000000
   22       19.482974   0.000000
   23       21.485428   0.000000
   24       21.485428   0.000000
 
  0.0000000E+00  0.3333333E+00  0.2775558E-16  0.4629630E-02
    1       -3.302936   1.000000
    2       -3.302936   1.000000
    3       -1.860947   1.000000
    4       -1.860947   1.000000
    5       -1.114639   1.000000
    6       -1.114639   1.000000
    7        1.233726   1.000000
    8        1.233726   1.000000
    9        1.726439   1.000000
   10        1.726439   1.000000
   11        2.358619   1.000000
   12        2.358619   1.000000
   13        7.631733   0.000000
   14        7.631733   0.000000
   15       14.089454   0.000000
   16       14.089454   0.000000
   17       16.715153   0.000000
   18       16.715153   0.000000
   19       19.486357   0.000000
   20       19.486357   0.000000
   21       21.304745   0.000000
   22       21.304745   0.000000
   23       22.742670   0.000000
   24       22.742670   0.000000
 
  0.1666667E+00  0.3333333E+00  0.1110223E-15  0.4629630E-02
    1       -2.543116   1.000000
    2       -2.543116   1.000000
    3       -1.814834   1.000000
    4       -1.814834   1.000000
    5       -0.496897   1.000000
    6       -0.496897   1.000000
    7        1.162832   1.000000
    8        1.162832   1.000000
    9        1.828586   1.000000
   10        1.828586   1.000000
   11        2.922933   1.000000
   12        2.922933   1.000000
   13        5.825337   0.000000
   14        5.825337   0.000000
   15       11.596542   0.000000
   16       11.596542   0.000000
   17       15.344019   0.000000
   18       15.344019   0.000000
   19       20.605455   0.000000
   20       20.605455   0.000000
   21       21.973343   0.000000
   22       21.973343   0.000000
   23       23.234349   0.000000
   24       23.234349   0.000000
 
  0.3333333E+00  0.3333333E+00  0.1110223E-15  0.4629630E-02
    1       -2.191310   1.000000
    2       -2.191310   1.000000
    3       -1.623581   1.000000
    4       -1.623581   1.000000
    5        0.262489   1.000000
    6        0.262489   1.000000
    7        0.655162   1.000000
    8        0.655162   1.000000
    9        2.128823   1.000000
   10        2.128823   1.000000
   11        2.192472   1.000000
   12        2.192472   1.000000
   13        6.902857   0.000000
   14        6.902857   0.000000
   15        8.883618   0.000000
   16        8.883618   0.000000
   17       15.225720   0.000000
   18       15.225720   0.000000
   19       20.881216   0.000000
   20       20.881216   0.000000
   21       21.756127   0.000000
   22       21.756127   0.000000
   23       23.236246   0.000000
   24       23.236246   0.000000
 
  0.5000000E+00  0.3333333E+00  0.0000000E+00  0.4629630E-02
    1       -2.543087   1.000000
    2       -2.543087   1.000000
    3       -1.814823   1.000000
    4       -1.814823   1.000000
    5       -0.496860   1.000000
    6       -0.496860   1.000000
    7        1.162824   1.000000
    8        1.162824   1.000000
    9        1.828596   1.000000
   10        1.828596   1.000000
   11        2.923010   1.000000
   12        2.923010   1.000000
   13        5.825310   0.000000
   14        5.825310   0.000000
   15       11.596452   0.000000
   16       11.596452   0.000000
   17       15.344042   0.000000
   18       15.344042   0.000000
   19       20.605471   0.000000
   20       20.605471   0.000000
   21       21.973168   0.000000
   22       21.973168   0.000000
   23       23.234176   0.000000
   24       23.234176   0.000000
 
 -0.3333333E+00  0.3333333E+00  0.1039174E-16  0.4629630E-02
    1       -3.302875   1.000000
    2       -3.302875   1.000000
    3       -1.860930   1.000000
    4       -1.860930   1.000000
    5       -1.114638   1.000000
    6       -1.114638   1.000000
    7        1.233716   1.000000
    8        1.233716   1.000000
    9        1.726441   1.000000
   10        1.726441   1.000000
   11        2.358598   1.000000
   12        2.358598   1.000000
   13        7.631841   0.000000
   14        7.631841   0.000000
   15       14.089424   0.000000
   16       14.089424   0.000000
   17       16.715095   0.000000
   18       16.715095   0.000000
   19       19.486308   0.000000
   20       19.486308   0.000000
   21       21.304711   0.000000
   22       21.304711   0.000000
   23       22.742499   0.000000
   24       22.742499   0.000000
 
 -0.1666667E+00  0.3333333E+00  0.2775558E-16  0.4629630E-02
    1       -3.595904   1.000000
    2       -3.595904   1.000000
    3       -1.786621   1.000000
    4       -1.786621   1.000000
    5       -1.538642   1.000000
    6       -1.538642   1.000000
    7        1.301303   1.000000
    8        1.301303   1.000000
    9        1.454115   1.000000
   10        1.454115   1.000000
   11        2.264310   1.000000
   12        2.264310   1.000000
   13        9.238559   0.000000
   14        9.238559   0.000000
   15       14.265570   0.000000
   16       14.265570   0.000000
   17       16.871460   0.000000
   18       16.871460   0.000000
   19       19.722649   0.000000
   20       19.722649   0.000000
   21       20.979399   0.000000
   22       20.979399   0.000000
   23       22.892114   0.000000
   24       22.892114   0.000000
 
  0.0000000E+00  0.5000000E+00 -0.2775558E-16  0.4629630E-02
    1       -2.838308   1.000000
    2       -2.838308   1.000000
    3       -1.921745   1.000000
    4       -1.921745   1.000000
    5        0.136569   1.000000
    6        0.136569   1.000000
    7        1.171407   1.000000
    8        1.171407   1.000000
    9        2.785454   1.000000
   10        2.785454   1.000000
   11        3.225032   1.000000
   12        3.225032   1.000000
   13        3.576594   0.000000
   14        3.576594   0.000000
   15       12.703790   0.000000
   16       12.703790   0.000000
   17       15.526749   0.000000
   18       15.526749   0.000000
   19       19.887111   0.000000
   20       19.887111   0.000000
   21       22.354989   0.000000
   22       22.354989   0.000000
   23       22.846863   0.000000
   24       22.846863   0.000000
 
  0.1666667E+00  0.5000000E+00  0.0000000E+00  0.4629630E-02
    1       -2.543112   1.000000
    2       -2.543112   1.000000
    3       -1.814835   1.000000
    4       -1.814835   1.000000
    5       -0.496883   1.000000
    6       -0.496883   1.000000
    7        1.162830   1.000000
    8        1.162830   1.000000
    9        1.828601   1.000000
   10        1.828601   1.000000
   11        2.923018   1.000000
   12        2.923018   1.000000
   13        5.825228   0.000000
   14        5.825228   0.000000
   15       11.596562   0.000000
   16       11.596562   0.000000
   17       15.344026   0.000000
   18       15.344026   0.000000
   19       20.605420   0.000000
   20       20.605420   0.000000
   21       21.973316   0.000000
   22       21.973316   0.000000
   23       23.234358   0.000000
   24       23.234358   0.000000
 
  0.3333333E+00  0.5000000E+00  0.1110223E-15  0.4629630E-02
    1       -2.543087   1.000000
    2       -2.543087   1.000000
    3       -1.814823   1.000000
    4       -1.814823   1.000000
    5       -0.496860   1.000000
    6       -0.496860   1.000000
    7        1.162824   1.000000
    8        1.162824   1.000000
    9        1.828596   1.000000
   10        1.828596   1.000000
   11        2.923010   1.000000
   12        2.923010   1.000000
   13        5.825310   0.000000
   14        5.825310   0.000000
   15       11.596452   0.000000
   16       11.596452   0.000000
   17       15.344042   0.000000
   18       15.344042   0.000000
   19       20.605471   0.000000
   20       20.605471   0.000000
   21       21.973168   0.000000
   22       21.973168   0.000000
   23       23.234176   0.000000
   24       23.234176   0.000000
 
  0.5000000E+00  0.5000000E+00 -0.5551115E-16  0.4629630E-02
    1       -2.838254   1.000000
    2       -2.838254   1.000000
    3       -1.921730   1.000000
    4       -1.921730   1.000000
    5        0.136602   1.000000
    6        0.136602   1.000000
    7        1.171389   1.000000
    8        1.171389   1.000000
    9        2.785461   1.000000
   10        2.785461   1.000000
   11        3.225083   1.000000
   12        3.225083   1.000000
   13        3.576638   0.000000
   14        3.576638   0.000000
   15       12.703710   0.000000
   16       12.703710   0.000000
   17       15.526668   0.000000
   18       15.526668   0.000000
   19       19.887056   0.000000
   20       19.887056   0.000000
   21       22.354903   0.000000
   22       22.354903   0.000000
   23       22.846640   0.000000
   24       22.846640   0.000000
 
 -0.3333333E+00  0.5000000E+00 -0.4163336E-16  0.4629630E-02
    1       -2.543087   1.000000
    2       -2.543087   1.000000
    3       -1.814823   1.000000
    4       -1.814823   1.000000
    5       -0.496860   1.000000
    6       -0.496860   1.000000
    7        1.162824   1.000000
    8        1.162824   1.000000
    9        1.828596   1.000000
   10        1.828596   1.000000
   11        2.923010   1.000000
   12        2.923010   1.000000
   13        5.825310   0.000000
   14        5.825310   0.000000
   15       11.596452   0.000000
   16       11.596452   0.000000
   17       15.344042   0.000000
   18       15.344042   0.000000
   19       20.605471   0.000000
   20       20.605471   0.000000
   21       21.973168   0.000000
   22       21.973168   0.000000
   23       23.234176   0.000000
   24       23.234176   0.000000
 
 -0.1666667E+00  0.5000000E+00  0.0000000E+00  0.4629630E-02
    1       -2.543112   1.000000
    2       -2.543112   1.000000
    3       -1.814835   1.000000
    4       -1.814835   1.000000
    5       -0.496883   1.000000
    6       -0.496883   1.000000
    7        1.162830   1.000000
    8        1.162830   1.000000
    9        1.828601   1.000000
   10        1.828601   1.000000
   11        2.923018   1.000000
   12        2.923018   1.000000
   13        5.825228   0.000000
   14        5.825228   0.000000
   15       11.596562   0.000000
   16       11.596562   0.000000
   17       15.344026   0.000000
   18       15.344026   0.000000
   19       20.605420   0.000000
   20       20.605420   0.000000
   21       21.973316   0.000000
   22       21.973316   0.000000
   23       23.234358   0.000000
   24       23.234358   0.000000
 
  0.0000000E+00 -0.3333333E+00 -0.2775558E-16  0.4629630E-02
    1       -3.302936   1.000000
    2       -3.302936   1.000000
    3       -1.860947   1.000000
    4       -1.860947   1.000000
    5       -1.114639   1.000000
    6       -1.114639   1.000000
    7        1.233726   1.000000
    8        1.233726   1.000000
    9        1.726439   1.000000
   10        1.726439   1.000000
   11        2.358619   1.000000
   12        2.358619   1.000000
   13        7.631733   0.000000
   14        7.631733   0.000000
   15       14.089454   0.000000
   16       14.089454   0.000000
   17       16.715153   0.000000
   18       16.715153   0.000000
   19       19.486357   0.000000
   20       19.486357   0.000000
   21       21.304745   0.000000
   22       21.304745   0.000000
   23       22.742670   0.000000
   24       22.742670   0.000000
 
  0.1666667E+00 -0.3333333E+00 -0.1387779E-16  0.4629630E-02
    1       -3.595904   1.000000
    2       -3.595904   1.000000
    3       -1.786621   1.000000
    4       -1.786621   1.000000
    5       -1.538642   1.000000
    6       -1.538642   1.000000
    7        1.301303   1.000000
    8        1.301303   1.000000
    9        1.454115   1.000000
   10        1.454115   1.000000
   11        2.264310   1.000000
   12        2.264310   1.000000
   13        9.238559   0.000000
   14        9.238559   0.000000
   15       14.265570   0.000000
   16       14.265570   0.000000
   17       16.871460   0.000000
   18       16.871460   0.000000
   19       19.722649   0.000000
   20       19.722649   0.000000
   21       20.979399   0.000000
   22       20.979399   0.000000
   23       22.892114   0.000000
   24       22.892114   0.000000
 
  0.3333333E+00 -0.3333333E+00 -0.1039174E-16  0.4629630E-02
    1       -3.302875   1.000000
    2       -3.302875   1.000000
    3       -1.860930   1.000000
    4       -1.860930   1.000000
    5       -1.114638   1.000000
    6       -1.114638   1.000000
    7        1.233716   1.000000
    8        1.233716   1.000000
    9        1.726441   1.000000
   10        1.726441   1.000000
   11        2.358598   1.000000
   12        2.358598   1.000000
   13        7.631841   0.000000
   14        7.631841   0.000000
   15       14.089424   0.000000
   16       14.089424   0.000000
   17       16.715095   0.000000
   18       16.715095   0.000000
   19       19.486308   0.000000
   20       19.486308   0.000000
   21       21.304711   0.000000
   22       21.304711   0.000000
   23       22.742499   0.000000
   24       22.742499   0.000000
 
  0.5000000E+00 -0.3333333E+00 -0.2775558E-16  0.4629630E-02
    1       -2.543087   1.000000
    2       -2.543087   1.000000
    3       -1.814823   1.000000
    4       -1.814823   1.000000
    5       -0.496860   1.000000
    6       -0.496860   1.000000
    7        1.162824   1.000000
    8        1.162824   1.000000
    9        1.828596   1.000000
   10        1.828596   1.000000
   11        2.923010   1.000000
   12        2.923010   1.000000
   13        5.825310   0.000000
   14        5.825310   0.000000
   15       11.596452   0.000000
   16       11.596452   0.000000
   17       15.344042   0.000000
   18       15.344042   0.000000
   19       20.605471   0.000000
   20       20.605471   0.000000
   21       21.973168   0.000000
   22       21.973168   0.000000
   23       23.234176   0.000000
   24       23.234176   0.000000
 
 -0.3333333E+00 -0.3333333E+00  0.5551115E-16  0.4629630E-02
    1       -2.191310   1.000000
    2       -2.191310   1.000000
    3       -1.623581   1.000000
    4       -1.623581   1.000000
    5        0.262489   1.000000
    6        0.262489   1.000000
    7        0.655162   1.000000
    8        0.655162   1.000000
    9        2.128823   1.000000
   10        2.128823   1.000000
   11        2.192472   1.000000
   12        2.192472   1.000000
   13        6.902857   0.000000
   14        6.902857   0.000000
   15        8.883618   0.000000
   16        8.883618   0.000000
   17       15.225720   0.000000
   18       15.225720   0.000000
   19       20.881216   0.000000
   20       20.881216   0.000000
   21       21.756127   0.000000
   22       21.756127   0.000000
   23       23.236246   0.000000
   24       23.236246   0.000000
 
 -0.1666667E+00 -0.3333333E+00 -0.2775558E-16  0.4629630E-02
    1       -2.543116   1.000000
    2       -2.543116   1.000000
    3       -1.814834   1.000000
    4       -1.814834   1.000000
    5       -0.496897   1.000000
    6       -0.496897   1.000000
    7        1.162832   1.000000
    8        1.162832   1.000000
    9        1.828586   1.000000
   10        1.828586   1.000000
   11        2.922933   1.000000
   12        2.922933   1.000000
   13        5.825337   0.000000
   14        5.825337   0.000000
   15       11.596542   0.000000
   16       11.596542   0.000000
   17       15.344019   0.000000
   18       15.344019   0.000000
   19       20.605455   0.000000
   20       20.605455   0.000000
   21       21.973343   0.000000
   22       21.973343   0.000000
   23       23.234349   0.000000
   24       23.234349   0.000000
 
  0.0000000E+00 -0.1666667E+00 -0.1387779E-16  0.4629630E-02
    1       -4.803965   1.000000
    2       -4.803965   1.000000
    3       -1.793811   1.000000
    4       -1.793811   1.000000
    5       -1.684997   1.000000
    6       -1.684997   1.000000
    7        1.033097   1.000000
    8        1.033097   1.000000
    9        1.605146   1.000000
   10        1.605146   1.000000
   11        1.922013   1.000000
   12        1.922013   1.000000
   13       12.063976   0.000000
   14       12.063976   0.000000
   15       17.485137   0.000000
   16       17.485137   0.000000
   17       18.589279   0.000000
   18       18.589279   0.000000
   19       19.272267   0.000000
   20       19.272267   0.000000
   21       19.482990   0.000000
   22       19.482990   0.000000
   23       21.485578   0.000000
   24       21.485578   0.000000
 
  0.1666667E+00 -0.1666667E+00  0.1743022E-17  0.4629630E-02
    1       -4.803946   1.000000
    2       -4.803946   1.000000
    3       -1.793796   1.000000
    4       -1.793796   1.000000
    5       -1.685002   1.000000
    6       -1.685002   1.000000
    7        1.033093   1.000000
    8        1.033093   1.000000
    9        1.605155   1.000000
   10        1.605155   1.000000
   11        1.921982   1.000000
   12        1.921982   1.000000
   13       12.064056   0.000000
   14       12.064056   0.000000
   15       17.485237   0.000000
   16       17.485237   0.000000
   17       18.589233   0.000000
   18       18.589233   0.000000
   19       19.272231   0.000000
   20       19.272231   0.000000
   21       19.482974   0.000000
   22       19.482974   0.000000
   23       21.485428   0.000000
   24       21.485428   0.000000
 
  0.3333333E+00 -0.1666667E+00  0.1387779E-16  0.4629630E-02
    1       -3.595904   1.000000
    2       -3.595904   1.000000
    3       -1.786621   1.000000
    4       -1.786621   1.000000
    5       -1.538642   1.000000
    6       -1.538642   1.000000
    7        1.301303   1.000000
    8        1.301303   1.000000
    9        1.454115   1.000000
   10        1.454115   1.000000
   11        2.264310   1.000000
   12        2.264310   1.000000
   13        9.238559   0.000000
   14        9.238559   0.000000
   15       14.265570   0.000000
   16       14.265570   0.000000
   17       16.871460   0.000000
   18       16.871460   0.000000
   19       19.722649   0.000000
   20       19.722649   0.000000
   21       20.979399   0.000000
   22       20.979399   0.000000
   23       22.892114   0.000000
   24       22.892114   0.000000
 
  0.5000000E+00 -0.1666667E+00  0.5551115E-16  0.4629630E-02
    1       -2.543112   1.000000
    2       -2.543112   1.000000
    3       -1.814835   1.000000
    4       -1.814835   1.000000
    5       -0.496883   1.000000
    6       -0.496883   1.000000
    7        1.162830   1.000000
    8        1.162830   1.000000
    9        1.828601   1.000000
   10        1.828601   1.000000
   11        2.923018   1.000000
   12        2.923018   1.000000
   13        5.825228   0.000000
   14        5.825228   0.000000
   15       11.596562   0.000000
   16       11.596562   0.000000
   17       15.344026   0.000000
   18       15.344026   0.000000
   19       20.605420   0.000000
   20       20.605420   0.000000
   21       21.973316   0.000000
   22       21.973316   0.000000
   23       23.234358   0.000000
   24       23.234358   0.000000
 
 -0.3333333E+00 -0.1666667E+00 -0.2775558E-16  0.4629630E-02
    1       -2.543116   1.000000
    2       -2.543116   1.000000
    3       -1.814834   1.000000
    4       -1.814834   1.000000
    5       -0.496897   1.000000
    6       -0.496897   1.000000
    7        1.162832   1.000000
    8        1.162832   1.000000
    9        1.828586   1.000000
   10        1.828586   1.000000
   11        2.922933   1.000000
   12        2.922933   1.000000
   13        5.825337   0.000000
   14        5.825337   0.000000
   15       11.596542   0.000000
   16       11.596542   0.000000
   17       15.344019   0.000000
   18       15.344019   0.000000
   19       20.605455   0.000000
   20       20.605455   0.000000