 vasp.5.4.4.18Apr17-6-g9f103f2a35 (build Nov 03 2018 10:20:46) complex          
  
 executed on             LinuxIFC date 2018.12.22  09:57:53
 running on   64 total cores
 distrk:  each k-point on   16 cores,    4 groups
 distr:  one band on NCORES_PER_BAND=   4 cores,    4 groups


--------------------------------------------------------------------------------------------------------


 INCAR:
 POTCAR:    Cn-PAW, fit to 4c-PBE, JanMewes Oct18 

 ----------------------------------------------------------------------------- 
|                                                                             |
|           W    W    AA    RRRRR   N    N  II  N    N   GGGG   !!!           |
|           W    W   A  A   R    R  NN   N  II  NN   N  G    G  !!!           |
|           W    W  A    A  R    R  N N  N  II  N N  N  G       !!!           |
|           W WW W  AAAAAA  RRRRR   N  N N  II  N  N N  G  GGG   !            |
|           WW  WW  A    A  R   R   N   NN  II  N   NN  G    G                |
|           W    W  A    A  R    R  N    N  II  N    N   GGGG   !!!           |
|                                                                             |
|      You have enabled k-point parallelism (KPAR>1).                         |
|      This developmental code was originally  written by Paul Kent at ORNL,  |
|      and carefully double checked in Vienna.                                |
|      GW as well as linear response parallelism added by Martijn Marsman     |
|      and Georg Kresse.                                                      |
|      Carefully verify results versus KPAR=1.                                |
|      Report problems to Paul Kent and Vienna.                               |
|                                                                             |
 ----------------------------------------------------------------------------- 

 POTCAR:    Cn-PAW, fit to 4c-PBE, JanMewes Oct18 
   VRHFIN =Cn : 10d 2s                                                          
   LEXCH  = PE                                                                  
   EATOM  =  1021.7933 eV,   75.0997 Ry                                         
                                                                                
   TITEL  = Cn-PAW, fit to 4c-PBE, JanMewes Oct18                               
   LULTRA =        F    use ultrasoft PP ?                                      
   IUNSCR =        1    unscreen: 0-lin 1-nonlin 2-no                           
   RPACOR =    1.900    partial core radius                                     
   POMASS =    0.010; ZVAL   =   12.000    mass and valenz                      
   RCORE  =    2.700    outmost cutoff radius                                   
   RWIGS  =    2.800; RWIGS  =    1.482    wigner-seitz radius (au A)           
   ENMAX  =  273.073; ENMIN  =  204.805 eV                                      
   ICORE  =        3    local potential                                         
   LCOR   =        T    correct aug charges                                     
   LPAW   =        T    paw PP                                                  
   EAUG   =  361.025                                                            
   DEXC   =   -0.000                                                            
   RMAX   =    2.790    core radius for proj-oper                               
   RAUG   =    1.300    factor for augmentation sphere                          
   RDEP   =    2.775    radius for radial grids                                 
   RDEPT  =    2.135    core radius for aug-charge                              
   QCUT   =   -4.480; QGAM   =    8.960    optimization parameters              
                                                                                
   Atomic configuration                                                         
   21 entries                                                                   
     n  l   j            E        occ.                                          
     1  0  0.50   -193593.9187   2.0000                                         
     2  0  0.50    -39412.0693   2.0000                                         
     2  1  1.50    -29335.4582   6.0000                                         
     3  0  0.50    -10546.4577   2.0000                                         
     3  1  1.50     -7865.5022   6.0000                                         
     3  2  2.50     -6292.8271  10.0000                                         
     4  0  0.50     -3004.9901   2.0000                                         
     4  1  1.50     -2140.4665   6.0000                                         
     4  2  2.50     -1542.0671  10.0000                                         
     4  3  3.50      -986.2983  14.0000                                         
     5  0  0.50      -773.9725   2.0000                                         
     5  1  1.50      -487.4947   6.0000                                         
     5  2  2.50      -269.9971  10.0000                                         
     5  3  3.50       -71.2530  14.0000                                         
     6  0  0.50      -136.5695   2.0000                                         
     6  1  0.50       -97.1736   2.0000                                         
     6  1  1.50       -52.5109   4.0000                                         
     6  2  2.50        -7.9997  10.0000                                         
     7  0  0.50        -9.4823   2.0000                                         
     7  1  1.50        -2.1674   0.0000                                         
     6  3  3.50        -0.0014   0.0000                                         
   Description                                                                  
     l       E           TYP  RCUT    TYP  RCUT                                 
     2     -7.9996624     23  2.300                                             
     2     40.8174780     23  2.600                                             
     0     -9.4822916     23  1.900                                             
     0     68.0291300     23  2.400                                             
     1     -2.1674081     23  2.500                                             
     1     98.6422385     23  2.300                                             
     3     10.8846608      7  2.700                                             
  local pseudopotential read in
  partial core-charges read in
  partial kinetic energy density read in
  kinetic energy density of atom read in
  atomic valenz-charges read in
  non local Contribution for L=           2  read in
    real space projection operators read in
  non local Contribution for L=           2  read in
    real space projection operators read in
  non local Contribution for L=           0  read in
    real space projection operators read in
  non local Contribution for L=           0  read in
    real space projection operators read in
  non local Contribution for L=           1  read in
    real space projection operators read in
  non local Contribution for L=           1  read in
    real space projection operators read in
    PAW grid and wavefunctions read in
 
   number of l-projection  operators is LMAX  =           6
   number of lm-projection operators is LMMAX =          18
 
  Cn-PAW, fit to 4c-PBE, JanMewes Oct18 :
 energy of atom  1       EATOM=-1021.7933
 kinetic energy error for atom=    0.0874 (will be added to EATOM!!)
 
 
 POSCAR: Cn BCC                                  
  positions in direct lattice
  velocities in cartesian coordinates
 exchange correlation table for  LEXCH =        8
   RHO(1)=    0.500       N(1)  =     2000
   RHO(2)=  100.500       N(2)  =     4000
 


--------------------------------------------------------------------------------------------------------


 ion  position               nearest neighbor table
   1  0.000  0.000  0.000-
 

IMPORTANT INFORMATION: All symmetrisations will be switched off!
NOSYMM: (Re-)initialisation of all symmetry stuff for point group C_1.

 
 
 KPOINTS: k-points                                

Automatic generation of k-mesh.
Space group operators:
 irot       det(A)        alpha          n_x          n_y          n_z        tau_x        tau_y        tau_z
    1     1.000000     0.000001     1.000000     0.000000     0.000000     0.000000     0.000000     0.000000
 
 Subroutine IBZKPT returns following result:
 ===========================================
 
 Found    216 irreducible k-points:
 
 Following reciprocal coordinates:
            Coordinates               Weight
  0.000000  0.000000  0.000000      1.000000
  0.166667  0.000000  0.000000      1.000000
  0.333333  0.000000 -0.000000      1.000000
  0.500000  0.000000  0.000000      1.000000
 -0.333333 -0.000000  0.000000      1.000000
 -0.166667  0.000000  0.000000      1.000000
  0.000000  0.166667  0.000000      1.000000
  0.166667  0.166667  0.000000      1.000000
  0.333333  0.166667  0.000000      1.000000
  0.500000  0.166667  0.000000      1.000000
 -0.333333  0.166667 -0.000000      1.000000
 -0.166667  0.166667 -0.000000      1.000000
  0.000000  0.333333  0.000000      1.000000
  0.166667  0.333333  0.000000      1.000000
  0.333333  0.333333  0.000000      1.000000
  0.500000  0.333333  0.000000      1.000000
 -0.333333  0.333333  0.000000      1.000000
 -0.166667  0.333333  0.000000      1.000000
  0.000000  0.500000 -0.000000      1.000000
  0.166667  0.500000  0.000000      1.000000
  0.333333  0.500000  0.000000      1.000000
  0.500000  0.500000 -0.000000      1.000000
 -0.333333  0.500000 -0.000000      1.000000
 -0.166667  0.500000  0.000000      1.000000
  0.000000 -0.333333 -0.000000      1.000000
  0.166667 -0.333333 -0.000000      1.000000
  0.333333 -0.333333 -0.000000      1.000000
  0.500000 -0.333333 -0.000000      1.000000
 -0.333333 -0.333333  0.000000      1.000000
 -0.166667 -0.333333 -0.000000      1.000000
  0.000000 -0.166667 -0.000000      1.000000
  0.166667 -0.166667  0.000000      1.000000
  0.333333 -0.166667  0.000000      1.000000
  0.500000 -0.166667  0.000000      1.000000
 -0.333333 -0.166667 -0.000000      1.000000
 -0.166667 -0.166667 -0.000000      1.000000
  0.000000  0.000000  0.166667      1.000000
  0.166667  0.000000  0.166667      1.000000
  0.333333  0.000000  0.166667      1.000000
  0.500000  0.000000  0.166667      1.000000
 -0.333333 -0.000000  0.166667      1.000000
 -0.166667  0.000000  0.166667      1.000000
  0.000000  0.166667  0.166667      1.000000
  0.166667  0.166667  0.166667      1.000000
  0.333333  0.166667  0.166667      1.000000
  0.500000  0.166667  0.166667      1.000000
 -0.333333  0.166667  0.166667      1.000000
 -0.166667  0.166667  0.166667      1.000000
  0.000000  0.333333  0.166667      1.000000
  0.166667  0.333333  0.166667      1.000000
  0.333333  0.333333  0.166667      1.000000
  0.500000  0.333333  0.166667      1.000000
 -0.333333  0.333333  0.166667      1.000000
 -0.166667  0.333333  0.166667      1.000000
  0.000000  0.500000  0.166667      1.000000
  0.166667  0.500000  0.166667      1.000000
  0.333333  0.500000  0.166667      1.000000
  0.500000  0.500000  0.166667      1.000000
 -0.333333  0.500000  0.166667      1.000000
 -0.166667  0.500000  0.166667      1.000000
  0.000000 -0.333333  0.166667      1.000000
  0.166667 -0.333333  0.166667      1.000000
  0.333333 -0.333333  0.166667      1.000000
  0.500000 -0.333333  0.166667      1.000000
 -0.333333 -0.333333  0.166667      1.000000
 -0.166667 -0.333333  0.166667      1.000000
  0.000000 -0.166667  0.166667      1.000000
  0.166667 -0.166667  0.166667      1.000000
  0.333333 -0.166667  0.166667      1.000000
  0.500000 -0.166667  0.166667      1.000000
 -0.333333 -0.166667  0.166667      1.000000
 -0.166667 -0.166667  0.166667      1.000000
  0.000000  0.000000  0.333333      1.000000
  0.166667  0.000000  0.333333      1.000000
  0.333333  0.000000  0.333333      1.000000
  0.500000  0.000000  0.333333      1.000000
 -0.333333 -0.000000  0.333333      1.000000
 -0.166667  0.000000  0.333333      1.000000
  0.000000  0.166667  0.333333      1.000000
  0.166667  0.166667  0.333333      1.000000
  0.333333  0.166667  0.333333      1.000000
  0.500000  0.166667  0.333333      1.000000
 -0.333333  0.166667  0.333333      1.000000
 -0.166667  0.166667  0.333333      1.000000
  0.000000  0.333333  0.333333      1.000000
  0.166667  0.333333  0.333333      1.000000
  0.333333  0.333333  0.333333      1.000000
  0.500000  0.333333  0.333333      1.000000
 -0.333333  0.333333  0.333333      1.000000
 -0.166667  0.333333  0.333333      1.000000
  0.000000  0.500000  0.333333      1.000000
  0.166667  0.500000  0.333333      1.000000
  0.333333  0.500000  0.333333      1.000000
  0.500000  0.500000  0.333333      1.000000
 -0.333333  0.500000  0.333333      1.000000
 -0.166667  0.500000  0.333333      1.000000
  0.000000 -0.333333  0.333333      1.000000
  0.166667 -0.333333  0.333333      1.000000
  0.333333 -0.333333  0.333333      1.000000
  0.500000 -0.333333  0.333333      1.000000
 -0.333333 -0.333333  0.333333      1.000000
 -0.166667 -0.333333  0.333333      1.000000
  0.000000 -0.166667  0.333333      1.000000
  0.166667 -0.166667  0.333333      1.000000
  0.333333 -0.166667  0.333333      1.000000
  0.500000 -0.166667  0.333333      1.000000
 -0.333333 -0.166667  0.333333      1.000000
 -0.166667 -0.166667  0.333333      1.000000
  0.000000  0.000000  0.500000      1.000000
  0.166667  0.000000  0.500000      1.000000
  0.333333  0.000000  0.500000      1.000000
  0.500000  0.000000  0.500000      1.000000
 -0.333333 -0.000000  0.500000      1.000000
 -0.166667  0.000000  0.500000      1.000000
  0.000000  0.166667  0.500000      1.000000
  0.166667  0.166667  0.500000      1.000000
  0.333333  0.166667  0.500000      1.000000
  0.500000  0.166667  0.500000      1.000000
 -0.333333  0.166667  0.500000      1.000000
 -0.166667  0.166667  0.500000      1.000000
  0.000000  0.333333  0.500000      1.000000
  0.166667  0.333333  0.500000      1.000000
  0.333333  0.333333  0.500000      1.000000
  0.500000  0.333333  0.500000      1.000000
 -0.333333  0.333333  0.500000      1.000000
 -0.166667  0.333333  0.500000      1.000000
  0.000000  0.500000  0.500000      1.000000
  0.166667  0.500000  0.500000      1.000000
  0.333333  0.500000  0.500000      1.000000
  0.500000  0.500000  0.500000      1.000000
 -0.333333  0.500000  0.500000      1.000000
 -0.166667  0.500000  0.500000      1.000000
  0.000000 -0.333333  0.500000      1.000000
  0.166667 -0.333333  0.500000      1.000000
  0.333333 -0.333333  0.500000      1.000000
  0.500000 -0.333333  0.500000      1.000000
 -0.333333 -0.333333  0.500000      1.000000
 -0.166667 -0.333333  0.500000      1.000000
  0.000000 -0.166667  0.500000      1.000000
  0.166667 -0.166667  0.500000      1.000000
  0.333333 -0.166667  0.500000      1.000000
  0.500000 -0.166667  0.500000      1.000000
 -0.333333 -0.166667  0.500000      1.000000
 -0.166667 -0.166667  0.500000      1.000000
  0.000000  0.000000 -0.333333      1.000000
  0.166667  0.000000 -0.333333      1.000000
  0.333333  0.000000 -0.333333      1.000000
  0.500000  0.000000 -0.333333      1.000000
 -0.333333 -0.000000 -0.333333      1.000000
 -0.166667  0.000000 -0.333333      1.000000
  0.000000  0.166667 -0.333333      1.000000
  0.166667  0.166667 -0.333333      1.000000
  0.333333  0.166667 -0.333333      1.000000
  0.500000  0.166667 -0.333333      1.000000
 -0.333333  0.166667 -0.333333      1.000000
 -0.166667  0.166667 -0.333333      1.000000
  0.000000  0.333333 -0.333333      1.000000
  0.166667  0.333333 -0.333333      1.000000
  0.333333  0.333333 -0.333333      1.000000
  0.500000  0.333333 -0.333333      1.000000
 -0.333333  0.333333 -0.333333      1.000000
 -0.166667  0.333333 -0.333333      1.000000
  0.000000  0.500000 -0.333333      1.000000
  0.166667  0.500000 -0.333333      1.000000
  0.333333  0.500000 -0.333333      1.000000
  0.500000  0.500000 -0.333333      1.000000
 -0.333333  0.500000 -0.333333      1.000000
 -0.166667  0.500000 -0.333333      1.000000
  0.000000 -0.333333 -0.333333      1.000000
  0.166667 -0.333333 -0.333333      1.000000
  0.333333 -0.333333 -0.333333      1.000000
  0.500000 -0.333333 -0.333333      1.000000
 -0.333333 -0.333333 -0.333333      1.000000
 -0.166667 -0.333333 -0.333333      1.000000
  0.000000 -0.166667 -0.333333      1.000000
  0.166667 -0.166667 -0.333333      1.000000
  0.333333 -0.166667 -0.333333      1.000000
  0.500000 -0.166667 -0.333333      1.000000
 -0.333333 -0.166667 -0.333333      1.000000
 -0.166667 -0.166667 -0.333333      1.000000
  0.000000  0.000000 -0.166667      1.000000
  0.166667  0.000000 -0.166667      1.000000
  0.333333  0.000000 -0.166667      1.000000
  0.500000  0.000000 -0.166667      1.000000
 -0.333333 -0.000000 -0.166667      1.000000
 -0.166667  0.000000 -0.166667      1.000000
  0.000000  0.166667 -0.166667      1.000000
  0.166667  0.166667 -0.166667      1.000000
  0.333333  0.166667 -0.166667      1.000000
  0.500000  0.166667 -0.166667      1.000000
 -0.333333  0.166667 -0.166667      1.000000
 -0.166667  0.166667 -0.166667      1.000000
  0.000000  0.333333 -0.166667      1.000000
  0.166667  0.333333 -0.166667      1.000000
  0.333333  0.333333 -0.166667      1.000000
  0.500000  0.333333 -0.166667      1.000000
 -0.333333  0.333333 -0.166667      1.000000
 -0.166667  0.333333 -0.166667      1.000000
  0.000000  0.500000 -0.166667      1.000000
  0.166667  0.500000 -0.166667      1.000000
  0.333333  0.500000 -0.166667      1.000000
  0.500000  0.500000 -0.166667      1.000000
 -0.333333  0.500000 -0.166667      1.000000
 -0.166667  0.500000 -0.166667      1.000000
  0.000000 -0.333333 -0.166667      1.000000
  0.166667 -0.333333 -0.166667      1.000000
  0.333333 -0.333333 -0.166667      1.000000
  0.500000 -0.333333 -0.166667      1.000000
 -0.333333 -0.333333 -0.166667      1.000000
 -0.166667 -0.333333 -0.166667      1.000000
  0.000000 -0.166667 -0.166667      1.000000
  0.166667 -0.166667 -0.166667      1.000000
  0.333333 -0.166667 -0.166667      1.000000
  0.500000 -0.166667 -0.166667      1.000000
 -0.333333 -0.166667 -0.166667      1.000000
 -0.166667 -0.166667 -0.166667      1.000000
 
 Following cartesian coordinates:
            Coordinates               Weight
  0.000000  0.000000  0.000000      1.000000
  0.051407  0.018175  0.031479      1.000000
  0.102814  0.036350  0.062959      1.000000
  0.154221  0.054525  0.094438      1.000000
 -0.102814 -0.036350 -0.062959      1.000000
 -0.051407 -0.018175 -0.031479      1.000000
  0.000000  0.054525  0.031479      1.000000
  0.051407  0.072700  0.062959      1.000000
  0.102814  0.090875  0.094438      1.000000
  0.154221  0.109050  0.125918      1.000000
 -0.102814  0.018175 -0.031479      1.000000
 -0.051407  0.036350  0.000000      1.000000
  0.000000  0.109050  0.062959      1.000000
  0.051407  0.127225  0.094438      1.000000
  0.102814  0.145400  0.125918      1.000000
  0.154221  0.163575  0.157397      1.000000
 -0.102814  0.072701  0.000000      1.000000
 -0.051407  0.090876  0.031479      1.000000
  0.000000  0.163576  0.094438      1.000000
  0.051407  0.181751  0.125918      1.000000
  0.102814  0.199926  0.157397      1.000000
  0.154221  0.218100  0.188877      1.000000
 -0.102814  0.127226  0.031479      1.000000
 -0.051407  0.145401  0.062959      1.000000
  0.000000 -0.109050 -0.062959      1.000000
  0.051407 -0.090876 -0.031479      1.000000
  0.102814 -0.072701 -0.000000      1.000000
  0.154221 -0.054526  0.031479      1.000000
 -0.102814 -0.145400 -0.125918      1.000000
 -0.051407 -0.127225 -0.094438      1.000000
  0.000000 -0.054525 -0.031479      1.000000
  0.051407 -0.036350 -0.000000      1.000000
  0.102814 -0.018175  0.031479      1.000000
  0.154221 -0.000001  0.062959      1.000000
 -0.102814 -0.090875 -0.094438      1.000000
 -0.051407 -0.072700 -0.062959      1.000000
  0.000000  0.000000  0.062960      1.000000
  0.051407  0.018175  0.094439      1.000000
  0.102814  0.036350  0.125919      1.000000
  0.154221  0.054525  0.157398      1.000000
 -0.102814 -0.036350  0.000001      1.000000
 -0.051407 -0.018175  0.031481      1.000000
  0.000000  0.054525  0.094439      1.000000
  0.051407  0.072700  0.125919      1.000000
  0.102814  0.090875  0.157398      1.000000
  0.154221  0.109050  0.188878      1.000000
 -0.102814  0.018175  0.031481      1.000000
 -0.051407  0.036350  0.062960      1.000000
  0.000000  0.109050  0.125919      1.000000
  0.051407  0.127225  0.157398      1.000000
  0.102814  0.145400  0.188878      1.000000
  0.154221  0.163575  0.220357      1.000000
 -0.102814  0.072701  0.062960      1.000000
 -0.051407  0.090876  0.094439      1.000000
  0.000000  0.163576  0.157398      1.000000
  0.051407  0.181751  0.188878      1.000000
  0.102814  0.199926  0.220357      1.000000
  0.154221  0.218100  0.251837      1.000000
 -0.102814  0.127226  0.094439      1.000000
 -0.051407  0.145401  0.125919      1.000000
  0.000000 -0.109050  0.000001      1.000000
  0.051407 -0.090876  0.031481      1.000000
  0.102814 -0.072701  0.062960      1.000000
  0.154221 -0.054526  0.094439      1.000000
 -0.102814 -0.145400 -0.062958      1.000000
 -0.051407 -0.127225 -0.031478      1.000000
  0.000000 -0.054525  0.031481      1.000000
  0.051407 -0.036350  0.062960      1.000000
  0.102814 -0.018175  0.094439      1.000000
  0.154221 -0.000001  0.125919      1.000000
 -0.102814 -0.090875 -0.031478      1.000000
 -0.051407 -0.072700  0.000001      1.000000
  0.000000  0.000000  0.125920      1.000000
  0.051407  0.018175  0.157399      1.000000
  0.102814  0.036350  0.188879      1.000000
  0.154221  0.054525  0.220358      1.000000
 -0.102814 -0.036350  0.062961      1.000000
 -0.051407 -0.018175  0.094440      1.000000
  0.000000  0.054525  0.157399      1.000000
  0.051407  0.072700  0.188879      1.000000
  0.102814  0.090875  0.220358      1.000000
  0.154221  0.109050  0.251838      1.000000
 -0.102814  0.018175  0.094440      1.000000
 -0.051407  0.036350  0.125920      1.000000
  0.000000  0.109050  0.188879      1.000000
  0.051407  0.127225  0.220358      1.000000
  0.102814  0.145400  0.251838      1.000000
  0.154221  0.163575  0.283317      1.000000
 -0.102814  0.072701  0.125920      1.000000
 -0.051407  0.090876  0.157399      1.000000
  0.000000  0.163576  0.220358      1.000000
  0.051407  0.181751  0.251838      1.000000
  0.102814  0.199926  0.283317      1.000000
  0.154221  0.218100  0.314797      1.000000
 -0.102814  0.127226  0.157399      1.000000
 -0.051407  0.145401  0.188879      1.000000
  0.000000 -0.109050  0.062961      1.000000
  0.051407 -0.090876  0.094440      1.000000
  0.102814 -0.072701  0.125920      1.000000
  0.154221 -0.054526  0.157399      1.000000
 -0.102814 -0.145400  0.000002      1.000000
 -0.051407 -0.127225  0.031482      1.000000
  0.000000 -0.054525  0.094440      1.000000
  0.051407 -0.036350  0.125920      1.000000
  0.102814 -0.018175  0.157399      1.000000
  0.154221 -0.000001  0.188879      1.000000
 -0.102814 -0.090875  0.031482      1.000000
 -0.051407 -0.072700  0.062961      1.000000
  0.000000  0.000000  0.188880      1.000000
  0.051407  0.018175  0.220359      1.000000
  0.102814  0.036350  0.251839      1.000000
  0.154221  0.054525  0.283318      1.000000
 -0.102814 -0.036350  0.125921      1.000000
 -0.051407 -0.018175  0.157400      1.000000
  0.000000  0.054525  0.220359      1.000000
  0.051407  0.072700  0.251839      1.000000
  0.102814  0.090875  0.283318      1.000000
  0.154221  0.109050  0.314798      1.000000
 -0.102814  0.018175  0.157400      1.000000
 -0.051407  0.036350  0.188880      1.000000
  0.000000  0.109050  0.251839      1.000000
  0.051407  0.127225  0.283318      1.000000
  0.102814  0.145400  0.314798      1.000000
  0.154221  0.163575  0.346277      1.000000
 -0.102814  0.072701  0.188880      1.000000
 -0.051407  0.090876  0.220359      1.000000
  0.000000  0.163576  0.283318      1.000000
  0.051407  0.181751  0.314798      1.000000
  0.102814  0.199926  0.346277      1.000000
  0.154221  0.218100  0.377757      1.000000
 -0.102814  0.127226  0.220359      1.000000
 -0.051407  0.145401  0.251839      1.000000
  0.000000 -0.109050  0.125921      1.000000
  0.051407 -0.090876  0.157400      1.000000
  0.102814 -0.072701  0.188880      1.000000
  0.154221 -0.054526  0.220359      1.000000
 -0.102814 -0.145400  0.062962      1.000000
 -0.051407 -0.127225  0.094442      1.000000
  0.000000 -0.054525  0.157400      1.000000
  0.051407 -0.036350  0.188880      1.000000
  0.102814 -0.018175  0.220359      1.000000
  0.154221 -0.000001  0.251839      1.000000
 -0.102814 -0.090875  0.094442      1.000000
 -0.051407 -0.072700  0.125921      1.000000
  0.000000  0.000000 -0.125920      1.000000
  0.051407  0.018175 -0.094440      1.000000
  0.102814  0.036350 -0.062961      1.000000
  0.154221  0.054525 -0.031482      1.000000
 -0.102814 -0.036350 -0.188879      1.000000
 -0.051407 -0.018175 -0.157399      1.000000
  0.000000  0.054525 -0.094440      1.000000
  0.051407  0.072700 -0.062961      1.000000
  0.102814  0.090875 -0.031482      1.000000
  0.154221  0.109050 -0.000002      1.000000
 -0.102814  0.018175 -0.157399      1.000000
 -0.051407  0.036350 -0.125920      1.000000
  0.000000  0.109050 -0.062961      1.000000
  0.051407  0.127225 -0.031482      1.000000
  0.102814  0.145400 -0.000002      1.000000
  0.154221  0.163575  0.031477      1.000000
 -0.102814  0.072701 -0.125920      1.000000
 -0.051407  0.090876 -0.094440      1.000000
  0.000000  0.163576 -0.031482      1.000000
  0.051407  0.181751 -0.000002      1.000000
  0.102814  0.199926  0.031477      1.000000
  0.154221  0.218100  0.062957      1.000000
 -0.102814  0.127226 -0.094440      1.000000
 -0.051407  0.145401 -0.062961      1.000000
  0.000000 -0.109050 -0.188879      1.000000
  0.051407 -0.090876 -0.157399      1.000000
  0.102814 -0.072701 -0.125920      1.000000
  0.154221 -0.054526 -0.094440      1.000000
 -0.102814 -0.145400 -0.251838      1.000000
 -0.051407 -0.127225 -0.220358      1.000000
  0.000000 -0.054525 -0.157399      1.000000
  0.051407 -0.036350 -0.125920      1.000000
  0.102814 -0.018175 -0.094440      1.000000
  0.154221 -0.000001 -0.062961      1.000000
 -0.102814 -0.090875 -0.220358      1.000000
 -0.051407 -0.072700 -0.188879      1.000000
  0.000000  0.000000 -0.062960      1.000000
  0.051407  0.018175 -0.031481      1.000000
  0.102814  0.036350 -0.000001      1.000000
  0.154221  0.054525  0.031478      1.000000
 -0.102814 -0.036350 -0.125919      1.000000
 -0.051407 -0.018175 -0.094439      1.000000
  0.000000  0.054525 -0.031481      1.000000
  0.051407  0.072700 -0.000001      1.000000
  0.102814  0.090875  0.031478      1.000000
  0.154221  0.109050  0.062958      1.000000
 -0.102814  0.018175 -0.094439      1.000000
 -0.051407  0.036350 -0.062960      1.000000
  0.000000  0.109050 -0.000001      1.000000
  0.051407  0.127225  0.031478      1.000000
  0.102814  0.145400  0.062958      1.000000
  0.154221  0.163575  0.094437      1.000000
 -0.102814  0.072701 -0.062960      1.000000
 -0.051407  0.090876 -0.031481      1.000000
  0.000000  0.163576  0.031478      1.000000
  0.051407  0.181751  0.062958      1.000000
  0.102814  0.199926  0.094437      1.000000
  0.154221  0.218100  0.125917      1.000000
 -0.102814  0.127226 -0.031481      1.000000
 -0.051407  0.145401 -0.000001      1.000000
  0.000000 -0.109050 -0.125919      1.000000
  0.051407 -0.090876 -0.094439      1.000000
  0.102814 -0.072701 -0.062960      1.000000
  0.154221 -0.054526 -0.031481      1.000000
 -0.102814 -0.145400 -0.188878      1.000000
 -0.051407 -0.127225 -0.157398      1.000000
  0.000000 -0.054525 -0.094439      1.000000
  0.051407 -0.036350 -0.062960      1.000000
  0.102814 -0.018175 -0.031481      1.000000
  0.154221 -0.000001 -0.000001      1.000000
 -0.102814 -0.090875 -0.157398      1.000000
 -0.051407 -0.072700 -0.125919      1.000000
 


--------------------------------------------------------------------------------------------------------




 Dimension of arrays:
   k-points           NKPTS =    216   k-points in BZ     NKDIM =    216   number of bands    NBANDS=     24
   number of dos      NEDOS =    301   number of ions     NIONS =      1
   non local maximal  LDIM  =      6   non local SUM 2l+1 LMDIM =     18
   total plane-waves  NPLWV =   5832
   max r-space proj   IRMAX =      1   max aug-charges    IRDMAX= 106984
   dimension x,y,z NGX =    18 NGY =   18 NGZ =   18
   dimension x,y,z NGXF=    36 NGYF=   36 NGZF=   36
   support grid    NGXF=    72 NGYF=   72 NGZF=   72
   ions per type =               1
   NGX,Y,Z   is equivalent  to a cutoff of   9.23,  9.23,  9.23 a.u.
   NGXF,Y,Z  is equivalent  to a cutoff of  18.46, 18.46, 18.46 a.u.

 SYSTEM =  Og_FCC                                  
 POSCAR =  Cn BCC                                  

 Startparameter for this run:
   NWRITE =      2    write-flag & timer
   PREC   = accura    normal or accurate (medium, high low for compatibility)
   ISTART =      1    job   : 0-new  1-cont  2-samecut
   ICHARG =      0    charge: 1-file 2-atom 10-const
   ISPIN  =      1    spin polarized calculation?
   LNONCOLLINEAR =      T non collinear calculations
   LSORBIT =      T    spin-orbit coupling
   INIWAV =      1    electr: 0-lowe 1-rand  2-diag
   LASPH  =      F    aspherical Exc in radial PAW
   METAGGA=      F    non-selfconsistent MetaGGA calc.

 Electronic Relaxation 1
   ENCUT  =  300.0 eV  22.05 Ry    4.70 a.u.   4.58  4.58  4.58*2*pi/ulx,y,z
   ENINI  =  300.0     initial cutoff
   ENAUG  =  361.0 eV  augmentation charge cutoff
   NELM   =     50;   NELMIN=  2; NELMDL= -5     # of ELM steps 
   EDIFF  = 0.1E-07   stopping-criterion for ELM
   LREAL  =      F    real-space projection
   NLSPLINE    = F    spline interpolate recip. space projectors
   LCOMPAT=      F    compatible to vasp.4.4
   GGA_COMPAT  = F    GGA compatible to vasp.4.4-vasp.4.6
   LMAXPAW     = -100 max onsite density
   LMAXMIX     =    2 max onsite mixed and CHGCAR
   VOSKOWN=      0    Vosko Wilk Nusair interpolation
   ROPT   =    0.00000
 Ionic relaxation
   EDIFFG = 0.1E-04   stopping-criterion for IOM
   NSW    =      1    number of steps for IOM
   NBLOCK =      1;   KBLOCK =      1    inner block; outer block 
   IBRION =     -1    ionic relax: 0-MD 1-quasi-New 2-CG
   NFREE  =      5    steps in history (QN), initial steepest desc. (CG)
   ISIF   =      3    stress and relaxation
   IWAVPR =     10    prediction:  0-non 1-charg 2-wave 3-comb
   ISYM   =      0    0-nonsym 1-usesym 2-fastsym
   LCORR  =      T    Harris-Foulkes like correction to forces

   POTIM  = 0.1000    time-step for ionic-motion
   TEIN   =    0.0    initial temperature
   TEBEG  =    0.0;   TEEND  =   0.0 temperature during run
   SMASS  =  -3.00    Nose mass-parameter (am)
   estimated Nose-frequenzy (Omega)   =  0.10E-29 period in steps =****** mass=  -0.240E-27a.u.
   SCALEE = 1.0000    scale energy and forces
   NPACO  =    256;   APACO  = 16.0  distance and # of slots for P.C.
   PSTRESS=    0.0 pullay stress

  Mass of Ions in am
   POMASS =   0.01
  Ionic Valenz
   ZVAL   =  12.00
  Atomic Wigner-Seitz radii
   RWIGS  =  -1.00
  virtual crystal weights 
   VCA    =   1.00
   NELECT =      12.0000    total number of electrons
   NUPDOWN=      -1.0000    fix difference up-down

 DOS related values:
   EMIN   =  10.00;   EMAX   =-10.00  energy-range for DOS
   EFERMI =   0.00
   ISMEAR =     0;   SIGMA  =   0.00  broadening in eV -4-tet -1-fermi 0-gaus

 Electronic relaxation 2 (details)
   IALGO  =     38    algorithm
   LDIAG  =      T    sub-space diagonalisation (order eigenvalues)
   LSUBROT=      F    optimize rotation matrix (better conditioning)
   TURBO    =      0    0=normal 1=particle mesh
   IRESTART =      0    0=no restart 2=restart with 2 vectors
   NREBOOT  =      0    no. of reboots
   NMIN     =      0    reboot dimension
   EREF     =   0.00    reference energy to select bands
   IMIX   =      4    mixing-type and parameters
     AMIX     =   0.40;   BMIX     =  1.00
     AMIX_MAG =   1.60;   BMIX_MAG =  1.00
     AMIN     =   0.10
     WC   =   100.;   INIMIX=   1;  MIXPRE=   1;  MAXMIX=  50

 Intra band minimization:
   WEIMIN = 0.0000     energy-eigenvalue tresh-hold
   EBREAK =  0.10E-09  absolut break condition
   DEPER  =   0.30     relativ break condition  

   TIME   =   0.40     timestep for ELM

  volume/ion in A,a.u.               =      26.23       177.03
  Fermi-wavevector in a.u.,A,eV,Ry     =   1.261386  2.383673 21.648148  1.591094
  Thomas-Fermi vector in A             =   2.394847
 
 Write flags
   LWAVE        =      T    write WAVECAR
   LDOWNSAMPLE  =      F    k-point downsampling of WAVECAR
   LCHARG       =      F    write CHGCAR
   LVTOT        =      F    write LOCPOT, total local potential
   LVHAR        =      F    write LOCPOT, Hartree potential only
   LELF         =      F    write electronic localiz. function (ELF)
   LORBIT       =      0    0 simple, 1 ext, 2 COOP (PROOUT), +10 PAW based schemes


 Dipole corrections
   LMONO  =      F    monopole corrections only (constant potential shift)
   LDIPOL =      F    correct potential (dipole corrections)
   IDIPOL =      0    1-x, 2-y, 3-z, 4-all directions 
   EPSILON=  1.0000000 bulk dielectric constant

 Exchange correlation treatment:
   GGA     =    PE    GGA type
   LEXCH   =     8    internal setting for exchange type
   VOSKOWN=      0    Vosko Wilk Nusair interpolation
   LHFCALC =     F    Hartree Fock is set to
   LHFONE  =     F    Hartree Fock one center treatment
   AEXX    =    0.0000 exact exchange contribution

 Linear response parameters
   LEPSILON=     F    determine dielectric tensor
   LRPA    =     F    only Hartree local field effects (RPA)
   LNABLA  =     F    use nabla operator in PAW spheres
   LVEL    =     F    velocity operator in full k-point grid
   LINTERFAST=   F  fast interpolation
   KINTER  =     0    interpolate to denser k-point grid
   CSHIFT  =0.1000    complex shift for real part using Kramers Kronig
   OMEGAMAX=  -1.0    maximum frequency
   DEG_THRESHOLD= 0.2000000E-02 threshold for treating states as degnerate
   RTIME   =   -0.100 relaxation time in fs
  (WPLASMAI=    0.000 imaginary part of plasma frequency in eV, 0.658/RTIME)
   DFIELD  = 0.0000000 0.0000000 0.0000000 field for delta impulse in time
 
 Orbital magnetization related:
   ORBITALMAG=     F  switch on orbital magnetization
   LCHIMAG   =     F  perturbation theory with respect to B field
   DQ        =  0.001000  dq finite difference perturbation B field
   LLRAUG    =     F  two centre corrections for induced B field



--------------------------------------------------------------------------------------------------------


 Static calculation
 charge density and potential will be updated during run
 non collinear spin polarized calculation
 Variant of blocked Davidson
 Davidson routine will perform the subspace rotation
 perform sub-space diagonalisation
    after iterative eigenvector-optimisation
 modified Broyden-mixing scheme, WC =      100.0
 initial mixing is a Kerker type mixing with AMIX =  0.4000 and BMIX =      1.0000
 Hartree-type preconditioning will be used
 using additional bands           18
 reciprocal scheme for non local part
 use partial core corrections
 calculate Harris-corrections to forces 
   (improved forces if not selfconsistent)
 use gradient corrections 
 use of overlap-Matrix (Vanderbilt PP)
 Gauss-broadening in eV      SIGMA  =   0.00


--------------------------------------------------------------------------------------------------------


  energy-cutoff  :      300.00
  volume of cell :       26.23
      direct lattice vectors                 reciprocal lattice vectors
     3.242102804  0.000000000  0.000000000     0.308441792  0.109049309  0.188876893
    -1.080689200  3.056687986  0.000000000     0.000000000  0.327151481  0.188876893
    -1.080689200 -1.528319100  2.647183819     0.000000000  0.000000000  0.377759940

  length of vectors
     3.242102804  3.242102804  3.242102804     0.377759940  0.377759940  0.377759940


 
 old parameters found on file WAVECAR:
  energy-cutoff  :      300.00
  volume of cell :       26.23
      direct lattice vectors                 reciprocal lattice vectors
     3.242102804  0.000000000  0.000000000     0.308441792  0.109049309  0.188876893
    -1.080689200  3.056687986  0.000000000     0.000000000  0.327151481  0.188876893
    -1.080689200 -1.528319100  2.647183819     0.000000000  0.000000000  0.377759940

  length of vectors

 
 k-points in units of 2pi/SCALE and weight: k-points                                
   0.00000000  0.00000000  0.00000000       0.005
   0.05140697  0.01817488  0.03147948       0.005
   0.10281393  0.03634977  0.06295896       0.005
   0.15422090  0.05452465  0.09443845       0.005
  -0.10281393 -0.03634977 -0.06295896       0.005
  -0.05140697 -0.01817488 -0.03147948       0.005
   0.00000000  0.05452525  0.03147948       0.005
   0.05140697  0.07270013  0.06295896       0.005
   0.10281393  0.09087502  0.09443845       0.005
   0.15422090  0.10904990  0.12591793       0.005
  -0.10281393  0.01817548 -0.03147948       0.005
  -0.05140697  0.03635036  0.00000000       0.005
   0.00000000  0.10905049  0.06295896       0.005
   0.05140697  0.12722538  0.09443845       0.005
   0.10281393  0.14540026  0.12591793       0.005
   0.15422090  0.16357515  0.15739741       0.005
  -0.10281393  0.07270072  0.00000000       0.005
  -0.05140697  0.09087561  0.03147948       0.005
   0.00000000  0.16357574  0.09443845       0.005
   0.05140697  0.18175063  0.12591793       0.005
   0.10281393  0.19992551  0.15739741       0.005
   0.15422090  0.21810039  0.18887689       0.005
  -0.10281393  0.12722597  0.03147948       0.005
  -0.05140697  0.14540086  0.06295896       0.005
   0.00000000 -0.10905049 -0.06295896       0.005
   0.05140697 -0.09087561 -0.03147948       0.005
   0.10281393 -0.07270072 -0.00000000       0.005
   0.15422090 -0.05452584  0.03147948       0.005
  -0.10281393 -0.14540026 -0.12591793       0.005
  -0.05140697 -0.12722538 -0.09443845       0.005
   0.00000000 -0.05452525 -0.03147948       0.005
   0.05140697 -0.03635036 -0.00000000       0.005
   0.10281393 -0.01817548  0.03147948       0.005
   0.15422090 -0.00000059  0.06295896       0.005
  -0.10281393 -0.09087502 -0.09443845       0.005
  -0.05140697 -0.07270013 -0.06295896       0.005
   0.00000000  0.00000000  0.06295999       0.005
   0.05140697  0.01817488  0.09443947       0.005
   0.10281393  0.03634977  0.12591895       0.005
   0.15422090  0.05452465  0.15739844       0.005
  -0.10281393 -0.03634977  0.00000103       0.005
  -0.05140697 -0.01817488  0.03148051       0.005
   0.00000000  0.05452525  0.09443947       0.005
   0.05140697  0.07270013  0.12591895       0.005
   0.10281393  0.09087502  0.15739844       0.005
   0.15422090  0.10904990  0.18887792       0.005
  -0.10281393  0.01817548  0.03148051       0.005
  -0.05140697  0.03635036  0.06295999       0.005
   0.00000000  0.10905049  0.12591895       0.005
   0.05140697  0.12722538  0.15739844       0.005
   0.10281393  0.14540026  0.18887792       0.005
   0.15422090  0.16357515  0.22035740       0.005
  -0.10281393  0.07270072  0.06295999       0.005
  -0.05140697  0.09087561  0.09443947       0.005
   0.00000000  0.16357574  0.15739844       0.005
   0.05140697  0.18175063  0.18887792       0.005
   0.10281393  0.19992551  0.22035740       0.005
   0.15422090  0.21810039  0.25183688       0.005
  -0.10281393  0.12722597  0.09443947       0.005
  -0.05140697  0.14540086  0.12591895       0.005
   0.00000000 -0.10905049  0.00000103       0.005
   0.05140697 -0.09087561  0.03148051       0.005
   0.10281393 -0.07270072  0.06295999       0.005
   0.15422090 -0.05452584  0.09443947       0.005
  -0.10281393 -0.14540026 -0.06295794       0.005
  -0.05140697 -0.12722538 -0.03147846       0.005
   0.00000000 -0.05452525  0.03148051       0.005
   0.05140697 -0.03635036  0.06295999       0.005
   0.10281393 -0.01817548  0.09443947       0.005
   0.15422090 -0.00000059  0.12591895       0.005
  -0.10281393 -0.09087502 -0.03147846       0.005
  -0.05140697 -0.07270013  0.00000103       0.005
   0.00000000  0.00000000  0.12591998       0.005
   0.05140697  0.01817488  0.15739946       0.005
   0.10281393  0.03634977  0.18887894       0.005
   0.15422090  0.05452465  0.22035843       0.005
  -0.10281393 -0.03634977  0.06296102       0.005
  -0.05140697 -0.01817488  0.09444050       0.005
   0.00000000  0.05452525  0.15739946       0.005
   0.05140697  0.07270013  0.18887894       0.005
   0.10281393  0.09087502  0.22035843       0.005
   0.15422090  0.10904990  0.25183791       0.005
  -0.10281393  0.01817548  0.09444050       0.005
  -0.05140697  0.03635036  0.12591998       0.005
   0.00000000  0.10905049  0.18887894       0.005
   0.05140697  0.12722538  0.22035843       0.005
   0.10281393  0.14540026  0.25183791       0.005
   0.15422090  0.16357515  0.28331739       0.005
  -0.10281393  0.07270072  0.12591998       0.005
  -0.05140697  0.09087561  0.15739946       0.005
   0.00000000  0.16357574  0.22035843       0.005
   0.05140697  0.18175063  0.25183791       0.005
   0.10281393  0.19992551  0.28331739       0.005
   0.15422090  0.21810039  0.31479687       0.005
  -0.10281393  0.12722597  0.15739946       0.005
  -0.05140697  0.14540086  0.18887894       0.005
   0.00000000 -0.10905049  0.06296102       0.005
   0.05140697 -0.09087561  0.09444050       0.005
   0.10281393 -0.07270072  0.12591998       0.005
   0.15422090 -0.05452584  0.15739946       0.005
  -0.10281393 -0.14540026  0.00000205       0.005
  -0.05140697 -0.12722538  0.03148153       0.005
   0.00000000 -0.05452525  0.09444050       0.005
   0.05140697 -0.03635036  0.12591998       0.005
   0.10281393 -0.01817548  0.15739946       0.005
   0.15422090 -0.00000059  0.18887894       0.005
  -0.10281393 -0.09087502  0.03148153       0.005
  -0.05140697 -0.07270013  0.06296102       0.005
   0.00000000  0.00000000  0.18887997       0.005
   0.05140697  0.01817488  0.22035945       0.005
   0.10281393  0.03634977  0.25183893       0.005
   0.15422090  0.05452465  0.28331842       0.005
  -0.10281393 -0.03634977  0.12592101       0.005
  -0.05140697 -0.01817488  0.15740049       0.005
   0.00000000  0.05452525  0.22035945       0.005
   0.05140697  0.07270013  0.25183893       0.005
   0.10281393  0.09087502  0.28331842       0.005
   0.15422090  0.10904990  0.31479790       0.005
  -0.10281393  0.01817548  0.15740049       0.005
  -0.05140697  0.03635036  0.18887997       0.005
   0.00000000  0.10905049  0.25183893       0.005
   0.05140697  0.12722538  0.28331842       0.005
   0.10281393  0.14540026  0.31479790       0.005
   0.15422090  0.16357515  0.34627738       0.005
  -0.10281393  0.07270072  0.18887997       0.005
  -0.05140697  0.09087561  0.22035945       0.005
   0.00000000  0.16357574  0.28331842       0.005
   0.05140697  0.18175063  0.31479790       0.005
   0.10281393  0.19992551  0.34627738       0.005
   0.15422090  0.21810039  0.37775686       0.005
  -0.10281393  0.12722597  0.22035945       0.005
  -0.05140697  0.14540086  0.25183893       0.005
   0.00000000 -0.10905049  0.12592101       0.005
   0.05140697 -0.09087561  0.15740049       0.005
   0.10281393 -0.07270072  0.18887997       0.005
   0.15422090 -0.05452584  0.22035945       0.005
  -0.10281393 -0.14540026  0.06296204       0.005
  -0.05140697 -0.12722538  0.09444152       0.005
   0.00000000 -0.05452525  0.15740049       0.005
   0.05140697 -0.03635036  0.18887997       0.005
   0.10281393 -0.01817548  0.22035945       0.005
   0.15422090 -0.00000059  0.25183893       0.005
  -0.10281393 -0.09087502  0.09444152       0.005
  -0.05140697 -0.07270013  0.12592101       0.005
   0.00000000  0.00000000 -0.12591998       0.005
   0.05140697  0.01817488 -0.09444050       0.005
   0.10281393  0.03634977 -0.06296102       0.005
   0.15422090  0.05452465 -0.03148153       0.005
  -0.10281393 -0.03634977 -0.18887894       0.005
  -0.05140697 -0.01817488 -0.15739946       0.005
   0.00000000  0.05452525 -0.09444050       0.005
   0.05140697  0.07270013 -0.06296102       0.005
   0.10281393  0.09087502 -0.03148153       0.005
   0.15422090  0.10904990 -0.00000205       0.005
  -0.10281393  0.01817548 -0.15739946       0.005
  -0.05140697  0.03635036 -0.12591998       0.005
   0.00000000  0.10905049 -0.06296102       0.005
   0.05140697  0.12722538 -0.03148153       0.005
   0.10281393  0.14540026 -0.00000205       0.005
   0.15422090  0.16357515  0.03147743       0.005
  -0.10281393  0.07270072 -0.12591998       0.005
  -0.05140697  0.09087561 -0.09444050       0.005
   0.00000000  0.16357574 -0.03148153       0.005
   0.05140697  0.18175063 -0.00000205       0.005
   0.10281393  0.19992551  0.03147743       0.005
   0.15422090  0.21810039  0.06295691       0.005
  -0.10281393  0.12722597 -0.09444050       0.005
  -0.05140697  0.14540086 -0.06296102       0.005
   0.00000000 -0.10905049 -0.18887894       0.005
   0.05140697 -0.09087561 -0.15739946       0.005
   0.10281393 -0.07270072 -0.12591998       0.005
   0.15422090 -0.05452584 -0.09444050       0.005
  -0.10281393 -0.14540026 -0.25183791       0.005
  -0.05140697 -0.12722538 -0.22035843       0.005
   0.00000000 -0.05452525 -0.15739946       0.005
   0.05140697 -0.03635036 -0.12591998       0.005
   0.10281393 -0.01817548 -0.09444050       0.005
   0.15422090 -0.00000059 -0.06296102       0.005
  -0.10281393 -0.09087502 -0.22035843       0.005
  -0.05140697 -0.07270013 -0.18887894       0.005
   0.00000000  0.00000000 -0.06295999       0.005
   0.05140697  0.01817488 -0.03148051       0.005
   0.10281393  0.03634977 -0.00000103       0.005
   0.15422090  0.05452465  0.03147846       0.005
  -0.10281393 -0.03634977 -0.12591895       0.005
  -0.05140697 -0.01817488 -0.09443947       0.005
   0.00000000  0.05452525 -0.03148051       0.005
   0.05140697  0.07270013 -0.00000103       0.005
   0.10281393  0.09087502  0.03147846       0.005
   0.15422090  0.10904990  0.06295794       0.005
  -0.10281393  0.01817548 -0.09443947       0.005
  -0.05140697  0.03635036 -0.06295999       0.005
   0.00000000  0.10905049 -0.00000103       0.005
   0.05140697  0.12722538  0.03147846       0.005
   0.10281393  0.14540026  0.06295794       0.005
   0.15422090  0.16357515  0.09443742       0.005
  -0.10281393  0.07270072 -0.06295999       0.005
  -0.05140697  0.09087561 -0.03148051       0.005
   0.00000000  0.16357574  0.03147846       0.005
   0.05140697  0.18175063  0.06295794       0.005
   0.10281393  0.19992551  0.09443742       0.005
   0.15422090  0.21810039  0.12591690       0.005
  -0.10281393  0.12722597 -0.03148051       0.005
  -0.05140697  0.14540086 -0.00000103       0.005
   0.00000000 -0.10905049 -0.12591895       0.005
   0.05140697 -0.09087561 -0.09443947       0.005
   0.10281393 -0.07270072 -0.06295999       0.005
   0.15422090 -0.05452584 -0.03148051       0.005
  -0.10281393 -0.14540026 -0.18887792       0.005
  -0.05140697 -0.12722538 -0.15739844       0.005
   0.00000000 -0.05452525 -0.09443947       0.005
   0.05140697 -0.03635036 -0.06295999       0.005
   0.10281393 -0.01817548 -0.03148051       0.005
   0.15422090 -0.00000059 -0.00000103       0.005
  -0.10281393 -0.09087502 -0.15739844       0.005
  -0.05140697 -0.07270013 -0.12591895       0.005
 
 k-points in reciprocal lattice and weights: k-points                                
   0.00000000  0.00000000  0.00000000       0.005
   0.16666667  0.00000000  0.00000000       0.005
   0.33333333  0.00000000 -0.00000000       0.005
   0.50000000  0.00000000  0.00000000       0.005
  -0.33333333 -0.00000000  0.00000000       0.005
  -0.16666667  0.00000000  0.00000000       0.005
   0.00000000  0.16666667  0.00000000       0.005
   0.16666667  0.16666667  0.00000000       0.005
   0.33333333  0.16666667  0.00000000       0.005
   0.50000000  0.16666667  0.00000000       0.005
  -0.33333333  0.16666667 -0.00000000       0.005
  -0.16666667  0.16666667 -0.00000000       0.005
   0.00000000  0.33333333  0.00000000       0.005
   0.16666667  0.33333333  0.00000000       0.005
   0.33333333  0.33333333  0.00000000       0.005
   0.50000000  0.33333333  0.00000000       0.005
  -0.33333333  0.33333333  0.00000000       0.005
  -0.16666667  0.33333333  0.00000000       0.005
   0.00000000  0.50000000 -0.00000000       0.005
   0.16666667  0.50000000  0.00000000       0.005
   0.33333333  0.50000000  0.00000000       0.005
   0.50000000  0.50000000 -0.00000000       0.005
  -0.33333333  0.50000000 -0.00000000       0.005
  -0.16666667  0.50000000  0.00000000       0.005
   0.00000000 -0.33333333 -0.00000000       0.005
   0.16666667 -0.33333333 -0.00000000       0.005
   0.33333333 -0.33333333 -0.00000000       0.005
   0.50000000 -0.33333333 -0.00000000       0.005
  -0.33333333 -0.33333333  0.00000000       0.005
  -0.16666667 -0.33333333 -0.00000000       0.005
   0.00000000 -0.16666667 -0.00000000       0.005
   0.16666667 -0.16666667  0.00000000       0.005
   0.33333333 -0.16666667  0.00000000       0.005
   0.50000000 -0.16666667  0.00000000       0.005
  -0.33333333 -0.16666667 -0.00000000       0.005
  -0.16666667 -0.16666667 -0.00000000       0.005
   0.00000000  0.00000000  0.16666667       0.005
   0.16666667  0.00000000  0.16666667       0.005
   0.33333333  0.00000000  0.16666667       0.005
   0.50000000  0.00000000  0.16666667       0.005
  -0.33333333 -0.00000000  0.16666667       0.005
  -0.16666667  0.00000000  0.16666667       0.005
   0.00000000  0.16666667  0.16666667       0.005
   0.16666667  0.16666667  0.16666667       0.005
   0.33333333  0.16666667  0.16666667       0.005
   0.50000000  0.16666667  0.16666667       0.005
  -0.33333333  0.16666667  0.16666667       0.005
  -0.16666667  0.16666667  0.16666667       0.005
   0.00000000  0.33333333  0.16666667       0.005
   0.16666667  0.33333333  0.16666667       0.005
   0.33333333  0.33333333  0.16666667       0.005
   0.50000000  0.33333333  0.16666667       0.005
  -0.33333333  0.33333333  0.16666667       0.005
  -0.16666667  0.33333333  0.16666667       0.005
   0.00000000  0.50000000  0.16666667       0.005
   0.16666667  0.50000000  0.16666667       0.005
   0.33333333  0.50000000  0.16666667       0.005
   0.50000000  0.50000000  0.16666667       0.005
  -0.33333333  0.50000000  0.16666667       0.005
  -0.16666667  0.50000000  0.16666667       0.005
   0.00000000 -0.33333333  0.16666667       0.005
   0.16666667 -0.33333333  0.16666667       0.005
   0.33333333 -0.33333333  0.16666667       0.005
   0.50000000 -0.33333333  0.16666667       0.005
  -0.33333333 -0.33333333  0.16666667       0.005
  -0.16666667 -0.33333333  0.16666667       0.005
   0.00000000 -0.16666667  0.16666667       0.005
   0.16666667 -0.16666667  0.16666667       0.005
   0.33333333 -0.16666667  0.16666667       0.005
   0.50000000 -0.16666667  0.16666667       0.005
  -0.33333333 -0.16666667  0.16666667       0.005
  -0.16666667 -0.16666667  0.16666667       0.005
   0.00000000  0.00000000  0.33333333       0.005
   0.16666667  0.00000000  0.33333333       0.005
   0.33333333  0.00000000  0.33333333       0.005
   0.50000000  0.00000000  0.33333333       0.005
  -0.33333333 -0.00000000  0.33333333       0.005
  -0.16666667  0.00000000  0.33333333       0.005
   0.00000000  0.16666667  0.33333333       0.005
   0.16666667  0.16666667  0.33333333       0.005
   0.33333333  0.16666667  0.33333333       0.005
   0.50000000  0.16666667  0.33333333       0.005
  -0.33333333  0.16666667  0.33333333       0.005
  -0.16666667  0.16666667  0.33333333       0.005
   0.00000000  0.33333333  0.33333333       0.005
   0.16666667  0.33333333  0.33333333       0.005
   0.33333333  0.33333333  0.33333333       0.005
   0.50000000  0.33333333  0.33333333       0.005
  -0.33333333  0.33333333  0.33333333       0.005
  -0.16666667  0.33333333  0.33333333       0.005
   0.00000000  0.50000000  0.33333333       0.005
   0.16666667  0.50000000  0.33333333       0.005
   0.33333333  0.50000000  0.33333333       0.005
   0.50000000  0.50000000  0.33333333       0.005
  -0.33333333  0.50000000  0.33333333       0.005
  -0.16666667  0.50000000  0.33333333       0.005
   0.00000000 -0.33333333  0.33333333       0.005
   0.16666667 -0.33333333  0.33333333       0.005
   0.33333333 -0.33333333  0.33333333       0.005
   0.50000000 -0.33333333  0.33333333       0.005
  -0.33333333 -0.33333333  0.33333333       0.005
  -0.16666667 -0.33333333  0.33333333       0.005
   0.00000000 -0.16666667  0.33333333       0.005
   0.16666667 -0.16666667  0.33333333       0.005
   0.33333333 -0.16666667  0.33333333       0.005
   0.50000000 -0.16666667  0.33333333       0.005
  -0.33333333 -0.16666667  0.33333333       0.005
  -0.16666667 -0.16666667  0.33333333       0.005
   0.00000000  0.00000000  0.50000000       0.005
   0.16666667  0.00000000  0.50000000       0.005
   0.33333333  0.00000000  0.50000000       0.005
   0.50000000  0.00000000  0.50000000       0.005
  -0.33333333 -0.00000000  0.50000000       0.005
  -0.16666667  0.00000000  0.50000000       0.005
   0.00000000  0.16666667  0.50000000       0.005
   0.16666667  0.16666667  0.50000000       0.005
   0.33333333  0.16666667  0.50000000       0.005
   0.50000000  0.16666667  0.50000000       0.005
  -0.33333333  0.16666667  0.50000000       0.005
  -0.16666667  0.16666667  0.50000000       0.005
   0.00000000  0.33333333  0.50000000       0.005
   0.16666667  0.33333333  0.50000000       0.005
   0.33333333  0.33333333  0.50000000       0.005
   0.50000000  0.33333333  0.50000000       0.005
  -0.33333333  0.33333333  0.50000000       0.005
  -0.16666667  0.33333333  0.50000000       0.005
   0.00000000  0.50000000  0.50000000       0.005
   0.16666667  0.50000000  0.50000000       0.005
   0.33333333  0.50000000  0.50000000       0.005
   0.50000000  0.50000000  0.50000000       0.005
  -0.33333333  0.50000000  0.50000000       0.005
  -0.16666667  0.50000000  0.50000000       0.005
   0.00000000 -0.33333333  0.50000000       0.005
   0.16666667 -0.33333333  0.50000000       0.005
   0.33333333 -0.33333333  0.50000000       0.005
   0.50000000 -0.33333333  0.50000000       0.005
  -0.33333333 -0.33333333  0.50000000       0.005
  -0.16666667 -0.33333333  0.50000000       0.005
   0.00000000 -0.16666667  0.50000000       0.005
   0.16666667 -0.16666667  0.50000000       0.005
   0.33333333 -0.16666667  0.50000000       0.005
   0.50000000 -0.16666667  0.50000000       0.005
  -0.33333333 -0.16666667  0.50000000       0.005
  -0.16666667 -0.16666667  0.50000000       0.005
   0.00000000  0.00000000 -0.33333333       0.005
   0.16666667  0.00000000 -0.33333333       0.005
   0.33333333  0.00000000 -0.33333333       0.005
   0.50000000  0.00000000 -0.33333333       0.005
  -0.33333333 -0.00000000 -0.33333333       0.005
  -0.16666667  0.00000000 -0.33333333       0.005
   0.00000000  0.16666667 -0.33333333       0.005
   0.16666667  0.16666667 -0.33333333       0.005
   0.33333333  0.16666667 -0.33333333       0.005
   0.50000000  0.16666667 -0.33333333       0.005
  -0.33333333  0.16666667 -0.33333333       0.005
  -0.16666667  0.16666667 -0.33333333       0.005
   0.00000000  0.33333333 -0.33333333       0.005
   0.16666667  0.33333333 -0.33333333       0.005
   0.33333333  0.33333333 -0.33333333       0.005
   0.50000000  0.33333333 -0.33333333       0.005
  -0.33333333  0.33333333 -0.33333333       0.005
  -0.16666667  0.33333333 -0.33333333       0.005
   0.00000000  0.50000000 -0.33333333       0.005
   0.16666667  0.50000000 -0.33333333       0.005
   0.33333333  0.50000000 -0.33333333       0.005
   0.50000000  0.50000000 -0.33333333       0.005
  -0.33333333  0.50000000 -0.33333333       0.005
  -0.16666667  0.50000000 -0.33333333       0.005
   0.00000000 -0.33333333 -0.33333333       0.005
   0.16666667 -0.33333333 -0.33333333       0.005
   0.33333333 -0.33333333 -0.33333333       0.005
   0.50000000 -0.33333333 -0.33333333       0.005
  -0.33333333 -0.33333333 -0.33333333       0.005
  -0.16666667 -0.33333333 -0.33333333       0.005
   0.00000000 -0.16666667 -0.33333333       0.005
   0.16666667 -0.16666667 -0.33333333       0.005
   0.33333333 -0.16666667 -0.33333333       0.005
   0.50000000 -0.16666667 -0.33333333       0.005
  -0.33333333 -0.16666667 -0.33333333       0.005
  -0.16666667 -0.16666667 -0.33333333       0.005
   0.00000000  0.00000000 -0.16666667       0.005
   0.16666667  0.00000000 -0.16666667       0.005
   0.33333333  0.00000000 -0.16666667       0.005
   0.50000000  0.00000000 -0.16666667       0.005
  -0.33333333 -0.00000000 -0.16666667       0.005
  -0.16666667  0.00000000 -0.16666667       0.005
   0.00000000  0.16666667 -0.16666667       0.005
   0.16666667  0.16666667 -0.16666667       0.005
   0.33333333  0.16666667 -0.16666667       0.005
   0.50000000  0.16666667 -0.16666667       0.005
  -0.33333333  0.16666667 -0.16666667       0.005
  -0.16666667  0.16666667 -0.16666667       0.005
   0.00000000  0.33333333 -0.16666667       0.005
   0.16666667  0.33333333 -0.16666667       0.005
   0.33333333  0.33333333 -0.16666667       0.005
   0.50000000  0.33333333 -0.16666667       0.005
  -0.33333333  0.33333333 -0.16666667       0.005
  -0.16666667  0.33333333 -0.16666667       0.005
   0.00000000  0.50000000 -0.16666667       0.005
   0.16666667  0.50000000 -0.16666667       0.005
   0.33333333  0.50000000 -0.16666667       0.005
   0.50000000  0.50000000 -0.16666667       0.005
  -0.33333333  0.50000000 -0.16666667       0.005
  -0.16666667  0.50000000 -0.16666667       0.005
   0.00000000 -0.33333333 -0.16666667       0.005
   0.16666667 -0.33333333 -0.16666667       0.005
   0.33333333 -0.33333333 -0.16666667       0.005
   0.50000000 -0.33333333 -0.16666667       0.005
  -0.33333333 -0.33333333 -0.16666667       0.005
  -0.16666667 -0.33333333 -0.16666667       0.005
   0.00000000 -0.16666667 -0.16666667       0.005
   0.16666667 -0.16666667 -0.16666667       0.005
   0.33333333 -0.16666667 -0.16666667       0.005
   0.50000000 -0.16666667 -0.16666667       0.005
  -0.33333333 -0.16666667 -0.16666667       0.005
  -0.16666667 -0.16666667 -0.16666667       0.005
 
 position of ions in fractional coordinates (direct lattice) 
   0.00000000  0.00000000  0.00000000
 
 position of ions in cartesian coordinates  (Angst):
   0.00000000  0.00000000  0.00000000
 
 Euler angles ALPHA=     0.0000000  BETA=     0.0000000

 transformation matrix from SAXIS to cartesian coordinates
 ---------------------------------------------------------
     1.0000000 m_x     0.0000000 m_y     0.0000000 m_z
     0.0000000 m_x     1.0000000 m_y     0.0000000 m_z
     0.0000000 m_x     0.0000000 m_y     1.0000000 m_z

 transformation matrix from cartesian coordinates to SAXIS
 ---------------------------------------------------------
     1.0000000 m_x     0.0000000 m_y     0.0000000 m_z
     0.0000000 m_x     1.0000000 m_y     0.0000000 m_z
     0.0000000 m_x     0.0000000 m_y     1.0000000 m_z




--------------------------------------------------------------------------------------------------------


 k-point  1 :   0.0000 0.0000 0.0000  plane waves:     642
 k-point  2 :   0.1667 0.0000 0.0000  plane waves:     638
 k-point  3 :   0.3333 0.0000-0.0000  plane waves:     612
 k-point  4 :   0.5000 0.0000 0.0000  plane waves:     624
 k-point  5 :  -0.3333-0.0000 0.0000  plane waves:     612
 k-point  6 :  -0.1667 0.0000 0.0000  plane waves:     638
 k-point  7 :   0.0000 0.1667 0.0000  plane waves:     638
 k-point  8 :   0.1667 0.1667 0.0000  plane waves:     628
 k-point  9 :   0.3333 0.1667 0.0000  plane waves:     614
 k-point 10 :   0.5000 0.1667 0.0000  plane waves:     614
 k-point 11 :  -0.3333 0.1667-0.0000  plane waves:     628
 k-point 12 :  -0.1667 0.1667-0.0000  plane waves:     638
 k-point 13 :   0.0000 0.3333 0.0000  plane waves:     612
 k-point 14 :   0.1667 0.3333 0.0000  plane waves:     614
 k-point 15 :   0.3333 0.3333 0.0000  plane waves:     618
 k-point 16 :   0.5000 0.3333 0.0000  plane waves:     614
 k-point 17 :  -0.3333 0.3333 0.0000  plane waves:     612
 k-point 18 :  -0.1667 0.3333 0.0000  plane waves:     628
 k-point 19 :   0.0000 0.5000-0.0000  plane waves:     624
 k-point 20 :   0.1667 0.5000 0.0000  plane waves:     614
 k-point 21 :   0.3333 0.5000 0.0000  plane waves:     614
 k-point 22 :   0.5000 0.5000-0.0000  plane waves:     624
 k-point 23 :  -0.3333 0.5000-0.0000  plane waves:     614
 k-point 24 :  -0.1667 0.5000 0.0000  plane waves:     614
 k-point 25 :   0.0000-0.3333-0.0000  plane waves:     612
 k-point 26 :   0.1667-0.3333-0.0000  plane waves:     628
 k-point 27 :   0.3333-0.3333-0.0000  plane waves:     612
 k-point 28 :   0.5000-0.3333-0.0000  plane waves:     614
 k-point 29 :  -0.3333-0.3333 0.0000  plane waves:     618
 k-point 30 :  -0.1667-0.3333-0.0000  plane waves:     614
 k-point 31 :   0.0000-0.1667-0.0000  plane waves:     638
 k-point 32 :   0.1667-0.1667 0.0000  plane waves:     638
 k-point 33 :   0.3333-0.1667 0.0000  plane waves:     628
 k-point 34 :   0.5000-0.1667 0.0000  plane waves:     614
 k-point 35 :  -0.3333-0.1667-0.0000  plane waves:     614
 k-point 36 :  -0.1667-0.1667-0.0000  plane waves:     628
 k-point 37 :   0.0000 0.0000 0.1667  plane waves:     638
 k-point 38 :   0.1667 0.0000 0.1667  plane waves:     628
 k-point 39 :   0.3333 0.0000 0.1667  plane waves:     614
 k-point 40 :   0.5000 0.0000 0.1667  plane waves:     614
 k-point 41 :  -0.3333-0.0000 0.1667  plane waves:     628
 k-point 42 :  -0.1667 0.0000 0.1667  plane waves:     638
 k-point 43 :   0.0000 0.1667 0.1667  plane waves:     628
 k-point 44 :   0.1667 0.1667 0.1667  plane waves:     636
 k-point 45 :   0.3333 0.1667 0.1667  plane waves:     632
 k-point 46 :   0.5000 0.1667 0.1667  plane waves:     636
 k-point 47 :  -0.3333 0.1667 0.1667  plane waves:     628
 k-point 48 :  -0.1667 0.1667 0.1667  plane waves:     618
 k-point 49 :   0.0000 0.3333 0.1667  plane waves:     614
 k-point 50 :   0.1667 0.3333 0.1667  plane waves:     632
 k-point 51 :   0.3333 0.3333 0.1667  plane waves:     632
 k-point 52 :   0.5000 0.3333 0.1667  plane waves:     614
 k-point 53 :  -0.3333 0.3333 0.1667  plane waves:     622
 k-point 54 :  -0.1667 0.3333 0.1667  plane waves:     622
 k-point 55 :   0.0000 0.5000 0.1667  plane waves:     614
 k-point 56 :   0.1667 0.5000 0.1667  plane waves:     636
 k-point 57 :   0.3333 0.5000 0.1667  plane waves:     614
 k-point 58 :   0.5000 0.5000 0.1667  plane waves:     624
 k-point 59 :  -0.3333 0.5000 0.1667  plane waves:     608
 k-point 60 :  -0.1667 0.5000 0.1667  plane waves:     624
 k-point 61 :   0.0000-0.3333 0.1667  plane waves:     628
 k-point 62 :   0.1667-0.3333 0.1667  plane waves:     628
 k-point 63 :   0.3333-0.3333 0.1667  plane waves:     622
 k-point 64 :   0.5000-0.3333 0.1667  plane waves:     608
 k-point 65 :  -0.3333-0.3333 0.1667  plane waves:     608
 k-point 66 :  -0.1667-0.3333 0.1667  plane waves:     622
 k-point 67 :   0.0000-0.1667 0.1667  plane waves:     638
 k-point 68 :   0.1667-0.1667 0.1667  plane waves:     618
 k-point 69 :   0.3333-0.1667 0.1667  plane waves:     622
 k-point 70 :   0.5000-0.1667 0.1667  plane waves:     624
 k-point 71 :  -0.3333-0.1667 0.1667  plane waves:     622
 k-point 72 :  -0.1667-0.1667 0.1667  plane waves:     618
 k-point 73 :   0.0000 0.0000 0.3333  plane waves:     612
 k-point 74 :   0.1667 0.0000 0.3333  plane waves:     614
 k-point 75 :   0.3333 0.0000 0.3333  plane waves:     618
 k-point 76 :   0.5000 0.0000 0.3333  plane waves:     614
 k-point 77 :  -0.3333-0.0000 0.3333  plane waves:     612
 k-point 78 :  -0.1667 0.0000 0.3333  plane waves:     628
 k-point 79 :   0.0000 0.1667 0.3333  plane waves:     614
 k-point 80 :   0.1667 0.1667 0.3333  plane waves:     632
 k-point 81 :   0.3333 0.1667 0.3333  plane waves:     632
 k-point 82 :   0.5000 0.1667 0.3333  plane waves:     614
 k-point 83 :  -0.3333 0.1667 0.3333  plane waves:     622
 k-point 84 :  -0.1667 0.1667 0.3333  plane waves:     622
 k-point 85 :   0.0000 0.3333 0.3333  plane waves:     618
 k-point 86 :   0.1667 0.3333 0.3333  plane waves:     632
 k-point 87 :   0.3333 0.3333 0.3333  plane waves:     618
 k-point 88 :   0.5000 0.3333 0.3333  plane waves:     608
 k-point 89 :  -0.3333 0.3333 0.3333  plane waves:     642
 k-point 90 :  -0.1667 0.3333 0.3333  plane waves:     608
 k-point 91 :   0.0000 0.5000 0.3333  plane waves:     614
 k-point 92 :   0.1667 0.5000 0.3333  plane waves:     614
 k-point 93 :   0.3333 0.5000 0.3333  plane waves:     608
 k-point 94 :   0.5000 0.5000 0.3333  plane waves:     612
 k-point 95 :  -0.3333 0.5000 0.3333  plane waves:     612
 k-point 96 :  -0.1667 0.5000 0.3333  plane waves:     608
 k-point 97 :   0.0000-0.3333 0.3333  plane waves:     612
 k-point 98 :   0.1667-0.3333 0.3333  plane waves:     622
 k-point 99 :   0.3333-0.3333 0.3333  plane waves:     642
 k-point ** :   0.5000-0.3333 0.3333  plane waves:     612
 k-point ** :  -0.3333-0.3333 0.3333  plane waves:     642
 k-point ** :  -0.1667-0.3333 0.3333  plane waves:     622
 k-point ** :   0.0000-0.1667 0.3333  plane waves:     628
 k-point ** :   0.1667-0.1667 0.3333  plane waves:     622
 k-point ** :   0.3333-0.1667 0.3333  plane waves:     608
 k-point ** :   0.5000-0.1667 0.3333  plane waves:     608
 k-point ** :  -0.3333-0.1667 0.3333  plane waves:     622
 k-point ** :  -0.1667-0.1667 0.3333  plane waves:     628
 k-point ** :   0.0000 0.0000 0.5000  plane waves:     624
 k-point ** :   0.1667 0.0000 0.5000  plane waves:     614
 k-point ** :   0.3333 0.0000 0.5000  plane waves:     614
 k-point ** :   0.5000 0.0000 0.5000  plane waves:     624
 k-point ** :  -0.3333-0.0000 0.5000  plane waves:     614
 k-point ** :  -0.1667 0.0000 0.5000  plane waves:     614
 k-point ** :   0.0000 0.1667 0.5000  plane waves:     614
 k-point ** :   0.1667 0.1667 0.5000  plane waves:     636
 k-point ** :   0.3333 0.1667 0.5000  plane waves:     614
 k-point ** :   0.5000 0.1667 0.5000  plane waves:     624
 k-point ** :  -0.3333 0.1667 0.5000  plane waves:     608
 k-point ** :  -0.1667 0.1667 0.5000  plane waves:     624
 k-point ** :   0.0000 0.3333 0.5000  plane waves:     614
 k-point ** :   0.1667 0.3333 0.5000  plane waves:     614
 k-point ** :   0.3333 0.3333 0.5000  plane waves:     608
 k-point ** :   0.5000 0.3333 0.5000  plane waves:     612
 k-point ** :  -0.3333 0.3333 0.5000  plane waves:     612
 k-point ** :  -0.1667 0.3333 0.5000  plane waves:     608
 k-point ** :   0.0000 0.5000 0.5000  plane waves:     624
 k-point ** :   0.1667 0.5000 0.5000  plane waves:     624
 k-point ** :   0.3333 0.5000 0.5000  plane waves:     612
 k-point ** :   0.5000 0.5000 0.5000  plane waves:     596
 k-point ** :  -0.3333 0.5000 0.5000  plane waves:     612
 k-point ** :  -0.1667 0.5000 0.5000  plane waves:     624
 k-point ** :   0.0000-0.3333 0.5000  plane waves:     614
 k-point ** :   0.1667-0.3333 0.5000  plane waves:     608
 k-point ** :   0.3333-0.3333 0.5000  plane waves:     612
 k-point ** :   0.5000-0.3333 0.5000  plane waves:     612
 k-point ** :  -0.3333-0.3333 0.5000  plane waves:     608
 k-point ** :  -0.1667-0.3333 0.5000  plane waves:     614
 k-point ** :   0.0000-0.1667 0.5000  plane waves:     614
 k-point ** :   0.1667-0.1667 0.5000  plane waves:     624
 k-point ** :   0.3333-0.1667 0.5000  plane waves:     608
 k-point ** :   0.5000-0.1667 0.5000  plane waves:     624
 k-point ** :  -0.3333-0.1667 0.5000  plane waves:     614
 k-point ** :  -0.1667-0.1667 0.5000  plane waves:     636
 k-point ** :   0.0000 0.0000-0.3333  plane waves:     612
 k-point ** :   0.1667 0.0000-0.3333  plane waves:     628
 k-point ** :   0.3333 0.0000-0.3333  plane waves:     612
 k-point ** :   0.5000 0.0000-0.3333  plane waves:     614
 k-point ** :  -0.3333-0.0000-0.3333  plane waves:     618
 k-point ** :  -0.1667 0.0000-0.3333  plane waves:     614
 k-point ** :   0.0000 0.1667-0.3333  plane waves:     628
 k-point ** :   0.1667 0.1667-0.3333  plane waves:     628
 k-point ** :   0.3333 0.1667-0.3333  plane waves:     622
 k-point ** :   0.5000 0.1667-0.3333  plane waves:     608
 k-point ** :  -0.3333 0.1667-0.3333  plane waves:     608
 k-point ** :  -0.1667 0.1667-0.3333  plane waves:     622
 k-point ** :   0.0000 0.3333-0.3333  plane waves:     612
 k-point ** :   0.1667 0.3333-0.3333  plane waves:     622
 k-point ** :   0.3333 0.3333-0.3333  plane waves:     642
 k-point ** :   0.5000 0.3333-0.3333  plane waves:     612
 k-point ** :  -0.3333 0.3333-0.3333  plane waves:     642
 k-point ** :  -0.1667 0.3333-0.3333  plane waves:     622
 k-point ** :   0.0000 0.5000-0.3333  plane waves:     614
 k-point ** :   0.1667 0.5000-0.3333  plane waves:     608
 k-point ** :   0.3333 0.5000-0.3333  plane waves:     612
 k-point ** :   0.5000 0.5000-0.3333  plane waves:     612
 k-point ** :  -0.3333 0.5000-0.3333  plane waves:     608
 k-point ** :  -0.1667 0.5000-0.3333  plane waves:     614
 k-point ** :   0.0000-0.3333-0.3333  plane waves:     618
 k-point ** :   0.1667-0.3333-0.3333  plane waves:     608
 k-point ** :   0.3333-0.3333-0.3333  plane waves:     642
 k-point ** :   0.5000-0.3333-0.3333  plane waves:     608
 k-point ** :  -0.3333-0.3333-0.3333  plane waves:     618
 k-point ** :  -0.1667-0.3333-0.3333  plane waves:     632
 k-point ** :   0.0000-0.1667-0.3333  plane waves:     614
 k-point ** :   0.1667-0.1667-0.3333  plane waves:     622
 k-point ** :   0.3333-0.1667-0.3333  plane waves:     622
 k-point ** :   0.5000-0.1667-0.3333  plane waves:     614
 k-point ** :  -0.3333-0.1667-0.3333  plane waves:     632
 k-point ** :  -0.1667-0.1667-0.3333  plane waves:     632
 k-point ** :   0.0000 0.0000-0.1667  plane waves:     638
 k-point ** :   0.1667 0.0000-0.1667  plane waves:     638
 k-point ** :   0.3333 0.0000-0.1667  plane waves:     628
 k-point ** :   0.5000 0.0000-0.1667  plane waves:     614
 k-point ** :  -0.3333-0.0000-0.1667  plane waves:     614
 k-point ** :  -0.1667 0.0000-0.1667  plane waves:     628
 k-point ** :   0.0000 0.1667-0.1667  plane waves:     638
 k-point ** :   0.1667 0.1667-0.1667  plane waves:     618
 k-point ** :   0.3333 0.1667-0.1667  plane waves:     622
 k-point ** :   0.5000 0.1667-0.1667  plane waves:     624
 k-point ** :  -0.3333 0.1667-0.1667  plane waves:     622
 k-point ** :  -0.1667 0.1667-0.1667  plane waves:     618
 k-point ** :   0.0000 0.3333-0.1667  plane waves:     628
 k-point ** :   0.1667 0.3333-0.1667  plane waves:     622
 k-point ** :   0.3333 0.3333-0.1667  plane waves:     608
 k-point ** :   0.5000 0.3333-0.1667  plane waves:     608
 k-point ** :  -0.3333 0.3333-0.1667  plane waves:     622
 k-point ** :  -0.1667 0.3333-0.1667  plane waves:     628
 k-point ** :   0.0000 0.5000-0.1667  plane waves:     614
 k-point ** :   0.1667 0.5000-0.1667  plane waves:     624
 k-point ** :   0.3333 0.5000-0.1667  plane waves:     608
 k-point ** :   0.5000 0.5000-0.1667  plane waves:     624
 k-point ** :  -0.3333 0.5000-0.1667  plane waves:     614
 k-point ** :  -0.1667 0.5000-0.1667  plane waves:     636
 k-point ** :   0.0000-0.3333-0.1667  plane waves:     614
 k-point ** :   0.1667-0.3333-0.1667  plane waves:     622
 k-point ** :   0.3333-0.3333-0.1667  plane waves:     622
 k-point ** :   0.5000-0.3333-0.1667  plane waves:     614
 k-point ** :  -0.3333-0.3333-0.1667  plane waves:     632
 k-point ** :  -0.1667-0.3333-0.1667  plane waves:     632
 k-point ** :   0.0000-0.1667-0.1667  plane waves:     628
 k-point ** :   0.1667-0.1667-0.1667  plane waves:     618
 k-point ** :   0.3333-0.1667-0.1667  plane waves:     628
 k-point ** :   0.5000-0.1667-0.1667  plane waves:     636
 k-point ** :  -0.3333-0.1667-0.1667  plane waves:     632
 k-point ** :  -0.1667-0.1667-0.1667  plane waves:     636

 maximum and minimum number of plane-waves per node :       178      130

 maximum number of plane-waves:       642
 maximum index in each direction: 
   IXMAX=    4   IYMAX=    4   IZMAX=    4
   IXMIN=   -5   IYMIN=   -5   IZMIN=   -5


 parallel 3D FFT for wavefunctions:
    minimum data exchange during FFTs selected (reduces bandwidth)
 parallel 3D FFT for charge:
    minimum data exchange during FFTs selected (reduces bandwidth)


 total amount of memory used by VASP MPI-rank0    39642. kBytes
=======================================================================

   base      :      30000. kBytes
   nonl-proj :       2863. kBytes
   fftplans  :        995. kBytes
   grid      :       1078. kBytes
   one-center:         62. kBytes
   wavefun   :       4644. kBytes
 
     INWAV:  cpu time    0.8643: real time    0.8641
 Broyden mixing: mesh for mixing (old mesh)
   NGX =  9   NGY =  9   NGZ =  9
  (NGX  = 36   NGY  = 36   NGZ  = 36)
  gives a total of    729 points

 charge density for first step will be calculated from the start-wavefunctions


--------------------------------------------------------------------------------------------------------


 Maximum index for augmentation-charges         7635 (set IRDMAX)


--------------------------------------------------------------------------------------------------------


 initial charge from wavefunction
 First call to EWALD:  gamma=   0.597
 Maximum number of real-space cells 3x 3x 3
 Maximum number of reciprocal cells 3x 3x 3

    FEWALD:  cpu time    0.0027: real time    0.0027


--------------------------------------- Iteration      1(   1)  ---------------------------------------


    POTLOK:  cpu time    0.0132: real time    0.0144
    SETDIJ:  cpu time    0.0169: real time    0.0169
     EDDAV:  cpu time    0.4690: real time    0.4693
       DOS:  cpu time    0.0020: real time    0.0020
    --------------------------------------------
      LOOP:  cpu time    0.5011: real time    0.5025

 eigenvalue-minimisations  :  9520
 total energy-change (2. order) :-0.1002127E+01  (-0.2279815E-12)
 number of electron      12.0000000 magnetization      -0.0000000     -0.0000000     -0.0000000
 augmentation part        1.6085143 magnetization       0.0000000      0.0000000      0.0000000

 Free energy of the ion-electron system (eV)
  ---------------------------------------------------
  alpha Z        PSCENC =        85.78503292
  Ewald energy   TEWEN  =     -1007.86219743
  -Hartree energ DENC   =      -129.11791613
  -exchange      EXHF   =         0.00000000
  -V(xc)+E(xc)   XCENC  =      -109.44526320
  PAW double counting   =      1065.86733485     -928.73166673
  entropy T*S    EENTRO =        -0.00000000
  eigenvalues    EBANDS =         0.79661899
  atomic energy  EATOM  =      1021.70593014
  Solvation  Ediel_sol  =         0.00000000
  ---------------------------------------------------
  free energy    TOTEN  =        -1.00212657 eV

  energy without entropy =       -1.00212657  energy(sigma->0) =       -1.00212657


--------------------------------------------------------------------------------------------------------




--------------------------------------- Iteration      1(   2)  ---------------------------------------


     EDDAV:  cpu time    0.4271: real time    0.4293
       DOS:  cpu time    0.0018: real time    0.0017
    --------------------------------------------
      LOOP:  cpu time    0.4288: real time    0.4311

 eigenvalue-minimisations  :  8640
 total energy-change (2. order) :-0.4774847E-11  (-0.2636381E-13)
 number of electron      12.0000000 magnetization      -0.0000000     -0.0000000     -0.0000000
 augmentation part        1.6085143 magnetization       0.0000000      0.0000000      0.0000000

 Free energy of the ion-electron system (eV)
  ---------------------------------------------------
  alpha Z        PSCENC =        85.78503292
  Ewald energy   TEWEN  =     -1007.86219743
  -Hartree energ DENC   =      -129.11791613
  -exchange      EXHF   =         0.00000000
  -V(xc)+E(xc)   XCENC  =      -109.44526320
  PAW double counting   =      1065.86733485     -928.73166673
  entropy T*S    EENTRO =        -0.00000000
  eigenvalues    EBANDS =         0.79661899
  atomic energy  EATOM  =      1021.70593014
  Solvation  Ediel_sol  =         0.00000000
  ---------------------------------------------------
  free energy    TOTEN  =        -1.00212657 eV

  energy without entropy =       -1.00212657  energy(sigma->0) =       -1.00212657


--------------------------------------------------------------------------------------------------------




--------------------------------------- Iteration      1(   3)  ---------------------------------------


     EDDAV:  cpu time    0.4614: real time    0.4617
       DOS:  cpu time    0.0014: real time    0.0018
    --------------------------------------------
      LOOP:  cpu time    0.4628: real time    0.4634

 eigenvalue-minimisations  :  9296
 total energy-change (2. order) :-0.2273737E-11  ( 0.1443624E-13)
 number of electron      12.0000000 magnetization      -0.0000000     -0.0000000     -0.0000000
 augmentation part        1.6085143 magnetization       0.0000000      0.0000000      0.0000000

 Free energy of the ion-electron system (eV)
  ---------------------------------------------------
  alpha Z        PSCENC =        85.78503292
  Ewald energy   TEWEN  =     -1007.86219743
  -Hartree energ DENC   =      -129.11791613
  -exchange      EXHF   =         0.00000000
  -V(xc)+E(xc)   XCENC  =      -109.44526320
  PAW double counting   =      1065.86733485     -928.73166673
  entropy T*S    EENTRO =        -0.00000000
  eigenvalues    EBANDS =         0.79661899
  atomic energy  EATOM  =      1021.70593014
  Solvation  Ediel_sol  =         0.00000000
  ---------------------------------------------------
  free energy    TOTEN  =        -1.00212657 eV

  energy without entropy =       -1.00212657  energy(sigma->0) =       -1.00212657


--------------------------------------------------------------------------------------------------------




--------------------------------------- Iteration      1(   4)  ---------------------------------------


     EDDAV:  cpu time    0.4203: real time    0.4203
       DOS:  cpu time    0.0016: real time    0.0016
    --------------------------------------------
      LOOP:  cpu time    0.4219: real time    0.4219

 eigenvalue-minimisations  :  8352
 total energy-change (2. order) :-0.1591616E-11  ( 0.9349132E-14)
 number of electron      12.0000000 magnetization      -0.0000000     -0.0000000     -0.0000000
 augmentation part        1.6085143 magnetization       0.0000000      0.0000000      0.0000000

 Free energy of the ion-electron system (eV)
  ---------------------------------------------------
  alpha Z        PSCENC =        85.78503292
  Ewald energy   TEWEN  =     -1007.86219743
  -Hartree energ DENC   =      -129.11791613
  -exchange      EXHF   =         0.00000000
  -V(xc)+E(xc)   XCENC  =      -109.44526320
  PAW double counting   =      1065.86733485     -928.73166673
  entropy T*S    EENTRO =        -0.00000000
  eigenvalues    EBANDS =         0.79661899
  atomic energy  EATOM  =      1021.70593014
  Solvation  Ediel_sol  =         0.00000000
  ---------------------------------------------------
  free energy    TOTEN  =        -1.00212657 eV

  energy without entropy =       -1.00212657  energy(sigma->0) =       -1.00212657


--------------------------------------------------------------------------------------------------------




--------------------------------------- Iteration      1(   5)  ---------------------------------------


[...]
    0.000000 2042.095014 2041.904128 2041.135812   -0.519970   -0.663631   -0.358523
    0.369988  607.036351  607.048218  607.095259   -0.008187    0.040940    0.040031
    0.739975   63.163558   63.165224   63.171637   -0.010160    0.005649    0.009538
    1.109963    7.224888    7.224956    7.225051   -0.008262    0.000147    0.003803
    1.479951    6.178305    6.178270    6.177998   -0.006329   -0.000188    0.002646
    1.849938   31.381278   31.380776   31.378663   -0.005746   -0.001792    0.000961
    2.219926    7.717923    7.717846    7.717451   -0.004318   -0.000312    0.001641
    2.589913   13.104146   13.104018   13.103430   -0.003802   -0.000483    0.001259
    2.959901   38.347914   38.348327   38.349913   -0.002597    0.001396    0.002392
    3.329889   13.168674   13.169876   13.174624   -0.001141    0.004132    0.004176
    3.699876   21.327078   21.327010   21.326683   -0.002667   -0.000266    0.000945
    4.069864   16.004925   16.004966   16.005084   -0.002292    0.000117    0.001119
    4.439852    4.802317    4.802341    4.802391   -0.002135    0.000057    0.000995
    4.809839    5.469847    5.469903    5.470084   -0.001937    0.000168    0.001006
    5.179827    9.326463    9.326314    9.325679   -0.002097   -0.000539    0.000447
    5.549815    3.492538    3.492580    3.492710   -0.001716    0.000122    0.000865
    5.919802    3.063287    3.063306    3.063343   -0.001654    0.000040    0.000764
    6.289790    7.482402    7.482428    7.482496   -0.001560    0.000066    0.000745
    6.659778    5.379864    5.379846    5.379738   -0.001549   -0.000087    0.000604
    7.029765    3.155112    3.155285    3.155946   -0.001214    0.000577    0.001045
    7.399753    6.460623    6.460576    6.460357   -0.001469   -0.000185    0.000480
    7.769740    3.600295    3.600230    3.599941   -0.001444   -0.000248    0.000413
    8.139728    2.591287    2.591577    2.592706   -0.000898    0.000980    0.001260
    8.509716    4.276379    4.276412    4.276517   -0.001222    0.000093    0.000614
    8.879703    5.019623    5.019629    5.019621   -0.001227   -0.000006    0.000528
    9.249691    2.435731    2.435744    2.435770   -0.001185    0.000022    0.000534
    9.619679    2.839993    2.840008    2.840039   -0.001156    0.000026    0.000524
    9.989666    1.611021    1.611037    1.611071   -0.001132    0.000027    0.000513
   10.359654    2.538585    2.538594    2.538604   -0.001120    0.000006    0.000488
   10.729642    2.146644    2.146660    2.146696   -0.001093    0.000028    0.000494
   11.099629    1.985424    1.985434    1.985449   -0.001087    0.000008    0.000472
   11.469617    1.336803    1.336808    1.336800   -0.001082   -0.000013    0.000451
   11.839604    1.684106    1.684115    1.684123   -0.001068   -0.000001    0.000454
   12.209592    2.269165    2.269209    2.269356   -0.001011    0.000119    0.000534
   12.579580    2.457234    2.457313    2.457597   -0.000958    0.000237    0.000613
   12.949567    2.261736    2.261735    2.261700   -0.001069   -0.000041    0.000414
   13.319555    1.101400    1.101350    1.101116   -0.001140   -0.000214    0.000289
   13.689543    1.215273    1.215289    1.215319   -0.001049    0.000012    0.000448
   14.059530    2.264105    2.264119    2.264140   -0.001058    0.000003    0.000441
   14.429518    2.148177    2.148184    2.148179   -0.001076   -0.000022    0.000424
   14.799506    0.946483    0.946493    0.946498   -0.001084   -0.000016    0.000430
   15.169493    0.792134    0.792144    0.792146   -0.001100   -0.000021    0.000429
   15.539481    1.812443    1.812444    1.812407   -0.001132   -0.000057    0.000407
   15.909468    1.960708    1.960717    1.960709   -0.001144   -0.000035    0.000427
   16.279456    0.671200    0.671212    0.671215   -0.001167   -0.000029    0.000437
   16.649444    1.036415    1.036432    1.036447   -0.001195   -0.000023    0.000449
   17.019431    1.883042    1.883064    1.883096   -0.001228   -0.000013    0.000465
   17.389419    2.683625    2.683656    2.683722   -0.001261    0.000010    0.000492
   17.759407    2.326759    2.326754    2.326665   -0.001370   -0.000131    0.000404
   18.129394    1.151964    1.151991    1.152022   -0.001393   -0.000035    0.000486
   18.499382    2.165691    2.165745    2.165872   -0.001437    0.000038    0.000555
   18.869370    1.822751    1.822501    1.821400   -0.001966   -0.001040   -0.000188
   19.239357    1.526130    1.526249    1.526603   -0.001569    0.000206    0.000714
   19.609345    2.139903    2.139854    2.139514   -0.001964   -0.000419    0.000298
   19.979333    1.429346    1.429401    1.429428   -0.002027   -0.000128    0.000530
   20.349320    2.669949    2.670015    2.670022   -0.002297   -0.000186    0.000516
   20.719308    2.152518    2.152601    2.152529   -0.002689   -0.000301    0.000447
   21.089295    1.343777    1.343897    1.343561   -0.003356   -0.000559    0.000211
   21.459283    2.826090    2.826452    2.824922   -0.004748   -0.001116   -0.000656
   21.829271    1.027651    1.031332    1.016658    0.003599    0.005071    0.003074
   22.199258    1.156876    1.157178    1.156427   -0.001953    0.001232    0.003426
   22.569246    1.309471    1.309683    1.310128   -0.005505    0.000421    0.004030
   22.939234    0.693596    0.693485    0.700093   -0.016328   -0.000456    0.010487
   23.309221    0.795399    0.795987    0.798869    0.008049    0.002076    0.002515
   23.679209    1.122355    1.124699    1.123585   -0.004746    0.002074    0.000126
   24.049197    0.652965    0.679786    0.670182   -0.001931   -0.006146   -0.001251
   24.419184    0.400108    0.401894    0.401256    0.008389   -0.001518   -0.002889
   24.789172    0.435829    0.436314    0.436041    0.005337   -0.000598   -0.001407
   25.159159    0.337028    0.337420    0.336574    0.004536   -0.000408   -0.000802
   25.529147    0.218892    0.220284    0.217381    0.002463    0.000585   -0.002355
   25.899135    0.176533    0.176640    0.176444    0.001786    0.000311   -0.000867
   26.269122    0.143246    0.143166    0.143165    0.001950    0.000331   -0.000388
   26.639110    0.230880    0.230438    0.230517    0.002222    0.000331   -0.000181
   27.009098    0.083653    0.077762    0.080573    0.002579   -0.000000    0.001466
   27.379085    0.024330    0.023322    0.023566    0.000031   -0.000207   -0.000991
   27.749073    0.012457    0.012274    0.012334    0.000641    0.000017   -0.000465
   28.119061    0.008823    0.008770    0.008803    0.000898    0.000140   -0.000236
   28.489048    0.006968    0.006979    0.007024    0.001222    0.000295   -0.000001
   28.859036    0.006493    0.006740    0.006964    0.002451    0.000686    0.000454
   29.229024    0.006363    0.006831    0.007233   -0.000486   -0.001278   -0.001996
   29.599011    0.004159    0.004206    0.004252   -0.000182   -0.000459   -0.000838
   29.968999    0.003500    0.003514    0.003530    0.000028   -0.000269   -0.000573
   30.338986    0.003037    0.003044    0.003051    0.000117   -0.000189   -0.000453
   30.708974    0.002671    0.002675    0.002679    0.000159   -0.000144   -0.000380
   31.078962    0.002369    0.002372    0.002374    0.000180   -0.000116   -0.000330
   31.448949    0.002116    0.002118    0.002119    0.000190   -0.000096   -0.000293
   31.818937    0.001900    0.001902    0.001903    0.000193   -0.000081   -0.000263
   32.188925    0.001714    0.001716    0.001716    0.000193   -0.000070   -0.000239
   32.558912    0.001553    0.001554    0.001555    0.000190   -0.000062   -0.000219
   32.928900    0.001412    0.001413    0.001414    0.000186   -0.000054   -0.000202
   33.298888    0.001288    0.001289    0.001289    0.000182   -0.000049   -0.000187
   33.668875    0.001179    0.001179    0.001180    0.000176   -0.000044   -0.000174
   34.038863    0.001081    0.001082    0.001082    0.000171   -0.000040   -0.000163
   34.408850    0.000994    0.000995    0.000995    0.000165   -0.000036   -0.000152
   34.778838    0.000917    0.000917    0.000917    0.000160   -0.000033   -0.000143
   35.148826    0.000847    0.000847    0.000847    0.000154   -0.000030   -0.000135
   35.518813    0.000784    0.000784    0.000784    0.000149   -0.000028   -0.000127
   35.888801    0.000727    0.000727    0.000727    0.000143   -0.000026   -0.000120
   36.258789    0.000675    0.000675    0.000675    0.000138   -0.000024   -0.000114
   36.628776    0.000628    0.000628    0.000628    0.000133   -0.000022   -0.000108

  frequency dependent      REAL DIELECTRIC FUNCTION (independent particle, no local field effects) current-current (2nd set in vasprun.xml)
     E(ev)        X           Y           Z          XY          YZ          ZX
  --------------------------------------------------------------------------------------------------------------
    0.000000  268.271127  268.253155  268.180359   -0.025752   -0.063010   -0.044459
    0.369988 -310.450312 -310.376131 -310.080447    0.104540    0.256185    0.181262
    0.739975  -81.434554  -81.431177  -81.418642    0.004419    0.010909    0.007813
    1.109963  -33.107357  -33.106052  -33.101796    0.001491    0.003738    0.002741
    1.479951   -1.986377   -1.985633   -1.983618    0.000699    0.001797    0.001369
    1.849938   19.300504   19.300805   19.301046    0.000072    0.000261    0.000283
    2.219926   -1.737838   -1.737181   -1.735520    0.000573    0.001490    0.001153
    2.589913   19.730721   19.730982   19.731058    0.000013    0.000118    0.000183
    2.959901  -24.660055  -24.659207  -24.656785    0.000842    0.002148    0.001619
    3.329889   -7.470751   -7.470074   -7.468343    0.000598    0.001551    0.001197
    3.699876    6.486687    6.487012    6.487331    0.000099    0.000329    0.000333
    4.069864  -13.844420  -13.843978  -13.843196    0.000262    0.000730    0.000617
    4.439852   -7.867259   -7.866871   -7.866310    0.000184    0.000539    0.000483
    4.809839   -6.405417   -6.405080   -6.404731    0.000109    0.000356    0.000354
    5.179827   -3.445700   -3.445351   -3.444960    0.000124    0.000393    0.000381
    5.549815   -3.691374   -3.691093   -3.690986    0.000024    0.000148    0.000208
    5.919802   -2.343074   -2.342788   -2.342664    0.000029    0.000162    0.000220
    6.289790    1.971242    1.971528    1.971643    0.000026    0.000155    0.000215
    6.659778   -0.308396   -0.308150   -0.308208   -0.000035    0.000006    0.000111
    7.029765   -3.501259   -3.500871   -3.500371    0.000162    0.000491    0.000455
    7.399753   -0.557893   -0.557666   -0.557822   -0.000069   -0.000076    0.000055
    7.769740   -1.203566   -1.203380   -1.203713   -0.000132   -0.000229   -0.000052
    8.139728   -0.122695   -0.122480   -0.122711   -0.000096   -0.000139    0.000013
    8.509716    1.298737    1.298966    1.298778   -0.000081   -0.000101    0.000042
    8.879703   -3.174504   -3.174210   -3.174159    0.000004    0.000108    0.000191
    9.249691   -2.604281   -2.604003   -2.604034   -0.000025    0.000039    0.000144
    9.619679   -0.609280   -0.608977   -0.608922    0.000005    0.000114    0.000199
    9.989666   -1.936978   -1.936695   -1.936742   -0.000031    0.000028    0.000139
   10.359654   -0.146959   -0.146666   -0.146695   -0.000025    0.000045    0.000153
   10.729642   -0.786768   -0.786469   -0.786498   -0.000024    0.000048    0.000157
   11.099629   -1.600281   -1.599979   -1.600017   -0.000028    0.000041    0.000155
   11.469617   -0.180892   -0.180585   -0.180629   -0.000030    0.000038    0.000156
   11.839604    0.692566    0.692891    0.692889   -0.000015    0.000078    0.000186
   12.209592   -0.006616   -0.006287   -0.006303   -0.000020    0.000069    0.000183
   12.579580   -0.949873   -0.949726   -0.950502   -0.000288   -0.000587   -0.000278
   12.949567   -1.475961   -1.475623   -1.475672   -0.000031    0.000046    0.000173
   13.319555    0.121324    0.121672    0.121622   -0.000031    0.000050    0.000179
   13.689543   -0.376747   -0.376409   -0.376538   -0.000058   -0.000015    0.000137
   14.059530    1.046128    1.046487    1.046395   -0.000045    0.000022    0.000167
   14.429518   -1.205826   -1.205442   -1.205485   -0.000027    0.000070    0.000206
   14.799506   -0.806743   -0.806371   -0.806517   -0.000062   -0.000013    0.000152
   15.169493   -0.040776   -0.040389   -0.040535   -0.000062   -0.000007    0.000162
   15.539481    0.318256    0.318658    0.318506   -0.000062   -0.000003    0.000170
   15.909468   -0.440177   -0.439754   -0.439895   -0.000057    0.000014    0.000189
   16.279456    0.122348    0.122793    0.122652   -0.000054    0.000026    0.000205
   16.649444    0.856497    0.856942    0.856707   -0.000085   -0.000043    0.000164
   17.019431    1.129918    1.130406    1.130235   -0.000059    0.000027    0.000221
   17.389419    0.620269    0.620781    0.620585   -0.000063    0.000023    0.000228
   17.759407    0.233955    0.234522    0.234405   -0.000028    0.000114    0.000303
   18.129394    0.135114    0.135698    0.135488   -0.000053    0.000059    0.000276
   18.499382    0.060060    0.060722    0.060632    0.000001    0.000197    0.000387
   18.869370   -0.012287   -0.011634   -0.011995   -0.000077    0.000008    0.000268
   19.239357   -0.312503   -0.311679   -0.311637    0.000088    0.000415    0.000573
   19.609345   -0.556756   -0.556058   -0.556876   -0.000178   -0.000244    0.000125
   19.979333    0.617440    0.618364    0.617983    0.000036    0.000259    0.000501
   20.349320   -0.080464   -0.079451   -0.080135    0.000031    0.000199    0.000480
   20.719308   -0.961916   -0.960735   -0.961772    0.000114    0.000261    0.000527
   21.089295   -0.397509   -0.396047   -0.397806    0.000347    0.000442    0.000633
   21.459283   -0.520781   -0.518627   -0.522528    0.001424    0.001248    0.001109
   21.829271   -1.345030   -1.345318   -1.338729    0.005716    0.002582    0.006580
   22.199258   -0.913360   -0.912945   -0.907437   -0.001280   -0.000986    0.001831
   22.569246   -1.036736   -1.035653   -1.030405   -0.001310   -0.000645    0.002422
   22.939234   -0.691746   -0.690145   -0.680208    0.003740    0.000013    0.004071
   23.309221   -0.854643   -0.850414   -0.860123    0.007311   -0.000511   -0.008592
   23.679209   -0.271094   -0.265161   -0.269115    0.000557   -0.002212   -0.003395
   24.049197   -1.129180   -1.130013   -1.130864    0.027324   -0.005929   -0.011849
   24.419184   -0.489205   -0.496299   -0.494913    0.003562    0.001173   -0.001605
   24.789172   -0.694197   -0.697995   -0.697883    0.001584    0.000764   -0.001039
   25.159159   -0.810996   -0.813368   -0.814574    0.001077    0.000846   -0.001067
   25.529147   -0.429063   -0.432252   -0.429223   -0.003122    0.000390   -0.001622
   25.899135   -0.531792   -0.534478   -0.532673    0.000173    0.000104   -0.000133
   26.269122   -0.266961   -0.269610   -0.268256    0.000269    0.000041   -0.000159
   26.639110   -0.379110   -0.382335   -0.380836    0.000093   -0.000204   -0.000240
   27.009098   -0.279615   -0.285276   -0.283131   -0.001860   -0.001084   -0.000250
   27.379085   -0.207589   -0.205393   -0.205798   -0.000098    0.000090   -0.000643
   27.749073   -0.116286   -0.115551   -0.115541    0.000316    0.000076   -0.000385
   28.119061   -0.049390   -0.049042   -0.048881    0.000412    0.000025   -0.000379
   28.489048    0.006078    0.006341    0.006625    0.000516   -0.000070   -0.000477
   28.859036    0.054951    0.055449    0.056021    0.000540   -0.000542   -0.001118
   29.229024    0.092638    0.091796    0.091295   -0.002398   -0.000301   -0.000417
   29.599011    0.132328    0.131891    0.131754   -0.000525    0.000122   -0.000001
   29.968999    0.167484    0.167150    0.167109   -0.000230    0.000117   -0.000024
   30.338986    0.199562    0.199270    0.199269   -0.000123    0.000104   -0.000040
   30.708974    0.229134    0.228868    0.228888   -0.000070    0.000092   -0.000048
   31.078962    0.256569    0.256320    0.256352   -0.000039    0.000084   -0.000053
   31.448949    0.282141    0.281906    0.281945   -0.000021    0.000076   -0.000055
   31.818937    0.306068    0.305844    0.305888   -0.000008    0.000070   -0.000056
   32.188925    0.328527    0.328314    0.328360    0.000000    0.000065   -0.000056
   32.558912    0.349667    0.349464    0.349512    0.000006    0.000061   -0.000055
   32.928900    0.369616    0.369421    0.369469    0.000011    0.000057   -0.000054
   33.298888    0.388480    0.388293    0.388342    0.000014    0.000054   -0.000053
   33.668875    0.406354    0.406175    0.406223    0.000016    0.000051   -0.000052
   34.038863    0.423320    0.423147    0.423196    0.000018    0.000048   -0.000050
   34.408850    0.439450    0.439284    0.439331    0.000019    0.000046   -0.000049
   34.778838    0.454808    0.454647    0.454694    0.000020    0.000043   -0.000048
   35.148826    0.469450    0.469295    0.469341    0.000020    0.000041   -0.000047
   35.518813    0.483428    0.483278    0.483324    0.000021    0.000040   -0.000045
   35.888801    0.496787    0.496642    0.496687    0.000021    0.000038   -0.000044
   36.258789    0.509569    0.509429    0.509473    0.000021    0.000036   -0.000043
   36.628776    0.521811    0.521675    0.521718    0.000021    0.000035   -0.000042
 
 The outermost node in the dielectric function lies at epsilon=  28.5


--------------------------------------------------------------------------------------------------------


    OPTICS:  cpu time    0.2270: real time    0.2350
    4ORBIT:  cpu time    0.0000: real time    0.0000

 Spin-Orbit-Coupling matrix elements

 Ion:    1  E_soc:     -2.7373695
 l=   1
     0.0000000    -0.1310062    -0.1310072
    -0.1310062     0.0000000    -0.1310064
    -0.1310072    -0.1310064     0.0000000
 l=   2
     0.0000000    -0.0642159     0.0000000    -0.0628354    -0.2610061
    -0.0642159     0.0000000    -0.1967895    -0.0642159    -0.0655966
     0.0000000    -0.1967895     0.0000000    -0.1947189     0.0000000
    -0.0628354    -0.0642159    -0.1947189     0.0000000    -0.0662868
    -0.2610061    -0.0655966     0.0000000    -0.0662868     0.0000000
 l=   3
     0.0000000     0.0000000     0.0000000     0.0000000     0.0000000     0.0000000     0.0000000
     0.0000000     0.0000000     0.0000000     0.0000000     0.0000000     0.0000000     0.0000000
     0.0000000     0.0000000     0.0000000     0.0000000     0.0000000     0.0000000     0.0000000
     0.0000000     0.0000000     0.0000000     0.0000000     0.0000000     0.0000000     0.0000000
     0.0000000     0.0000000     0.0000000     0.0000000     0.0000000     0.0000000     0.0000000
     0.0000000     0.0000000     0.0000000     0.0000000     0.0000000     0.0000000     0.0000000
     0.0000000     0.0000000     0.0000000     0.0000000     0.0000000     0.0000000     0.0000000

 total amount of memory used by VASP MPI-rank0    39642. kBytes
=======================================================================

   base      :      30000. kBytes
   nonl-proj :       2863. kBytes
   fftplans  :        995. kBytes
   grid      :       1078. kBytes
   one-center:         62. kBytes
   wavefun   :       4644. kBytes
 
  
  
 General timing and accounting informations for this job:
 ========================================================
  
                  Total CPU time used (sec):        6.120
                            User time (sec):        5.782
                          System time (sec):        0.338
                         Elapsed time (sec):        7.277
  
                   Maximum memory used (kb):      104248.
                   Average memory used (kb):           0.
  
                          Minor page faults:        24571
                          Major page faults:            0
                 Voluntary context switches:         1395
