   1   1   0   0
  0.6083477E+02  0.4414576E-09  0.4414576E-09  0.4414576E-09  0.1000000E-15
  1.000000000000000E-004
  CAR 
 Og_FCC                                  
     55.40855508    -55.05957156  301     -2.95543849      1.00000000
    -55.060  0.0000E+00  0.0000E+00
    -54.691  0.0000E+00  0.0000E+00
    -54.323  0.0000E+00  0.0000E+00
    -53.955  0.0000E+00  0.0000E+00
    -53.587  0.0000E+00  0.0000E+00
    -53.218  0.0000E+00  0.0000E+00
    -52.850  0.0000E+00  0.0000E+00
    -52.482  0.0000E+00  0.0000E+00
    -52.114  0.0000E+00  0.0000E+00
    -51.746  0.0000E+00  0.0000E+00
    -51.377  0.0000E+00  0.0000E+00
    -51.009  0.0000E+00  0.0000E+00
    -50.641  0.0000E+00  0.0000E+00
    -50.273  0.0000E+00  0.0000E+00
    -49.904  0.0000E+00  0.4000E+01
    -49.536  0.0000E+00  0.4000E+01
    -49.168  0.0000E+00  0.4000E+01
    -48.800  0.0000E+00  0.4000E+01
    -48.431  0.0000E+00  0.4000E+01
    -48.063  0.0000E+00  0.4000E+01
    -47.695  0.0000E+00  0.4000E+01
    -47.327  0.0000E+00  0.4000E+01
    -46.959  0.0000E+00  0.4000E+01
    -46.590  0.0000E+00  0.4000E+01
    -46.222  0.0000E+00  0.4000E+01
    -45.854  0.0000E+00  0.4000E+01
    -45.486  0.0000E+00  0.4000E+01
    -45.117  0.0000E+00  0.1000E+02
    -44.749  0.0000E+00  0.1000E+02
    -44.381  0.0000E+00  0.1000E+02
    -44.013  0.0000E+00  0.1000E+02
    -43.645  0.0000E+00  0.1000E+02
    -43.276  0.0000E+00  0.1000E+02
    -42.908  0.0000E+00  0.1000E+02
    -42.540  0.0000E+00  0.1000E+02
    -42.172  0.0000E+00  0.1000E+02
    -41.803  0.0000E+00  0.1000E+02
    -41.435  0.0000E+00  0.1000E+02
    -41.067  0.0000E+00  0.1000E+02
    -40.699  0.0000E+00  0.1000E+02
    -40.330  0.0000E+00  0.1000E+02
    -39.962  0.0000E+00  0.1000E+02
    -39.594  0.0000E+00  0.1000E+02
    -39.226  0.0000E+00  0.1000E+02
    -38.858  0.0000E+00  0.1000E+02
    -38.489  0.0000E+00  0.1000E+02
    -38.121  0.0000E+00  0.1000E+02
    -37.753  0.0000E+00  0.1000E+02
    -37.385  0.0000E+00  0.1000E+02
    -37.016  0.0000E+00  0.1000E+02
    -36.648  0.0000E+00  0.1000E+02
    -36.280  0.0000E+00  0.1000E+02
    -35.912  0.0000E+00  0.1000E+02
    -35.544  0.0000E+00  0.1000E+02
    -35.175  0.0000E+00  0.1000E+02
    -34.807  0.0000E+00  0.1000E+02
    -34.439  0.0000E+00  0.1000E+02
    -34.071  0.0000E+00  0.1000E+02
    -33.702  0.0000E+00  0.1000E+02
    -33.334  0.0000E+00  0.1000E+02
    -32.966  0.0000E+00  0.1000E+02
    -32.598  0.0000E+00  0.1000E+02
    -32.229  0.0000E+00  0.1000E+02
    -31.861  0.0000E+00  0.1000E+02
    -31.493  0.0000E+00  0.1000E+02
    -31.125  0.0000E+00  0.1000E+02
    -30.757  0.0000E+00  0.1000E+02
    -30.388  0.0000E+00  0.1000E+02
    -30.020  0.0000E+00  0.1000E+02
    -29.652  0.0000E+00  0.1000E+02
    -29.284  0.0000E+00  0.1000E+02
    -28.915  0.0000E+00  0.1000E+02
    -28.547  0.0000E+00  0.1000E+02
    -28.179  0.0000E+00  0.1000E+02
    -27.811  0.0000E+00  0.1000E+02
    -27.443  0.0000E+00  0.1000E+02
    -27.074  0.0000E+00  0.1000E+02
    -26.706  0.0000E+00  0.1000E+02
    -26.338  0.0000E+00  0.1000E+02
    -25.970  0.0000E+00  0.1000E+02
    -25.601  0.0000E+00  0.1000E+02
    -25.233  0.0000E+00  0.1000E+02
    -24.865  0.0000E+00  0.1000E+02
    -24.497  0.0000E+00  0.1000E+02
    -24.128  0.0000E+00  0.1000E+02
    -23.760  0.0000E+00  0.1000E+02
    -23.392  0.0000E+00  0.1000E+02
    -23.024  0.0000E+00  0.1000E+02
    -22.656  0.0000E+00  0.1000E+02
    -22.287  0.0000E+00  0.1000E+02
    -21.919  0.0000E+00  0.1000E+02
    -21.551  0.0000E+00  0.1000E+02
    -21.183  0.0000E+00  0.1000E+02
    -20.814  0.0000E+00  0.1000E+02
    -20.446  0.0000E+00  0.1000E+02
    -20.078  0.0000E+00  0.1000E+02
    -19.710  0.0000E+00  0.1034E+02
    -19.342  0.0000E+00  0.1200E+02
    -18.973  0.0000E+00  0.1200E+02
    -18.605  0.0000E+00  0.1200E+02
    -18.237  0.0000E+00  0.1200E+02
    -17.869  0.0000E+00  0.1200E+02
    -17.500  0.0000E+00  0.1200E+02
    -17.132  0.0000E+00  0.1200E+02
    -16.764  0.0000E+00  0.1200E+02
    -16.396  0.0000E+00  0.1200E+02
    -16.028  0.0000E+00  0.1200E+02
    -15.659  0.0000E+00  0.1200E+02
    -15.291  0.0000E+00  0.1200E+02
    -14.923  0.0000E+00  0.1200E+02
    -14.555  0.0000E+00  0.1200E+02
    -14.186  0.0000E+00  0.1200E+02
    -13.818  0.0000E+00  0.1200E+02
    -13.450  0.0000E+00  0.1200E+02
    -13.082  0.0000E+00  0.1200E+02
    -12.713  0.0000E+00  0.1200E+02
    -12.345  0.0000E+00  0.1200E+02
    -11.977  0.0000E+00  0.1200E+02
    -11.609  0.0000E+00  0.1200E+02
    -11.241  0.0000E+00  0.1200E+02
    -10.872  0.0000E+00  0.1200E+02
    -10.504  0.0000E+00  0.1200E+02
    -10.136  0.0000E+00  0.1200E+02
     -9.768  0.0000E+00  0.1200E+02
     -9.399  0.0000E+00  0.1200E+02
     -9.031  0.0000E+00  0.1200E+02
     -8.663  0.0000E+00  0.1200E+02
     -8.295  0.0000E+00  0.1200E+02
     -7.927  0.0000E+00  0.1200E+02
     -7.558  0.0000E+00  0.1334E+02
     -7.190  0.1346E-01  0.1385E+02
     -6.822  0.0000E+00  0.1399E+02
     -6.454  0.0000E+00  0.1400E+02
     -6.085  0.0000E+00  0.1400E+02
     -5.717  0.0000E+00  0.1400E+02
     -5.349  0.0000E+00  0.1400E+02
     -4.981  0.0000E+00  0.1487E+02
     -4.612  0.0000E+00  0.1562E+02
     -4.244  0.0000E+00  0.1612E+02
     -3.876  0.0000E+00  0.1693E+02
     -3.508  0.0000E+00  0.1760E+02
     -3.140  0.0000E+00  0.1794E+02
     -2.771  0.0000E+00  0.1800E+02
     -2.403  0.0000E+00  0.1800E+02
     -2.035  0.0000E+00  0.1800E+02
     -1.667  0.0000E+00  0.1800E+02
     -1.298  0.0000E+00  0.1800E+02
     -0.930  0.0000E+00  0.1800E+02
     -0.562  0.0000E+00  0.1800E+02
     -0.194  0.0000E+00  0.1800E+02
      0.174  0.0000E+00  0.1800E+02
      0.543  0.0000E+00  0.1800E+02
      0.911  0.0000E+00  0.1800E+02
      1.279  0.0000E+00  0.1800E+02
      1.647  0.0000E+00  0.1800E+02
      2.016  0.0000E+00  0.1800E+02
      2.384  0.0000E+00  0.1800E+02
      2.752  0.0000E+00  0.1800E+02
      3.120  0.0000E+00  0.1800E+02
      3.489  0.0000E+00  0.1800E+02
      3.857  0.0000E+00  0.1801E+02
      4.225  0.0000E+00  0.1801E+02
      4.593  0.0000E+00  0.1805E+02
      4.961  0.0000E+00  0.1809E+02
      5.330  0.0000E+00  0.1809E+02
      5.698  0.5255E-04  0.1831E+02
      6.066  0.0000E+00  0.1867E+02
      6.434  0.0000E+00  0.1937E+02
      6.803  0.0000E+00  0.1969E+02
      7.171  0.0000E+00  0.2010E+02
      7.539  0.0000E+00  0.2070E+02
      7.907  0.0000E+00  0.2105E+02
      8.275  0.0000E+00  0.2175E+02
      8.644  0.0000E+00  0.2199E+02
      9.012  0.0000E+00  0.2272E+02
      9.380  0.0000E+00  0.2334E+02
      9.748  0.0000E+00  0.2391E+02
     10.117  0.0000E+00  0.2460E+02
     10.485  0.1900E+00  0.2502E+02
     10.853  0.0000E+00  0.2555E+02
     11.221  0.1467E+00  0.2588E+02
     11.590  0.1411E-03  0.2652E+02
     11.958  0.1032E-01  0.2679E+02
     12.326  0.3422E-11  0.2721E+02
     12.694  0.0000E+00  0.2799E+02
     13.062  0.5088E-08  0.2865E+02
     13.431  0.0000E+00  0.2923E+02
     13.799  0.0000E+00  0.3002E+02
     14.167  0.0000E+00  0.3035E+02
     14.535  0.0000E+00  0.3080E+02
     14.904  0.3800E+00  0.3147E+02
     15.272  0.0000E+00  0.3198E+02
     15.640  0.0000E+00  0.3234E+02
     16.008  0.0000E+00  0.3313E+02
     16.376  0.8428E-02  0.3427E+02
     16.745  0.0000E+00  0.3494E+02
     17.113  0.9501E-01  0.3565E+02
     17.481  0.0000E+00  0.3656E+02
     17.849  0.0000E+00  0.3763E+02
     18.218  0.0000E+00  0.3823E+02
     18.586  0.0000E+00  0.3826E+02
     18.954  0.0000E+00  0.3897E+02
     19.322  0.0000E+00  0.4002E+02
     19.691  0.0000E+00  0.4083E+02
     20.059  0.3800E+00  0.4219E+02
     20.427  0.8543E-08  0.4457E+02
     20.795  0.0000E+00  0.4618E+02
     21.163  0.0000E+00  0.4786E+02
     21.532  0.0000E+00  0.4884E+02
     21.900  0.0000E+00  0.5053E+02
     22.268  0.1179E+00  0.5225E+02
     22.636  0.4799E-01  0.5371E+02
     23.005  0.0000E+00  0.5608E+02
     23.373  0.0000E+00  0.5703E+02
     23.741  0.0000E+00  0.5751E+02
     24.109  0.0000E+00  0.5823E+02
     24.477  0.1540E+00  0.5938E+02
     24.846  0.1249E+00  0.5982E+02
     25.214  0.0000E+00  0.6061E+02
     25.582  0.0000E+00  0.6111E+02
     25.950  0.0000E+00  0.6161E+02
     26.319  0.0000E+00  0.6272E+02
     26.687  0.3800E+00  0.6367E+02
     27.055  0.0000E+00  0.6469E+02
     27.423  0.0000E+00  0.6558E+02
     27.792  0.0000E+00  0.6677E+02
     28.160  0.0000E+00  0.6826E+02
     28.528  0.0000E+00  0.6943E+02
     28.896  0.3800E+00  0.7040E+02
     29.264  0.0000E+00  0.7117E+02
     29.633  0.0000E+00  0.7206E+02
     30.001  0.0000E+00  0.7263E+02
     30.369  0.0000E+00  0.7284E+02
     30.737  0.0000E+00  0.7385E+02
     31.106  0.0000E+00  0.7457E+02
     31.474  0.3381E+00  0.7626E+02
     31.842  0.0000E+00  0.7694E+02
     32.210  0.0000E+00  0.7862E+02
     32.578  0.0000E+00  0.7969E+02
     32.947  0.0000E+00  0.8048E+02
     33.315  0.0000E+00  0.8166E+02
     33.683  0.0000E+00  0.8276E+02
     34.051  0.0000E+00  0.8373E+02
     34.420  0.0000E+00  0.8417E+02
     34.788  0.0000E+00  0.8551E+02
     35.156  0.3800E+00  0.8647E+02
     35.524  0.3467E-07  0.8707E+02
     35.893  0.0000E+00  0.8769E+02
     36.261  0.9501E-01  0.8910E+02
     36.629  0.0000E+00  0.8963E+02
     36.997  0.0000E+00  0.9066E+02
     37.365  0.0000E+00  0.9163E+02
     37.734  0.0000E+00  0.9273E+02
     38.102  0.1267E+00  0.9373E+02
     38.470  0.0000E+00  0.9522E+02
     38.838  0.0000E+00  0.9641E+02
     39.207  0.0000E+00  0.9678E+02
     39.575  0.0000E+00  0.9781E+02
     39.943  0.9413E-01  0.9872E+02
     40.311  0.3800E+00  0.1001E+03
     40.679  0.2929E-14  0.1011E+03
     41.048  0.9501E-01  0.1025E+03
     41.416  0.0000E+00  0.1035E+03
     41.784  0.0000E+00  0.1044E+03
     42.152  0.0000E+00  0.1055E+03
     42.521  0.7601E+00  0.1066E+03
     42.889  0.0000E+00  0.1078E+03
     43.257  0.3797E+00  0.1090E+03
     43.625  0.0000E+00  0.1103E+03
     43.994  0.9501E-01  0.1116E+03
     44.362  0.3637E-05  0.1122E+03
     44.730  0.9501E-01  0.1134E+03
     45.098  0.0000E+00  0.1145E+03
     45.466  0.3800E+00  0.1155E+03
     45.835  0.9501E-01  0.1167E+03
     46.203  0.4095E-01  0.1179E+03
     46.571  0.1450E-08  0.1186E+03
     46.939  0.0000E+00  0.1192E+03
     47.308  0.0000E+00  0.1199E+03
     47.676  0.0000E+00  0.1212E+03
     48.044  0.3627E-07  0.1227E+03
     48.412  0.1900E+00  0.1235E+03
     48.780  0.0000E+00  0.1248E+03
     49.149  0.0000E+00  0.1256E+03
     49.517  0.0000E+00  0.1266E+03
     49.885  0.3595E+00  0.1272E+03
     50.253  0.0000E+00  0.1277E+03
     50.622  0.0000E+00  0.1280E+03
     50.990  0.0000E+00  0.1280E+03
     51.358  0.0000E+00  0.1280E+03
     51.726  0.0000E+00  0.1280E+03
     52.095  0.0000E+00  0.1280E+03
     52.463  0.0000E+00  0.1280E+03
     52.831  0.0000E+00  0.1280E+03
     53.199  0.0000E+00  0.1280E+03
     53.567  0.0000E+00  0.1280E+03
     53.936  0.0000E+00  0.1280E+03
     54.304  0.0000E+00  0.1280E+03
     54.672  0.0000E+00  0.1280E+03
     55.040  0.0000E+00  0.1280E+03
     55.409  0.0000E+00  0.1280E+03
