    1    1    1    1
  0.6083477E+02  0.4414576E-09  0.4414576E-09  0.4414576E-09  0.1000000E-15
  1.000000000000000E-004
  CAR 
 Og_FCC                                  
     18    343    128
 
  0.0000000E+00  0.0000000E+00  0.0000000E+00  0.2915452E-02
    1      -50.038293   1.000000
    2      -50.038293   1.000000
    3      -50.036732   1.000000
    4      -50.036731   1.000000
    5      -45.380285   1.000000
    6      -45.380285   1.000000
    7      -45.377215   1.000000
    8      -45.377214   1.000000
    9      -45.376759   1.000000
   10      -45.376759   1.000000
   11      -19.864708   1.000000
   12      -19.864708   1.000000
   13       -6.808613   1.000000
   14       -6.808613   1.000000
   15       -3.027172   1.000000
   16       -3.027172   1.000000
   17       -3.026968   1.000000
   18       -3.026968   1.000000
   19        3.708039   0.000000
   20        3.708039   0.000000
   21        9.613721   0.000000
   22        9.613721   0.000000
   23        9.613921   0.000000
   24        9.613921   0.000000
   25        9.695896   0.000000
   26        9.695896   0.000000
   27       11.138212   0.000000
   28       11.138212   0.000000
   29       12.574060   0.000000
   30       12.574060   0.000000
   31       12.574091   0.000000
   32       12.574091   0.000000
   33       13.366928   0.000000
   34       13.366928   0.000000
   35       13.560511   0.000000
   36       13.560511   0.000000
   37       13.560511   0.000000
   38       13.560511   0.000000
   39       15.310504   0.000000
   40       15.310504   0.000000
   41       22.793832   0.000000
   42       22.793832   0.000000
   43       22.821271   0.000000
   44       22.821271   0.000000
   45       22.821349   0.000000
   46       22.821349   0.000000
   47       24.894434   0.000000
   48       24.894434   0.000000
   49       23.165474   0.000000
   50       23.165474   0.000000
   51       23.165474   0.000000
   52       23.165474   0.000000
   53       23.921099   0.000000
   54       23.921099   0.000000
   55       25.553111   0.000000
   56       25.553111   0.000000
   57       25.602289   0.000000
   58       25.602289   0.000000
   59       25.602290   0.000000
   60       25.602290   0.000000
   61       25.971898   0.000000
   62       25.971898   0.000000
   63       26.494189   0.000000
   64       26.494189   0.000000
   65       26.494189   0.000000
   66       26.494189   0.000000
   67       26.790521   0.000000
   68       26.790521   0.000000
   69       26.790522   0.000000
   70       26.790522   0.000000
   71       28.433716   0.000000
   72       28.433716   0.000000
   73       34.322270   0.000000
   74       34.322270   0.000000
   75       34.352926   0.000000
   76       34.352926   0.000000
   77       34.352926   0.000000
   78       34.352926   0.000000
   79       36.520378   0.000000
   80       36.520378   0.000000
   81       36.520378   0.000000
   82       36.520378   0.000000
   83       36.675028   0.000000
   84       36.675028   0.000000
   85       36.976173   0.000000
   86       36.976173   0.000000
   87       36.976173   0.000000
   88       36.976173   0.000000
   89       36.976173   0.000000
   90       36.976173   0.000000
   91       37.684164   0.000000
   92       37.684164   0.000000
   93       37.684164   0.000000
   94       37.684164   0.000000
   95       37.867776   0.000000
   96       37.867776   0.000000
   97       38.242772   0.000000
   98       38.242772   0.000000
   99       38.242772   0.000000
  100       38.242772   0.000000
  101       39.950581   0.000000
  102       39.950581   0.000000
  103       39.950581   0.000000
  104       39.950581   0.000000
  105       39.987635   0.000000
  106       39.987635   0.000000
  107       40.684675   0.000000
  108       40.684675   0.000000
  109       40.684675   0.000000
  110       40.684675   0.000000
  111       40.693856   0.000000
  112       40.693856   0.000000
  113       42.794434   0.000000
  114       42.794434   0.000000
  115       42.814178   0.000000
  116       42.814178   0.000000
  117       42.814178   0.000000
  118       42.814178   0.000000
  119       43.246616   0.000000
  120       43.246616   0.000000
  121       43.806420   0.000000
  122       43.806420   0.000000
  123       44.159607   0.000000
  124       44.159607   0.000000
  125       44.159607   0.000000
  126       44.159607   0.000000
  127       44.176723   0.000000
  128       44.176723   0.000000
 
  0.1428571E+00 -0.1258766E-16 -0.6938894E-17  0.2915452E-02
    1      -50.038119   1.000000
    2      -50.038109   1.000000
    3      -50.036600   1.000000
    4      -50.036587   1.000000
    5      -45.378534   1.000000
    6      -45.378528   1.000000
    7      -45.376054   1.000000
    8      -45.376049   1.000000
    9      -45.374800   1.000000
   10      -45.374795   1.000000
   11      -19.821789   1.000000
   12      -19.821788   1.000000
   13       -6.963496   1.000000
   14       -6.963495   1.000000
   15       -3.564502   1.000000
   16       -3.564502   1.000000
   17       -3.102684   1.000000
   18       -3.102681   1.000000
   19        4.472683   0.000000
   20        4.472685   0.000000
   21        8.827948   0.000000
   22        8.827949   0.000000
   23        9.811174   0.000000
   24        9.811281   0.000000
   25        9.871647   0.000000
   26        9.871648   0.000000
   27       11.612488   0.000000
   28       11.612488   0.000000
   29       11.660844   0.000000
   30       11.660927   0.000000
   31       12.042004   0.000000
   32       12.042004   0.000000
   33       13.130662   0.000000
   34       13.130662   0.000000
   35       15.126342   0.000000
   36       15.126342   0.000000
   37       15.212175   0.000000
   38       15.212187   0.000000
   39       17.022493   0.000000
   40       17.022494   0.000000
   41       21.623214   0.000000
   42       21.623216   0.000000
   43       21.770963   0.000000
   44       21.771011   0.000000
   45       22.876993   0.000000
   46       22.876994   0.000000
   47       22.938156   0.000000
   48       22.938156   0.000000
   49       22.146994   0.000000
   50       22.146994   0.000000
   51       22.672436   0.000000
   52       22.672436   0.000000
   53       23.642758   0.000000
   54       23.642758   0.000000
   55       24.610941   0.000000
   56       24.610941   0.000000
   57       24.844148   0.000000
   58       24.844148   0.000000
   59       24.968849   0.000000
   60       24.968849   0.000000
   61       26.243924   0.000000
   62       26.243924   0.000000
   63       26.474122   0.000000
   64       26.474122   0.000000
   65       27.226071   0.000000
   66       27.226071   0.000000
   67       27.671333   0.000000
   68       27.671333   0.000000
   69       28.324199   0.000000
   70       28.324199   0.000000
   71       31.055262   0.000000
   72       31.055262   0.000000
   73       33.330550   0.000000
   74       33.330550   0.000000
   75       33.509026   0.000000
   76       33.509026   0.000000
   77       33.727334   0.000000
   78       33.727334   0.000000
   79       33.793678   0.000000
   80       33.793678   0.000000
   81       34.592613   0.000000
   82       34.592613   0.000000
   83       34.841852   0.000000
   84       34.841852   0.000000
   85       36.482263   0.000000
   86       36.482263   0.000000
   87       36.600697   0.000000
   88       36.600697   0.000000
   89       37.184977   0.000000
   90       37.184977   0.000000
   91       37.300529   0.000000
   92       37.300529   0.000000
   93       37.741594   0.000000
   94       37.741594   0.000000
   95       37.968747   0.000000
   96       37.968747   0.000000
   97       38.040643   0.000000
   98       38.040643   0.000000
   99       38.097206   0.000000
  100       38.097206   0.000000
  101       38.571786   0.000000
  102       38.571786   0.000000
  103       39.927398   0.000000
  104       39.927398   0.000000
  105       40.287598   0.000000
  106       40.287598   0.000000
  107       40.540786   0.000000
  108       40.540786   0.000000
  109       41.824781   0.000000
  110       41.824781   0.000000
  111       41.971103   0.000000
  112       41.971103   0.000000
  113       41.977248   0.000000
  114       41.977248   0.000000
  115       43.552915   0.000000
  116       43.552915   0.000000
  117       43.609308   0.000000
  118       43.609308   0.000000
  119       44.440258   0.000000
  120       44.440258   0.000000
  121       45.075473   0.000000
  122       45.075473   0.000000
  123       45.436673   0.000000
  124       45.436673   0.000000
  125       45.548778   0.000000
  126       45.548778   0.000000
  127       45.590189   0.000000
  128       45.590189   0.000000
 
  0.2857143E+00  0.2580261E-17 -0.1387779E-16  0.2915452E-02
    1      -50.037244   1.000000
    2      -50.037186   1.000000
    3      -50.034823   1.000000
    4      -50.034814   1.000000
    5      -45.376299   1.000000
    6      -45.376288   1.000000
    7      -45.373816   1.000000
    8      -45.373803   1.000000
    9      -45.370683   1.000000
   10      -45.370668   1.000000
   11      -19.724407   1.000000
   12      -19.724407   1.000000
   13       -7.361146   1.000000
   14       -7.361146   1.000000
   15       -4.380317   1.000000
   16       -4.380317   1.000000
   17       -3.264049   1.000000
   18       -3.264039   1.000000
   19        5.514192   0.000000
   20        5.514192   0.000000
   21        8.744341   0.000000
   22        8.744342   0.000000
   23        9.605599   0.000000
   24        9.605902   0.000000
   25        9.683390   0.000000
   26        9.683391   0.000000
   27       11.221469   0.000000
   28       11.221469   0.000000
   29       11.959604   0.000000
   30       11.959604   0.000000
   31       12.064155   0.000000
   32       12.064387   0.000000
   33       15.758193   0.000000
   34       15.758193   0.000000
   35       17.617385   0.000000
   36       17.617387   0.000000
   37       17.714313   0.000000
   38       17.714339   0.000000
   39       18.696793   0.000000
   40       18.696794   0.000000
   41       19.113404   0.000000
   42       19.113527   0.000000
   43       19.305775   0.000000
   44       19.305775   0.000000
   45       20.208622   0.000000
   46       20.208622   0.000000
   47       23.042450   0.000000
   48       23.042451   0.000000
   49       21.656233   0.000000
   50       21.656233   0.000000
   51       22.267068   0.000000
   52       22.267068   0.000000
   53       22.885313   0.000000
   54       22.885313   0.000000
   55       23.908174   0.000000
   56       23.908174   0.000000
   57       24.188944   0.000000
   58       24.188944   0.000000
   59       24.504973   0.000000
   60       24.504973   0.000000
   61       26.541373   0.000000
   62       26.541373   0.000000
   63       26.753990   0.000000
   64       26.753990   0.000000
   65       27.454285   0.000000
   66       27.454285   0.000000
   67       28.131841   0.000000
   68       28.131841   0.000000
   69       28.664041   0.000000
   70       28.664041   0.000000
   71       29.647628   0.000000
   72       29.647628   0.000000
   73       31.958552   0.000000
   74       31.958552   0.000000
   75       31.995385   0.000000
   76       31.995385   0.000000
   77       32.085161   0.000000
   78       32.085161   0.000000
   79       32.885822   0.000000
   80       32.885822   0.000000
   81       33.029808   0.000000
   82       33.029808   0.000000
   83       33.269076   0.000000
   84       33.269076   0.000000
   85       35.491716   0.000000
   86       35.491716   0.000000
   87       36.135337   0.000000
   88       36.135337   0.000000
   89       36.286377   0.000000
   90       36.286377   0.000000
   91       36.817257   0.000000
   92       36.817257   0.000000
   93       36.920654   0.000000
   94       36.920654   0.000000
   95       38.310661   0.000000
   96       38.310661   0.000000
   97       38.637622   0.000000
   98       38.637622   0.000000
   99       38.642794   0.000000
  100       38.642794   0.000000
  101       39.122241   0.000000
  102       39.122241   0.000000
  103       40.239010   0.000000
  104       40.239010   0.000000
  105       41.199199   0.000000
  106       41.199199   0.000000
  107       41.475915   0.000000
  108       41.475915   0.000000
  109       42.041412   0.000000
  110       42.041412   0.000000
  111       42.829020   0.000000
  112       42.829020   0.000000
  113       42.970816   0.000000
  114       42.970816   0.000000
  115       45.937459   0.000000
  116       45.937459   0.000000
  117       46.622908   0.000000
  118       46.622908   0.000000
  119       46.847432   0.000000
  120       46.847432   0.000000
  121       47.039661   0.000000
  122       47.039661   0.000000
  123       47.506224   0.000000
  124       47.506224   0.000000
  125       47.591815   0.000000
  126       47.591815   0.000000
  127       48.091413   0.000000
  128       48.091413   0.000000
 
  0.4285714E+00  0.3870391E-17  0.2775558E-16  0.2915452E-02
    1      -50.036185   1.000000
    2      -50.036096   1.000000
    3      -50.031772   1.000000
    4      -50.031769   1.000000
    5      -45.375113   1.000000
    6      -45.375106   1.000000
    7      -45.371014   1.000000
    8      -45.371007   1.000000
    9      -45.367377   1.000000
   10      -45.367362   1.000000
   11      -19.643141   1.000000
   12      -19.643140   1.000000
   13       -7.717570   1.000000
   14       -7.717569   1.000000
   15       -4.815382   1.000000
   16       -4.815381   1.000000
   17       -3.385205   1.000000
   18       -3.385191   1.000000
   19        5.700240   0.000000
   20        5.700240   0.000000
   21        9.198156   0.000000
   22        9.198490   0.000000
   23        9.266546   0.000000
   24        9.266549   0.000000
   25        9.432961   0.000000
   26        9.432961   0.000000
   27       11.392511   0.000000
   28       11.392513   0.000000
   29       13.705899   0.000000
   30       13.705900   0.000000
   31       13.853528   0.000000
   32       13.853742   0.000000
   33       15.979499   0.000000
   34       15.979500   0.000000
   35       16.289376   0.000000
   36       16.289567   0.000000
   37       16.377466   0.000000
   38       16.377468   0.000000
   39       19.002845   0.000000
   40       19.002848   0.000000
   41       20.199848   0.000000
   42       20.199852   0.000000
   43       20.274508   0.000000
   44       20.274519   0.000000
   45       23.172164   0.000000
   46       23.172165   0.000000
   47       23.189960   0.000000
   48       23.189961   0.000000
   49       21.561641   0.000000
   50       21.561641   0.000000
   51       21.913789   0.000000
   52       21.913789   0.000000
   53       22.067465   0.000000
   54       22.067465   0.000000
   55       22.711742   0.000000
   56       22.711742   0.000000
   57       23.440307   0.000000
   58       23.440307   0.000000
   59       24.753922   0.000000
   60       24.753922   0.000000
   61       26.014932   0.000000
   62       26.014932   0.000000
   63       26.751477   0.000000
   64       26.751477   0.000000
   65       26.869100   0.000000
   66       26.869100   0.000000
   67       27.652508   0.000000
   68       27.652508   0.000000
   69       27.830230   0.000000
   70       27.830230   0.000000
   71       28.580185   0.000000
   72       28.580185   0.000000
   73       29.526452   0.000000
   74       29.526452   0.000000
   75       31.210053   0.000000
   76       31.210053   0.000000
   77       31.220414   0.000000
   78       31.220414   0.000000
   79       31.273653   0.000000
   80       31.273653   0.000000
   81       32.345271   0.000000
   82       32.345271   0.000000
   83       32.688447   0.000000
   84       32.688447   0.000000
   85       35.736313   0.000000
   86       35.736313   0.000000
   87       35.820247   0.000000
   88       35.820247   0.000000
   89       36.270013   0.000000
   90       36.270013   0.000000
   91       36.605595   0.000000
   92       36.605595   0.000000
   93       36.767903   0.000000
   94       36.767903   0.000000
   95       39.038024   0.000000
   96       39.038024   0.000000
   97       39.257968   0.000000
   98       39.257968   0.000000
   99       39.645751   0.000000
  100       39.645751   0.000000
  101       39.662099   0.000000
  102       39.662099   0.000000
  103       42.736995   0.000000
  104       42.736995   0.000000
  105       42.805791   0.000000
  106       42.805791   0.000000
  107       42.837970   0.000000
  108       42.837970   0.000000
  109       43.450774   0.000000
  110       43.450774   0.000000
  111       44.870701   0.000000
  112       44.870701   0.000000
  113       44.976711   0.000000
  114       44.976711   0.000000
  115       45.087750   0.000000
  116       45.087750   0.000000
  117       47.617398   0.000000
  118       47.617398   0.000000
  119       47.849162   0.000000
  120       47.849162   0.000000
  121       48.796360   0.000000
  122       48.796360   0.000000
  123       48.979651   0.000000
  124       48.979651   0.000000
  125       49.062423   0.000000
  126       49.062423   0.000000
  127       50.127190   0.000000
  128       50.127190   0.000000
 
 -0.4285714E+00 -0.3870391E-17 -0.2775558E-16  0.2915452E-02
    1      -50.036183   1.000000
    2      -50.036096   1.000000
    3      -50.031771   1.000000
    4      -50.031765   1.000000
    5      -45.375114   1.000000
    6      -45.375105   1.000000
    7      -45.371015   1.000000
    8      -45.371004   1.000000
    9      -45.367379   1.000000
   10      -45.367360   1.000000
   11      -19.643144   1.000000
   12      -19.643143   1.000000
   13       -7.717570   1.000000
   14       -7.717569   1.000000
   15       -4.815382   1.000000
   16       -4.815381   1.000000
   17       -3.385204   1.000000
   18       -3.385192   1.000000
   19        5.700240   0.000000
   20        5.700240   0.000000
   21        9.198155   0.000000
   22        9.198492   0.000000
   23        9.266546   0.000000
   24        9.266548   0.000000
   25        9.432963   0.000000
   26        9.432963   0.000000
   27       11.392511   0.000000
   28       11.392514   0.000000
   29       13.705899   0.000000
   30       13.705901   0.000000
   31       13.853528   0.000000
   32       13.853742   0.000000
   33       15.979502   0.000000
   34       15.979503   0.000000
   35       16.289376   0.000000
   36       16.289567   0.000000
   37       16.377468   0.000000
   38       16.377470   0.000000
   39       19.002845   0.000000
   40       19.002848   0.000000
   41       20.199848   0.000000
   42       20.199851   0.000000
   43       20.274505   0.000000
   44       20.274515   0.000000
   45       23.172165   0.000000
   46       23.172166   0.000000
   47       23.189961   0.000000
   48       23.189961   0.000000
   49       21.561641   0.000000
   50       21.561641   0.000000
   51       21.913789   0.000000
   52       21.913789   0.000000
   53       22.067465   0.000000
   54       22.067465   0.000000
   55       22.711742   0.000000
   56       22.711742   0.000000
   57       23.440307   0.000000
   58       23.440307   0.000000
   59       24.753922   0.000000
   60       24.753922   0.000000
   61       26.014932   0.000000
   62       26.014932   0.000000
   63       26.751477   0.000000
   64       26.751477   0.000000
   65       26.869100   0.000000
   66       26.869100   0.000000
   67       27.652508   0.000000
   68       27.652508   0.000000
   69       27.830230   0.000000
   70       27.830230   0.000000
   71       28.580185   0.000000
   72       28.580185   0.000000
   73       29.526452   0.000000
   74       29.526452   0.000000
   75       31.210053   0.000000
   76       31.210053   0.000000
   77       31.220414   0.000000
   78       31.220414   0.000000
   79       31.273653   0.000000
   80       31.273653   0.000000
   81       32.345271   0.000000
   82       32.345271   0.000000
   83       32.688447   0.000000
   84       32.688447   0.000000
   85       35.736313   0.000000
   86       35.736313   0.000000
   87       35.820247   0.000000
   88       35.820247   0.000000
   89       36.270013   0.000000
   90       36.270013   0.000000
   91       36.605595   0.000000
   92       36.605595   0.000000
   93       36.767903   0.000000
   94       36.767903   0.000000
   95       39.038024   0.000000
   96       39.038024   0.000000
   97       39.257968   0.000000
   98       39.257968   0.000000
   99       39.645751   0.000000
  100       39.645751   0.000000
  101       39.662099   0.000000
  102       39.662099   0.000000
  103       42.736995   0.000000
  104       42.736995   0.000000
  105       42.805791   0.000000
  106       42.805791   0.000000
  107       42.837970   0.000000
  108       42.837970   0.000000
  109       43.450774   0.000000
  110       43.450774   0.000000
  111       44.870701   0.000000
  112       44.870701   0.000000
  113       44.976711   0.000000
  114       44.976711   0.000000
  115       45.087750   0.000000
  116       45.087750   0.000000
  117       47.617398   0.000000
  118       47.617398   0.000000
  119       47.849162   0.000000
  120       47.849162   0.000000
  121       48.796360   0.000000
  122       48.796360   0.000000
  123       48.979651   0.000000
  124       48.979651   0.000000
  125       49.062423   0.000000
  126       49.062423   0.000000
  127       50.127190   0.000000
  128       50.127190   0.000000
 
 -0.2857143E+00 -0.2580261E-17  0.1387779E-16  0.2915452E-02
    1      -50.037243   1.000000
    2      -50.037185   1.000000
    3      -50.034822   1.000000
    4      -50.034813   1.000000
    5      -45.376300   1.000000
    6      -45.376289   1.000000
    7      -45.373817   1.000000
    8      -45.373803   1.000000
    9      -45.370683   1.000000
   10      -45.370668   1.000000
   11      -19.724409   1.000000
   12      -19.724408   1.000000
   13       -7.361146   1.000000
   14       -7.361146   1.000000
   15       -4.380317   1.000000
   16       -4.380317   1.000000
   17       -3.264049   1.000000
   18       -3.264039   1.000000
   19        5.514193   0.000000
   20        5.514193   0.000000
   21        8.744341   0.000000
   22        8.744342   0.000000
   23        9.605599   0.000000
   24        9.605901   0.000000
   25        9.683391   0.000000
   26        9.683391   0.000000
   27       11.221469   0.000000
   28       11.221469   0.000000
   29       11.959604   0.000000
   30       11.959604   0.000000
   31       12.064155   0.000000
   32       12.064387   0.000000
   33       15.758193   0.000000
   34       15.758193   0.000000
   35       17.617385   0.000000
   36       17.617386   0.000000
   37       17.714313   0.000000
   38       17.714339   0.000000
   39       18.696793   0.000000
   40       18.696794   0.000000
   41       19.113404   0.000000
   42       19.113527   0.000000
   43       19.305775   0.000000
   44       19.305776   0.000000
   45       20.208622   0.000000
   46       20.208622   0.000000
   47       23.042450   0.000000
   48       23.042451   0.000000
   49       21.656233   0.000000
   50       21.656233   0.000000
   51       22.267068   0.000000
   52       22.267068   0.000000
   53       22.885313   0.000000
   54       22.885313   0.000000
   55       23.908174   0.000000
   56       23.908174   0.000000
   57       24.188944   0.000000
   58       24.188944   0.000000
   59       24.504973   0.000000
   60       24.504973   0.000000
   61       26.541373   0.000000
   62       26.541373   0.000000
   63       26.753990   0.000000
   64       26.753990   0.000000
   65       27.454285   0.000000
   66       27.454285   0.000000
   67       28.131841   0.000000
   68       28.131841   0.000000
   69       28.664041   0.000000
   70       28.664041   0.000000
   71       29.647628   0.000000
   72       29.647628   0.000000
   73       31.958552   0.000000
   74       31.958552   0.000000
   75       31.995385   0.000000
   76       31.995385   0.000000
   77       32.085161   0.000000
   78       32.085161   0.000000
   79       32.885822   0.000000
   80       32.885822   0.000000
   81       33.029808   0.000000
   82       33.029808   0.000000
   83       33.269076   0.000000
   84       33.269076   0.000000
   85       35.491716   0.000000
   86       35.491716   0.000000
   87       36.135337   0.000000
   88       36.135337   0.000000
   89       36.286377   0.000000
   90       36.286377   0.000000
   91       36.817257   0.000000
   92       36.817257   0.000000
   93       36.920654   0.000000
   94       36.920654   0.000000
   95       38.310661   0.000000
   96       38.310661   0.000000
   97       38.637622   0.000000
   98       38.637622   0.000000
   99       38.642794   0.000000
  100       38.642794   0.000000
  101       39.122241   0.000000
  102       39.122241   0.000000
  103       40.239010   0.000000
  104       40.239010   0.000000
  105       41.199199   0.000000
  106       41.199199   0.000000
  107       41.475915   0.000000
  108       41.475915   0.000000
  109       42.041412   0.000000
  110       42.041412   0.000000
  111       42.829020   0.000000
  112       42.829020   0.000000
  113       42.970816   0.000000
  114       42.970816   0.000000
  115       45.937459   0.000000
  116       45.937459   0.000000
  117       46.622908   0.000000
  118       46.622908   0.000000
  119       46.847432   0.000000
  120       46.847432   0.000000
  121       47.039661   0.000000
  122       47.039661   0.000000
  123       47.506224   0.000000
  124       47.506224   0.000000
  125       47.591815   0.000000
  126       47.591815   0.000000
  127       48.091413   0.000000
  128       48.091413   0.000000
 
 -0.1428571E+00  0.1258766E-16  0.6938894E-17  0.2915452E-02
    1      -50.038119   1.000000
    2      -50.038109   1.000000
    3      -50.036599   1.000000
    4      -50.036587   1.000000
    5      -45.378533   1.000000
    6      -45.378528   1.000000
    7      -45.376055   1.000000
    8      -45.376049   1.000000
    9      -45.374799   1.000000
   10      -45.374794   1.000000
   11      -19.821789   1.000000
   12      -19.821788   1.000000
   13       -6.963496   1.000000
   14       -6.963495   1.000000
   15       -3.564502   1.000000
   16       -3.564502   1.000000
   17       -3.102684   1.000000
   18       -3.102681   1.000000
   19        4.472684   0.000000
   20        4.472685   0.000000
   21        8.827948   0.000000
   22        8.827949   0.000000
   23        9.811173   0.000000
   24        9.811281   0.000000
   25        9.871648   0.000000
   26        9.871648   0.000000
   27       11.612488   0.000000
   28       11.612489   0.000000
   29       11.660844   0.000000
   30       11.660927   0.000000
   31       12.042004   0.000000
   32       12.042004   0.000000
   33       13.130662   0.000000
   34       13.130663   0.000000
   35       15.126342   0.000000
   36       15.126342   0.000000
   37       15.212175   0.000000
   38       15.212188   0.000000
   39       17.022493   0.000000
   40       17.022494   0.000000
   41       21.623215   0.000000
   42       21.623216   0.000000
   43       21.770962   0.000000
   44       21.771010   0.000000
   45       22.876995   0.000000
   46       22.876995   0.000000
   47       22.938156   0.000000
   48       22.938156   0.000000
   49       22.146994   0.000000
   50       22.146994   0.000000
   51       22.672436   0.000000
   52       22.672436   0.000000
   53       23.642758   0.000000
   54       23.642758   0.000000
   55       24.610941   0.000000
   56       24.610941   0.000000
   57       24.844148   0.000000
   58       24.844148   0.000000
   59       24.968849   0.000000
   60       24.968849   0.000000
   61       26.243924   0.000000
   62       26.243924   0.000000
   63       26.474122   0.000000
   64       26.474122   0.000000
   65       27.226071   0.000000
   66       27.226071   0.000000
   67       27.671333   0.000000
   68       27.671333   0.000000
   69       28.324199   0.000000
   70       28.324199   0.000000
   71       31.055262   0.000000
   72       31.055262   0.000000
   73       33.330550   0.000000
   74       33.330550   0.000000
   75       33.509026   0.000000
   76       33.509026   0.000000
   77       33.727334   0.000000
   78       33.727334   0.000000
   79       33.793678   0.000000
   80       33.793678   0.000000
   81       34.592613   0.000000
   82       34.592613   0.000000
   83       34.841852   0.000000
   84       34.841852   0.000000
   85       36.482263   0.000000
   86       36.482263   0.000000
   87       36.600697   0.000000
   88       36.600697   0.000000
   89       37.184977   0.000000
   90       37.184977   0.000000
   91       37.300529   0.000000
   92       37.300529   0.000000
   93       37.741594   0.000000
   94       37.741594   0.000000
   95       37.968747   0.000000
   96       37.968747   0.000000
   97       38.040643   0.000000
   98       38.040643   0.000000
   99       38.097206   0.000000
  100       38.097206   0.000000
  101       38.571786   0.000000
  102       38.571786   0.000000
  103       39.927398   0.000000
  104       39.927398   0.000000
  105       40.287598   0.000000
  106       40.287598   0.000000
  107       40.540786   0.000000
  108       40.540786   0.000000
  109       41.824781   0.000000
  110       41.824781   0.000000
  111       41.971103   0.000000
  112       41.971103   0.000000
  113       41.977248   0.000000
  114       41.977248   0.000000
  115       43.552915   0.000000
  116       43.552915   0.000000
  117       43.609308   0.000000
  118       43.609308   0.000000
  119       44.440258   0.000000
  120       44.440258   0.000000
  121       45.075473   0.000000