   1   1   0   0
  0.5789729E+02  0.4342346E-09  0.4342346E-09  0.4342346E-09  0.1000000E-15
  1.000000000000000E-004
  CAR 
 Og_FCC                                  
     58.03074978    -34.69105723  301      3.96153947      1.00000000
    -34.691  0.0000E+00  0.0000E+00
    -34.382  0.0000E+00  0.0000E+00
    -34.073  0.0000E+00  0.0000E+00
    -33.764  0.0000E+00  0.0000E+00
    -33.455  0.0000E+00  0.0000E+00
    -33.146  0.0000E+00  0.0000E+00
    -32.837  0.0000E+00  0.0000E+00
    -32.528  0.0000E+00  0.0000E+00
    -32.218  0.0000E+00  0.0000E+00
    -31.909  0.0000E+00  0.0000E+00
    -31.600  0.0000E+00  0.0000E+00
    -31.291  0.0000E+00  0.0000E+00
    -30.982  0.0000E+00  0.0000E+00
    -30.673  0.0000E+00  0.0000E+00
    -30.364  0.0000E+00  0.4000E+01
    -30.055  0.0000E+00  0.4000E+01
    -29.746  0.0000E+00  0.4000E+01
    -29.437  0.0000E+00  0.4000E+01
    -29.128  0.0000E+00  0.4000E+01
    -28.819  0.0000E+00  0.4000E+01
    -28.510  0.0000E+00  0.4000E+01
    -28.201  0.0000E+00  0.4000E+01
    -27.891  0.0000E+00  0.4000E+01
    -27.582  0.0000E+00  0.4000E+01
    -27.273  0.0000E+00  0.4000E+01
    -26.964  0.0000E+00  0.4000E+01
    -26.655  0.0000E+00  0.4000E+01
    -26.346  0.0000E+00  0.4000E+01
    -26.037  0.0000E+00  0.4000E+01
    -25.728  0.0000E+00  0.4000E+01
    -25.419  0.0000E+00  0.4000E+01
    -25.110  0.0000E+00  0.4000E+01
    -24.801  0.0000E+00  0.4000E+01
    -24.492  0.0000E+00  0.4000E+01
    -24.183  0.0000E+00  0.4000E+01
    -23.874  0.0000E+00  0.4000E+01
    -23.564  0.0000E+00  0.1000E+02
    -23.255  0.0000E+00  0.1000E+02
    -22.946  0.0000E+00  0.1000E+02
    -22.637  0.0000E+00  0.1000E+02
    -22.328  0.0000E+00  0.1000E+02
    -22.019  0.0000E+00  0.1000E+02
    -21.710  0.0000E+00  0.1000E+02
    -21.401  0.0000E+00  0.1000E+02
    -21.092  0.0000E+00  0.1000E+02
    -20.783  0.0000E+00  0.1000E+02
    -20.474  0.0000E+00  0.1000E+02
    -20.165  0.1517E+00  0.1011E+02
    -19.856  0.0000E+00  0.1200E+02
    -19.546  0.0000E+00  0.1200E+02
    -19.237  0.0000E+00  0.1200E+02
    -18.928  0.0000E+00  0.1200E+02
    -18.619  0.0000E+00  0.1200E+02
    -18.310  0.0000E+00  0.1200E+02
    -18.001  0.0000E+00  0.1200E+02
    -17.692  0.0000E+00  0.1200E+02
    -17.383  0.0000E+00  0.1200E+02
    -17.074  0.0000E+00  0.1200E+02
    -16.765  0.0000E+00  0.1200E+02
    -16.456  0.0000E+00  0.1200E+02
    -16.147  0.0000E+00  0.1200E+02
    -15.838  0.0000E+00  0.1200E+02
    -15.529  0.0000E+00  0.1200E+02
    -15.219  0.0000E+00  0.1200E+02
    -14.910  0.0000E+00  0.1200E+02
    -14.601  0.0000E+00  0.1200E+02
    -14.292  0.0000E+00  0.1200E+02
    -13.983  0.0000E+00  0.1200E+02
    -13.674  0.0000E+00  0.1200E+02
    -13.365  0.0000E+00  0.1200E+02
    -13.056  0.0000E+00  0.1200E+02
    -12.747  0.0000E+00  0.1200E+02
    -12.438  0.0000E+00  0.1200E+02
    -12.129  0.0000E+00  0.1200E+02
    -11.820  0.0000E+00  0.1200E+02
    -11.511  0.0000E+00  0.1200E+02
    -11.202  0.0000E+00  0.1200E+02
    -10.892  0.0000E+00  0.1200E+02
    -10.583  0.0000E+00  0.1200E+02
    -10.274  0.0000E+00  0.1200E+02
     -9.965  0.0000E+00  0.1200E+02
     -9.656  0.0000E+00  0.1200E+02
     -9.347  0.0000E+00  0.1200E+02
     -9.038  0.0000E+00  0.1200E+02
     -8.729  0.0000E+00  0.1200E+02
     -8.420  0.0000E+00  0.1200E+02
     -8.111  0.0000E+00  0.1200E+02
     -7.802  0.0000E+00  0.1200E+02
     -7.493  0.0000E+00  0.1200E+02
     -7.184  0.2429E+00  0.1363E+02
     -6.875  0.0000E+00  0.1400E+02
     -6.565  0.0000E+00  0.1400E+02
     -6.256  0.0000E+00  0.1400E+02
     -5.947  0.0000E+00  0.1400E+02
     -5.638  0.0000E+00  0.1400E+02
     -5.329  0.0000E+00  0.1400E+02
     -5.020  0.0000E+00  0.1400E+02
     -4.711  0.0000E+00  0.1400E+02
     -4.402  0.0000E+00  0.1400E+02
     -4.093  0.0000E+00  0.1400E+02
     -3.784  0.0000E+00  0.1400E+02
     -3.475  0.0000E+00  0.1400E+02
     -3.166  0.0000E+00  0.1400E+02
     -2.857  0.0000E+00  0.1400E+02
     -2.547  0.0000E+00  0.1400E+02
     -2.238  0.0000E+00  0.1400E+02
     -1.929  0.0000E+00  0.1400E+02
     -1.620  0.0000E+00  0.1400E+02
     -1.311  0.0000E+00  0.1400E+02
     -1.002  0.0000E+00  0.1400E+02
     -0.693  0.0000E+00  0.1400E+02
     -0.384  0.0000E+00  0.1400E+02
     -0.075  0.0000E+00  0.1400E+02
      0.234  0.0000E+00  0.1400E+02
      0.543  0.0000E+00  0.1400E+02
      0.852  0.0000E+00  0.1468E+02
      1.161  0.0000E+00  0.1556E+02
      1.470  0.0000E+00  0.1575E+02
      1.780  0.0000E+00  0.1592E+02
      2.089  0.0000E+00  0.1634E+02
      2.398  0.0000E+00  0.1682E+02
      2.707  0.0000E+00  0.1723E+02
      3.016  0.2081E-01  0.1751E+02
      3.325  0.0000E+00  0.1772E+02
      3.634  0.0000E+00  0.1791E+02
      3.943  0.0000E+00  0.1800E+02
      4.252  0.0000E+00  0.1800E+02
      4.561  0.0000E+00  0.1800E+02
      4.870  0.0000E+00  0.1800E+02
      5.179  0.0000E+00  0.1804E+02
      5.488  0.0000E+00  0.1804E+02
      5.797  0.0000E+00  0.1806E+02
      6.107  0.0000E+00  0.1814E+02
      6.416  0.0000E+00  0.1829E+02
      6.725  0.0000E+00  0.1841E+02
      7.034  0.0000E+00  0.1885E+02
      7.343  0.0000E+00  0.1927E+02
      7.652  0.0000E+00  0.1984E+02
      7.961  0.0000E+00  0.2004E+02
      8.270  0.0000E+00  0.2013E+02
      8.579  0.2528E-01  0.2039E+02
      8.888  0.0000E+00  0.2104E+02
      9.197  0.4279E-05  0.2132E+02
      9.506  0.0000E+00  0.2170E+02
      9.815  0.0000E+00  0.2210E+02
     10.124  0.0000E+00  0.2256E+02
     10.434  0.0000E+00  0.2321E+02
     10.743  0.2337E-13  0.2356E+02
     11.052  0.0000E+00  0.2407E+02
     11.361  0.0000E+00  0.2442E+02
     11.670  0.0000E+00  0.2479E+02
     11.979  0.0000E+00  0.2563E+02
     12.288  0.1601E+00  0.2593E+02
     12.597  0.0000E+00  0.2662E+02
     12.906  0.4329E-01  0.2701E+02
     13.215  0.1827E-03  0.2754E+02
     13.524  0.2528E-01  0.2817E+02
     13.833  0.0000E+00  0.2876E+02
     14.142  0.2335E-14  0.2914E+02
     14.452  0.0000E+00  0.3007E+02
     14.761  0.2661E-09  0.3055E+02
     15.070  0.0000E+00  0.3142E+02
     15.379  0.5752E-14  0.3165E+02
     15.688  0.0000E+00  0.3197E+02
     15.997  0.0000E+00  0.3216E+02
     16.306  0.0000E+00  0.3255E+02
     16.615  0.1892E-10  0.3300E+02
     16.924  0.3677E+00  0.3403E+02
     17.233  0.0000E+00  0.3482E+02
     17.542  0.0000E+00  0.3542E+02
     17.851  0.0000E+00  0.3641E+02
     18.160  0.3033E+00  0.3772E+02
     18.469  0.0000E+00  0.3926E+02
     18.779  0.0000E+00  0.4037E+02
     19.088  0.1149E-01  0.4121E+02
     19.397  0.0000E+00  0.4238E+02
     19.706  0.0000E+00  0.4312E+02
     20.015  0.0000E+00  0.4350E+02
     20.324  0.1340E-08  0.4431E+02
     20.633  0.0000E+00  0.4589E+02
     20.942  0.0000E+00  0.4612E+02
     21.251  0.0000E+00  0.4634E+02
     21.560  0.1517E+00  0.4648E+02
     21.869  0.0000E+00  0.4657E+02
     22.178  0.0000E+00  0.4741E+02
     22.487  0.0000E+00  0.4770E+02
     22.796  0.3718E-04  0.4793E+02
     23.106  0.0000E+00  0.4850E+02
     23.415  0.0000E+00  0.4922E+02
     23.724  0.0000E+00  0.4999E+02
     24.033  0.2844E-02  0.5055E+02
     24.342  0.0000E+00  0.5131E+02
     24.651  0.1517E+00  0.5212E+02
     24.960  0.3150E-08  0.5304E+02
     25.269  0.5749E-04  0.5412E+02
     25.578  0.0000E+00  0.5557E+02
     25.887  0.3033E+00  0.5634E+02
     26.196  0.0000E+00  0.5687E+02
     26.505  0.0000E+00  0.5721E+02
     26.814  0.0000E+00  0.5759E+02
     27.123  0.0000E+00  0.5844E+02
     27.433  0.0000E+00  0.5928E+02
     27.742  0.0000E+00  0.5992E+02
     28.051  0.1517E+00  0.6018E+02
     28.360  0.3033E+00  0.6097E+02
     28.669  0.0000E+00  0.6136E+02
     28.978  0.0000E+00  0.6173E+02
     29.287  0.0000E+00  0.6255E+02
     29.596  0.0000E+00  0.6300E+02
     29.905  0.0000E+00  0.6360E+02
     30.214  0.7583E-01  0.6465E+02
     30.523  0.1378E+00  0.6523E+02
     30.832  0.3702E-09  0.6575E+02
     31.141  0.3033E+00  0.6661E+02
     31.450  0.0000E+00  0.6725E+02
     31.760  0.0000E+00  0.6810E+02
     32.069  0.6067E+00  0.6920E+02
     32.378  0.0000E+00  0.6984E+02
     32.687  0.1011E+00  0.7097E+02
     32.996  0.4044E+00  0.7197E+02
     33.305  0.4883E-01  0.7257E+02
     33.614  0.0000E+00  0.7314E+02
     33.923  0.0000E+00  0.7382E+02
     34.232  0.0000E+00  0.7472E+02
     34.541  0.1517E+00  0.7539E+02
     34.850  0.3003E+00  0.7622E+02
     35.159  0.7149E-01  0.7728E+02
     35.468  0.0000E+00  0.7824E+02
     35.778  0.0000E+00  0.7881E+02
     36.087  0.0000E+00  0.7964E+02
     36.396  0.0000E+00  0.8040E+02
     36.705  0.0000E+00  0.8117E+02
     37.014  0.0000E+00  0.8240E+02
     37.323  0.0000E+00  0.8304E+02
     37.632  0.3926E-05  0.8363E+02
     37.941  0.0000E+00  0.8417E+02
     38.250  0.1045E+00  0.8555E+02
     38.559  0.0000E+00  0.8587E+02
     38.868  0.3033E+00  0.8653E+02
     39.177  0.5635E-01  0.8720E+02
     39.486  0.2615E+00  0.8807E+02
     39.795  0.0000E+00  0.8880E+02
     40.105  0.3620E-09  0.8927E+02
     40.414  0.0000E+00  0.9005E+02
     40.723  0.5706E-09  0.9100E+02
     41.032  0.0000E+00  0.9177E+02
     41.341  0.0000E+00  0.9297E+02
     41.650  0.2678E-02  0.9367E+02
     41.959  0.7622E-01  0.9422E+02
     42.268  0.0000E+00  0.9535E+02
     42.577  0.6063E+00  0.9665E+02
     42.886  0.0000E+00  0.9738E+02
     43.195  0.0000E+00  0.9809E+02
     43.504  0.0000E+00  0.9857E+02
     43.813  0.0000E+00  0.9936E+02
     44.122  0.8852E+00  0.1006E+03
     44.432  0.7583E-01  0.1011E+03
     44.741  0.3706E-04  0.1018E+03
     45.050  0.7081E-08  0.1024E+03
     45.359  0.0000E+00  0.1033E+03
     45.668  0.4830E-01  0.1044E+03
     45.977  0.0000E+00  0.1054E+03
     46.286  0.3031E+00  0.1066E+03
     46.595  0.5055E-01  0.1072E+03
     46.904  0.3033E+00  0.1083E+03
     47.213  0.0000E+00  0.1088E+03
     47.522  0.0000E+00  0.1100E+03
     47.831  0.0000E+00  0.1107E+03
     48.140  0.0000E+00  0.1117E+03
     48.449  0.0000E+00  0.1124E+03
     48.759  0.0000E+00  0.1134E+03
     49.068  0.0000E+00  0.1143E+03
     49.377  0.1053E-06  0.1152E+03
     49.686  0.6067E+00  0.1164E+03
     49.995  0.7583E-01  0.1169E+03
     50.304  0.3033E+00  0.1181E+03
     50.613  0.0000E+00  0.1188E+03
     50.922  0.0000E+00  0.1200E+03
     51.231  0.0000E+00  0.1206E+03
     51.540  0.0000E+00  0.1217E+03
     51.849  0.0000E+00  0.1225E+03
     52.158  0.3032E+00  0.1234E+03
     52.467  0.6311E-15  0.1246E+03
     52.777  0.0000E+00  0.1254E+03
     53.086  0.8487E-01  0.1262E+03
     53.395  0.1011E+00  0.1268E+03
     53.704  0.0000E+00  0.1278E+03
     54.013  0.0000E+00  0.1280E+03
     54.322  0.0000E+00  0.1280E+03
     54.631  0.0000E+00  0.1280E+03
     54.940  0.0000E+00  0.1280E+03
     55.249  0.0000E+00  0.1280E+03
     55.558  0.0000E+00  0.1280E+03
     55.867  0.0000E+00  0.1280E+03
     56.176  0.0000E+00  0.1280E+03
     56.485  0.0000E+00  0.1280E+03
     56.794  0.0000E+00  0.1280E+03
     57.104  0.0000E+00  0.1280E+03
     57.413  0.0000E+00  0.1280E+03
     57.722  0.0000E+00  0.1280E+03
     58.031  0.0000E+00  0.1280E+03
