<?xml version="1.0" encoding="ISO-8859-1"?>
<modeling>
 <generator>
  <i name="program" type="string">vasp </i>
  <i name="version" type="string">5.4.4.18Apr17-6-g9f103f2a35  </i>
  <i name="subversion" type="string">(build Nov 03 2018 10:20:46) complex            parallel </i>
  <i name="platform" type="string">LinuxIFC </i>
  <i name="date" type="string">2018 11 29 </i>
  <i name="time" type="string">16:14:11 </i>
 </generator>
 <incar>
  <i type="string" name="SYSTEM">   Og_FCC</i>
  <i type="string" name="PREC">accurate</i>
  <i type="string" name="ALGO">   EXACT</i>
  <i type="logical" name="ADDGRID"> T  </i>
  <i type="logical" name="LSORBIT"> T  </i>
  <i type="int" name="ISPIN">     1</i>
  <i type="int" name="MAXMIX">    50</i>
  <i type="int" name="NELM">    50</i>
  <i type="int" name="NELMDL">    -5</i>
  <i type="int" name="NELMIN">     2</i>
  <i type="int" name="IBRION">    -1</i>
  <i type="int" name="NFREE">     5</i>
  <i name="EDIFF">      0.00000001</i>
  <i name="EDIFFG">      0.00001000</i>
  <i type="int" name="NSW">     1</i>
  <i type="int" name="ISIF">     3</i>
  <i type="int" name="ISYM">     0</i>
  <i name="SYMPREC">      0.00000010</i>
  <i name="ENCUT">    300.00000000</i>
  <i type="int" name="NBANDS">   128</i>
  <i name="POTIM">      0.10000000</i>
  <i type="logical" name="LREAL"> F  </i>
  <i type="int" name="ISMEAR">     0</i>
  <i name="SIGMA">      0.00100000</i>
  <i type="int" name="NWRITE">     2</i>
  <i type="logical" name="LWAVE"> T  </i>
  <i type="logical" name="LCHARG"> F  </i>
  <i type="logical" name="LVTOT"> F  </i>
  <i type="logical" name="LOPTICS"> T  </i>
  <i type="logical" name="GGA_COMPAT"> F  </i>
  <v type="int" name="KPOINT_BSE">    -1     0     0     0</v>
  <i type="int" name="NELM">    50</i>
  <i type="string" name="GGA"> PE</i>
 </incar>
 <structure name="primitive_cell" >
  <crystal>
   <varray name="basis" >
    <v>       4.34234588       0.00000000       0.00000000 </v>
    <v>       2.17117294       3.76058184      -0.00000000 </v>
    <v>       2.17117294       1.25352728       3.54551056 </v>
   </varray>
   <i name="volume">     57.89729060 </i>
   <varray name="rec_basis" >
    <v>       0.23029027      -0.13295815      -0.09401561 </v>
    <v>       0.00000000       0.26591630      -0.09401561 </v>
    <v>      -0.00000000       0.00000000       0.28204683 </v>
   </varray>
  </crystal>
  <varray name="positions" >
   <v>       0.00000000       0.00000000       0.00000000 </v>
  </varray>
 </structure>
 <varray name="primitive_index" >
  <v type="int" >        1 </v>
 </varray>
 <kpoints>
  <generation param="Gamma">
   <v type="int" name="divisions">       8        8        8 </v>
   <v name="usershift">      0.00000000       0.00000000       0.00000000 </v>
   <v name="genvec1">      0.12500000       0.00000000      -0.00000000 </v>
   <v name="genvec2">      0.00000000       0.12500000      -0.00000000 </v>
   <v name="genvec3">      0.00000000       0.00000000       0.12500000 </v>
   <v name="shift">      0.00000000       0.00000000       0.00000000 </v>
  </generation>
  <varray name="kpointlist" >
   <v>       0.00000000       0.00000000       0.00000000 </v>
   <v>       0.12500000       0.00000000       0.00000000 </v>
   <v>       0.25000000       0.00000000       0.00000000 </v>
   <v>       0.37500000       0.00000000       0.00000000 </v>
   <v>       0.50000000       0.00000000       0.00000000 </v>
   <v>      -0.37500000      -0.00000000      -0.00000000 </v>
   <v>      -0.25000000      -0.00000000      -0.00000000 </v>
   <v>      -0.12500000      -0.00000000      -0.00000000 </v>
   <v>       0.00000000       0.12500000      -0.00000000 </v>
   <v>       0.12500000       0.12500000       0.00000000 </v>
   <v>       0.25000000       0.12500000       0.00000000 </v>
   <v>       0.37500000       0.12500000       0.00000000 </v>
   <v>       0.50000000       0.12500000       0.00000000 </v>
   <v>      -0.37500000       0.12500000      -0.00000000 </v>
   <v>      -0.25000000       0.12500000      -0.00000000 </v>
   <v>      -0.12500000       0.12500000      -0.00000000 </v>
   <v>       0.00000000       0.25000000      -0.00000000 </v>
   <v>       0.12500000       0.25000000       0.00000000 </v>
   <v>       0.25000000       0.25000000       0.00000000 </v>
   <v>       0.37500000       0.25000000       0.00000000 </v>
   <v>       0.50000000       0.25000000       0.00000000 </v>
   <v>      -0.37500000       0.25000000      -0.00000000 </v>
   <v>      -0.25000000       0.25000000      -0.00000000 </v>
   <v>      -0.12500000       0.25000000      -0.00000000 </v>
   <v>      -0.00000000       0.37500000      -0.00000000 </v>
   <v>       0.12500000       0.37500000      -0.00000000 </v>
   <v>       0.25000000       0.37500000       0.00000000 </v>
   <v>       0.37500000       0.37500000       0.00000000 </v>
   <v>       0.50000000       0.37500000       0.00000000 </v>
   <v>      -0.37500000       0.37500000      -0.00000000 </v>
   <v>      -0.25000000       0.37500000      -0.00000000 </v>
   <v>      -0.12500000       0.37500000      -0.00000000 </v>
   <v>       0.00000000       0.50000000      -0.00000000 </v>
   <v>       0.12500000       0.50000000      -0.00000000 </v>
   <v>       0.25000000       0.50000000       0.00000000 </v>
   <v>       0.37500000       0.50000000       0.00000000 </v>
   <v>       0.50000000       0.50000000       0.00000000 </v>
   <v>      -0.37500000       0.50000000      -0.00000000 </v>
   <v>      -0.25000000       0.50000000      -0.00000000 </v>
   <v>      -0.12500000       0.50000000      -0.00000000 </v>
   <v>       0.00000000      -0.37500000       0.00000000 </v>
   <v>       0.12500000      -0.37500000       0.00000000 </v>
   <v>       0.25000000      -0.37500000       0.00000000 </v>
   <v>       0.37500000      -0.37500000       0.00000000 </v>
   <v>       0.50000000      -0.37500000       0.00000000 </v>
   <v>      -0.37500000      -0.37500000      -0.00000000 </v>
   <v>      -0.25000000      -0.37500000       0.00000000 </v>
   <v>      -0.12500000      -0.37500000       0.00000000 </v>
   <v>      -0.00000000      -0.25000000       0.00000000 </v>
   <v>       0.12500000      -0.25000000       0.00000000 </v>
   <v>       0.25000000      -0.25000000       0.00000000 </v>
   <v>       0.37500000      -0.25000000       0.00000000 </v>
   <v>       0.50000000      -0.25000000       0.00000000 </v>
   <v>      -0.37500000      -0.25000000      -0.00000000 </v>
   <v>      -0.25000000      -0.25000000      -0.00000000 </v>
   <v>      -0.12500000      -0.25000000      -0.00000000 </v>
   <v>      -0.00000000      -0.12500000       0.00000000 </v>
   <v>       0.12500000      -0.12500000       0.00000000 </v>
   <v>       0.25000000      -0.12500000       0.00000000 </v>
   <v>       0.37500000      -0.12500000       0.00000000 </v>
   <v>       0.50000000      -0.12500000       0.00000000 </v>
   <v>      -0.37500000      -0.12500000      -0.00000000 </v>
   <v>      -0.25000000      -0.12500000      -0.00000000 </v>
   <v>      -0.12500000      -0.12500000      -0.00000000 </v>
   <v>       0.00000000       0.00000000       0.12500000 </v>
   <v>       0.12500000      -0.00000000       0.12500000 </v>
   <v>       0.25000000      -0.00000000       0.12500000 </v>
   <v>       0.37500000       0.00000000       0.12500000 </v>
   <v>       0.50000000       0.00000000       0.12500000 </v>
   <v>      -0.37500000      -0.00000000       0.12500000 </v>
   <v>      -0.25000000      -0.00000000       0.12500000 </v>
   <v>      -0.12500000      -0.00000000       0.12500000 </v>
   <v>      -0.00000000       0.12500000       0.12500000 </v>
   <v>       0.12500000       0.12500000       0.12500000 </v>
   <v>       0.25000000       0.12500000       0.12500000 </v>
   <v>       0.37500000       0.12500000       0.12500000 </v>
   <v>       0.50000000       0.12500000       0.12500000 </v>
   <v>      -0.37500000       0.12500000       0.12500000 </v>
   <v>      -0.25000000       0.12500000       0.12500000 </v>
   <v>      -0.12500000       0.12500000       0.12500000 </v>
   <v>      -0.00000000       0.25000000       0.12500000 </v>
   <v>       0.12500000       0.25000000       0.12500000 </v>
   <v>       0.25000000       0.25000000       0.12500000 </v>
   <v>       0.37500000       0.25000000       0.12500000 </v>
   <v>       0.50000000       0.25000000       0.12500000 </v>
   <v>      -0.37500000       0.25000000       0.12500000 </v>
   <v>      -0.25000000       0.25000000       0.12500000 </v>
   <v>      -0.12500000       0.25000000       0.12500000 </v>
   <v>      -0.00000000       0.37500000       0.12500000 </v>
   <v>       0.12500000       0.37500000       0.12500000 </v>
   <v>       0.25000000       0.37500000       0.12500000 </v>
   <v>       0.37500000       0.37500000       0.12500000 </v>
   <v>       0.50000000       0.37500000       0.12500000 </v>
   <v>      -0.37500000       0.37500000       0.12500000 </v>
   <v>      -0.25000000       0.37500000       0.12500000 </v>
   <v>      -0.12500000       0.37500000       0.12500000 </v>
   <v>       0.00000000       0.50000000       0.12500000 </v>
   <v>       0.12500000       0.50000000       0.12500000 </v>
   <v>       0.25000000       0.50000000       0.12500000 </v>
   <v>       0.37500000       0.50000000       0.12500000 </v>
   <v>       0.50000000       0.50000000       0.12500000 </v>
   <v>      -0.37500000       0.50000000       0.12500000 </v>
   <v>      -0.25000000       0.50000000       0.12500000 </v>
   <v>      -0.12500000       0.50000000       0.12500000 </v>
   <v>      -0.00000000      -0.37500000       0.12500000 </v>
   <v>       0.12500000      -0.37500000       0.12500000 </v>
   <v>       0.25000000      -0.37500000       0.12500000 </v>
   <v>       0.37500000      -0.37500000       0.12500000 </v>
   <v>       0.50000000      -0.37500000       0.12500000 </v>
   <v>      -0.37500000      -0.37500000       0.12500000 </v>
   <v>      -0.25000000      -0.37500000       0.12500000 </v>
   <v>      -0.12500000      -0.37500000       0.12500000 </v>
   <v>      -0.00000000      -0.25000000       0.12500000 </v>
   <v>       0.12500000      -0.25000000       0.12500000 </v>
   <v>       0.25000000      -0.25000000       0.12500000 </v>
   <v>       0.37500000      -0.25000000       0.12500000 </v>
   <v>       0.50000000      -0.25000000       0.12500000 </v>
   <v>      -0.37500000      -0.25000000       0.12500000 </v>
   <v>      -0.25000000      -0.25000000       0.12500000 </v>
   <v>      -0.12500000      -0.25000000       0.12500000 </v>
   <v>       0.00000000      -0.12500000       0.12500000 </v>
   <v>       0.12500000      -0.12500000       0.12500000 </v>
   <v>       0.25000000      -0.12500000       0.12500000 </v>
   <v>       0.37500000      -0.12500000       0.12500000 </v>
   <v>       0.50000000      -0.12500000       0.12500000 </v>
   <v>      -0.37500000      -0.12500000       0.12500000 </v>
   <v>      -0.25000000      -0.12500000       0.12500000 </v>
   <v>      -0.12500000      -0.12500000       0.12500000 </v>
   <v>       0.00000000       0.00000000       0.25000000 </v>
   <v>       0.12500000       0.00000000       0.25000000 </v>
   <v>       0.25000000      -0.00000000       0.25000000 </v>
   <v>       0.37500000       0.00000000       0.25000000 </v>
   <v>       0.50000000      -0.00000000       0.25000000 </v>
   <v>      -0.37500000      -0.00000000       0.25000000 </v>
   <v>      -0.25000000      -0.00000000       0.25000000 </v>
   <v>      -0.12500000       0.00000000       0.25000000 </v>
   <v>      -0.00000000       0.12500000       0.25000000 </v>
   <v>       0.12500000       0.12500000       0.25000000 </v>
   <v>       0.25000000       0.12500000       0.25000000 </v>
   <v>       0.37500000       0.12500000       0.25000000 </v>
   <v>       0.50000000       0.12500000       0.25000000 </v>
   <v>      -0.37500000       0.12500000       0.25000000 </v>
   <v>      -0.25000000       0.12500000       0.25000000 </v>
   <v>      -0.12500000       0.12500000       0.25000000 </v>
   <v>      -0.00000000       0.25000000       0.25000000 </v>
   <v>       0.12500000       0.25000000       0.25000000 </v>
   <v>       0.25000000       0.25000000       0.25000000 </v>
   <v>       0.37500000       0.25000000       0.25000000 </v>
   <v>       0.50000000       0.25000000       0.25000000 </v>
   <v>      -0.37500000       0.25000000       0.25000000 </v>
   <v>      -0.25000000       0.25000000       0.25000000 </v>
   <v>      -0.12500000       0.25000000       0.25000000 </v>
   <v>      -0.00000000       0.37500000       0.25000000 </v>
   <v>       0.12500000       0.37500000       0.25000000 </v>
   <v>       0.25000000       0.37500000       0.25000000 </v>
   <v>       0.37500000       0.37500000       0.25000000 </v>
   <v>       0.50000000       0.37500000       0.25000000 </v>
   <v>      -0.37500000       0.37500000       0.25000000 </v>
   <v>      -0.25000000       0.37500000       0.25000000 </v>
   <v>      -0.12500000       0.37500000       0.25000000 </v>
   <v>      -0.00000000       0.50000000       0.25000000 </v>
   <v>       0.12500000       0.50000000       0.25000000 </v>
   <v>       0.25000000       0.50000000       0.25000000 </v>
   <v>       0.37500000       0.50000000       0.25000000 </v>
   <v>       0.50000000       0.50000000       0.25000000 </v>
   <v>      -0.37500000       0.50000000       0.25000000 </v>
   <v>      -0.25000000       0.50000000       0.25000000 </v>
   <v>      -0.12500000       0.50000000       0.25000000 </v>
   <v>       0.00000000      -0.37500000       0.25000000 </v>
   <v>       0.12500000      -0.37500000       0.25000000 </v>
   <v>       0.25000000      -0.37500000       0.25000000 </v>
   <v>       0.37500000      -0.37500000       0.25000000 </v>
   <v>       0.50000000      -0.37500000       0.25000000 </v>
   <v>      -0.37500000      -0.37500000       0.25000000 </v>
   <v>      -0.25000000      -0.37500000       0.25000000 </v>
   <v>      -0.12500000      -0.37500000       0.25000000 </v>
   <v>       0.00000000      -0.25000000       0.25000000 </v>
   <v>       0.12500000      -0.25000000       0.25000000 </v>
   <v>       0.25000000      -0.25000000       0.25000000 </v>
   <v>       0.37500000      -0.25000000       0.25000000 </v>
   <v>       0.50000000      -0.25000000       0.25000000 </v>
   <v>      -0.37500000      -0.25000000       0.25000000 </v>
   <v>      -0.25000000      -0.25000000       0.25000000 </v>
   <v>      -0.12500000      -0.25000000       0.25000000 </v>
   <v>       0.00000000      -0.12500000       0.25000000 </v>
   <v>       0.12500000      -0.12500000       0.25000000 </v>
   <v>       0.25000000      -0.12500000       0.25000000 </v>
   <v>       0.37500000      -0.12500000       0.25000000 </v>
   <v>       0.50000000      -0.12500000       0.25000000 </v>
   <v>      -0.37500000      -0.12500000       0.25000000 </v>
   <v>      -0.25000000      -0.12500000       0.25000000 </v>
   <v>      -0.12500000      -0.12500000       0.25000000 </v>
   <v>      -0.00000000       0.00000000       0.37500000 </v>
   <v>       0.12500000      -0.00000000       0.37500000 </v>
   <v>       0.25000000       0.00000000       0.37500000 </v>
   <v>       0.37500000       0.00000000       0.37500000 </v>
   <v>       0.50000000      -0.00000000       0.37500000 </v>
   <v>      -0.37500000      -0.00000000       0.37500000 </v>
   <v>      -0.25000000       0.00000000       0.37500000 </v>
   <v>      -0.12500000      -0.00000000       0.37500000 </v>
   <v>       0.00000000       0.12500000       0.37500000 </v>
   <v>       0.12500000       0.12500000       0.37500000 </v>
   <v>       0.25000000       0.12500000       0.37500000 </v>
   <v>       0.37500000       0.12500000       0.37500000 </v>
   <v>       0.50000000       0.12500000       0.37500000 </v>
   <v>      -0.37500000       0.12500000       0.37500000 </v>
   <v>      -0.25000000       0.12500000       0.37500000 </v>
   <v>      -0.12500000       0.12500000       0.37500000 </v>
   <v>      -0.00000000       0.25000000       0.37500000 </v>
   <v>       0.12500000       0.25000000       0.37500000 </v>
   <v>       0.25000000       0.25000000       0.37500000 </v>
   <v>       0.37500000       0.25000000       0.37500000 </v>
   <v>       0.50000000       0.25000000       0.37500000 </v>
   <v>      -0.37500000       0.25000000       0.37500000 </v>
   <v>      -0.25000000       0.25000000       0.37500000 </v>
   <v>      -0.12500000       0.25000000       0.37500000 </v>
   <v>       0.00000000       0.37500000       0.37500000 </v>
   <v>       0.12500000       0.37500000       0.37500000 </v>
   <v>       0.25000000       0.37500000       0.37500000 </v>
   <v>       0.37500000       0.37500000       0.37500000 </v>
   <v>       0.50000000       0.37500000       0.37500000 </v>
   <v>      -0.37500000       0.37500000       0.37500000 </v>
   <v>      -0.25000000       0.37500000       0.37500000 </v>
   <v>      -0.12500000       0.37500000       0.37500000 </v>
   <v>       0.00000000       0.50000000       0.37500000 </v>
   <v>       0.12500000       0.50000000       0.37500000 </v>
   <v>       0.25000000       0.50000000       0.37500000 </v>
   <v>       0.37500000       0.50000000       0.37500000 </v>
   <v>       0.50000000       0.50000000       0.37500000 </v>
   <v>      -0.37500000       0.50000000       0.37500000 </v>
   <v>      -0.25000000       0.50000000       0.37500000 </v>
   <v>      -0.12500000       0.50000000       0.37500000 </v>
   <v>       0.00000000      -0.37500000       0.37500000 </v>
   <v>       0.12500000      -0.37500000       0.37500000 </v>
   <v>       0.25000000      -0.37500000       0.37500000 </v>
   <v>       0.37500000      -0.37500000       0.37500000 </v>
   <v>       0.50000000      -0.37500000       0.37500000 </v>
   <v>      -0.37500000      -0.37500000       0.37500000 </v>
   <v>      -0.25000000      -0.37500000       0.37500000 </v>
   <v>      -0.12500000      -0.37500000       0.37500000 </v>
   <v>       0.00000000      -0.25000000       0.37500000 </v>
   <v>       0.12500000      -0.25000000       0.37500000 </v>
   <v>       0.25000000      -0.25000000       0.37500000 </v>
   <v>       0.37500000      -0.25000000       0.37500000 </v>
   <v>       0.50000000      -0.25000000       0.37500000 </v>
   <v>      -0.37500000      -0.25000000       0.37500000 </v>
   <v>      -0.25000000      -0.25000000       0.37500000 </v>
   <v>      -0.12500000      -0.25000000       0.37500000 </v>
   <v>       0.00000000      -0.12500000       0.37500000 </v>
   <v>       0.12500000      -0.12500000       0.37500000 </v>
   <v>       0.25000000      -0.12500000       0.37500000 </v>
   <v>       0.37500000      -0.12500000       0.37500000 </v>
   <v>       0.50000000      -0.12500000       0.37500000 </v>
   <v>      -0.37500000      -0.12500000       0.37500000 </v>
   <v>      -0.25000000      -0.12500000       0.37500000 </v>
   <v>      -0.12500000      -0.12500000       0.37500000 </v>
   <v>       0.00000000       0.00000000       0.50000000 </v>
   <v>       0.12500000       0.00000000       0.50000000 </v>
   <v>       0.25000000       0.00000000       0.50000000 </v>
   <v>       0.37500000       0.00000000       0.50000000 </v>
   <v>       0.50000000      -0.00000000       0.50000000 </v>
   <v>      -0.37500000      -0.00000000       0.50000000 </v>
   <v>      -0.25000000       0.00000000       0.50000000 </v>
   <v>      -0.12500000       0.00000000       0.50000000 </v>
   <v>       0.00000000       0.12500000       0.50000000 </v>
   <v>       0.12500000       0.12500000       0.50000000 </v>
   <v>       0.25000000       0.12500000       0.50000000 </v>
   <v>       0.37500000       0.12500000       0.50000000 </v>
   <v>       0.50000000       0.12500000       0.50000000 </v>
   <v>      -0.37500000       0.12500000       0.50000000 </v>
   <v>      -0.25000000       0.12500000       0.50000000 </v>
   <v>      -0.12500000       0.12500000       0.50000000 </v>
   <v>      -0.00000000       0.25000000       0.50000000 </v>
   <v>       0.12500000       0.25000000       0.50000000 </v>
   <v>       0.25000000       0.25000000       0.50000000 </v>
   <v>       0.37500000       0.25000000       0.50000000 </v>
   <v>       0.50000000       0.25000000       0.50000000 </v>
   <v>      -0.37500000       0.25000000       0.50000000 </v>
   <v>      -0.25000000       0.25000000       0.50000000 </v>
   <v>      -0.12500000       0.25000000       0.50000000 </v>
   <v>       0.00000000       0.37500000       0.50000000 </v>
   <v>       0.12500000       0.37500000       0.50000000 </v>
   <v>       0.25000000       0.37500000       0.50000000 </v>
   <v>       0.37500000       0.37500000       0.50000000 </v>
   <v>       0.50000000       0.37500000       0.50000000 </v>
   <v>      -0.37500000       0.37500000       0.50000000 </v>
   <v>      -0.25000000       0.37500000       0.50000000 </v>
   <v>      -0.12500000       0.37500000       0.50000000 </v>
   <v>      -0.00000000       0.50000000       0.50000000 </v>
   <v>       0.12500000       0.50000000       0.50000000 </v>
   <v>       0.25000000       0.50000000       0.50000000 </v>
   <v>       0.37500000       0.50000000       0.50000000 </v>
   <v>       0.50000000       0.50000000       0.50000000 </v>
   <v>      -0.37500000       0.50000000       0.50000000 </v>
   <v>      -0.25000000       0.50000000       0.50000000 </v>
   <v>      -0.12500000       0.50000000       0.50000000 </v>
   <v>       0.00000000      -0.37500000       0.50000000 </v>
   <v>       0.12500000      -0.37500000       0.50000000 </v>
   <v>       0.25000000      -0.37500000       0.50000000 </v>
   <v>       0.37500000      -0.37500000       0.50000000 </v>
   <v>       0.50000000      -0.37500000       0.50000000 </v>
   <v>      -0.37500000      -0.37500000       0.50000000 </v>
   <v>      -0.25000000      -0.37500000       0.50000000 </v>
   <v>      -0.12500000      -0.37500000       0.50000000 </v>
   <v>       0.00000000      -0.25000000       0.50000000 </v>
   <v>       0.12500000      -0.25000000       0.50000000 </v>
   <v>       0.25000000      -0.25000000       0.50000000 </v>
   <v>       0.37500000      -0.25000000       0.50000000 </v>
   <v>       0.50000000      -0.25000000       0.50000000 </v>
   <v>      -0.37500000      -0.25000000       0.50000000 </v>
   <v>      -0.25000000      -0.25000000       0.50000000 </v>
   <v>      -0.12500000      -0.25000000       0.50000000 </v>
   <v>       0.00000000      -0.12500000       0.50000000 </v>
   <v>       0.12500000      -0.12500000       0.50000000 </v>
   <v>       0.25000000      -0.12500000       0.50000000 </v>
   <v>       0.37500000      -0.12500000       0.50000000 </v>
   <v>       0.50000000      -0.12500000       0.50000000 </v>
   <v>      -0.37500000      -0.12500000       0.50000000 </v>
   <v>      -0.25000000      -0.12500000       0.50000000 </v>
   <v>      -0.12500000      -0.12500000       0.50000000 </v>
   <v>       0.00000000      -0.00000000      -0.37500000 </v>
   <v>       0.12500000       0.00000000      -0.37500000 </v>
   <v>       0.25000000      -0.00000000      -0.37500000 </v>
   <v>       0.37500000       0.00000000      -0.37500000 </v>
   <v>       0.50000000       0.00000000      -0.37500000 </v>
   <v>      -0.37500000      -0.00000000      -0.37500000 </v>
   <v>      -0.25000000      -0.00000000      -0.37500000 </v>
   <v>      -0.12500000       0.00000000      -0.37500000 </v>
   <v>       0.00000000       0.12500000      -0.37500000 </v>
   <v>       0.12500000       0.12500000      -0.37500000 </v>
   <v>       0.25000000       0.12500000      -0.37500000 </v>
   <v>       0.37500000       0.12500000      -0.37500000 </v>
   <v>       0.50000000       0.12500000      -0.37500000 </v>
   <v>      -0.37500000       0.12500000      -0.37500000 </v>
   <v>      -0.25000000       0.12500000      -0.37500000 </v>
   <v>      -0.12500000       0.12500000      -0.37500000 </v>
   <v>      -0.00000000       0.25000000      -0.37500000 </v>
   <v>       0.12500000       0.25000000      -0.37500000 </v>
   <v>       0.25000000       0.25000000      -0.37500000 </v>
   <v>       0.37500000       0.25000000      -0.37500000 </v>
   <v>       0.50000000       0.25000000      -0.37500000 </v>
   <v>      -0.37500000       0.25000000      -0.37500000 </v>
   <v>      -0.25000000       0.25000000      -0.37500000 </v>
   <v>      -0.12500000       0.25000000      -0.37500000 </v>
   <v>       0.00000000       0.37500000      -0.37500000 </v>
   <v>       0.12500000       0.37500000      -0.37500000 </v>
   <v>       0.25000000       0.37500000      -0.37500000 </v>
   <v>       0.37500000       0.37500000      -0.37500000 </v>
   <v>       0.50000000       0.37500000      -0.37500000 </v>
   <v>      -0.37500000       0.37500000      -0.37500000 </v>
   <v>      -0.25000000       0.37500000      -0.37500000 </v>
   <v>      -0.12500000       0.37500000      -0.37500000 </v>
   <v>      -0.00000000       0.50000000      -0.37500000 </v>
   <v>       0.12500000       0.50000000      -0.37500000 </v>
   <v>       0.25000000       0.50000000      -0.37500000 </v>
   <v>       0.37500000       0.50000000      -0.37500000 </v>
   <v>       0.50000000       0.50000000      -0.37500000 </v>
   <v>      -0.37500000       0.50000000      -0.37500000 </v>
   <v>      -0.25000000       0.50000000      -0.37500000 </v>
   <v>      -0.12500000       0.50000000      -0.37500000 </v>
   <v>      -0.00000000      -0.37500000      -0.37500000 </v>
   <v>       0.12500000      -0.37500000      -0.37500000 </v>
   <v>       0.25000000      -0.37500000      -0.37500000 </v>
   <v>       0.37500000      -0.37500000      -0.37500000 </v>
   <v>       0.50000000      -0.37500000      -0.37500000 </v>
   <v>      -0.37500000      -0.37500000      -0.37500000 </v>
   <v>      -0.25000000      -0.37500000      -0.37500000 </v>
   <v>      -0.12500000      -0.37500000      -0.37500000 </v>
   <v>       0.00000000      -0.25000000      -0.37500000 </v>
   <v>       0.12500000      -0.25000000      -0.37500000 </v>
   <v>       0.25000000      -0.25000000      -0.37500000 </v>
   <v>       0.37500000      -0.25000000      -0.37500000 </v>
   <v>       0.50000000      -0.25000000      -0.37500000 </v>
   <v>      -0.37500000      -0.25000000      -0.37500000 </v>
   <v>      -0.25000000      -0.25000000      -0.37500000 </v>
   <v>      -0.12500000      -0.25000000      -0.37500000 </v>
   <v>       0.00000000      -0.12500000      -0.37500000 </v>
   <v>       0.12500000      -0.12500000      -0.37500000 </v>
   <v>       0.25000000      -0.12500000      -0.37500000 </v>
   <v>       0.37500000      -0.12500000      -0.37500000 </v>
   <v>       0.50000000      -0.12500000      -0.37500000 </v>
   <v>      -0.37500000      -0.12500000      -0.37500000 </v>
   <v>      -0.25000000      -0.12500000      -0.37500000 </v>
   <v>      -0.12500000      -0.12500000      -0.37500000 </v>
   <v>       0.00000000       0.00000000      -0.25000000 </v>
   <v>       0.12500000      -0.00000000      -0.25000000 </v>
   <v>       0.25000000       0.00000000      -0.25000000 </v>
   <v>       0.37500000       0.00000000      -0.25000000 </v>
   <v>       0.50000000       0.00000000      -0.25000000 </v>
   <v>      -0.37500000      -0.00000000      -0.25000000 </v>
   <v>      -0.25000000       0.00000000      -0.25000000 </v>
   <v>      -0.12500000      -0.00000000      -0.25000000 </v>
   <v>       0.00000000       0.12500000      -0.25000000 </v>
   <v>       0.12500000       0.12500000      -0.25000000 </v>
   <v>       0.25000000       0.12500000      -0.25000000 </v>
   <v>       0.37500000       0.12500000      -0.25000000 </v>
   <v>       0.50000000       0.12500000      -0.25000000 </v>
   <v>      -0.37500000       0.12500000      -0.25000000 </v>
   <v>      -0.25000000       0.12500000      -0.25000000 </v>
   <v>      -0.12500000       0.12500000      -0.25000000 </v>
   <v>       0.00000000       0.25000000      -0.25000000 </v>
   <v>       0.12500000       0.25000000      -0.25000000 </v>
   <v>       0.25000000       0.25000000      -0.25000000 </v>
   <v>       0.37500000       0.25000000      -0.25000000 </v>
   <v>       0.50000000       0.25000000      -0.25000000 </v>
   <v>      -0.37500000       0.25000000      -0.25000000 </v>
   <v>      -0.25000000       0.25000000      -0.25000000 </v>
   <v>      -0.12500000       0.25000000      -0.25000000 </v>
   <v>       0.00000000       0.37500000      -0.25000000 </v>
   <v>       0.12500000       0.37500000      -0.25000000 </v>
   <v>       0.25000000       0.37500000      -0.25000000 </v>
   <v>       0.37500000       0.37500000      -0.25000000 </v>
   <v>       0.50000000       0.37500000      -0.25000000 </v>
   <v>      -0.37500000       0.37500000      -0.25000000 </v>
   <v>      -0.25000000       0.37500000      -0.25000000 </v>
   <v>      -0.12500000       0.37500000      -0.25000000 </v>
   <v>       0.00000000       0.50000000      -0.25000000 </v>
   <v>       0.12500000       0.50000000      -0.25000000 </v>
   <v>       0.25000000       0.50000000      -0.25000000 </v>
   <v>       0.37500000       0.50000000      -0.25000000 </v>
   <v>       0.50000000       0.50000000      -0.25000000 </v>
   <v>      -0.37500000       0.50000000      -0.25000000 </v>
   <v>      -0.25000000       0.50000000      -0.25000000 </v>
   <v>      -0.12500000       0.50000000      -0.25000000 </v>
   <v>       0.00000000      -0.37500000      -0.25000000 </v>
   <v>       0.12500000      -0.37500000      -0.25000000 </v>
   <v>       0.25000000      -0.37500000      -0.25000000 </v>
   <v>       0.37500000      -0.37500000      -0.25000000 </v>
   <v>       0.50000000      -0.37500000      -0.25000000 </v>
   <v>      -0.37500000      -0.37500000      -0.25000000 </v>
   <v>      -0.25000000      -0.37500000      -0.25000000 </v>
   <v>      -0.12500000      -0.37500000      -0.25000000 </v>
   <v>       0.00000000      -0.25000000      -0.25000000 </v>
   <v>       0.12500000      -0.25000000      -0.25000000 </v>
   <v>       0.25000000      -0.25000000      -0.25000000 </v>
   <v>       0.37500000      -0.25000000      -0.25000000 </v>
   <v>       0.50000000      -0.25000000      -0.25000000 </v>
   <v>      -0.37500000      -0.25000000      -0.25000000 </v>
   <v>      -0.25000000      -0.25000000      -0.25000000 </v>
   <v>      -0.12500000      -0.25000000      -0.25000000 </v>
   <v>       0.00000000      -0.12500000      -0.25000000 </v>
   <v>       0.12500000      -0.12500000      -0.25000000 </v>
   <v>       0.25000000      -0.12500000      -0.25000000 </v>
   <v>       0.37500000      -0.12500000      -0.25000000 </v>
   <v>       0.50000000      -0.12500000      -0.25000000 </v>
   <v>      -0.37500000      -0.12500000      -0.25000000 </v>
   <v>      -0.25000000      -0.12500000      -0.25000000 </v>
   <v>      -0.12500000      -0.12500000      -0.25000000 </v>
   <v>       0.00000000       0.00000000      -0.12500000 </v>
   <v>       0.12500000       0.00000000      -0.12500000 </v>
   <v>       0.25000000       0.00000000      -0.12500000 </v>
   <v>       0.37500000       0.00000000      -0.12500000 </v>
   <v>       0.50000000       0.00000000      -0.12500000 </v>
   <v>      -0.37500000      -0.00000000      -0.12500000 </v>
   <v>      -0.25000000       0.00000000      -0.12500000 </v>
   <v>      -0.12500000       0.00000000      -0.12500000 </v>
   <v>       0.00000000       0.12500000      -0.12500000 </v>
   <v>       0.12500000       0.12500000      -0.12500000 </v>
   <v>       0.25000000       0.12500000      -0.12500000 </v>
   <v>       0.37500000       0.12500000      -0.12500000 </v>
   <v>       0.50000000       0.12500000      -0.12500000 </v>
   <v>      -0.37500000       0.12500000      -0.12500000 </v>
   <v>      -0.25000000       0.12500000      -0.12500000 </v>
   <v>      -0.12500000       0.12500000      -0.12500000 </v>
   <v>       0.00000000       0.25000000      -0.12500000 </v>
   <v>       0.12500000       0.25000000      -0.12500000 </v>
   <v>       0.25000000       0.25000000      -0.12500000 </v>
   <v>       0.37500000       0.25000000      -0.12500000 </v>
   <v>       0.50000000       0.25000000      -0.12500000 </v>
   <v>      -0.37500000       0.25000000      -0.12500000 </v>
   <v>      -0.25000000       0.25000000      -0.12500000 </v>
   <v>      -0.12500000       0.25000000      -0.12500000 </v>
   <v>       0.00000000       0.37500000      -0.12500000 </v>
   <v>       0.12500000       0.37500000      -0.12500000 </v>
   <v>       0.25000000       0.37500000      -0.12500000 </v>
   <v>       0.37500000       0.37500000      -0.12500000 </v>
   <v>       0.50000000       0.37500000      -0.12500000 </v>
   <v>      -0.37500000       0.37500000      -0.12500000 </v>
   <v>      -0.25000000       0.37500000      -0.12500000 </v>
   <v>      -0.12500000       0.37500000      -0.12500000 </v>
   <v>       0.00000000       0.50000000      -0.12500000 </v>
   <v>       0.12500000       0.50000000      -0.12500000 </v>
   <v>       0.25000000       0.50000000      -0.12500000 </v>
   <v>       0.37500000       0.50000000      -0.12500000 </v>
   <v>       0.50000000       0.50000000      -0.12500000 </v>
   <v>      -0.37500000       0.50000000      -0.12500000 </v>
   <v>      -0.25000000       0.50000000      -0.12500000 </v>
   <v>      -0.12500000       0.50000000      -0.12500000 </v>
   <v>       0.00000000      -0.37500000      -0.12500000 </v>
   <v>       0.12500000      -0.37500000      -0.12500000 </v>
   <v>       0.25000000      -0.37500000      -0.12500000 </v>
   <v>       0.37500000      -0.37500000      -0.12500000 </v>
   <v>       0.50000000      -0.37500000      -0.12500000 </v>
   <v>      -0.37500000      -0.37500000      -0.12500000 </v>
   <v>      -0.25000000      -0.37500000      -0.12500000 </v>
   <v>      -0.12500000      -0.37500000      -0.12500000 </v>
   <v>       0.00000000      -0.25000000      -0.12500000 </v>
   <v>       0.12500000      -0.25000000      -0.12500000 </v>
   <v>       0.25000000      -0.25000000      -0.12500000 </v>
   <v>       0.37500000      -0.25000000      -0.12500000 </v>
   <v>       0.50000000      -0.25000000      -0.12500000 </v>
   <v>      -0.37500000      -0.25000000      -0.12500000 </v>
   <v>      -0.25000000      -0.25000000      -0.12500000 </v>
   <v>      -0.12500000      -0.25000000      -0.12500000 </v>
   <v>       0.00000000      -0.12500000      -0.12500000 </v>
   <v>       0.12500000      -0.12500000      -0.12500000 </v>
   <v>       0.25000000      -0.12500000      -0.12500000 </v>
   <v>       0.37500000      -0.12500000      -0.12500000 </v>
   <v>       0.50000000      -0.12500000      -0.12500000 </v>
   <v>      -0.37500000      -0.12500000      -0.12500000 </v>
   <v>      -0.25000000      -0.12500000      -0.12500000 </v>
   <v>      -0.12500000      -0.12500000      -0.12500000 </v>
  </varray>
  <varray name="weights" >
   <v>       0.00195312 </v>
   <v>       0.00195312 </v>
   <v>       0.00195312 </v>
   <v>       0.00195312 </v>
   <v>       0.00195312 </v>
   <v>       0.00195312 </v>
   <v>       0.00195312 </v>
   <v>       0.00195312 </v>
   <v>       0.00195312 </v>
   <v>       0.00195312 </v>
   <v>       0.00195312 </v>
   <v>       0.00195312 </v>
   <v>       0.00195312 </v>
   <v>       0.00195312 </v>
   <v>       0.00195312 </v>
   <v>       0.00195312 </v>
   <v>       0.00195312 </v>
   <v>       0.00195312 </v>
   <v>       0.00195312 </v>
   <v>       0.00195312 </v>
   <v>       0.00195312 </v>
   <v>       0.00195312 </v>
   <v>       0.00195312 </v>
   <v>       0.00195312 </v>
   <v>       0.00195312 </v>
   <v>       0.00195312 </v>
   <v>       0.00195312 </v>
   <v>       0.00195312 </v>
   <v>       0.00195312 </v>
   <v>       0.00195312 </v>
   <v>       0.00195312 </v>
   <v>       0.00195312 </v>
   <v>       0.00195312 </v>
   <v>       0.00195312 </v>
   <v>       0.00195312 </v>
   <v>       0.00195312 </v>
   <v>       0.00195312 </v>
   <v>       0.00195312 </v>
   <v>       0.00195312 </v>
   <v>       0.00195312 </v>
   <v>       0.00195312 </v>
   <v>       0.00195312 </v>
   <v>       0.00195312 </v>
   <v>       0.00195312 </v>
   <v>       0.00195312 </v>
   <v>       0.00195312 </v>
   <v>       0.00195312 </v>
   <v>       0.00195312 </v>
   <v>       0.00195312 </v>
   <v>       0.00195312 </v>
   <v>       0.00195312 </v>
   <v>       0.00195312 </v>
   <v>       0.00195312 </v>
   <v>       0.00195312 </v>
   <v>       0.00195312 </v>
   <v>       0.00195312 </v>
   <v>       0.00195312 </v>
   <v>       0.00195312 </v>
   <v>       0.00195312 </v>
   <v>       0.00195312 </v>
   <v>       0.00195312 </v>
   <v>       0.00195312 </v>
   <v>       0.00195312 </v>
   <v>       0.00195312 </v>
   <v>       0.00195312 </v>
   <v>       0.00195312 </v>
   <v>       0.00195312 </v>
   <v>       0.00195312 </v>
   <v>       0.00195312 </v>
   <v>       0.00195312 </v>
   <v>       0.00195312 </v>
   <v>       0.00195312 </v>
   <v>       0.00195312 </v>
   <v>       0.00195312 </v>
   <v>       0.00195312 </v>
   <v>       0.00195312 </v>
   <v>       0.00195312 </v>
   <v>       0.00195312 </v>
   <v>       0.00195312 </v>
   <v>       0.00195312 </v>
   <v>       0.00195312 </v>
   <v>       0.00195312 </v>
   <v>       0.00195312 </v>
   <v>       0.00195312 </v>
   <v>       0.00195312 </v>
   <v>       0.00195312 </v>
   <v>       0.00195312 </v>
   <v>       0.00195312 </v>
   <v>       0.00195312 </v>
   <v>       0.00195312 </v>
   <v>       0.00195312 </v>
   <v>       0.00195312 </v>
   <v>       0.00195312 </v>
   <v>       0.00195312 </v>
   <v>       0.00195312 </v>
   <v>       0.00195312 </v>
   <v>       0.00195312 </v>
   <v>       0.00195312 </v>
   <v>       0.00195312 </v>
   <v>       0.00195312 </v>
   <v>       0.00195312 </v>
   <v>       0.00195312 </v>
   <v>       0.00195312 </v>
   <v>       0.00195312 </v>
   <v>       0.00195312 </v>
   <v>       0.00195312 </v>
   <v>       0.00195312 </v>
   <v>       0.00195312 </v>
   <v>       0.00195312 </v>
   <v>       0.00195312 </v>
   <v>       0.00195312 </v>
   <v>       0.00195312 </v>
   <v>       0.00195312 </v>
   <v>       0.00195312 </v>
   <v>       0.00195312 </v>
   <v>       0.00195312 </v>
   <v>       0.00195312 </v>
   <v>       0.00195312 </v>
   <v>       0.00195312 </v>
   <v>       0.00195312 </v>
   <v>       0.00195312 </v>
   <v>       0.00195312 </v>
   <v>       0.00195312 </v>
   <v>       0.00195312 </v>
   <v>       0.00195312 </v>
   <v>       0.00195312 </v>
   <v>       0.00195312 </v>
   <v>       0.00195312 </v>
   <v>       0.00195312 </v>
   <v>       0.00195312 </v>
   <v>       0.00195312 </v>
   <v>       0.00195312 </v>
   <v>       0.00195312 </v>
   <v>       0.00195312 </v>
   <v>       0.00195312 </v>
   <v>       0.00195312 </v>
   <v>       0.00195312 </v>
   <v>       0.00195312 </v>
   <v>       0.00195312 </v>
   <v>       0.00195312 </v>
   <v>       0.00195312 </v>
   <v>       0.00195312 </v>
   <v>       0.00195312 </v>
   <v>       0.00195312 </v>
   <v>       0.00195312 </v>
   <v>       0.00195312 </v>
   <v>       0.00195312 </v>
   <v>       0.00195312 </v>
   <v>       0.00195312 </v>
   <v>       0.00195312 </v>
   <v>       0.00195312 </v>
   <v>       0.00195312 </v>
   <v>       0.00195312 </v>
   <v>       0.00195312 </v>
   <v>       0.00195312 </v>
   <v>       0.00195312 </v>
   <v>       0.00195312 </v>
   <v>       0.00195312 </v>
   <v>       0.00195312 </v>
   <v>       0.00195312 </v>
   <v>       0.00195312 </v>
   <v>       0.00195312 </v>
   <v>       0.00195312 </v>
   <v>       0.00195312 </v>
   <v>       0.00195312 </v>
   <v>       0.00195312 </v>
   <v>       0.00195312 </v>
   <v>       0.00195312 </v>
   <v>       0.00195312 </v>
   <v>       0.00195312 </v>
   <v>       0.00195312 </v>
   <v>       0.00195312 </v>
   <v>       0.00195312 </v>
   <v>       0.00195312 </v>
   <v>       0.00195312 </v>
   <v>       0.00195312 </v>
   <v>       0.00195312 </v>
   <v>       0.00195312 </v>
   <v>       0.00195312 </v>
   <v>       0.00195312 </v>
   <v>       0.00195312 </v>
   <v>       0.00195312 </v>
   <v>       0.00195312 </v>
   <v>       0.00195312 </v>
   <v>       0.00195312 </v>
   <v>       0.00195312 </v>
   <v>       0.00195312 </v>
   <v>       0.00195312 </v>
   <v>       0.00195312 </v>
   <v>       0.00195312 </v>
   <v>       0.00195312 </v>
   <v>       0.00195312 </v>
   <v>       0.00195312 </v>
   <v>       0.00195312 </v>
   <v>       0.00195312 </v>
   <v>       0.00195312 </v>
   <v>       0.00195312 </v>
   <v>       0.00195312 </v>
   <v>       0.00195312 </v>
   <v>       0.00195312 </v>
   <v>       0.00195312 </v>
   <v>       0.00195312 </v>
   <v>       0.00195312 </v>
   <v>       0.00195312 </v>
   <v>       0.00195312 </v>
   <v>       0.00195312 </v>
   <v>       0.00195312 </v>
   <v>       0.00195312 </v>
   <v>       0.00195312 </v>
   <v>       0.00195312 </v>
   <v>       0.00195312 </v>
   <v>       0.00195312 </v>
   <v>       0.00195312 </v>
   <v>       0.00195312 </v>
   <v>       0.00195312 </v>
   <v>       0.00195312 </v>
   <v>       0.00195312 </v>
   <v>       0.00195312 </v>
   <v>       0.00195312 </v>
   <v>       0.00195312 </v>
   <v>       0.00195312 </v>
   <v>       0.00195312 </v>
   <v>       0.00195312 </v>
   <v>       0.00195312 </v>
   <v>       0.00195312 </v>
   <v>       0.00195312 </v>
   <v>       0.00195312 </v>
   <v>       0.00195312 </v>
   <v>       0.00195312 </v>
   <v>       0.00195312 </v>
   <v>       0.00195312 </v>
   <v>       0.00195312 </v>
   <v>       0.00195312 </v>
   <v>       0.00195312 </v>
   <v>       0.00195312 </v>
   <v>       0.00195312 </v>
   <v>       0.00195312 </v>
   <v>       0.00195312 </v>
   <v>       0.00195312 </v>
   <v>       0.00195312 </v>
   <v>       0.00195312 </v>
   <v>       0.00195312 </v>
   <v>       0.00195312 </v>
   <v>       0.00195312 </v>
   <v>       0.00195312 </v>
   <v>       0.00195312 </v>
   <v>       0.00195312 </v>
   <v>       0.00195312 </v>
   <v>       0.00195312 </v>
   <v>       0.00195312 </v>
   <v>       0.00195312 </v>
   <v>       0.00195312 </v>
   <v>       0.00195312 </v>
   <v>       0.00195312 </v>
   <v>       0.00195312 </v>
   <v>       0.00195312 </v>
   <v>       0.00195312 </v>
   <v>       0.00195312 </v>
   <v>       0.00195312 </v>
   <v>       0.00195312 </v>
   <v>       0.00195312 </v>
   <v>       0.00195312 </v>
   <v>       0.00195312 </v>
   <v>       0.00195312 </v>
   <v>       0.00195312 </v>
   <v>       0.00195312 </v>
   <v>       0.00195312 </v>
   <v>       0.00195312 </v>
   <v>       0.00195312 </v>
   <v>       0.00195312 </v>
   <v>       0.00195312 </v>
   <v>       0.00195312 </v>
   <v>       0.00195312 </v>
   <v>       0.00195312 </v>
   <v>       0.00195312 </v>
   <v>       0.00195312 </v>
   <v>       0.00195312 </v>
   <v>       0.00195312 </v>
   <v>       0.00195312 </v>
   <v>       0.00195312 </v>
   <v>       0.00195312 </v>
   <v>       0.00195312 </v>
   <v>       0.00195312 </v>
   <v>       0.00195312 </v>
   <v>       0.00195312 </v>
   <v>       0.00195312 </v>
   <v>       0.00195312 </v>
   <v>       0.00195312 </v>
   <v>       0.00195312 </v>
   <v>       0.00195312 </v>
   <v>       0.00195312 </v>
   <v>       0.00195312 </v>
   <v>       0.00195312 </v>
   <v>       0.00195312 </v>
   <v>       0.00195312 </v>
   <v>       0.00195312 </v>
   <v>       0.00195312 </v>
   <v>       0.00195312 </v>
   <v>       0.00195312 </v>
   <v>       0.00195312 </v>
   <v>       0.00195312 </v>
   <v>       0.00195312 </v>
   <v>       0.00195312 </v>
   <v>       0.00195312 </v>
   <v>       0.00195312 </v>
   <v>       0.00195312 </v>
   <v>       0.00195312 </v>
   <v>       0.00195312 </v>
   <v>       0.00195312 </v>
   <v>       0.00195312 </v>
   <v>       0.00195312 </v>
   <v>       0.00195312 </v>
   <v>       0.00195312 </v>
   <v>       0.00195312 </v>
   <v>       0.00195312 </v>
   <v>       0.00195312 </v>
   <v>       0.00195312 </v>
   <v>       0.00195312 </v>
   <v>       0.00195312 </v>
   <v>       0.00195312 </v>
   <v>       0.00195312 </v>
   <v>       0.00195312 </v>
   <v>       0.00195312 </v>
   <v>       0.00195312 </v>
   <v>       0.00195312 </v>
   <v>       0.00195312 </v>
   <v>       0.00195312 </v>
   <v>       0.00195312 </v>
   <v>       0.00195312 </v>
   <v>       0.00195312 </v>
   <v>       0.00195312 </v>
   <v>       0.00195312 </v>
   <v>       0.00195312 </v>
   <v>       0.00195312 </v>
   <v>       0.00195312 </v>
   <v>       0.00195312 </v>
   <v>       0.00195312 </v>
   <v>       0.00195312 </v>
   <v>       0.00195312 </v>
   <v>       0.00195312 </v>
   <v>       0.00195312 </v>
   <v>       0.00195312 </v>
   <v>       0.00195312 </v>
   <v>       0.00195312 </v>
   <v>       0.00195312 </v>
   <v>       0.00195312 </v>
   <v>       0.00195312 </v>
   <v>       0.00195312 </v>
   <v>       0.00195312 </v>
   <v>       0.00195312 </v>
   <v>       0.00195312 </v>
   <v>       0.00195312 </v>
   <v>       0.00195312 </v>
   <v>       0.00195312 </v>
   <v>       0.00195312 </v>
   <v>       0.00195312 </v>
   <v>       0.00195312 </v>
   <v>       0.00195312 </v>
   <v>       0.00195312 </v>
   <v>       0.00195312 </v>
   <v>       0.00195312 </v>
   <v>       0.00195312 </v>
   <v>       0.00195312 </v>
   <v>       0.00195312 </v>
   <v>       0.00195312 </v>
   <v>       0.00195312 </v>
   <v>       0.00195312 </v>
   <v>       0.00195312 </v>
   <v>       0.00195312 </v>
   <v>       0.00195312 </v>
   <v>       0.00195312 </v>
   <v>       0.00195312 </v>
   <v>       0.00195312 </v>
   <v>       0.00195312 </v>
   <v>       0.00195312 </v>
   <v>       0.00195312 </v>
   <v>       0.00195312 </v>
   <v>       0.00195312 </v>
   <v>       0.00195312 </v>
   <v>       0.00195312 </v>
   <v>       0.00195312 </v>
   <v>       0.00195312 </v>
   <v>       0.00195312 </v>
   <v>       0.00195312 </v>
   <v>       0.00195312 </v>
   <v>       0.00195312 </v>
   <v>       0.00195312 </v>
   <v>       0.00195312 </v>
   <v>       0.00195312 </v>
   <v>       0.00195312 </v>
   <v>       0.00195312 </v>
   <v>       0.00195312 </v>
   <v>       0.00195312 </v>
   <v>       0.00195312 </v>
   <v>       0.00195312 </v>
   <v>       0.00195312 </v>
   <v>       0.00195312 </v>
   <v>       0.00195312 </v>
   <v>       0.00195312 </v>
   <v>       0.00195312 </v>
   <v>       0.00195312 </v>
   <v>       0.00195312 </v>
   <v>       0.00195312 </v>
   <v>       0.00195312 </v>
   <v>       0.00195312 </v>
   <v>       0.00195312 </v>
   <v>       0.00195312 </v>
   <v>       0.00195312 </v>
   <v>       0.00195312 </v>
   <v>       0.00195312 </v>
   <v>       0.00195312 </v>
   <v>       0.00195312 </v>
   <v>       0.00195312 </v>
   <v>       0.00195312 </v>
   <v>       0.00195312 </v>
   <v>       0.00195312 </v>
   <v>       0.00195312 </v>
   <v>       0.00195312 </v>
   <v>       0.00195312 </v>
   <v>       0.00195312 </v>
   <v>       0.00195312 </v>
   <v>       0.00195312 </v>
   <v>       0.00195312 </v>
   <v>       0.00195312 </v>
   <v>       0.00195312 </v>
   <v>       0.00195312 </v>
   <v>       0.00195312 </v>
   <v>       0.00195312 </v>
   <v>       0.00195312 </v>
   <v>       0.00195312 </v>
   <v>       0.00195312 </v>
   <v>       0.00195312 </v>
   <v>       0.00195312 </v>
   <v>       0.00195312 </v>
   <v>       0.00195312 </v>
   <v>       0.00195312 </v>
   <v>       0.00195312 </v>
   <v>       0.00195312 </v>
   <v>       0.00195312 </v>
   <v>       0.00195312 </v>
   <v>       0.00195312 </v>
   <v>       0.00195312 </v>
   <v>       0.00195312 </v>
   <v>       0.00195312 </v>
   <v>       0.00195312 </v>
   <v>       0.00195312 </v>
   <v>       0.00195312 </v>
   <v>       0.00195312 </v>
   <v>       0.00195312 </v>
   <v>       0.00195312 </v>
   <v>       0.00195312 </v>
   <v>       0.00195312 </v>
   <v>       0.00195312 </v>
   <v>       0.00195312 </v>
   <v>       0.00195312 </v>
   <v>       0.00195312 </v>
   <v>       0.00195312 </v>
   <v>       0.00195312 </v>
   <v>       0.00195312 </v>
   <v>       0.00195312 </v>
   <v>       0.00195312 </v>
   <v>       0.00195312 </v>
   <v>       0.00195312 </v>
   <v>       0.00195312 </v>
   <v>       0.00195312 </v>
   <v>       0.00195312 </v>
   <v>       0.00195312 </v>
   <v>       0.00195312 </v>
   <v>       0.00195312 </v>
   <v>       0.00195312 </v>
   <v>       0.00195312 </v>
   <v>       0.00195312 </v>
   <v>       0.00195312 </v>
   <v>       0.00195312 </v>
   <v>       0.00195312 </v>
   <v>       0.00195312 </v>
   <v>       0.00195312 </v>
   <v>       0.00195312 </v>
   <v>       0.00195312 </v>
   <v>       0.00195312 </v>
   <v>       0.00195312 </v>
   <v>       0.00195312 </v>
   <v>       0.00195312 </v>
   <v>       0.00195312 </v>
   <v>       0.00195312 </v>
   <v>       0.00195312 </v>
   <v>       0.00195312 </v>
   <v>       0.00195312 </v>
   <v>       0.00195312 </v>
   <v>       0.00195312 </v>
   <v>       0.00195312 </v>
   <v>       0.00195312 </v>
   <v>       0.00195312 </v>
   <v>       0.00195312 </v>
   <v>       0.00195312 </v>
   <v>       0.00195312 </v>
   <v>       0.00195312 </v>
   <v>       0.00195312 </v>
   <v>       0.00195312 </v>
   <v>       0.00195312 </v>
   <v>       0.00195312 </v>
   <v>       0.00195312 </v>
   <v>       0.00195312 </v>
   <v>       0.00195312 </v>
   <v>       0.00195312 </v>
   <v>       0.00195312 </v>
   <v>       0.00195312 </v>
   <v>       0.00195312 </v>
   <v>       0.00195312 </v>
   <v>       0.00195312 </v>
   <v>       0.00195312 </v>
   <v>       0.00195312 </v>
  </varray>
 </kpoints>
 <parameters>
  <separator name="general" >
   <i type="string" name="SYSTEM">Og_FCC</i>
   <i type="logical" name="LCOMPAT"> F  </i>
  </separator>
  <separator name="electronic" >
   <i type="string" name="PREC">accura</i>
   <i name="ENMAX">    300.00000000</i>
   <i name="ENAUG">    361.02500000</i>
   <i name="EDIFF">      0.00000001</i>
   <i type="int" name="IALGO">    90</i>
   <i type="int" name="IWAVPR">    10</i>
   <i type="int" name="NBANDS">   128</i>
   <i name="NELECT">     18.00000000</i>
   <i type="int" name="TURBO">     0</i>
   <i type="int" name="IRESTART">     0</i>
   <i type="int" name="NREBOOT">     0</i>
   <i type="int" name="NMIN">     0</i>
   <i name="EREF">      0.00000000</i>
   <separator name="electronic smearing" >
    <i type="int" name="ISMEAR">     0</i>
    <i name="SIGMA">      0.00100000</i>
    <i name="KSPACING">      0.50000000</i>
    <i type="logical" name="KGAMMA"> T  </i>
   </separator>
   <separator name="electronic projectors" >
    <i type="logical" name="LREAL"> F  </i>
    <v name="ROPT">      0.00000000</v>
    <i type="int" name="LMAXPAW">  -100</i>
    <i type="int" name="LMAXMIX">     2</i>
    <i type="logical" name="NLSPLINE"> F  </i>
   </separator>
   <separator name="electronic startup" >
    <i type="int" name="ISTART">     1</i>
    <i type="int" name="ICHARG">     0</i>
    <i type="int" name="INIWAV">     1</i>
   </separator>
   <separator name="electronic spin" >
    <i type="int" name="ISPIN">     1</i>
    <i type="logical" name="LNONCOLLINEAR"> T  </i>
    <v name="MAGMOM">      1.00000000      1.00000000      1.00000000</v>
    <i name="NUPDOWN">     -1.00000000</i>
    <i type="logical" name="LSORBIT"> T  </i>
    <v name="SAXIS">      0.00000000      0.00000000      1.00000000</v>
    <i type="logical" name="LSPIRAL"> F  </i>
    <v name="QSPIRAL">      0.00000000      0.00000000      0.00000000</v>
    <i type="logical" name="LZEROZ"> F  </i>
   </separator>
   <separator name="electronic exchange-correlation" >
    <i type="logical" name="LASPH"> F  </i>
    <i type="logical" name="LMETAGGA"> F  </i>
   </separator>
   <separator name="electronic convergence" >
    <i type="int" name="NELM">    50</i>
    <i type="int" name="NELMDL">    -5</i>
    <i type="int" name="NELMIN">     2</i>
    <i name="ENINI">    300.00000000</i>
    <separator name="electronic convergence detail" >
     <i type="logical" name="LDIAG"> T  </i>
     <i type="logical" name="LSUBROT"> F  </i>
     <i name="WEIMIN">      0.00000000</i>
     <i name="EBREAK">      0.00000000</i>
     <i name="DEPER">      0.30000000</i>
     <i type="int" name="NRMM">     4</i>
     <i name="TIME">      0.40000000</i>
    </separator>
   </separator>
   <separator name="electronic mixer" >
    <i name="AMIX">      0.40000000</i>
    <i name="BMIX">      1.00000000</i>
    <i name="AMIN">      0.10000000</i>
    <i name="AMIX_MAG">      1.60000000</i>
    <i name="BMIX_MAG">      1.00000000</i>
    <separator name="electronic mixer details" >
     <i type="int" name="IMIX">     4</i>
     <i type="logical" name="MIXFIRST"> F  </i>
     <i type="int" name="MAXMIX">    50</i>
     <i name="WC">    100.00000000</i>
     <i type="int" name="INIMIX">     1</i>
     <i type="int" name="MIXPRE">     1</i>
     <i type="int" name="MREMOVE">     5</i>
    </separator>
   </separator>
   <separator name="electronic dipolcorrection" >
    <i type="logical" name="LDIPOL"> F  </i>
    <i type="logical" name="LMONO"> F  </i>
    <i type="int" name="IDIPOL">     0</i>
    <i name="EPSILON">      1.00000000</i>
    <v name="DIPOL">   -100.00000000   -100.00000000   -100.00000000</v>
    <i name="EFIELD">      0.00000000</i>
   </separator>
  </separator>
  <separator name="grids" >
   <i type="int" name="NGX">    28</i>
   <i type="int" name="NGY">    28</i>
   <i type="int" name="NGZ">    28</i>
   <i type="int" name="NGXF">    56</i>
   <i type="int" name="NGYF">    56</i>
   <i type="int" name="NGZF">    56</i>
   <i type="logical" name="ADDGRID"> T  </i>
  </separator>
  <separator name="ionic" >
   <i type="int" name="NSW">     1</i>
   <i type="int" name="IBRION">    -1</i>
   <i type="int" name="MDALGO">     0</i>
   <i type="int" name="ISIF">     3</i>
   <i name="PSTRESS">      0.00000000</i>
   <i name="EDIFFG">      0.00001000</i>
   <i type="int" name="NFREE">     5</i>
   <i name="POTIM">      0.10000000</i>
   <i name="SMASS">     -3.00000000</i>
   <i name="SCALEE">      1.00000000</i>
  </separator>
  <separator name="ionic md" >
   <i name="TEBEG">      0.00010000</i>
   <i name="TEEND">      0.00010000</i>
   <i type="int" name="NBLOCK">     1</i>
   <i type="int" name="KBLOCK">     1</i>
   <i type="int" name="NPACO">   256</i>
   <i name="APACO">     16.00000000</i>
  </separator>
  <separator name="symmetry" >
   <i type="int" name="ISYM">     0</i>
   <i name="SYMPREC">      0.00000010</i>
  </separator>
  <separator name="dos" >
   <i type="int" name="LORBIT">     0</i>
   <v name="RWIGS">     -1.00000000</v>
   <i type="int" name="NEDOS">   301</i>
   <i name="EMIN">     10.00000000</i>
   <i name="EMAX">    -10.00000000</i>
   <i name="EFERMI">      0.00000000</i>
  </separator>
  <separator name="writing" >
   <i type="int" name="NWRITE">     2</i>
   <i type="logical" name="LWAVE"> T  </i>
   <i type="logical" name="LDOWNSAMPLE"> F  </i>
   <i type="logical" name="LCHARG"> F  </i>
   <i type="logical" name="LPARD"> F  </i>
   <i type="logical" name="LVTOT"> F  </i>
   <i type="logical" name="LVHAR"> F  </i>
   <i type="logical" name="LELF"> F  </i>
   <i type="logical" name="LOPTICS"> T  </i>
   <v name="STM">      0.00000000      0.00000000      0.00000000      0.00000000      0.00000000      0.00000000      0.00000000</v>
  </separator>
  <separator name="performance" >
   <i type="int" name="NPAR">     4</i>
   <i type="int" name="NSIM">     4</i>
   <i type="int" name="NBLK">    -1</i>
   <i type="logical" name="LPLANE"> T  </i>
   <i type="logical" name="LSCALAPACK"> T  </i>
   <i type="logical" name="LSCAAWARE"> T  </i>
   <i type="logical" name="LSCALU"> F  </i>
   <i type="logical" name="LASYNC"> F  </i>
   <i type="logical" name="LORBITALREAL"> F  </i>
  </separator>
  <separator name="miscellaneous" >
   <i type="int" name="IDIOT">     3</i>
   <i type="int" name="ISPECIAL">     0</i>
   <i type="logical" name="LMUSIC"> F  </i>
   <v name="POMASS">      0.01000000</v>
   <v name="DARWINR">      0.00000000</v>
   <v name="DARWINV">      1.00000000</v>
   <i type="logical" name="LCORR"> T  </i>
  </separator>
  <i type="logical" name="GGA_COMPAT"> F  </i>
  <i type="logical" name="LBERRY"> F  </i>
  <i type="int" name="ICORELEVEL">     0</i>
  <i type="logical" name="LDAU"> F  </i>
  <i type="int" name="I_CONSTRAINED_M">     0</i>
  <separator name="electronic exchange-correlation" >
   <i type="string" name="GGA">PE</i>
   <i type="int" name="VOSKOWN">     0</i>
   <i type="logical" name="LHFCALC"> F  </i>
   <i type="string" name="PRECFOCK"></i>
   <i type="logical" name="LSYMGRAD"> F  </i>
   <i type="logical" name="LHFONE"> F  </i>
   <i type="logical" name="LRHFCALC"> F  </i>
   <i type="logical" name="LTHOMAS"> F  </i>
   <i type="logical" name="LMODELHF"> F  </i>
   <i name="ENCUT4O">     -1.00000000</i>
   <i type="int" name="EXXOEP">     0</i>
   <i type="int" name="FOURORBIT">     0</i>
   <i name="AEXX">      0.00000000</i>
   <i name="HFALPHA">      0.00000000</i>
   <i name="MCALPHA">      0.00000000</i>
   <i name="ALDAX">      1.00000000</i>
   <i name="AGGAX">      1.00000000</i>
   <i name="ALDAC">      1.00000000</i>
   <i name="AGGAC">      1.00000000</i>
   <i type="int" name="NKREDX">     1</i>
   <i type="int" name="NKREDY">     1</i>
   <i type="int" name="NKREDZ">     1</i>
   <i type="logical" name="SHIFTRED"> F  </i>
   <i type="logical" name="ODDONLY"> F  </i>
   <i type="logical" name="EVENONLY"> F  </i>
   <i type="int" name="LMAXFOCK">     0</i>
   <i type="int" name="NMAXFOCKAE">     0</i>
   <i type="logical" name="LFOCKAEDFT"> F  </i>
   <i name="HFSCREEN">      0.00000000</i>
   <i name="HFSCREENC">      0.00000000</i>
   <i type="int" name="NBANDSGWLOW">     0</i>
  </separator>
  <separator name="vdW DFT" >
   <i type="logical" name="LUSE_VDW"> F  </i>
   <i name="Zab_VDW">     -0.84910000</i>
   <i name="PARAM1">      0.12340000</i>
   <i name="PARAM2">      1.00000000</i>
   <i name="PARAM3">      0.00000000</i>
  </separator>
  <separator name="model GW" >
   <i type="int" name="MODEL_GW">     0</i>
   <i name="MODEL_EPS0">     34.73837436</i>
   <i name="MODEL_ALPHA">      1.00000000</i>
  </separator>
  <separator name="linear response parameters" >
   <i type="logical" name="LEPSILON"> F  </i>
   <i type="logical" name="LRPA"> F  </i>
   <i type="logical" name="LNABLA"> F  </i>
   <i type="logical" name="LVEL"> F  </i>
   <i type="int" name="KINTER">     0</i>
   <i name="CSHIFT">      0.10000000</i>
   <i name="OMEGAMAX">     -1.00000000</i>
   <i name="DEG_THRESHOLD">      0.00200000</i>
   <i name="RTIME">     -0.10000000</i>
   <i name="WPLASMAI">      0.00000000</i>
   <v name="DFIELD">      0.00000000      0.00000000      0.00000000</v>
   <v name="WPLASMA">      0.00000000      0.00000000      0.00000000      0.00000000      0.00000000      0.00000000      0.00000000      0.00000000      0.00000000</v>
  </separator>
  <separator name="orbital magnetization" >
   <i type="logical" name="NUCIND"> F  </i>
   <v name="MAGPOS">      0.00000000      0.00000000      0.00000000</v>
   <i type="logical" name="LNICSALL"> T  </i>
   <i type="logical" name="ORBITALMAG"> F  </i>
   <i type="logical" name="LMAGBLOCH"> F  </i>
   <i type="logical" name="LCHIMAG"> F  </i>
   <i type="logical" name="LGAUGE"> T  </i>
   <i type="int" name="MAGATOM">     0</i>
   <v name="MAGDIPOL">      0.00000000      0.00000000      0.00000000</v>
   <v name="AVECCONST">      0.00000000      0.00000000      0.00000000</v>
  </separator>
  <separator name="response functions" >
   <i type="logical" name="LADDER"> F  </i>
   <i type="logical" name="LRPAFORCE"> F  </i>
   <i type="logical" name="LFXC"> F  </i>
   <i type="logical" name="LHARTREE"> T  </i>
   <i type="int" name="IBSE">     0</i>
   <v type="int" name="KPOINT">    -1     0     0     0</v>
   <i type="logical" name="LTCTE"> F  </i>
   <i type="logical" name="LTETE"> F  </i>
   <i type="logical" name="LTRIPLET"> F  </i>
   <i type="logical" name="LFXCEPS"> F  </i>
   <i type="logical" name="LFXHEG"> F  </i>
   <i type="int" name="NATURALO">     2</i>
   <i type="logical" name="L2ORDER"> F  </i>
   <i type="logical" name="LMP2LT"> F  </i>
   <i type="logical" name="LUSEW"> F  </i>
   <i name="ENCUTGW">     -2.00000000</i>
   <i name="ENCUTGWSOFT">     -2.00000000</i>
   <i name="ENCUTLF">     -1.00000000</i>
   <i type="int" name="LMAXMP2">    -1</i>
   <i name="SCISSOR">      0.00000000</i>
   <i type="int" name="NOMEGA">     0</i>
   <i type="int" name="NOMEGAR">     0</i>
   <i type="int" name="NBANDSGW">    -1</i>
   <i type="int" name="NBANDSO">    -1</i>
   <i type="int" name="NBANDSV">    -1</i>
   <i type="int" name="NELM">    50</i>
   <i type="int" name="NELMHF">     1</i>
   <i type="int" name="DIM">     3</i>
   <i type="int" name="ANTIRES">     0</i>
   <i name="OMEGAMAX">    -30.00000000</i>
   <i name="OMEGAMIN">    -30.00000000</i>
   <i name="OMEGATL">   -200.00000000</i>
   <i type="int" name="OMEGAGRID">   140</i>
   <i name="CSHIFT">     -0.10000000</i>
   <i type="logical" name="SELFENERGY"> F  </i>
   <i type="logical" name="LSPECTRAL"> F  </i>
   <i type="logical" name="LSPECTRALGW"> F  </i>
   <i type="logical" name="LSINGLES"> F  </i>
   <i type="logical" name="LFERMIGW"> F  </i>
   <i type="logical" name="ODDONLYGW"> F  </i>
   <i type="logical" name="EVENONLYGW"> F  </i>
   <i type="int" name="NKREDLFX">     1</i>
   <i type="int" name="NKREDLFY">     1</i>
   <i type="int" name="NKREDLFZ">     1</i>
   <i type="int" name="MAXMEM">  2800</i>
   <i type="int" name="TELESCOPE">     0</i>
   <i type="int" name="TAUPAR">     1</i>
   <i type="int" name="OMEGAPAR">    -1</i>
   <i name="LAMBDA">      1.00000000</i>
  </separator>
  <separator name="External order field" >
   <i name="OFIELD_KAPPA">      0.00000000</i>
   <v name="OFIELD_K">      0.00000000      0.00000000      0.00000000</v>
   <i name="OFIELD_Q6_NEAR">      0.00000000</i>
   <i name="OFIELD_Q6_FAR">      0.00000000</i>
   <i name="OFIELD_A">      0.00000000</i>
  </separator>
 </parameters>
 <atominfo>
  <atoms>       1 </atoms>
  <types>       1 </types>
  <array name="atoms" >
   <dimension dim="1">ion</dimension>
   <field type="string">element</field>
   <field type="int">atomtype</field>
   <set>
    <rc><c>Og</c><c>   1</c></rc>
   </set>
  </array>
  <array name="atomtypes" >
   <dimension dim="1">type</dimension>
   <field type="int">atomspertype</field>
   <field type="string">element</field>
   <field>mass</field>
   <field>valence</field>
   <field type="string">pseudopotential</field>
   <set>
    <rc><c>   1</c><c>Og</c><c>      0.01000000</c><c>     18.00000000</c><c>  PAW Og, JanMewes Oct 18               </c></rc>
   </set>
  </array>
 </atominfo>
 <structure name="initialpos" >
  <crystal>
   <varray name="basis" >
    <v>       4.34234588       0.00000000       0.00000000 </v>
    <v>       2.17117294       3.76058184      -0.00000000 </v>
    <v>       2.17117294       1.25352728       3.54551056 </v>
   </varray>
   <i name="volume">     57.89729060 </i>
   <varray name="rec_basis" >
    <v>       0.23029027      -0.13295815      -0.09401561 </v>
    <v>       0.00000000       0.26591630      -0.09401561 </v>
    <v>      -0.00000000       0.00000000       0.28204683 </v>
   </varray>
  </crystal>
  <varray name="positions" >
   <v>       0.00000000       0.00000000       0.00000000 </v>
  </varray>
  <varray name="velocities" >
   <v>       0.00000000       0.00000000       0.00000000 </v>
  </varray>
 </structure>
 <calculation>
  <scstep>
   <time name="diag">  281.58  281.46</time>
   <time name="total">  281.66  281.54</time>
   <energy>
    <i name="alphaZ">     65.89697999 </i>
    <i name="ewald">  -1741.63824267 </i>
    <i name="hartreedc">   -672.04789517 </i>
    <i name="XCdc">    -68.73282018 </i>
    <i name="pawpsdc">   2336.10812530 </i>
    <i name="pawaedc">  -2260.71235461 </i>
    <i name="eentropy">     -0.00000140 </i>
    <i name="bandstr">   -311.95979141 </i>
    <i name="atom">   2639.90492407 </i>
    <i name="e_fr_energy">    -13.18107609 </i>
    <i name="e_wo_entrp">    -13.18107468 </i>
    <i name="e_0_energy">    -13.18107538 </i>
   </energy>
  </scstep>
  <scstep>
   <time name="diag">  282.04  281.98</time>
   <time name="total">  282.06  282.00</time>
   <energy>
    <i name="e_fr_energy">    -13.18107609 </i>
    <i name="e_wo_entrp">    -13.18107468 </i>
    <i name="e_0_energy">    -13.18107538 </i>
   </energy>
  </scstep>
  <scstep>
   <time name="diag">  282.34  282.23</time>
   <time name="total">  282.36  282.25</time>
   <energy>
    <i name="e_fr_energy">    -13.18107609 </i>
    <i name="e_wo_entrp">    -13.18107468 </i>
    <i name="e_0_energy">    -13.18107538 </i>
   </energy>
  </scstep>
  <scstep>
   <time name="diag">  283.68  283.66</time>
   <time name="total">  283.70  283.68</time>
   <energy>
    <i name="e_fr_energy">    -13.18107609 </i>
    <i name="e_wo_entrp">    -13.18107468 </i>
    <i name="e_0_energy">    -13.18107538 </i>
   </energy>
  </scstep>
  <scstep>
   <time name="diag">  281.86  281.75</time>
   <time name="total">  282.01  281.90</time>
   <energy>
    <i name="e_fr_energy">    -13.18107609 </i>
    <i name="e_wo_entrp">    -13.18107468 </i>
    <i name="e_0_energy">    -13.18107538 </i>
   </energy>
  </scstep>
  <scstep>
   <time name="diag">  282.25  282.21</time>
   <time name="total">  282.33  282.29</time>
   <energy>
    <i name="alphaZ">     65.89697999 </i>
    <i name="ewald">  -1741.63824267 </i>
    <i name="hartreedc">   -672.04789746 </i>
    <i name="XCdc">    -68.73282002 </i>
    <i name="pawpsdc">   2336.10816118 </i>
    <i name="pawaedc">  -2260.71239162 </i>
    <i name="eentropy">     -0.00000139 </i>
    <i name="bandstr">   -311.95978816 </i>
    <i name="atom">   2639.90492407 </i>
    <i name="e_fr_energy">    -13.18107609 </i>
    <i name="e_wo_entrp">    -13.18107470 </i>
    <i name="e_0_energy">    -13.18107539 </i>
   </energy>
  </scstep>
  <structure>
   <crystal>
    <varray name="basis" >
     <v>       4.34234588       0.00000000       0.00000000 </v>
     <v>       2.17117294       3.76058184      -0.00000000 </v>
     <v>       2.17117294       1.25352728       3.54551056 </v>
    </varray>
    <i name="volume">     57.89729060 </i>
    <varray name="rec_basis" >
     <v>       0.23029027      -0.13295815      -0.09401561 </v>
     <v>       0.00000000       0.26591630      -0.09401561 </v>
     <v>      -0.00000000       0.00000000       0.28204683 </v>
    </varray>
   </crystal>
   <varray name="positions" >
    <v>       0.00000000       0.00000000       0.00000000 </v>
   </varray>
  </structure>
  <varray name="forces" >
   <v>       0.00000001       0.00000001      -0.00000000 </v>
  </varray>
  <varray name="stress" >
   <v>    -147.11473627       0.00001193       0.00001208 </v>
   <v>       0.00001208    -147.11471168       0.00001349 </v>
   <v>       0.00001210       0.00001342    -147.11471827 </v>
  </varray>
  <energy>
   <i name="e_fr_energy">    -13.62103818 </i>
   <i name="e_wo_entrp">    -13.62103749 </i>
   <i name="e_0_energy">     -0.00000139 </i>
  </energy>
  <time name="totalsc"> 1701.96 1702.35</time>
  <eigenvalues>
   <array>
    <dimension dim="1">band</dimension>
    <dimension dim="2">kpoint</dimension>
    <dimension dim="3">spin</dimension>
    <field>eigene</field>
    <field>occ</field>
    <set>
     <set comment="spin 1">
      <set comment="kpoint 1">
       <r>  -30.4704    1.0000 </r>
       <r>  -30.4703    1.0000 </r>
       <r>  -30.4703    1.0000 </r>
       <r>  -30.4703    1.0000 </r>
       <r>  -23.8037    1.0000 </r>
       <r>  -23.8035    1.0000 </r>
       <r>  -23.8035    1.0000 </r>
       <r>  -23.8033    1.0000 </r>
       <r>  -23.8025    1.0000 </r>
       <r>  -23.8023    1.0000 </r>
       <r>  -20.2084    1.0000 </r>
       <r>  -20.2082    1.0000 </r>
       <r>   -6.9145    1.0000 </r>
       <r>   -6.9142    1.0000 </r>
       <r>    3.7130    1.0000 </r>
       <r>    3.7133    1.0000 </r>
       <r>    3.9608    0.8358 </r>
       <r>    3.9609    0.8266 </r>
       <r>    3.9622    0.1734 </r>
       <r>    3.9622    0.1642 </r>
       <r>   10.8789    0.0000 </r>
       <r>   10.8790    0.0000 </r>
       <r>   10.8791    0.0000 </r>
       <r>   10.8792    0.0000 </r>
       <r>   11.1163    0.0000 </r>
       <r>   11.1165    0.0000 </r>
       <r>   11.3033    0.0000 </r>
       <r>   11.3037    0.0000 </r>
       <r>   13.2166    0.0000 </r>
       <r>   13.2174    0.0000 </r>
       <r>   13.5206    0.0000 </r>
       <r>   13.5206    0.0000 </r>
       <r>   13.5210    0.0000 </r>
       <r>   13.5210    0.0000 </r>
       <r>   14.3555    0.0000 </r>
       <r>   14.3559    0.0000 </r>
       <r>   14.3561    0.0000 </r>
       <r>   14.3565    0.0000 </r>
       <r>   16.2625    0.0000 </r>
       <r>   16.2627    0.0000 </r>
       <r>   20.3976    0.0000 </r>
       <r>   20.3977    0.0000 </r>
       <r>   20.3977    0.0000 </r>
       <r>   20.3980    0.0000 </r>
       <r>   20.3981    0.0000 </r>
       <r>   20.3982    0.0000 </r>
       <r>   22.9576    0.0000 </r>
       <r>   22.9578    0.0000 </r>
       <r>   26.2465    0.0000 </r>
       <r>   26.2465    0.0000 </r>
       <r>   26.2471    0.0000 </r>
       <r>   26.2471    0.0000 </r>
       <r>   26.4506    0.0000 </r>
       <r>   26.4509    0.0000 </r>
       <r>   27.7702    0.0000 </r>
       <r>   27.7707    0.0000 </r>
       <r>   29.4172    0.0000 </r>
       <r>   29.4174    0.0000 </r>
       <r>   29.4177    0.0000 </r>
       <r>   29.4179    0.0000 </r>
       <r>   30.1793    0.0000 </r>
       <r>   30.1796    0.0000 </r>
       <r>   30.3442    0.0000 </r>
       <r>   30.3443    0.0000 </r>
       <r>   30.3445    0.0000 </r>
       <r>   30.3446    0.0000 </r>
       <r>   30.7884    0.0000 </r>
       <r>   30.7884    0.0000 </r>
       <r>   31.6120    0.0000 </r>
       <r>   31.6120    0.0000 </r>
       <r>   31.6124    0.0000 </r>
       <r>   31.6124    0.0000 </r>
       <r>   37.7920    0.0000 </r>
       <r>   37.7920    0.0000 </r>
       <r>   37.7922    0.0000 </r>
       <r>   37.7923    0.0000 </r>
       <r>   37.7924    0.0000 </r>
       <r>   37.7925    0.0000 </r>
       <r>   38.5872    0.0000 </r>
       <r>   38.5876    0.0000 </r>
       <r>   38.6200    0.0000 </r>
       <r>   38.6201    0.0000 </r>
       <r>   38.6204    0.0000 </r>
       <r>   38.6208    0.0000 </r>
       <r>   38.6211    0.0000 </r>
       <r>   38.6212    0.0000 </r>
       <r>   41.1211    0.0000 </r>
       <r>   41.1212    0.0000 </r>
       <r>   41.1212    0.0000 </r>
       <r>   41.1213    0.0000 </r>
       <r>   41.3063    0.0000 </r>
       <r>   41.3064    0.0000 </r>
       <r>   42.5796    0.0000 </r>
       <r>   42.5799    0.0000 </r>
       <r>   42.8585    0.0000 </r>
       <r>   42.8588    0.0000 </r>
       <r>   42.8590    0.0000 </r>
       <r>   42.8593    0.0000 </r>
       <r>   43.1699    0.0000 </r>
       <r>   43.1700    0.0000 </r>
       <r>   43.1702    0.0000 </r>
       <r>   43.1703    0.0000 </r>
       <r>   44.0631    0.0000 </r>
       <r>   44.0631    0.0000 </r>
       <r>   44.0637    0.0000 </r>
       <r>   44.0637    0.0000 </r>
       <r>   44.1409    0.0000 </r>
       <r>   44.1411    0.0000 </r>
       <r>   44.1413    0.0000 </r>
       <r>   44.1415    0.0000 </r>
       <r>   44.3328    0.0000 </r>
       <r>   44.3330    0.0000 </r>
       <r>   45.2771    0.0000 </r>
       <r>   45.2774    0.0000 </r>
       <r>   45.6852    0.0000 </r>
       <r>   45.6856    0.0000 </r>
       <r>   46.1404    0.0000 </r>
       <r>   46.1405    0.0000 </r>
       <r>   46.1408    0.0000 </r>
       <r>   46.1409    0.0000 </r>
       <r>   46.6662    0.0000 </r>
       <r>   46.6664    0.0000 </r>
       <r>   47.0272    0.0000 </r>
       <r>   47.0273    0.0000 </r>
       <r>   47.0274    0.0000 </r>
       <r>   47.0275    0.0000 </r>
       <r>   47.1566    0.0000 </r>
       <r>   47.1570    0.0000 </r>
      </set>
      <set comment="kpoint 2">
       <r>  -30.4575    1.0000 </r>
       <r>  -30.4575    1.0000 </r>
       <r>  -30.4495    1.0000 </r>
       <r>  -30.4494    1.0000 </r>
       <r>  -23.7943    1.0000 </r>
       <r>  -23.7940    1.0000 </r>
       <r>  -23.7931    1.0000 </r>
       <r>  -23.7930    1.0000 </r>
       <r>  -23.7873    1.0000 </r>
       <r>  -23.7872    1.0000 </r>
       <r>  -20.1921    1.0000 </r>
       <r>  -20.1919    1.0000 </r>
       <r>   -6.9677    1.0000 </r>
       <r>   -6.9674    1.0000 </r>
       <r>    2.5618    1.0000 </r>
       <r>    2.5626    1.0000 </r>
       <r>    3.8678    1.0000 </r>
       <r>    3.8689    1.0000 </r>
       <r>    5.1585    0.0000 </r>
       <r>    5.1590    0.0000 </r>
       <r>    9.9669    0.0000 </r>
       <r>    9.9672    0.0000 </r>
       <r>   11.0218    0.0000 </r>
       <r>   11.0220    0.0000 </r>
       <r>   11.3165    0.0000 </r>
       <r>   11.3167    0.0000 </r>
       <r>   12.3420    0.0000 </r>
       <r>   12.3421    0.0000 </r>
       <r>   12.6523    0.0000 </r>
       <r>   12.6528    0.0000 </r>
       <r>   12.8026    0.0000 </r>
       <r>   12.8033    0.0000 </r>
       <r>   13.2510    0.0000 </r>
       <r>   13.2514    0.0000 </r>
       <r>   15.3840    0.0000 </r>
       <r>   15.3844    0.0000 </r>
       <r>   15.5124    0.0000 </r>
       <r>   15.5131    0.0000 </r>
       <r>   17.3758    0.0000 </r>
       <r>   17.3760    0.0000 </r>
       <r>   20.1536    0.0000 </r>
       <r>   20.1541    0.0000 </r>
       <r>   20.2173    0.0000 </r>
       <r>   20.2179    0.0000 </r>
       <r>   20.4573    0.0000 </r>
       <r>   20.4576    0.0000 </r>
       <r>   22.2695    0.0000 </r>
       <r>   22.2696    0.0000 </r>
       <r>   25.5646    0.0000 </r>
       <r>   25.5650    0.0000 </r>
       <r>   25.8620    0.0000 </r>
       <r>   25.8627    0.0000 </r>
       <r>   26.1445    0.0000 </r>
       <r>   26.1449    0.0000 </r>
       <r>   27.3206    0.0000 </r>
       <r>   27.3209    0.0000 </r>
       <r>   28.3116    0.0000 </r>
       <r>   28.3117    0.0000 </r>
       <r>   29.0765    0.0000 </r>
       <r>   29.0768    0.0000 </r>
       <r>   29.9919    0.0000 </r>
       <r>   29.9923    0.0000 </r>
       <r>   29.9926    0.0000 </r>
       <r>   29.9932    0.0000 </r>
       <r>   30.7179    0.0000 </r>
       <r>   30.7181    0.0000 </r>
       <r>   30.8364    0.0000 </r>
       <r>   30.8365    0.0000 </r>
       <r>   32.6821    0.0000 </r>
       <r>   32.6826    0.0000 </r>
       <r>   34.8269    0.0000 </r>
       <r>   34.8272    0.0000 </r>
       <r>   36.0627    0.0000 </r>
       <r>   36.0630    0.0000 </r>
       <r>   36.7671    0.0000 </r>
       <r>   36.7675    0.0000 </r>
       <r>   36.8488    0.0000 </r>
       <r>   36.8492    0.0000 </r>
       <r>   37.2400    0.0000 </r>
       <r>   37.2402    0.0000 </r>
       <r>   39.1365    0.0000 </r>
       <r>   39.1366    0.0000 </r>
       <r>   39.1768    0.0000 </r>
       <r>   39.1776    0.0000 </r>
       <r>   39.6269    0.0000 </r>
       <r>   39.6270    0.0000 </r>
       <r>   40.1086    0.0000 </r>
       <r>   40.1087    0.0000 </r>
       <r>   40.3977    0.0000 </r>
       <r>   40.3979    0.0000 </r>
       <r>   40.7267    0.0000 </r>
       <r>   40.7269    0.0000 </r>
       <r>   40.8249    0.0000 </r>
       <r>   40.8251    0.0000 </r>
       <r>   40.9731    0.0000 </r>
       <r>   40.9736    0.0000 </r>
       <r>   41.6325    0.0000 </r>
       <r>   41.6328    0.0000 </r>
       <r>   42.8728    0.0000 </r>
       <r>   42.8730    0.0000 </r>
       <r>   43.1617    0.0000 </r>
       <r>   43.1618    0.0000 </r>
       <r>   43.4383    0.0000 </r>
       <r>   43.4385    0.0000 </r>
       <r>   43.9716    0.0000 </r>
       <r>   43.9718    0.0000 </r>
       <r>   44.6522    0.0000 </r>
       <r>   44.6527    0.0000 </r>
       <r>   44.7693    0.0000 </r>
       <r>   44.7696    0.0000 </r>
       <r>   44.9156    0.0000 </r>
       <r>   44.9157    0.0000 </r>
       <r>   45.9139    0.0000 </r>
       <r>   45.9143    0.0000 </r>
       <r>   46.1713    0.0000 </r>
       <r>   46.1715    0.0000 </r>
       <r>   46.7045    0.0000 </r>
       <r>   46.7049    0.0000 </r>
       <r>   47.5696    0.0000 </r>
       <r>   47.5699    0.0000 </r>
       <r>   48.5112    0.0000 </r>
       <r>   48.5114    0.0000 </r>
       <r>   48.6581    0.0000 </r>
       <r>   48.6585    0.0000 </r>
       <r>   49.2093    0.0000 </r>
       <r>   49.2096    0.0000 </r>
       <r>   51.4200    0.0000 </r>
       <r>   51.4203    0.0000 </r>
      </set>
      <set comment="kpoint 3">
       <r>  -30.4531    1.0000 </r>
       <r>  -30.4531    1.0000 </r>
       <r>  -30.4515    1.0000 </r>
       <r>  -30.4515    1.0000 </r>
       <r>  -23.7923    1.0000 </r>
       <r>  -23.7923    1.0000 </r>
       <r>  -23.7883    1.0000 </r>
       <r>  -23.7882    1.0000 </r>
       <r>  -23.7882    1.0000 </r>
       <r>  -23.7880    1.0000 </r>
       <r>  -20.1532    1.0000 </r>
       <r>  -20.1530    1.0000 </r>
       <r>   -7.0968    1.0000 </r>
       <r>   -7.0966    1.0000 </r>
       <r>    1.5628    1.0000 </r>
       <r>    1.5637    1.0000 </r>
       <r>    3.6593    1.0000 </r>
       <r>    3.6604    1.0000 </r>
       <r>    6.0359    0.0000 </r>
       <r>    6.0362    0.0000 </r>
       <r>    9.9215    0.0000 </r>
       <r>    9.9220    0.0000 </r>
       <r>   10.8941    0.0000 </r>
       <r>   10.8944    0.0000 </r>
       <r>   11.2797    0.0000 </r>
       <r>   11.2799    0.0000 </r>
       <r>   11.6012    0.0000 </r>
       <r>   11.6014    0.0000 </r>
       <r>   12.6718    0.0000 </r>
       <r>   12.6721    0.0000 </r>
       <r>   12.9060    0.0000 </r>
       <r>   12.9065    0.0000 </r>
       <r>   15.2046    0.0000 </r>
       <r>   15.2051    0.0000 </r>
       <r>   16.9235    0.0000 </r>
       <r>   16.9241    0.0000 </r>
       <r>   17.0872    0.0000 </r>
       <r>   17.0879    0.0000 </r>
       <r>   19.1308    0.0000 </r>
       <r>   19.1313    0.0000 </r>
       <r>   19.4985    0.0000 </r>
       <r>   19.4990    0.0000 </r>
       <r>   19.5605    0.0000 </r>
       <r>   19.5607    0.0000 </r>
       <r>   20.5488    0.0000 </r>
       <r>   20.5490    0.0000 </r>
       <r>   20.5626    0.0000 </r>
       <r>   20.5631    0.0000 </r>
       <r>   24.1953    0.0000 </r>
       <r>   24.1953    0.0000 </r>
       <r>   25.3689    0.0000 </r>
       <r>   25.3695    0.0000 </r>
       <r>   25.6009    0.0000 </r>
       <r>   25.6013    0.0000 </r>
       <r>   26.8748    0.0000 </r>
       <r>   26.8752    0.0000 </r>
       <r>   27.2656    0.0000 </r>
       <r>   27.2657    0.0000 </r>
       <r>   28.0774    0.0000 </r>
       <r>   28.0777    0.0000 </r>
       <r>   30.3292    0.0000 </r>
       <r>   30.3294    0.0000 </r>
       <r>   30.6680    0.0000 </r>
       <r>   30.6687    0.0000 </r>
       <r>   31.2625    0.0000 </r>
       <r>   31.2626    0.0000 </r>
[...]
       <r>    31.1414     0.0000     0.0000 </r>
       <r>    31.4505     0.0000     0.0000 </r>
       <r>    31.7596     0.0000     0.0000 </r>
       <r>    32.0686     0.0000     0.0000 </r>
       <r>    32.3777     0.0000     0.0000 </r>
       <r>    32.6868     0.0000     0.0000 </r>
       <r>    32.9959     0.0000     0.0000 </r>
       <r>    33.3049     0.0000     0.0000 </r>
       <r>    33.6140     0.0000     0.0000 </r>
       <r>    33.9231     0.0000     0.0000 </r>
       <r>    34.2322     0.0000     0.0000 </r>
       <r>    34.5412     0.0000     0.0000 </r>
       <r>    34.8503     0.0000     0.0000 </r>
       <r>    35.1594     0.0000     0.0000 </r>
       <r>    35.4684     0.0000     0.0000 </r>
       <r>    35.7775     0.0000     0.0000 </r>
       <r>    36.0866     0.0000     0.0000 </r>
       <r>    36.3957     0.0000     0.0000 </r>
       <r>    36.7047     0.0000     0.0000 </r>
       <r>    37.0138     0.0000     0.0000 </r>
       <r>    37.3229     0.0000     0.0000 </r>
       <r>    37.6320     0.0000     0.0000 </r>
       <r>    37.9410     0.0000     0.0000 </r>
       <r>    38.2501     0.0000     0.0000 </r>
       <r>    38.5592     0.0000     0.0000 </r>
       <r>    38.8682     0.0000     0.0000 </r>
       <r>    39.1773     0.0000     0.0000 </r>
       <r>    39.4864     0.0000     0.0000 </r>
       <r>    39.7955     0.0000     0.0000 </r>
       <r>    40.1045     0.0000     0.0000 </r>
       <r>    40.4136     0.0000     0.0000 </r>
       <r>    40.7227     0.0000     0.0000 </r>
       <r>    41.0318     0.0000     0.0000 </r>
       <r>    41.3408     0.0000     0.0000 </r>
       <r>    41.6499     0.0000     0.0000 </r>
       <r>    41.9590     0.0000     0.0000 </r>
       <r>    42.2680     0.0000     0.0000 </r>
       <r>    42.5771     0.0000     0.0000 </r>
       <r>    42.8862     0.0000     0.0000 </r>
       <r>    43.1953     0.0000     0.0000 </r>
       <r>    43.5043     0.0000     0.0000 </r>
       <r>    43.8134     0.0000     0.0000 </r>
       <r>    44.1225     0.0000     0.0000 </r>
       <r>    44.4316     0.0000     0.0000 </r>
       <r>    44.7406     0.0000     0.0000 </r>
       <r>    45.0497     0.0000     0.0000 </r>
       <r>    45.3588     0.0000     0.0000 </r>
       <r>    45.6678     0.0000     0.0000 </r>
       <r>    45.9769     0.0000     0.0000 </r>
       <r>    46.2860     0.0000     0.0000 </r>
       <r>    46.5951     0.0000     0.0000 </r>
       <r>    46.9041     0.0000     0.0000 </r>
       <r>    47.2132     0.0000     0.0000 </r>
       <r>    47.5223     0.0000     0.0000 </r>
       <r>    47.8314     0.0000     0.0000 </r>
       <r>    48.1404     0.0000     0.0000 </r>
       <r>    48.4495     0.0000     0.0000 </r>
       <r>    48.7586     0.0000     0.0000 </r>
       <r>    49.0676     0.0000     0.0000 </r>
       <r>    49.3767     0.0000     0.0000 </r>
       <r>    49.6858     0.0000     0.0000 </r>
       <r>    49.9949     0.0000     0.0000 </r>
       <r>    50.3039     0.0000     0.0000 </r>
       <r>    50.6130     0.0000     0.0000 </r>
       <r>    50.9221     0.0000     0.0000 </r>
       <r>    51.2312     0.0000     0.0000 </r>
       <r>    51.5402     0.0000     0.0000 </r>
       <r>    51.8493     0.0000     0.0000 </r>
       <r>    52.1584     0.0000     0.0000 </r>
       <r>    52.4674     0.0000     0.0000 </r>
       <r>    52.7765     0.0000     0.0000 </r>
       <r>    53.0856     0.0000     0.0000 </r>
       <r>    53.3947     0.0000     0.0000 </r>
       <r>    53.7037     0.0000     0.0000 </r>
       <r>    54.0128     0.0000     0.0000 </r>
       <r>    54.3219     0.0000     0.0000 </r>
       <r>    54.6310     0.0000     0.0000 </r>
       <r>    54.9400     0.0000     0.0000 </r>
       <r>    55.2491     0.0000     0.0000 </r>
       <r>    55.5582     0.0000     0.0000 </r>
       <r>    55.8672     0.0000     0.0000 </r>
       <r>    56.1763     0.0000     0.0000 </r>
       <r>    56.4854     0.0000     0.0000 </r>
       <r>    56.7945     0.0000     0.0000 </r>
       <r>    57.1035     0.0000     0.0000 </r>
       <r>    57.4126     0.0000     0.0000 </r>
       <r>    57.7217     0.0000     0.0000 </r>
       <r>    58.0307     0.0000     0.0000 </r>
      </set>
      <set comment="spin 4">
       <r>   -34.6911     0.0000     0.0000 </r>
       <r>   -34.3820     0.0000     0.0000 </r>
       <r>   -34.0729     0.0000     0.0000 </r>
       <r>   -33.7638     0.0000     0.0000 </r>
       <r>   -33.4548     0.0000     0.0000 </r>
       <r>   -33.1457     0.0000     0.0000 </r>
       <r>   -32.8366     0.0000     0.0000 </r>
       <r>   -32.5275     0.0000     0.0000 </r>
       <r>   -32.2185     0.0000     0.0000 </r>
       <r>   -31.9094     0.0000     0.0000 </r>
       <r>   -31.6003     0.0000     0.0000 </r>
       <r>   -31.2913     0.0000     0.0000 </r>
       <r>   -30.9822     0.0000     0.0000 </r>
       <r>   -30.6731     0.0000     0.0000 </r>
       <r>   -30.3640     0.0000     0.0000 </r>
       <r>   -30.0550     0.0000     0.0000 </r>
       <r>   -29.7459     0.0000     0.0000 </r>
       <r>   -29.4368     0.0000     0.0000 </r>
       <r>   -29.1277     0.0000     0.0000 </r>
       <r>   -28.8187     0.0000     0.0000 </r>
       <r>   -28.5096     0.0000     0.0000 </r>
       <r>   -28.2005     0.0000     0.0000 </r>
       <r>   -27.8915     0.0000     0.0000 </r>
       <r>   -27.5824     0.0000     0.0000 </r>
       <r>   -27.2733     0.0000     0.0000 </r>
       <r>   -26.9642     0.0000     0.0000 </r>
       <r>   -26.6552     0.0000     0.0000 </r>
       <r>   -26.3461     0.0000     0.0000 </r>
       <r>   -26.0370     0.0000     0.0000 </r>
       <r>   -25.7279     0.0000     0.0000 </r>
       <r>   -25.4189     0.0000     0.0000 </r>
       <r>   -25.1098     0.0000     0.0000 </r>
       <r>   -24.8007     0.0000     0.0000 </r>
       <r>   -24.4917     0.0000     0.0000 </r>
       <r>   -24.1826     0.0000     0.0000 </r>
       <r>   -23.8735     0.0000     0.0000 </r>
       <r>   -23.5644     0.0000     0.0000 </r>
       <r>   -23.2554     0.0000     0.0000 </r>
       <r>   -22.9463     0.0000     0.0000 </r>
       <r>   -22.6372     0.0000     0.0000 </r>
       <r>   -22.3281     0.0000     0.0000 </r>
       <r>   -22.0191     0.0000     0.0000 </r>
       <r>   -21.7100     0.0000     0.0000 </r>
       <r>   -21.4009     0.0000     0.0000 </r>
       <r>   -21.0919     0.0000     0.0000 </r>
       <r>   -20.7828     0.0000     0.0000 </r>
       <r>   -20.4737     0.0000     0.0000 </r>
       <r>   -20.1646     0.0000     0.0000 </r>
       <r>   -19.8556     0.0000     0.0000 </r>
       <r>   -19.5465     0.0000     0.0000 </r>
       <r>   -19.2374     0.0000     0.0000 </r>
       <r>   -18.9284     0.0000     0.0000 </r>
       <r>   -18.6193     0.0000     0.0000 </r>
       <r>   -18.3102     0.0000     0.0000 </r>
       <r>   -18.0011     0.0000     0.0000 </r>
       <r>   -17.6921     0.0000     0.0000 </r>
       <r>   -17.3830     0.0000     0.0000 </r>
       <r>   -17.0739     0.0000     0.0000 </r>
       <r>   -16.7648     0.0000     0.0000 </r>
       <r>   -16.4558     0.0000     0.0000 </r>
       <r>   -16.1467     0.0000     0.0000 </r>
       <r>   -15.8376     0.0000     0.0000 </r>
       <r>   -15.5286     0.0000     0.0000 </r>
       <r>   -15.2195     0.0000     0.0000 </r>
       <r>   -14.9104     0.0000     0.0000 </r>
       <r>   -14.6013     0.0000     0.0000 </r>
       <r>   -14.2923     0.0000     0.0000 </r>
       <r>   -13.9832     0.0000     0.0000 </r>
       <r>   -13.6741     0.0000     0.0000 </r>
       <r>   -13.3650     0.0000     0.0000 </r>
       <r>   -13.0560     0.0000     0.0000 </r>
       <r>   -12.7469     0.0000     0.0000 </r>
       <r>   -12.4378     0.0000     0.0000 </r>
       <r>   -12.1288     0.0000     0.0000 </r>
       <r>   -11.8197     0.0000     0.0000 </r>
       <r>   -11.5106     0.0000     0.0000 </r>
       <r>   -11.2015     0.0000     0.0000 </r>
       <r>   -10.8925     0.0000     0.0000 </r>
       <r>   -10.5834     0.0000     0.0000 </r>
       <r>   -10.2743     0.0000     0.0000 </r>
       <r>    -9.9652     0.0000     0.0000 </r>
       <r>    -9.6562     0.0000     0.0000 </r>
       <r>    -9.3471     0.0000     0.0000 </r>
       <r>    -9.0380     0.0000     0.0000 </r>
       <r>    -8.7290     0.0000     0.0000 </r>
       <r>    -8.4199     0.0000     0.0000 </r>
       <r>    -8.1108     0.0000     0.0000 </r>
       <r>    -7.8017     0.0000     0.0000 </r>
       <r>    -7.4927     0.0000     0.0000 </r>
       <r>    -7.1836     0.0000     0.0000 </r>
       <r>    -6.8745     0.0000     0.0000 </r>
       <r>    -6.5654     0.0000     0.0000 </r>
       <r>    -6.2564     0.0000     0.0000 </r>
       <r>    -5.9473     0.0000     0.0000 </r>
       <r>    -5.6382     0.0000     0.0000 </r>
       <r>    -5.3292     0.0000     0.0000 </r>
       <r>    -5.0201     0.0000     0.0000 </r>
       <r>    -4.7110     0.0000     0.0000 </r>
       <r>    -4.4019     0.0000     0.0000 </r>
       <r>    -4.0929     0.0000     0.0000 </r>
       <r>    -3.7838     0.0000     0.0000 </r>
       <r>    -3.4747     0.0000     0.0000 </r>
       <r>    -3.1656     0.0000     0.0000 </r>
       <r>    -2.8566     0.0000     0.0000 </r>
       <r>    -2.5475     0.0000     0.0000 </r>
       <r>    -2.2384     0.0000     0.0000 </r>
       <r>    -1.9294     0.0000     0.0000 </r>
       <r>    -1.6203     0.0000     0.0000 </r>
       <r>    -1.3112     0.0000     0.0000 </r>
       <r>    -1.0021     0.0000     0.0000 </r>
       <r>    -0.6931     0.0000     0.0000 </r>
       <r>    -0.3840     0.0000     0.0000 </r>
       <r>    -0.0749     0.0000     0.0000 </r>
       <r>     0.2342     0.0000     0.0000 </r>
       <r>     0.5432     0.0000     0.0000 </r>
       <r>     0.8523     0.0000     0.0000 </r>
       <r>     1.1614     0.0000     0.0000 </r>
       <r>     1.4704     0.0000     0.0000 </r>
       <r>     1.7795     0.0000     0.0000 </r>
       <r>     2.0886     0.0000     0.0000 </r>
       <r>     2.3977     0.0000     0.0000 </r>
       <r>     2.7067     0.0000     0.0000 </r>
       <r>     3.0158     0.0000     0.0000 </r>
       <r>     3.3249     0.0000     0.0000 </r>
       <r>     3.6340     0.0000     0.0000 </r>
       <r>     3.9430     0.0000     0.0000 </r>
       <r>     4.2521     0.0000     0.0000 </r>
       <r>     4.5612     0.0000     0.0000 </r>
       <r>     4.8702     0.0000     0.0000 </r>
       <r>     5.1793     0.0000     0.0000 </r>
       <r>     5.4884     0.0000     0.0000 </r>
       <r>     5.7975     0.0000     0.0000 </r>
       <r>     6.1065     0.0000     0.0000 </r>
       <r>     6.4156     0.0000     0.0000 </r>
       <r>     6.7247     0.0000     0.0000 </r>
       <r>     7.0338     0.0000     0.0000 </r>
       <r>     7.3428     0.0000     0.0000 </r>
       <r>     7.6519     0.0000     0.0000 </r>
       <r>     7.9610     0.0000     0.0000 </r>
       <r>     8.2700     0.0000     0.0000 </r>
       <r>     8.5791     0.0000     0.0000 </r>
       <r>     8.8882     0.0000     0.0000 </r>
       <r>     9.1973     0.0000     0.0000 </r>
       <r>     9.5063     0.0000     0.0000 </r>
       <r>     9.8154     0.0000     0.0000 </r>
       <r>    10.1245     0.0000     0.0000 </r>
       <r>    10.4336     0.0000     0.0000 </r>
       <r>    10.7426     0.0000     0.0000 </r>
       <r>    11.0517     0.0000     0.0000 </r>
       <r>    11.3608     0.0000     0.0000 </r>
       <r>    11.6698     0.0000     0.0000 </r>
       <r>    11.9789     0.0000     0.0000 </r>
       <r>    12.2880     0.0000     0.0000 </r>
       <r>    12.5971     0.0000     0.0000 </r>
       <r>    12.9061     0.0000     0.0000 </r>
       <r>    13.2152     0.0000     0.0000 </r>
       <r>    13.5243     0.0000     0.0000 </r>
       <r>    13.8334     0.0000     0.0000 </r>
       <r>    14.1424     0.0000     0.0000 </r>
       <r>    14.4515     0.0000     0.0000 </r>
       <r>    14.7606     0.0000     0.0000 </r>
       <r>    15.0696     0.0000     0.0000 </r>
       <r>    15.3787     0.0000     0.0000 </r>
       <r>    15.6878     0.0000     0.0000 </r>
       <r>    15.9969     0.0000     0.0000 </r>
       <r>    16.3059     0.0000     0.0000 </r>
       <r>    16.6150     0.0000     0.0000 </r>
       <r>    16.9241     0.0000     0.0000 </r>
       <r>    17.2332     0.0000     0.0000 </r>
       <r>    17.5422     0.0000     0.0000 </r>
       <r>    17.8513     0.0000     0.0000 </r>
       <r>    18.1604     0.0000     0.0000 </r>
       <r>    18.4694     0.0000     0.0000 </r>
       <r>    18.7785     0.0000     0.0000 </r>
       <r>    19.0876     0.0000     0.0000 </r>
       <r>    19.3967     0.0000     0.0000 </r>
       <r>    19.7057     0.0000     0.0000 </r>
       <r>    20.0148     0.0000     0.0000 </r>
       <r>    20.3239     0.0000     0.0000 </r>
       <r>    20.6330     0.0000     0.0000 </r>
       <r>    20.9420     0.0000     0.0000 </r>
       <r>    21.2511     0.0000     0.0000 </r>
       <r>    21.5602     0.0000     0.0000 </r>
       <r>    21.8692     0.0000     0.0000 </r>
       <r>    22.1783     0.0000     0.0000 </r>
       <r>    22.4874     0.0000     0.0000 </r>
       <r>    22.7965     0.0000     0.0000 </r>
       <r>    23.1055     0.0000     0.0000 </r>
       <r>    23.4146     0.0000     0.0000 </r>
       <r>    23.7237     0.0000     0.0000 </r>
       <r>    24.0328     0.0000     0.0000 </r>
       <r>    24.3418     0.0000     0.0000 </r>
       <r>    24.6509     0.0000     0.0000 </r>
       <r>    24.9600     0.0000     0.0000 </r>
       <r>    25.2690     0.0000     0.0000 </r>
       <r>    25.5781     0.0000     0.0000 </r>
       <r>    25.8872     0.0000     0.0000 </r>
       <r>    26.1963     0.0000     0.0000 </r>
       <r>    26.5053     0.0000     0.0000 </r>
       <r>    26.8144     0.0000     0.0000 </r>
       <r>    27.1235     0.0000     0.0000 </r>
       <r>    27.4326     0.0000     0.0000 </r>
       <r>    27.7416     0.0000     0.0000 </r>
       <r>    28.0507     0.0000     0.0000 </r>
       <r>    28.3598     0.0000     0.0000 </r>
       <r>    28.6688     0.0000     0.0000 </r>
       <r>    28.9779     0.0000     0.0000 </r>
       <r>    29.2870     0.0000     0.0000 </r>
       <r>    29.5961     0.0000     0.0000 </r>
       <r>    29.9051     0.0000     0.0000 </r>
       <r>    30.2142     0.0000     0.0000 </r>
       <r>    30.5233     0.0000     0.0000 </r>
       <r>    30.8324     0.0000     0.0000 </r>
       <r>    31.1414     0.0000     0.0000 </r>
       <r>    31.4505     0.0000     0.0000 </r>
       <r>    31.7596     0.0000     0.0000 </r>
       <r>    32.0686     0.0000     0.0000 </r>
       <r>    32.3777     0.0000     0.0000 </r>
       <r>    32.6868     0.0000     0.0000 </r>
       <r>    32.9959     0.0000     0.0000 </r>
       <r>    33.3049     0.0000     0.0000 </r>
       <r>    33.6140     0.0000     0.0000 </r>
       <r>    33.9231     0.0000     0.0000 </r>
       <r>    34.2322     0.0000     0.0000 </r>
       <r>    34.5412     0.0000     0.0000 </r>
       <r>    34.8503     0.0000     0.0000 </r>
       <r>    35.1594     0.0000     0.0000 </r>
       <r>    35.4684     0.0000     0.0000 </r>
       <r>    35.7775     0.0000     0.0000 </r>
       <r>    36.0866     0.0000     0.0000 </r>
       <r>    36.3957     0.0000     0.0000 </r>
       <r>    36.7047     0.0000     0.0000 </r>
       <r>    37.0138     0.0000     0.0000 </r>
       <r>    37.3229     0.0000     0.0000 </r>
       <r>    37.6320     0.0000     0.0000 </r>
       <r>    37.9410     0.0000     0.0000 </r>
       <r>    38.2501     0.0000     0.0000 </r>
       <r>    38.5592     0.0000     0.0000 </r>
       <r>    38.8682     0.0000     0.0000 </r>
       <r>    39.1773     0.0000     0.0000 </r>
       <r>    39.4864     0.0000     0.0000 </r>
       <r>    39.7955     0.0000     0.0000 </r>
       <r>    40.1045     0.0000     0.0000 </r>
       <r>    40.4136     0.0000     0.0000 </r>
       <r>    40.7227     0.0000     0.0000 </r>
       <r>    41.0318     0.0000     0.0000 </r>
       <r>    41.3408     0.0000     0.0000 </r>
       <r>    41.6499     0.0000     0.0000 </r>
       <r>    41.9590     0.0000     0.0000 </r>
       <r>    42.2680     0.0000     0.0000 </r>
       <r>    42.5771     0.0000     0.0000 </r>
       <r>    42.8862     0.0000     0.0000 </r>
       <r>    43.1953     0.0000     0.0000 </r>
       <r>    43.5043     0.0000     0.0000 </r>
       <r>    43.8134     0.0000     0.0000 </r>
       <r>    44.1225     0.0000     0.0000 </r>
       <r>    44.4316     0.0000     0.0000 </r>
       <r>    44.7406     0.0000     0.0000 </r>
       <r>    45.0497     0.0000     0.0000 </r>
       <r>    45.3588     0.0000     0.0000 </r>
       <r>    45.6678     0.0000     0.0000 </r>
       <r>    45.9769     0.0000     0.0000 </r>
       <r>    46.2860     0.0000     0.0000 </r>
       <r>    46.5951     0.0000     0.0000 </r>
       <r>    46.9041     0.0000     0.0000 </r>
       <r>    47.2132     0.0000     0.0000 </r>
       <r>    47.5223     0.0000     0.0000 </r>
       <r>    47.8314     0.0000     0.0000 </r>
       <r>    48.1404     0.0000     0.0000 </r>
       <r>    48.4495     0.0000     0.0000 </r>
       <r>    48.7586     0.0000     0.0000 </r>
       <r>    49.0676     0.0000     0.0000 </r>
       <r>    49.3767     0.0000     0.0000 </r>
       <r>    49.6858     0.0000     0.0000 </r>
       <r>    49.9949     0.0000     0.0000 </r>
       <r>    50.3039     0.0000     0.0000 </r>
       <r>    50.6130     0.0000     0.0000 </r>
       <r>    50.9221     0.0000     0.0000 </r>
       <r>    51.2312     0.0000     0.0000 </r>
       <r>    51.5402     0.0000     0.0000 </r>
       <r>    51.8493     0.0000     0.0000 </r>
       <r>    52.1584     0.0000     0.0000 </r>
       <r>    52.4674     0.0000     0.0000 </r>
       <r>    52.7765     0.0000     0.0000 </r>
       <r>    53.0856     0.0000     0.0000 </r>
       <r>    53.3947     0.0000     0.0000 </r>
       <r>    53.7037     0.0000     0.0000 </r>
       <r>    54.0128     0.0000     0.0000 </r>
       <r>    54.3219     0.0000     0.0000 </r>
       <r>    54.6310     0.0000     0.0000 </r>
       <r>    54.9400     0.0000     0.0000 </r>
       <r>    55.2491     0.0000     0.0000 </r>
       <r>    55.5582     0.0000     0.0000 </r>
       <r>    55.8672     0.0000     0.0000 </r>
       <r>    56.1763     0.0000     0.0000 </r>
       <r>    56.4854     0.0000     0.0000 </r>
       <r>    56.7945     0.0000     0.0000 </r>
       <r>    57.1035     0.0000     0.0000 </r>
       <r>    57.4126     0.0000     0.0000 </r>
       <r>    57.7217     0.0000     0.0000 </r>
       <r>    58.0307     0.0000     0.0000 </r>
      </set>
     </set>
    </array>
   </total>
  </dos>
 </calculation>
 <structure name="finalpos" >
  <crystal>
   <varray name="basis" >
    <v>       4.34234588       0.00000000       0.00000000 </v>
    <v>       2.17117294       3.76058184      -0.00000000 </v>
    <v>       2.17117294       1.25352728       3.54551056 </v>
   </varray>
   <i name="volume">     57.89729060 </i>
   <varray name="rec_basis" >
    <v>       0.23029027      -0.13295815      -0.09401561 </v>
    <v>       0.00000000       0.26591630      -0.09401561 </v>
    <v>      -0.00000000       0.00000000       0.28204683 </v>
   </varray>
  </crystal>
  <varray name="positions" >
   <v>       0.00000000       0.00000000       0.00000000 </v>
  </varray>
  <varray name="velocities" >
   <v>       0.00000000       0.00000000       0.00000000 </v>
  </varray>
 </structure>
</modeling>
