    1    1  999    1
  0.5837391E+02  0.4354229E-09  0.4354229E-09  0.4354229E-09  0.1000000E-15
  1.000000000000000E-004
  CAR 
 Og_FCC                                  
     18    365     28
 
  0.0000000E+00  0.0000000E+00  0.0000000E+00  0.1371742E-02
    1      -30.680582   1.000000
    2      -30.680581   1.000000
    3      -30.680581   1.000000
    4      -30.680579   1.000000
    5      -23.993062   1.000000
    6      -23.993061   1.000000
    7      -23.989214   1.000000
    8      -23.989213   1.000000
    9      -23.989212   1.000000
   10      -23.989211   1.000000
   11      -20.417801   1.000000
   12      -20.417798   1.000000
   13       -7.170005   1.000000
   14       -7.170004   1.000000
   15        3.427577   1.000054
   16        3.427584   1.000054
   17        3.732203   0.541101
   18        3.732203   0.541100
   19        3.732205   0.541083
   20        3.732206   0.541081
   21       10.608596   0.000000
   22       10.608599   0.000000
   23       10.608601   0.000000
   24       10.608603   0.000000
   25       10.838480   0.000000
   26       10.838487   0.000000
   27       11.026698   0.000000
   28       11.026700   0.000000
 
  0.1111111E+00  0.1491955E-16  0.0000000E+00  0.2743484E-02
    1      -30.680532   1.000000
    2      -30.680532   1.000000
    3      -30.680291   1.000000
    4      -30.680289   1.000000
    5      -23.992303   1.000000
    6      -23.992302   1.000000
    7      -23.989329   1.000000
    8      -23.989327   1.000000
    9      -23.988336   1.000000
   10      -23.988335   1.000000
   11      -20.405558   1.000000
   12      -20.405555   1.000000
   13       -7.211526   1.000000
   14       -7.211525   1.000000
   15        2.445805   1.000000
   16        2.445808   1.000000
   17        3.657804   0.988135
   18        3.657805   0.988133
   19        4.754170  -0.000000
   20        4.754174  -0.000000
   21        9.767482   0.000000
   22        9.767483   0.000000
   23       10.730713   0.000000
   24       10.730713   0.000000
   25       11.013756   0.000000
   26       11.013756   0.000000
   27       12.034282   0.000000
   28       12.071070   0.000000
 
  0.2222222E+00  0.2983911E-16  0.0000000E+00  0.2743484E-02
    1      -30.680338   1.000000
    2      -30.680338   1.000000
    3      -30.679422   1.000000
    4      -30.679420   1.000000
    5      -23.991155   1.000000
    6      -23.991155   1.000000
    7      -23.988834   1.000000
    8      -23.988832   1.000000
    9      -23.986098   1.000000
   10      -23.986098   1.000000
   11      -20.373964   1.000000
   12      -20.373962   1.000000
   13       -7.316688   1.000000
   14       -7.316686   1.000000
   15        1.523385   1.000000
   16        1.523387   1.000000
   17        3.481566   1.000903
   18        3.481567   1.000903
   19        5.627684  -0.000000
   20        5.627687  -0.000000
   21        9.536897   0.000000
   22        9.536901   0.000000
   23       10.705033   0.000000
   24       10.705033   0.000000
   25       11.063669   0.000000
   26       11.063669   0.000000
   27       11.488607   0.000000
   28       11.488629   0.000000
 
  0.3333333E+00  0.5863645E-16 -0.1387779E-16  0.2743484E-02
    1      -30.680106   1.000000
    2      -30.680106   1.000000
    3      -30.678419   1.000000
    4      -30.678417   1.000000
    5      -23.991390   1.000000
    6      -23.991390   1.000000
    7      -23.986745   1.000000
    8      -23.986743   1.000000
    9      -23.983548   1.000000
   10      -23.983548   1.000000
   11      -20.337548   1.000000
   12      -20.337545   1.000000
   13       -7.436791   1.000000
   14       -7.436790   1.000000
   15        0.873791   1.000000
   16        0.873792   1.000000
   17        3.298670   1.000000
   18        3.298671   1.000000
   19        5.932393  -0.000000
   20        5.932394  -0.000000
   21       10.097908   0.000000
   22       10.097924   0.000000
   23       10.336151   0.000000
   24       10.336151   0.000000
   25       10.758521   0.000000
   26       10.758524   0.000000
   27       10.992110   0.000000
   28       10.992123   0.000000
 
  0.4444444E+00  0.5967822E-16  0.0000000E+00  0.2743484E-02
    1      -30.679956   1.000000
    2      -30.679956   1.000000
    3      -30.677788   1.000000
    4      -30.677786   1.000000
    5      -23.991767   1.000000
    6      -23.991766   1.000000
    7      -23.985170   1.000000
    8      -23.985168   1.000000
    9      -23.981884   1.000000
   10      -23.981883   1.000000
   11      -20.313505   1.000000
   12      -20.313502   1.000000
   13       -7.515507   1.000000
   14       -7.515506   1.000000
   15        0.540325   1.000000
   16        0.540326   1.000000
   17        3.187535   1.000000
   18        3.187536   1.000000
   19        5.939765  -0.000000
   20        5.939766  -0.000000
   21       10.080111   0.000000
   22       10.080111   0.000000
   23       10.234564   0.000000
   24       10.234595   0.000000
   25       10.478417   0.000000
   26       10.478418   0.000000
   27       11.604360   0.000000
   28       11.604364   0.000000
 
  0.1925930E-33  0.1111111E+00 -0.6938894E-17  0.2743484E-02
    1      -30.680532   1.000000
    2      -30.680531   1.000000
    3      -30.680291   1.000000
    4      -30.680290   1.000000
    5      -23.992303   1.000000
    6      -23.992302   1.000000
    7      -23.989329   1.000000
    8      -23.989327   1.000000
    9      -23.988336   1.000000
   10      -23.988335   1.000000
   11      -20.405558   1.000000
   12      -20.405555   1.000000
   13       -7.211526   1.000000
   14       -7.211525   1.000000
   15        2.445804   1.000000
   16        2.445808   1.000000
   17        3.657804   0.988136
   18        3.657806   0.988132
   19        4.754170  -0.000000
   20        4.754174  -0.000000
   21        9.767482   0.000000
   22        9.767483   0.000000
   23       10.730712   0.000000
   24       10.730714   0.000000
   25       11.013756   0.000000
   26       11.013758   0.000000
   27       12.035137   0.000000
   28       12.036449   0.000000
 
  0.1111111E+00  0.1111111E+00 -0.2775558E-16  0.2743484E-02
    1      -30.680430   1.000000
    2      -30.680429   1.000000
    3      -30.680254   1.000000
    4      -30.680252   1.000000
    5      -23.992167   1.000000
    6      -23.992166   1.000000
    7      -23.988819   1.000000
    8      -23.988818   1.000000
    9      -23.988472   1.000000
   10      -23.988471   1.000000
   11      -20.401451   1.000000
   12      -20.401449   1.000000
   13       -7.224823   1.000000
   14       -7.224822   1.000000
   15        2.338679   1.000000
   16        2.338682   1.000000
   17        3.479615   1.000825
   18        3.479616   1.000825
   19        5.051008  -0.000000
   20        5.051013  -0.000000
   21        9.472990   0.000000
   22        9.472991   0.000000
   23       10.749318   0.000000
   24       10.749320   0.000000
   25       11.328440   0.000000
   26       11.328446   0.000000
   27       11.379942   0.000000
   28       11.379957   0.000000
 
  0.2222222E+00  0.1111111E+00  0.2775558E-16  0.2743484E-02
    1      -30.680237   1.000000
    2      -30.680237   1.000000
    3      -30.679601   1.000000
    4      -30.679600   1.000000
    5      -23.991131   1.000000
    6      -23.991130   1.000000
    7      -23.988770   1.000000
    8      -23.988769   1.000000
    9      -23.986455   1.000000
   10      -23.986455   1.000000
   11      -20.376299   1.000000
   12      -20.376297   1.000000
   13       -7.307346   1.000000
   14       -7.307345   1.000000
   15        1.655663   1.000000
   16        1.655666   1.000000
   17        3.258399   1.000000
   18        3.258400   1.000000
   19        5.861401  -0.000000
   20        5.861406  -0.000000
   21        9.097286   0.000000
   22        9.097287   0.000000
   23       10.225751   0.000000
   24       10.225758   0.000000
   25       11.167940   0.000000
   26       11.167945   0.000000
   27       11.839149   0.000000
   28       11.839159   0.000000
 
  0.3333333E+00  0.1111111E+00  0.0000000E+00  0.2743484E-02
    1      -30.679999   1.000000
    2      -30.679998   1.000000
    3      -30.678673   1.000000
    4      -30.678671   1.000000
    5      -23.990721   1.000000
    6      -23.990720   1.000000
    7      -23.987455   1.000000
    8      -23.987452   1.000000
    9      -23.983955   1.000000
   10      -23.983954   1.000000
   11      -20.341494   1.000000
   12      -20.341491   1.000000
   13       -7.420457   1.000000
   14       -7.420456   1.000000
   15        1.018640   1.000000
   16        1.018642   1.000000
   17        3.018922   1.000000
   18        3.018923   1.000000
   19        6.354528  -0.000000
   20        6.354530  -0.000000
   21        9.380404   0.000000
   22        9.380413   0.000000
   23        9.652805   0.000000
   24        9.652810   0.000000
   25       11.050915   0.000000
   26       11.050918   0.000000
   27       12.317634   0.000000
   28       12.319996   0.000000
 
  0.4444444E+00  0.1111111E+00 -0.2775558E-16  0.2743484E-02
    1      -30.679802   1.000000
    2      -30.679802   1.000000
    3      -30.677927   1.000000
    4      -30.677926   1.000000
    5      -23.990983   1.000000
    6      -23.990982   1.000000
    7      -23.985484   1.000000
    8      -23.985482   1.000000
    9      -23.982282   1.000000
   10      -23.982282   1.000000
   11      -20.313265   1.000000
   12      -20.313263   1.000000
   13       -7.511144   1.000000
   14       -7.511143   1.000000
   15        0.621072   1.000000
   16        0.621073   1.000000
   17        2.834986   1.000000
   18        2.834987   1.000000
   19        6.451285  -0.000000
   20        6.451286  -0.000000
   21        9.101316   0.000000
   22        9.101331   0.000000
   23       10.409310   0.000000
   24       10.409315   0.000000
   25       10.930757   0.000000
   26       10.930760   0.000000
   27       12.048255   0.000000
   28       12.048268   0.000000
 
 -0.4444444E+00  0.1111111E+00 -0.2775558E-16  0.2743484E-02
    1      -30.679755   1.000000
    2      -30.679754   1.000000
    3      -30.677744   1.000000
    4      -30.677742   1.000000
    5      -23.991061   1.000000
    6      -23.991061   1.000000
    7      -23.984770   1.000000
    8      -23.984768   1.000000
    9      -23.981977   1.000000
   10      -23.981977   1.000000
   11      -20.305254   1.000000
   12      -20.305252   1.000000
   13       -7.536946   1.000000
   14       -7.536944   1.000000
   15        0.517637   1.000000
   16        0.517638   1.000000
   17        2.781734   1.000000
   18        2.781736   1.000000
   19        6.468771   0.000000
   20        6.468772   0.000000
   21        9.029276   0.000000
   22        9.029292   0.000000
   23       10.426038   0.000000
   24       10.426042   0.000000
   25       11.272518   0.000000
   26       11.272527   0.000000
   27       12.200713   0.000000
   28       12.200717   0.000000
 
 -0.3333333E+00  0.1111111E+00 -0.1387779E-16  0.2743484E-02
    1      -30.679852   1.000000
    2      -30.679852   1.000000
    3      -30.678132   1.000000
    4      -30.678130   1.000000
    5      -23.990778   1.000000
    6      -23.990778   1.000000
    7      -23.986056   1.000000
    8      -23.986054   1.000000
    9      -23.982869   1.000000
   10      -23.982868   1.000000
   11      -20.321249   1.000000
   12      -20.321247   1.000000
   13       -7.485776   1.000000
   14       -7.485775   1.000000
   15        0.718709   1.000000
   16        0.718710   1.000000
   17        2.883741   1.000000
   18        2.883742   1.000000
   19        6.478453   0.000000
   20        6.478454   0.000000
   21        9.259085   0.000000
   22        9.259099   0.000000
   23       10.333331   0.000000
   24       10.333339   0.000000
   25       10.674897   0.000000
   26       10.674899   0.000000
   27       12.289807   0.000000
   28       12.290090   0.000000
 
 -0.2222222E+00  0.1111111E+00 -0.6938894E-17  0.2743484E-02
    1      -30.680093   1.000000
    2      -30.680093   1.000000
    3      -30.678970   1.000000
    4      -30.678968   1.000000
    5      -23.990385   1.000000
    6      -23.990384   1.000000
    7      -23.988407   1.000000
    8      -23.988405   1.000000
    9      -23.984799   1.000000
   10      -23.984798   1.000000
   11      -20.353576   1.000000
   12      -20.353574   1.000000
   13       -7.381808   1.000000
   14       -7.381806   1.000000
   15        1.198177   1.000000
   16        1.198179   1.000000
   17        3.118407   1.000000
   18        3.118408   1.000000
   19        6.254565  -0.000000
   20        6.254567  -0.000000
   21        9.362379   0.000000
   22        9.362382   0.000000
   23       10.008472   0.000000
   24       10.008484   0.000000
   25       10.889783   0.000000
   26       10.889787   0.000000
   27       11.831366   0.000000
   28       11.831419   0.000000
 
 -0.1111111E+00  0.1111111E+00 -0.3816916E-17  0.2743484E-02
    1      -30.680359   1.000000
    2      -30.680359   1.000000
    3      -30.679821   1.000000
    4      -30.679819   1.000000
    5      -23.991254   1.000000
    6      -23.991253   1.000000
    7      -23.989341   1.000000
    8      -23.989340   1.000000
    9      -23.987049   1.000000
   10      -23.987049   1.000000
   11      -20.386777   1.000000
   12      -20.386774   1.000000
   13       -7.273557   1.000000
   14       -7.273556   1.000000
   15        1.865489   1.000000
   16        1.865492   1.000000
   17        3.423806   1.000044
   18        3.423807   1.000044
   19        5.514911  -0.000000
   20        5.514915  -0.000000
   21        9.364284   0.000000
   22        9.364284   0.000000
   23       10.608921   0.000000
   24       10.608926   0.000000
   25       11.110742   0.000000
   26       11.110749   0.000000
   27       11.650873   0.000000
   28       11.650936   0.000000
 
 -0.3851860E-33  0.2222222E+00 -0.1387779E-16  0.2743484E-02
    1      -30.680338   1.000000
    2      -30.680337   1.000000
    3      -30.679422   1.000000
    4      -30.679420   1.000000
    5      -23.991155   1.000000
    6      -23.991154   1.000000
    7      -23.988834   1.000000
    8      -23.988832   1.000000
    9      -23.986099   1.000000
   10      -23.986098   1.000000
   11      -20.373964   1.000000
   12      -20.373962   1.000000
   13       -7.316688   1.000000
   14       -7.316686   1.000000
   15        1.523385   1.000000
   16        1.523388   1.000000
   17        3.481566   1.000902
   18        3.481567   1.000903
   19        5.627684  -0.000000
   20        5.627687  -0.000000
   21        9.536897   0.000000
   22        9.536901   0.000000
   23       10.705033   0.000000
   24       10.705034   0.000000
   25       11.063668   0.000000
   26       11.063670   0.000000
   27       11.488607   0.000000
   28       11.488894   0.000000
 
  0.1111111E+00  0.2222222E+00 -0.1387779E-16  0.2743484E-02
    1      -30.680237   1.000000
    2      -30.680236   1.000000
    3      -30.679602   1.000000
    4      -30.679600   1.000000
    5      -23.991131   1.000000
    6      -23.991129   1.000000
    7      -23.988770   1.000000
    8      -23.988769   1.000000
    9      -23.986456   1.000000
   10      -23.986455   1.000000
   11      -20.376299   1.000000
   12      -20.376297   1.000000
   13       -7.307346   1.000000
   14       -7.307345   1.000000
   15        1.655663   1.000000
   16        1.655666   1.000000
   17        3.258399   1.000000
   18        3.258401   1.000000
   19        5.861401  -0.000000
   20        5.861406  -0.000000
   21        9.097286   0.000000
   22        9.097287   0.000000
   23       10.225751   0.000000
   24       10.225758   0.000000
   25       11.167940   0.000000
   26       11.167943   0.000000
   27       11.839143   0.000000
   28       11.839146   0.000000
 
  0.2222222E+00  0.2222222E+00  0.0000000E+00  0.2743484E-02
    1      -30.679953   1.000000
    2      -30.679952   1.000000
    3      -30.679327   1.000000
    4      -30.679325   1.000000
    5      -23.991135   1.000000
    6      -23.991133   1.000000
    7      -23.987824   1.000000
    8      -23.987823   1.000000
    9      -23.985321   1.000000
   10      -23.985320   1.000000
   11      -20.359516   1.000000
   12      -20.359513   1.000000
   13       -7.359335   1.000000
   14       -7.359334   1.000000
   15        1.429233   1.000000
   16        1.429235   1.000000
   17        2.934551   1.000000
   18        2.934552   1.000000
   19        6.385357  -0.000000
   20        6.385365  -0.000000
   21        8.493693   0.000000
   22        8.493693   0.000000
   23        9.674628   0.000000
   24        9.674635   0.000000
   25       11.428204   0.000000
   26       11.428206   0.000000
   27       12.372097   0.000000
   28       12.372099   0.000000
 
  0.3333333E+00  0.2222222E+00  0.0000000E+00  0.2743484E-02
    1      -30.679664   1.000000
    2      -30.679663   1.000000
    3      -30.678644   1.000000
    4      -30.678642   1.000000
    5      -23.990539   1.000000
    6      -23.990537   1.000000
    7      -23.987291   1.000000
    8      -23.987290   1.000000
    9      -23.983002   1.000000
   10      -23.983001   1.000000
   11      -20.331174   1.000000
   12      -20.331172   1.000000
   13       -7.447539   1.000000
   14       -7.447538   1.000000
   15        1.026132   1.000000
   16        1.026133   1.000000
   17        2.631353   1.000000
   18        2.631354   1.000000
   19        6.768011   0.000000
   20        6.768020   0.000000
   21        8.374858   0.000000
   22        8.374859   0.000000
   23        9.326273   0.000000
   24        9.326279   0.000000
   25       11.729495   0.000000
   26       11.729497   0.000000
   27       12.906376   0.000000
   28       12.906381   0.000000
 
  0.4444444E+00  0.2222222E+00  0.5551115E-16  0.2743484E-02
    1      -30.679402   1.000000
    2      -30.679402   1.000000
    3      -30.678029   1.000000
    4      -30.678027   1.000000
    5      -23.989939   1.000000
    6      -23.989939   1.000000
    7      -23.986078   1.000000
    8      -23.986076   1.000000
    9      -23.981614   1.000000
   10      -23.981613   1.000000
   11      -20.304507   1.000000
   12      -20.304504   1.000000
   13       -7.529470   1.000000
   14       -7.529469   1.000000
   15        0.705997   1.000000
   16        0.705998   1.000000
   17        2.320094   1.000000
   18        2.320095   1.000000
   19        6.956118   0.000000
   20        6.956126   0.000000
   21        8.524534   0.000000
   22        8.524542   0.000000
   23        9.615586   0.000000
   24        9.615588   0.000000
   25       11.544489   0.000000
   26       11.544492   0.000000
   27       13.209265   0.000000
   28       13.209301   0.000000
 
 -0.4444444E+00  0.2222222E+00 -0.2775558E-16  0.2743484E-02
    1      -30.679268   1.000000
    2      -30.679268   1.000000
    3      -30.677768   1.000000
    4      -30.677766   1.000000
    5      -23.989635   1.000000
    6      -23.989634   1.000000
    7      -23.984534   1.000000
    8      -23.984532   1.000000
    9      -23.982004   1.000000
   10      -23.982003   1.000000
   11      -20.292177   1.000000
   12      -20.292174   1.000000
   13       -7.566979   1.000000
   14       -7.566978   1.000000
   15        0.565102   1.000000
   16        0.565103   1.000000
   17        2.153823   1.000000
   18        2.153824   1.000000
   19        7.136412   0.000000
   20        7.136416   0.000000
   21        8.444478   0.000000
   22        8.444491   0.000000
   23       10.608652   0.000000
   24       10.608657   0.000000
   25       11.366751   0.000000
   26       11.366753   0.000000
   27       12.599971   0.000000
   28       12.599975   0.000000
 
 -0.3333333E+00  0.2222222E+00  0.6938894E-17  0.2743484E-02
    1      -30.679350   1.000000
    2      -30.679350   1.000000
    3      -30.677933   1.000000
    4      -30.677931   1.000000
    5      -23.989365   1.000000
    6      -23.989364   1.000000
    7      -23.984827   1.000000
    8      -23.984826   1.000000
    9      -23.982930   1.000000
   10      -23.982929   1.000000
   11      -20.300085   1.000000
   12      -20.300082   1.000000
   13       -7.543800   1.000000
   14       -7.543799   1.000000
   15        0.623460   1.000000
   16        0.623461   1.000000
   17        2.240122   1.000000
   18        2.240124   1.000000
   19        7.344103   0.000000
   20        7.344104   0.000000
   21        8.457571   0.000000
   22        8.457589   0.000000
   23       10.393597   0.000000
   24       10.393603   0.000000
   25       11.344990   0.000000
   26       11.344992   0.000000
   27       12.757859   0.000000
   28       12.766265   0.000000
 
 -0.2222222E+00  0.2222222E+00 -0.2625400E-16  0.2743484E-02
    1      -30.679682   1.000000
    2      -30.679682   1.000000
    3      -30.678416   1.000000
    4      -30.678414   1.000000
    5      -23.989261   1.000000
    6      -23.989259   1.000000
    7      -23.987349   1.000000
    8      -23.987348   1.000000
    9      -23.983447   1.000000
   10      -23.983445   1.000000
   11      -20.324439   1.000000
   12      -20.324436   1.000000
   13       -7.471173   1.000000
   14       -7.471172   1.000000
   15        0.858447   1.000000
   16        0.858448   1.000000
   17        2.591006   1.000000
   18        2.591007   1.000000
   19        7.111078   0.000000
   20        7.111079   0.000000
   21        8.817977   0.000000
   22        8.817989   0.000000
   23        9.752237   0.000000
   24        9.752246   0.000000
   25       11.116012   0.000000
   26       11.116013   0.000000
   27       11.901323   0.000000
   28       11.901330   0.000000
 
 -0.1111111E+00  0.2222222E+00 -0.1387779E-16  0.2743484E-02
    1      -30.680093   1.000000
    2      -30.680092   1.000000
    3      -30.678970   1.000000
    4      -30.678968   1.000000
    5      -23.990385   1.000000
    6      -23.990384   1.000000
    7      -23.988407   1.000000
    8      -23.988406   1.000000
    9      -23.984799   1.000000
   10      -23.984798   1.000000
   11      -20.353576   1.000000
   12      -20.353574   1.000000
   13       -7.381808   1.000000
   14       -7.381806   1.000000
   15        1.198177   1.000000
   16        1.198179   1.000000
   17        3.118407   1.000000
   18        3.118409   1.000000
   19        6.254565  -0.000000
   20        6.254567  -0.000000
   21        9.362379   0.000000
   22        9.362382   0.000000
   23       10.008472   0.000000
   24       10.008484   0.000000
   25       10.889783   0.000000
   26       10.889788   0.000000
   27       11.831379   0.000000
   28       11.831413   0.000000
 
 -0.7703720E-33  0.3333333E+00  0.0000000E+00  0.2743484E-02
    1      -30.680106   1.000000
    2      -30.680105   1.000000
    3      -30.678419   1.000000
    4      -30.678417   1.000000
    5      -23.991390   1.000000
    6      -23.991389   1.000000
    7      -23.986745   1.000000
    8      -23.986743   1.000000
    9      -23.983548   1.000000
   10      -23.983548   1.000000
   11      -20.337548   1.000000
   12      -20.337545   1.000000
   13       -7.436791   1.000000
   14       -7.436790   1.000000
   15        0.873791   1.000000
   16        0.873793   1.000000
   17        3.298670   1.000000
   18        3.298672   1.000000
   19        5.932393  -0.000000
   20        5.932394  -0.000000
   21       10.097907   0.000000
   22       10.097924   0.000000
   23       10.336151   0.000000
   24       10.336152   0.000000
   25       10.758521   0.000000
   26       10.758524   0.000000
   27       10.992110   0.000000
   28       10.992123   0.000000
 
  0.1111111E+00  0.3333333E+00 -0.5551115E-16  0.2743484E-02
    1      -30.679999   1.000000
    2      -30.679998   1.000000
    3      -30.678673   1.000000
    4      -30.678671   1.000000
    5      -23.990721   1.000000
    6      -23.990719   1.000000
    7      -23.987455   1.000000
    8      -23.987453   1.000000
    9      -23.983955   1.000000
   10      -23.983954   1.000000
   11      -20.341494   1.000000
   12      -20.341491   1.000000
   13       -7.420457   1.000000
   14       -7.420456   1.000000
   15        1.018640   1.000000
   16        1.018642   1.000000
   17        3.018922   1.000000
   18        3.018923   1.000000
   19        6.354528  -0.000000
   20        6.354530  -0.000000
   21        9.380404   0.000000
   22        9.380413   0.000000
   23        9.652806   0.000000
   24        9.652810   0.000000
   25       11.050915   0.000000
   26       11.050918   0.000000
   27       12.317194   0.000000
   28       12.329434   0.000000
 
  0.2222222E+00  0.3333333E+00  0.0000000E+00  0.2743484E-02
    1      -30.679664   1.000000
    2      -30.679663   1.000000
    3      -30.678644   1.000000
    4      -30.678643   1.000000
    5      -23.990539   1.000000
    6      -23.990537   1.000000
    7      -23.987291   1.000000
    8      -23.987290   1.000000
    9      -23.983002   1.000000
   10      -23.983001   1.000000
   11      -20.331174   1.000000
   12      -20.331172   1.000000
   13       -7.447539   1.000000
   14       -7.447538   1.000000
   15        1.026132   1.000000
   16        1.026134   1.000000
   17        2.631352   1.000000
   18        2.631354   1.000000
   19        6.768011   0.000000
   20        6.768020   0.000000
   21        8.374858   0.000000
   22        8.374859   0.000000
   23        9.326274   0.000000
   24        9.326279   0.000000
   25       11.729495   0.000000
   26       11.729497   0.000000
   27       12.906375   0.000000
   28       12.906377   0.000000
 
  0.3333333E+00  0.3333333E+00  0.2775558E-16  0.2743484E-02
    1      -30.679398   1.000000
    2      -30.679397   1.000000
    3      -30.678250   1.000000
    4      -30.678249   1.000000
    5      -23.990771   1.000000
    6      -23.990769   1.000000
    7      -23.986727   1.000000
    8      -23.986725   1.000000
    9      -23.980915   1.000000
   10      -23.980914   1.000000
   11      -20.311320   1.000000
   12      -20.311317   1.000000
   13       -7.505667   1.000000
   14       -7.505666   1.000000
   15        0.848501   1.000000
   16        0.848501   1.000000
   17        2.422603   1.000000
   18        2.422603   1.000000
   19        6.566014   0.000000
   20        6.566029   0.000000
   21        7.838047   0.000000
   22        7.838048   0.000000
   23        9.680267   0.000000
   24        9.680270   0.000000
   25       12.478607   0.000000
   26       12.478609   0.000000
   27       13.570593   0.000000
   28       13.570595   0.000000
 
  0.4444444E+00  0.3333333E+00 -0.5551115E-16  0.2743484E-02
    1      -30.679127   1.000000
    2      -30.679127   1.000000
    3      -30.677832   1.000000
    4      -30.677831   1.000000
    5      -23.990238   1.000000
    6      -23.990236   1.000000
    7      -23.986212   1.000000
    8      -23.986211   1.000000
    9      -23.979540   1.000000
   10      -23.979539   1.000000
   11      -20.291169   1.000000
   12      -20.291167   1.000000
   13       -7.564658   1.000000
   14       -7.564656   1.000000
   15        0.673810   1.000000
   16        0.673810   1.000000
   17        2.137316   1.000000
   18        2.137316   1.000000
   19        6.531890   0.000000
   20        6.531906   0.000000
   21        7.883062   0.000000
   22        7.883062   0.000000
   23        9.944139   0.000000
   24        9.944141   0.000000
   25       12.693736   0.000000
   26       12.693739   0.000000
   27       13.945130   0.000000
   28       13.945138   0.000000
 
 -0.4444444E+00  0.3333333E+00 -0.5551115E-16  0.2743484E-02
    1      -30.678893   1.000000
    2      -30.678893   1.000000
    3      -30.677692   1.000000
    4      -30.677690   1.000000
    5      -23.989276   1.000000
    6      -23.989275   1.000000
    7      -23.985367   1.000000
    8      -23.985365   1.000000
    9      -23.980052   1.000000
   10      -23.980051   1.000000
   11      -20.280290   1.000000
   12      -20.280287   1.000000
   13       -7.595678   1.000000
   14       -7.595677   1.000000
   15        0.611097   1.000000
   16        0.611098   1.000000
   17        1.834011   1.000000
   18        1.834013   1.000000
   19        6.785148   0.000000
   20        6.785162   0.000000
   21        8.377861   0.000000
   22        8.377866   0.000000
   23       10.240648   0.000000
   24       10.240650   0.000000
   25       12.133068   0.000000
   26       12.133073   0.000000
   27       13.220651   0.000000
   28       13.220657   0.000000
 
 -0.3333333E+00  0.3333333E+00 -0.3706209E-16  0.2743484E-02
    1      -30.678925   1.000000
    2      -30.678924   1.000000
    3      -30.677781   1.000000
    4      -30.677779   1.000000
    5      -23.988800   1.000000
    6      -23.988798   1.000000
    7      -23.984135   1.000000
    8      -23.984133   1.000000
    9      -23.982200   1.000000
   10      -23.982199   1.000000
   11      -20.283848   1.000000
   12      -20.283845   1.000000
   13       -7.586567   1.000000
   14       -7.586565   1.000000
   15        0.604308   1.000000
   16        0.604309   1.000000
   17        1.830566   1.000000
   18        1.830567   1.000000
   19        7.199631   0.000000
   20        7.199640   0.000000
   21        8.571259   0.000000
   22        8.571268   0.000000
   23       11.085495   0.000000
   24       11.085502   0.000000
   25       11.258022   0.000000
   26       11.258024   0.000000
   27       12.251812   0.000000
   28       12.251828   0.000000
 
 -0.2222222E+00  0.3333333E+00 -0.2775558E-16  0.2743484E-02
    1      -30.679350   1.000000
    2      -30.679349   1.000000
    3      -30.677933   1.000000
    4      -30.677931   1.000000