   1   1   0   0
  0.5838852E+02  0.4354592E-09  0.4354592E-09  0.4354592E-09  0.2000000E-16
  1.000000000000000E-004
  CAR 
 Og_FCC                                  
     19.09098650    -33.05061350  301      3.73708780      1.00000000
    -33.051  0.0000E+00  0.0000E+00
    -32.877  0.0000E+00  0.0000E+00
    -32.703  0.0000E+00  0.0000E+00
    -32.529  0.0000E+00  0.0000E+00
    -32.355  0.0000E+00  0.0000E+00
    -32.182  0.0000E+00  0.0000E+00
    -32.008  0.0000E+00  0.0000E+00
    -31.834  0.0000E+00  0.0000E+00
    -31.660  0.0000E+00  0.0000E+00
    -31.486 -0.5111E-28 -0.8883E-29
    -31.313 -0.3031E-17 -0.5268E-18
    -31.139 -0.3773E-09 -0.6558E-10
    -30.965 -0.9314E-04 -0.1619E-04
    -30.791 -0.1571E-01 -0.2746E-02
    -30.617  0.4509E+00  0.7562E-01
    -30.444  0.3563E-01  0.8181E-01
    -30.270 -0.1026E-02  0.8163E-01
    -30.096 -0.2769E-07  0.8163E-01
    -29.922 -0.1341E-14  0.8163E-01
    -29.748  0.0000E+00  0.8163E-01
    -29.575  0.0000E+00  0.8163E-01
    -29.401  0.0000E+00  0.8163E-01
    -29.227  0.0000E+00  0.8163E-01
    -29.053  0.0000E+00  0.8163E-01
    -28.879  0.0000E+00  0.8163E-01
    -28.705  0.0000E+00  0.8163E-01
    -28.532  0.0000E+00  0.8163E-01
    -28.358  0.0000E+00  0.8163E-01
    -28.184  0.0000E+00  0.8163E-01
    -28.010  0.0000E+00  0.8163E-01
    -27.836  0.0000E+00  0.8163E-01
    -27.663  0.0000E+00  0.8163E-01
    -27.489  0.0000E+00  0.8163E-01
    -27.315  0.0000E+00  0.8163E-01
    -27.141  0.0000E+00  0.8163E-01
    -26.967  0.0000E+00  0.8163E-01
    -26.794  0.0000E+00  0.8163E-01
    -26.620  0.0000E+00  0.8163E-01
    -26.446  0.0000E+00  0.8163E-01
    -26.272  0.0000E+00  0.8163E-01
    -26.098  0.0000E+00  0.8163E-01
    -25.925  0.0000E+00  0.8163E-01
    -25.751  0.0000E+00  0.8163E-01
    -25.577  0.0000E+00  0.8163E-01
    -25.403  0.0000E+00  0.8163E-01
    -25.229  0.0000E+00  0.8163E-01
    -25.056  0.0000E+00  0.8163E-01
    -24.882 -0.3055E-34  0.8163E-01
    -24.708 -0.3760E-22  0.8163E-01
    -24.534 -0.1014E-12  0.8163E-01
    -24.360 -0.5885E-06  0.8163E-01
    -24.187 -0.5576E-02  0.8066E-01
    -24.013  0.2053E+00  0.1164E+00
    -23.839  0.5251E+00  0.2076E+00
    -23.665 -0.2031E-01  0.2041E+00
    -23.491 -0.1982E-04  0.2041E+00
    -23.318 -0.2329E-10  0.2041E+00
    -23.144  0.0000E+00  0.2041E+00
    -22.970  0.0000E+00  0.2041E+00
    -22.796  0.0000E+00  0.2041E+00
    -22.622  0.0000E+00  0.2041E+00
    -22.448  0.0000E+00  0.2041E+00
    -22.275  0.0000E+00  0.2041E+00
    -22.101  0.0000E+00  0.2041E+00
    -21.927  0.0000E+00  0.2041E+00
    -21.753  0.0000E+00  0.2041E+00
    -21.579  0.0000E+00  0.2041E+00
    -21.406  0.0000E+00  0.2041E+00
    -21.232 -0.3184E-31  0.2041E+00
    -21.058 -0.3440E-20  0.2041E+00
    -20.884 -0.8982E-12  0.2041E+00
    -20.710 -0.6210E-06  0.2041E+00
    -20.537 -0.1248E-02  0.2039E+00
    -20.363  0.3796E-01  0.2105E+00
    -20.189  0.2039E+00  0.2459E+00
    -20.015 -0.5691E-02  0.2449E+00
    -19.841 -0.5904E-04  0.2449E+00
    -19.668 -0.4252E-09  0.2449E+00
    -19.494 -0.4292E-17  0.2449E+00
    -19.320  0.0000E+00  0.2449E+00
    -19.146  0.0000E+00  0.2449E+00
    -18.972  0.0000E+00  0.2449E+00
    -18.799  0.0000E+00  0.2449E+00
    -18.625  0.0000E+00  0.2449E+00
    -18.451  0.0000E+00  0.2449E+00
    -18.277  0.0000E+00  0.2449E+00
    -18.103  0.0000E+00  0.2449E+00
    -17.930  0.0000E+00  0.2449E+00
    -17.756  0.0000E+00  0.2449E+00
    -17.582  0.0000E+00  0.2449E+00
    -17.408  0.0000E+00  0.2449E+00
    -17.234  0.0000E+00  0.2449E+00
    -17.061  0.0000E+00  0.2449E+00
    -16.887  0.0000E+00  0.2449E+00
    -16.713  0.0000E+00  0.2449E+00
    -16.539  0.0000E+00  0.2449E+00
    -16.365  0.0000E+00  0.2449E+00
    -16.191  0.0000E+00  0.2449E+00
    -16.018  0.0000E+00  0.2449E+00
    -15.844  0.0000E+00  0.2449E+00
    -15.670  0.0000E+00  0.2449E+00
    -15.496  0.0000E+00  0.2449E+00
    -15.322  0.0000E+00  0.2449E+00
    -15.149  0.0000E+00  0.2449E+00
    -14.975  0.0000E+00  0.2449E+00
    -14.801  0.0000E+00  0.2449E+00
    -14.627  0.0000E+00  0.2449E+00
    -14.453  0.0000E+00  0.2449E+00
    -14.280  0.0000E+00  0.2449E+00
    -14.106  0.0000E+00  0.2449E+00
    -13.932  0.0000E+00  0.2449E+00
    -13.758  0.0000E+00  0.2449E+00
    -13.584  0.0000E+00  0.2449E+00
    -13.411  0.0000E+00  0.2449E+00
    -13.237  0.0000E+00  0.2449E+00
    -13.063  0.0000E+00  0.2449E+00
    -12.889  0.0000E+00  0.2449E+00
    -12.715  0.0000E+00  0.2449E+00
    -12.542  0.0000E+00  0.2449E+00
    -12.368  0.0000E+00  0.2449E+00
    -12.194  0.0000E+00  0.2449E+00
    -12.020  0.0000E+00  0.2449E+00
    -11.846  0.0000E+00  0.2449E+00
    -11.673  0.0000E+00  0.2449E+00
    -11.499  0.0000E+00  0.2449E+00
    -11.325  0.0000E+00  0.2449E+00
    -11.151  0.0000E+00  0.2449E+00
    -10.977  0.0000E+00  0.2449E+00
    -10.804  0.0000E+00  0.2449E+00
    -10.630  0.0000E+00  0.2449E+00
    -10.456  0.0000E+00  0.2449E+00
    -10.282  0.0000E+00  0.2449E+00
    -10.108  0.0000E+00  0.2449E+00
     -9.935  0.0000E+00  0.2449E+00
     -9.761  0.0000E+00  0.2449E+00
     -9.587  0.0000E+00  0.2449E+00
     -9.413  0.0000E+00  0.2449E+00
     -9.239  0.0000E+00  0.2449E+00
     -9.065  0.0000E+00  0.2449E+00
     -8.892  0.0000E+00  0.2449E+00
     -8.718  0.0000E+00  0.2449E+00
     -8.544 -0.3730E-39  0.2449E+00
     -8.370 -0.2282E-26  0.2449E+00
     -8.196 -0.3234E-16  0.2449E+00
     -8.023 -0.1056E-08  0.2449E+00
     -7.849 -0.7441E-04  0.2449E+00
     -7.675 -0.2277E-02  0.2445E+00
     -7.501  0.1496E+00  0.2705E+00
     -7.327  0.7244E-01  0.2831E+00
     -7.154  0.1521E-01  0.2857E+00
     -6.980 -0.1807E-04  0.2857E+00
     -6.806 -0.1346E-04  0.2857E+00
     -6.632 -0.7946E-09  0.2857E+00
     -6.458 -0.1424E-15  0.2857E+00
     -6.285  0.0000E+00  0.2857E+00
     -6.111  0.0000E+00  0.2857E+00
     -5.937  0.0000E+00  0.2857E+00
     -5.763  0.0000E+00  0.2857E+00
     -5.589  0.0000E+00  0.2857E+00
     -5.416  0.0000E+00  0.2857E+00
     -5.242  0.0000E+00  0.2857E+00
     -5.068  0.0000E+00  0.2857E+00
     -4.894  0.0000E+00  0.2857E+00
     -4.720  0.0000E+00  0.2857E+00
     -4.547  0.0000E+00  0.2857E+00
     -4.373  0.0000E+00  0.2857E+00
     -4.199  0.0000E+00  0.2857E+00
     -4.025  0.0000E+00  0.2857E+00
     -3.851  0.0000E+00  0.2857E+00
     -3.678  0.0000E+00  0.2857E+00
     -3.504  0.0000E+00  0.2857E+00
     -3.330  0.0000E+00  0.2857E+00
     -3.156  0.0000E+00  0.2857E+00
     -2.982  0.0000E+00  0.2857E+00
     -2.808  0.0000E+00  0.2857E+00
     -2.635  0.0000E+00  0.2857E+00
     -2.461  0.0000E+00  0.2857E+00
     -2.287  0.0000E+00  0.2857E+00
     -2.113  0.0000E+00  0.2857E+00
     -1.939  0.0000E+00  0.2857E+00
     -1.766  0.0000E+00  0.2857E+00
     -1.592  0.0000E+00  0.2857E+00
     -1.418  0.0000E+00  0.2857E+00
     -1.244  0.0000E+00  0.2857E+00
     -1.070  0.0000E+00  0.2857E+00
     -0.897  0.0000E+00  0.2857E+00
     -0.723  0.0000E+00  0.2857E+00
     -0.549  0.0000E+00  0.2857E+00
     -0.375 -0.4678E-36  0.2857E+00
     -0.201 -0.5580E-24  0.2857E+00
     -0.028 -0.1462E-14  0.2857E+00
      0.146 -0.8610E-08  0.2857E+00
      0.320 -0.1116E-03  0.2857E+00
      0.494  0.6244E-03  0.2858E+00
      0.668  0.1061E+00  0.3042E+00
      0.841  0.6737E-01  0.3160E+00
      1.015  0.1597E-01  0.3187E+00
      1.189  0.1428E-01  0.3212E+00
      1.363  0.9856E-02  0.3229E+00
      1.537  0.8699E-02  0.3244E+00
      1.710  0.1753E-01  0.3275E+00
      1.884  0.3913E-01  0.3343E+00
      2.058  0.2609E-01  0.3388E+00
      2.232  0.2382E-01  0.3430E+00
      2.406  0.3697E-01  0.3494E+00
      2.579  0.1900E-01  0.3527E+00
      2.753  0.1357E-01  0.3550E+00
      2.927  0.2664E-01  0.3597E+00
      3.101  0.1453E-01  0.3622E+00
      3.275  0.1347E-01  0.3645E+00
      3.449  0.8708E-02  0.3661E+00
      3.622  0.5253E-02  0.3670E+00
      3.796  0.2544E-02  0.3674E+00
      3.970 -0.4146E-04  0.3674E+00
      4.144 -0.1390E-05  0.3674E+00
      4.318 -0.4718E-10  0.3674E+00
      4.491 -0.1649E-05  0.3674E+00
      4.665 -0.2334E-04  0.3674E+00
      4.839  0.2595E-02  0.3678E+00
      5.013  0.3974E-03  0.3679E+00
      5.187  0.1607E-02  0.3682E+00
      5.360 -0.1644E-03  0.3682E+00
      5.534  0.2606E-02  0.3686E+00
      5.708  0.3735E-02  0.3693E+00
      5.882  0.5925E-02  0.3703E+00
      6.056  0.7478E-02  0.3716E+00
      6.229  0.4032E-02  0.3723E+00
      6.403  0.1860E-01  0.3755E+00
      6.577  0.3908E-01  0.3823E+00
      6.751  0.1420E-01  0.3848E+00
      6.925  0.1569E-01  0.3875E+00
      7.098  0.4122E-01  0.3947E+00
      7.272  0.3996E-01  0.4016E+00
      7.446  0.2771E-01  0.4064E+00
      7.620  0.1037E-01  0.4083E+00
      7.794  0.5293E-02  0.4092E+00
      7.967  0.1122E-01  0.4111E+00
      8.141  0.6191E-02  0.4122E+00
      8.315  0.5226E-02  0.4131E+00
      8.489  0.5390E-01  0.4225E+00
      8.663  0.5595E-01  0.4322E+00
      8.836  0.1766E-01  0.4353E+00
      9.010  0.1161E-01  0.4373E+00
      9.184  0.2759E-01  0.4421E+00
      9.358  0.2645E-01  0.4467E+00
      9.532  0.3706E-01  0.4531E+00
      9.705  0.5221E-01  0.4622E+00
      9.879  0.1186E-01  0.4643E+00
     10.053  0.1446E-01  0.4668E+00
     10.227  0.2704E-01  0.4715E+00
     10.401  0.5796E-01  0.4815E+00
     10.575  0.3016E-01  0.4868E+00
     10.748  0.2230E-01  0.4907E+00
     10.922  0.1435E-01  0.4932E+00
     11.096  0.3260E-01  0.4988E+00
     11.270  0.2576E-01  0.5033E+00
     11.444  0.7511E-01  0.5163E+00
     11.617  0.2248E-01  0.5203E+00
     11.791  0.2387E-01  0.5244E+00
     11.965  0.3158E-01  0.5299E+00
     12.139  0.2925E-01  0.5350E+00
     12.313  0.2595E-01  0.5395E+00
     12.486  0.2445E-01  0.5437E+00
     12.660  0.5988E-01  0.5541E+00
     12.834  0.3974E-01  0.5611E+00
     13.008  0.3629E-01  0.5674E+00
     13.182  0.4861E-02  0.5682E+00
     13.355  0.6783E-01  0.5800E+00
     13.529  0.4111E-01  0.5871E+00
     13.703  0.3481E-01  0.5932E+00
     13.877  0.1126E-01  0.5951E+00
     14.051  0.4299E-01  0.6026E+00
     14.224  0.6459E-01  0.6138E+00
     14.398  0.5039E-01  0.6226E+00
     14.572  0.2240E-01  0.6265E+00
     14.746  0.2802E-01  0.6314E+00
     14.920  0.1412E-01  0.6338E+00
     15.093  0.6035E-02  0.6349E+00
     15.267  0.2668E-01  0.6395E+00
     15.441  0.2821E-01  0.6444E+00
     15.615 -0.4687E-03  0.6443E+00
     15.789  0.2082E-03  0.6444E+00
     15.962  0.1617E-01  0.6472E+00
     16.136  0.6998E-02  0.6484E+00
     16.310  0.2656E-02  0.6489E+00
     16.484  0.1637E-02  0.6491E+00
     16.658  0.1137E-01  0.6511E+00
     16.832  0.1169E-01  0.6531E+00
     17.005 -0.4675E-03  0.6531E+00
     17.179 -0.5773E-06  0.6531E+00
     17.353 -0.9621E-12  0.6531E+00
     17.527  0.0000E+00  0.6531E+00
     17.701  0.0000E+00  0.6531E+00
     17.874  0.0000E+00  0.6531E+00
     18.048  0.0000E+00  0.6531E+00
     18.222  0.0000E+00  0.6531E+00
     18.396  0.0000E+00  0.6531E+00
     18.570  0.0000E+00  0.6531E+00
     18.743  0.0000E+00  0.6531E+00
     18.917  0.0000E+00  0.6531E+00
     19.091  0.0000E+00  0.6531E+00
