    1    1   49    1
  0.5838852E+02  0.4354592E-09  0.4354592E-09  0.4354592E-09  0.2000000E-16
  1.000000000000000E-004
  CAR 
 Og_FCC                                  
     18    365     32
 
  0.0000000E+00  0.0000000E+00  0.0000000E+00  0.1371742E-02
    1      -30.680541   1.000000
    2      -30.680541   1.000000
    3      -30.680533   1.000000
    4      -30.680533   1.000000
    5      -23.993017   1.000000
    6      -23.993017   1.000000
    7      -23.989171   1.000000
    8      -23.989170   1.000000
    9      -23.989166   1.000000
   10      -23.989165   1.000000
   11      -20.417758   1.000000
   12      -20.417758   1.000000
   13       -7.169995   1.000000
   14       -7.169995   1.000000
   15        3.427581   1.000054
   16        3.427581   1.000054
   17        3.732224   0.541105
   18        3.732224   0.541104
   19        3.732228   0.541077
   20        3.732228   0.541076
   21       10.608605   0.000000
   22       10.608605   0.000000
   23       10.608606   0.000000
   24       10.608606   0.000000
   25       10.838480   0.000000
   26       10.838481   0.000000
   27       11.026704   0.000000
   28       11.026704   0.000000
   29       12.941366   0.000000
   30       12.941368   0.000000
   31       13.247594   0.000000
   32       13.247609   0.000000
 
  0.1111111E+00  0.7980574E-17 -0.6938894E-17  0.2743484E-02
    1      -30.680490   1.000000
    2      -30.680490   1.000000
    3      -30.680246   1.000000
    4      -30.680245   1.000000
    5      -23.992258   1.000000
    6      -23.992258   1.000000
    7      -23.989283   1.000000
    8      -23.989283   1.000000
    9      -23.988291   1.000000
   10      -23.988291   1.000000
   11      -20.405516   1.000000
   12      -20.405515   1.000000
   13       -7.211516   1.000000
   14       -7.211516   1.000000
   15        2.445817   1.000000
   16        2.445818   1.000000
   17        3.657826   0.988136
   18        3.657826   0.988136
   19        4.754183  -0.000000
   20        4.754183  -0.000000
   21        9.767483   0.000000
   22        9.767484   0.000000
   23       10.730719   0.000000
   24       10.730719   0.000000
   25       11.013761   0.000000
   26       11.013761   0.000000
   27       12.034099   0.000000
   28       12.034100   0.000000
   29       12.449495   0.000000
   30       12.449499   0.000000
   31       12.601155   0.000000
   32       12.601162   0.000000
 
  0.2222222E+00 -0.1179443E-16 -0.2775558E-16  0.2743484E-02
    1      -30.680296   1.000000
    2      -30.680296   1.000000
    3      -30.679376   1.000000
    4      -30.679376   1.000000
    5      -23.991112   1.000000
    6      -23.991111   1.000000
    7      -23.988787   1.000000
    8      -23.988787   1.000000
    9      -23.986054   1.000000
   10      -23.986053   1.000000
   11      -20.373922   1.000000
   12      -20.373922   1.000000
   13       -7.316678   1.000000
   14       -7.316677   1.000000
   15        1.523398   1.000000
   16        1.523399   1.000000
   17        3.481587   1.000902
   18        3.481587   1.000902
   19        5.627692  -0.000000
   20        5.627692  -0.000000
   21        9.536901   0.000000
   22        9.536901   0.000000
   23       10.705038   0.000000
   24       10.705039   0.000000
   25       11.063672   0.000000
   26       11.063673   0.000000
   27       11.488612   0.000000
   28       11.488612   0.000000
   29       12.273226   0.000000
   30       12.273227   0.000000
   31       12.488569   0.000000
   32       12.488569   0.000000
 
  0.3333333E+00  0.3088062E-16 -0.1387779E-16  0.2743484E-02
    1      -30.680064   1.000000
    2      -30.680064   1.000000
    3      -30.678373   1.000000
    4      -30.678373   1.000000
    5      -23.991347   1.000000
    6      -23.991346   1.000000
    7      -23.986698   1.000000
    8      -23.986698   1.000000
    9      -23.983503   1.000000
   10      -23.983503   1.000000
   11      -20.337505   1.000000
   12      -20.337505   1.000000
   13       -7.436781   1.000000
   14       -7.436781   1.000000
   15        0.873804   1.000000
   16        0.873804   1.000000
   17        3.298691   1.000000
   18        3.298691   1.000000
   19        5.932396  -0.000000
   20        5.932396  -0.000000
   21       10.097919   0.000000
   22       10.097919   0.000000
   23       10.336155   0.000000
   24       10.336155   0.000000
   25       10.758526   0.000000
   26       10.758526   0.000000
   27       10.992116   0.000000
   28       10.992117   0.000000
   29       13.029185   0.000000
   30       13.029185   0.000000
   31       13.302626   0.000000
   32       13.302626   0.000000
 
  0.4444444E+00 -0.2358886E-16 -0.5551115E-16  0.2743484E-02
    1      -30.679914   1.000000
    2      -30.679914   1.000000
    3      -30.677742   1.000000
    4      -30.677742   1.000000
    5      -23.991723   1.000000
    6      -23.991723   1.000000
    7      -23.985123   1.000000
    8      -23.985123   1.000000
    9      -23.981839   1.000000
   10      -23.981838   1.000000
   11      -20.313462   1.000000
   12      -20.313462   1.000000
   13       -7.515497   1.000000
   14       -7.515497   1.000000
   15        0.540338   1.000000
   16        0.540338   1.000000
   17        3.187555   1.000000
   18        3.187556   1.000000
   19        5.939766  -0.000000
   20        5.939766  -0.000000
   21       10.080115   0.000000
   22       10.080115   0.000000
   23       10.234581   0.000000
   24       10.234582   0.000000
   25       10.478420   0.000000
   26       10.478421   0.000000
   27       11.604363   0.000000
   28       11.604363   0.000000
   29       14.110986   0.000000
   30       14.110986   0.000000
   31       14.302535   0.000000
   32       14.302536   0.000000
 
  0.0000000E+00  0.1111111E+00  0.6938894E-17  0.2743484E-02
    1      -30.680487   1.000000
    2      -30.680487   1.000000
    3      -30.680248   1.000000
    4      -30.680248   1.000000
    5      -23.992257   1.000000
    6      -23.992257   1.000000
    7      -23.989284   1.000000
    8      -23.989283   1.000000
    9      -23.988291   1.000000
   10      -23.988291   1.000000
   11      -20.405516   1.000000
   12      -20.405515   1.000000
   13       -7.211516   1.000000
   14       -7.211516   1.000000
   15        2.445817   1.000000
   16        2.445817   1.000000
   17        3.657827   0.988133
   18        3.657827   0.988133
   19        4.754182  -0.000000
   20        4.754182  -0.000000
   21        9.767483   0.000000
   22        9.767483   0.000000
   23       10.730719   0.000000
   24       10.730719   0.000000
   25       11.013761   0.000000
   26       11.013761   0.000000
   27       12.034102   0.000000
   28       12.034103   0.000000
   29       12.449494   0.000000
   30       12.449500   0.000000
   31       12.601151   0.000000
   32       12.601177   0.000000
 
  0.1111111E+00  0.1111111E+00  0.0000000E+00  0.2743484E-02
    1      -30.680388   1.000000
    2      -30.680387   1.000000
    3      -30.680208   1.000000
    4      -30.680208   1.000000
    5      -23.992122   1.000000
    6      -23.992122   1.000000
    7      -23.988773   1.000000
    8      -23.988773   1.000000
    9      -23.988428   1.000000
   10      -23.988428   1.000000
   11      -20.401409   1.000000
   12      -20.401409   1.000000
   13       -7.224813   1.000000
   14       -7.224813   1.000000
   15        2.338691   1.000000
   16        2.338692   1.000000
   17        3.479635   1.000825
   18        3.479636   1.000825
   19        5.051022  -0.000000
   20        5.051022  -0.000000
   21        9.472990   0.000000
   22        9.472990   0.000000
   23       10.749325   0.000000
   24       10.749325   0.000000
   25       11.328440   0.000000
   26       11.328441   0.000000
   27       11.379948   0.000000
   28       11.379948   0.000000
   29       12.418056   0.000000
   30       12.418057   0.000000
   31       13.422330   0.000000
   32       13.422607   0.000000
 
  0.2222222E+00  0.1111111E+00 -0.2775558E-16  0.2743484E-02
    1      -30.680196   1.000000
    2      -30.680196   1.000000
    3      -30.679555   1.000000
    4      -30.679555   1.000000
    5      -23.991087   1.000000
    6      -23.991087   1.000000
    7      -23.988724   1.000000
    8      -23.988724   1.000000
    9      -23.986410   1.000000
   10      -23.986410   1.000000
   11      -20.376257   1.000000
   12      -20.376256   1.000000
   13       -7.307336   1.000000
   14       -7.307336   1.000000
   15        1.655676   1.000000
   16        1.655677   1.000000
   17        3.258419   1.000000
   18        3.258419   1.000000
   19        5.861412  -0.000000
   20        5.861413  -0.000000
   21        9.097287   0.000000
   22        9.097287   0.000000
   23       10.225757   0.000000
   24       10.225758   0.000000
   25       11.167946   0.000000
   26       11.167947   0.000000
   27       11.839148   0.000000
   28       11.839148   0.000000
   29       12.838262   0.000000
   30       12.838262   0.000000
   31       13.278683   0.000000
   32       13.278684   0.000000
 
  0.3333333E+00  0.1111111E+00 -0.2775558E-16  0.2743484E-02
    1      -30.679957   1.000000
    2      -30.679957   1.000000
    3      -30.678627   1.000000
    4      -30.678627   1.000000
    5      -23.990677   1.000000
    6      -23.990677   1.000000
    7      -23.987408   1.000000
    8      -23.987408   1.000000
    9      -23.983909   1.000000
   10      -23.983909   1.000000
   11      -20.341451   1.000000
   12      -20.341451   1.000000
   13       -7.420447   1.000000
   14       -7.420447   1.000000
   15        1.018653   1.000000
   16        1.018653   1.000000
   17        3.018941   1.000000
   18        3.018941   1.000000
   19        6.354534  -0.000000
   20        6.354534  -0.000000
   21        9.380411   0.000000
   22        9.380411   0.000000
   23        9.652810   0.000000
   24        9.652810   0.000000
   25       11.050921   0.000000
   26       11.050921   0.000000
   27       12.317095   0.000000
   28       12.317095   0.000000
   29       12.599069   0.000000
   30       12.599070   0.000000
   31       13.741726   0.000000
   32       13.741726   0.000000
 
  0.4444444E+00  0.1111111E+00 -0.8326673E-16  0.2743484E-02
    1      -30.679760   1.000000
    2      -30.679760   1.000000
    3      -30.677882   1.000000
    4      -30.677882   1.000000
    5      -23.990939   1.000000
    6      -23.990939   1.000000
    7      -23.985438   1.000000
    8      -23.985438   1.000000
    9      -23.982237   1.000000
   10      -23.982236   1.000000
   11      -20.313223   1.000000
   12      -20.313222   1.000000
   13       -7.511134   1.000000
   14       -7.511134   1.000000
   15        0.621085   1.000000
   16        0.621086   1.000000
   17        2.835004   1.000000
   18        2.835005   1.000000
   19        6.451288  -0.000000
   20        6.451288  -0.000000
   21        9.101325   0.000000
   22        9.101325   0.000000
   23       10.409315   0.000000
   24       10.409315   0.000000
   25       10.930763   0.000000
   26       10.930763   0.000000
   27       12.048259   0.000000
   28       12.048259   0.000000
   29       13.372413   0.000000
   30       13.372413   0.000000
   31       14.539745   0.000000
   32       14.539749   0.000000
 
 -0.4444444E+00  0.1111111E+00  0.5551115E-16  0.2743484E-02
    1      -30.679712   1.000000
    2      -30.679712   1.000000
    3      -30.677698   1.000000
    4      -30.677698   1.000000
    5      -23.991018   1.000000
    6      -23.991018   1.000000
    7      -23.984723   1.000000
    8      -23.984723   1.000000
    9      -23.981932   1.000000
   10      -23.981932   1.000000
   11      -20.305211   1.000000
   12      -20.305211   1.000000
   13       -7.536936   1.000000
   14       -7.536935   1.000000
   15        0.517650   1.000000
   16        0.517650   1.000000
   17        2.781753   1.000000
   18        2.781753   1.000000
   19        6.468773   0.000000
   20        6.468773   0.000000
   21        9.029285   0.000000
   22        9.029285   0.000000
   23       10.426043   0.000000
   24       10.426043   0.000000
   25       11.272526   0.000000
   26       11.272526   0.000000
   27       12.200716   0.000000
   28       12.200716   0.000000
   29       13.565863   0.000000
   30       13.565863   0.000000
   31       14.079220   0.000000
   32       14.079220   0.000000
 
 -0.3333333E+00  0.1111111E+00  0.2775558E-16  0.2743484E-02
    1      -30.679810   1.000000
    2      -30.679810   1.000000
    3      -30.678086   1.000000
    4      -30.678086   1.000000
    5      -23.990735   1.000000
    6      -23.990735   1.000000
    7      -23.986008   1.000000
    8      -23.986008   1.000000
    9      -23.982824   1.000000
   10      -23.982824   1.000000
   11      -20.321207   1.000000
   12      -20.321206   1.000000
   13       -7.485766   1.000000
   14       -7.485766   1.000000
   15        0.718722   1.000000
   16        0.718722   1.000000
   17        2.883760   1.000000
   18        2.883760   1.000000
   19        6.478456   0.000000
   20        6.478456   0.000000
   21        9.259093   0.000000
   22        9.259093   0.000000
   23       10.333338   0.000000
   24       10.333339   0.000000
   25       10.674902   0.000000
   26       10.674902   0.000000
   27       12.289792   0.000000
   28       12.289793   0.000000
   29       12.830799   0.000000
   30       12.830799   0.000000
   31       14.122122   0.000000
   32       14.122122   0.000000
 
 -0.2222222E+00  0.1111111E+00  0.4857226E-16  0.2743484E-02
    1      -30.680050   1.000000
    2      -30.680050   1.000000
    3      -30.678925   1.000000
    4      -30.678925   1.000000
    5      -23.990342   1.000000
    6      -23.990341   1.000000
    7      -23.988359   1.000000
    8      -23.988359   1.000000
    9      -23.984754   1.000000
   10      -23.984754   1.000000
   11      -20.353534   1.000000
   12      -20.353533   1.000000
   13       -7.381797   1.000000
   14       -7.381797   1.000000
   15        1.198190   1.000000
   16        1.198191   1.000000
   17        3.118427   1.000000
   18        3.118427   1.000000
   19        6.254571  -0.000000
   20        6.254572  -0.000000
   21        9.362382   0.000000
   22        9.362382   0.000000
   23       10.008480   0.000000
   24       10.008480   0.000000
   25       10.889789   0.000000
   26       10.889789   0.000000
   27       11.831362   0.000000
   28       11.831362   0.000000
   29       12.575012   0.000000
   30       12.575012   0.000000
   31       13.596954   0.000000
   32       13.596954   0.000000
 
 -0.1111111E+00  0.1111111E+00  0.2004299E-16  0.2743484E-02
    1      -30.680315   1.000000
    2      -30.680315   1.000000
    3      -30.679777   1.000000
    4      -30.679777   1.000000
    5      -23.991208   1.000000
    6      -23.991208   1.000000
    7      -23.989296   1.000000
    8      -23.989296   1.000000
    9      -23.987005   1.000000
   10      -23.987005   1.000000
   11      -20.386734   1.000000
   12      -20.386734   1.000000
   13       -7.273547   1.000000
   14       -7.273547   1.000000
   15        1.865502   1.000000
   16        1.865502   1.000000
   17        3.423827   1.000044
   18        3.423827   1.000044
   19        5.514922  -0.000000
   20        5.514922  -0.000000
   21        9.364285   0.000000
   22        9.364285   0.000000
   23       10.608927   0.000000
   24       10.608928   0.000000
   25       11.110751   0.000000
   26       11.110751   0.000000
   27       11.650875   0.000000
   28       11.650875   0.000000
   29       12.354071   0.000000
   30       12.354071   0.000000
   31       12.925259   0.000000
   32       12.925260   0.000000
 
  0.0000000E+00  0.2222222E+00  0.1387779E-16  0.2743484E-02
    1      -30.680293   1.000000
    2      -30.680293   1.000000
    3      -30.679379   1.000000
    4      -30.679379   1.000000
    5      -23.991108   1.000000
    6      -23.991107   1.000000
    7      -23.988790   1.000000
    8      -23.988790   1.000000
    9      -23.986054   1.000000
   10      -23.986054   1.000000
   11      -20.373922   1.000000
   12      -20.373922   1.000000
   13       -7.316678   1.000000
   14       -7.316677   1.000000
   15        1.523398   1.000000
   16        1.523398   1.000000
   17        3.481588   1.000903
   18        3.481588   1.000903
   19        5.627691  -0.000000
   20        5.627692  -0.000000
   21        9.536900   0.000000
   22        9.536901   0.000000
   23       10.705039   0.000000
   24       10.705039   0.000000
   25       11.063673   0.000000
   26       11.063673   0.000000
   27       11.488611   0.000000
   28       11.488612   0.000000
   29       12.273226   0.000000
   30       12.273226   0.000000
   31       12.488569   0.000000
   32       12.488569   0.000000
 
  0.1111111E+00  0.2222222E+00  0.2775558E-16  0.2743484E-02
    1      -30.680193   1.000000
    2      -30.680193   1.000000
    3      -30.679558   1.000000
    4      -30.679558   1.000000
    5      -23.991085   1.000000
    6      -23.991085   1.000000
    7      -23.988724   1.000000
    8      -23.988724   1.000000
    9      -23.986412   1.000000
   10      -23.986411   1.000000
   11      -20.376257   1.000000
   12      -20.376256   1.000000
   13       -7.307336   1.000000
   14       -7.307336   1.000000
   15        1.655676   1.000000
   16        1.655676   1.000000
   17        3.258420   1.000000
   18        3.258420   1.000000
   19        5.861412  -0.000000
   20        5.861412  -0.000000
   21        9.097287   0.000000
   22        9.097287   0.000000
   23       10.225758   0.000000
   24       10.225758   0.000000
   25       11.167947   0.000000
   26       11.167947   0.000000
   27       11.839148   0.000000
   28       11.839149   0.000000
   29       12.838262   0.000000
   30       12.838262   0.000000
   31       13.278675   0.000000
   32       13.278687   0.000000
 
  0.2222222E+00  0.2222222E+00  0.0000000E+00  0.2743484E-02
    1      -30.679911   1.000000
    2      -30.679910   1.000000
    3      -30.679282   1.000000
    4      -30.679281   1.000000
    5      -23.991090   1.000000
    6      -23.991090   1.000000
    7      -23.987778   1.000000
    8      -23.987777   1.000000
    9      -23.985276   1.000000
   10      -23.985276   1.000000
   11      -20.359473   1.000000
   12      -20.359473   1.000000
   13       -7.359325   1.000000
   14       -7.359325   1.000000
   15        1.429246   1.000000
   16        1.429246   1.000000
   17        2.934570   1.000000
   18        2.934571   1.000000
   19        6.385369  -0.000000
   20        6.385369  -0.000000
   21        8.493692   0.000000
   22        8.493692   0.000000
   23        9.674634   0.000000
   24        9.674634   0.000000
   25       11.428210   0.000000
   26       11.428210   0.000000
   27       12.372106   0.000000
   28       12.372106   0.000000
   29       14.190056   0.000000
   30       14.190102   0.000000
   31       14.476439   0.000000
   32       14.481348   0.000000
 
  0.3333333E+00  0.2222222E+00  0.0000000E+00  0.2743484E-02
    1      -30.679622   1.000000
    2      -30.679622   1.000000
    3      -30.678598   1.000000
    4      -30.678598   1.000000
    5      -23.990495   1.000000
    6      -23.990495   1.000000
    7      -23.987245   1.000000
    8      -23.987245   1.000000
    9      -23.982956   1.000000
   10      -23.982956   1.000000
   11      -20.331131   1.000000
   12      -20.331131   1.000000
   13       -7.447529   1.000000
   14       -7.447529   1.000000
   15        1.026145   1.000000
   16        1.026146   1.000000
   17        2.631370   1.000000
   18        2.631371   1.000000
   19        6.768020   0.000000
   20        6.768021   0.000000
   21        8.374858   0.000000
   22        8.374858   0.000000
   23        9.326279   0.000000
   24        9.326279   0.000000
   25       11.729501   0.000000
   26       11.729501   0.000000
   27       12.906382   0.000000
   28       12.906382   0.000000
   29       14.232096   0.000000
   30       14.232097   0.000000
   31       14.433434   0.000000
   32       14.433435   0.000000
 
  0.4444444E+00  0.2222222E+00 -0.5551115E-16  0.2743484E-02
    1      -30.679360   1.000000
    2      -30.679360   1.000000
    3      -30.677983   1.000000
    4      -30.677982   1.000000
    5      -23.989896   1.000000
    6      -23.989896   1.000000
    7      -23.986032   1.000000
    8      -23.986032   1.000000
    9      -23.981568   1.000000
   10      -23.981567   1.000000
   11      -20.304464   1.000000
   12      -20.304464   1.000000
   13       -7.529460   1.000000
   14       -7.529460   1.000000
   15        0.706010   1.000000
   16        0.706010   1.000000
   17        2.320111   1.000000
   18        2.320111   1.000000
   19        6.956123   0.000000
   20        6.956124   0.000000
   21        8.524538   0.000000
   22        8.524538   0.000000
   23        9.615591   0.000000
   24        9.615591   0.000000
   25       11.544495   0.000000
   26       11.544496   0.000000
   27       13.209268   0.000000
   28       13.209268   0.000000
   29       14.094801   0.000000
   30       14.094801   0.000000
   31       14.924217   0.000000
   32       14.924219   0.000000
 
 -0.4444444E+00  0.2222222E+00  0.6938894E-16  0.2743484E-02
    1      -30.679226   1.000000
    2      -30.679226   1.000000
    3      -30.677723   1.000000
    4      -30.677722   1.000000
    5      -23.989591   1.000000
    6      -23.989591   1.000000
    7      -23.984488   1.000000
    8      -23.984488   1.000000
    9      -23.981958   1.000000
   10      -23.981957   1.000000
   11      -20.292134   1.000000
   12      -20.292134   1.000000
   13       -7.566969   1.000000
   14       -7.566969   1.000000
   15        0.565115   1.000000
   16        0.565116   1.000000
   17        2.153839   1.000000
   18        2.153840   1.000000
   19        7.136415   0.000000
   20        7.136415   0.000000
   21        8.444485   0.000000
   22        8.444485   0.000000
   23       10.608658   0.000000
   24       10.608659   0.000000
   25       11.366757   0.000000
   26       11.366757   0.000000
   27       12.599979   0.000000
   28       12.599979   0.000000
   29       13.942037   0.000000
   30       13.942037   0.000000
   31       14.119615   0.000000
   32       14.119615   0.000000
 
 -0.3333333E+00  0.2222222E+00  0.4857226E-16  0.2743484E-02
    1      -30.679307   1.000000
    2      -30.679307   1.000000
    3      -30.677888   1.000000
    4      -30.677888   1.000000
    5      -23.989321   1.000000
    6      -23.989321   1.000000
    7      -23.984781   1.000000
    8      -23.984781   1.000000
    9      -23.982885   1.000000
   10      -23.982885   1.000000
   11      -20.300042   1.000000
   12      -20.300041   1.000000
   13       -7.543790   1.000000
   14       -7.543790   1.000000
   15        0.623473   1.000000
   16        0.623473   1.000000
   17        2.240139   1.000000
   18        2.240139   1.000000
   19        7.344105   0.000000
   20        7.344105   0.000000
   21        8.457581   0.000000
   22        8.457581   0.000000
   23       10.393604   0.000000
   24       10.393604   0.000000
   25       11.344996   0.000000
   26       11.344996   0.000000
   27       12.757717   0.000000
   28       12.757717   0.000000
   29       12.950200   0.000000
   30       12.950200   0.000000
   31       14.120303   0.000000
   32       14.120304   0.000000
 
 -0.2222222E+00  0.2222222E+00  0.5550605E-16  0.2743484E-02
    1      -30.679638   1.000000
    2      -30.679638   1.000000
    3      -30.678372   1.000000
    4      -30.678372   1.000000
    5      -23.989215   1.000000
    6      -23.989215   1.000000
    7      -23.987304   1.000000
    8      -23.987303   1.000000
    9      -23.983402   1.000000
   10      -23.983402   1.000000
   11      -20.324396   1.000000
   12      -20.324396   1.000000
   13       -7.471163   1.000000
   14       -7.471163   1.000000
   15        0.858460   1.000000
   16        0.858460   1.000000
   17        2.591024   1.000000
   18        2.591024   1.000000
   19        7.111083   0.000000
   20        7.111083   0.000000
   21        8.817984   0.000000
   22        8.817984   0.000000
   23        9.752245   0.000000
   24        9.752245   0.000000
   25       11.116016   0.000000
   26       11.116017   0.000000
   27       11.901333   0.000000
   28       11.901333   0.000000
   29       13.715588   0.000000
   30       13.715590   0.000000
   31       14.512144   0.000000
   32       14.512146   0.000000
 
 -0.1111111E+00  0.2222222E+00  0.2081668E-16  0.2743484E-02
    1      -30.680048   1.000000
    2      -30.680048   1.000000
    3      -30.678926   1.000000
    4      -30.678926   1.000000
    5      -23.990337   1.000000
    6      -23.990337   1.000000
    7      -23.988363   1.000000
    8      -23.988363   1.000000
    9      -23.984754   1.000000
   10      -23.984754   1.000000
   11      -20.353534   1.000000
   12      -20.353533   1.000000
   13       -7.381798   1.000000
   14       -7.381797   1.000000
   15        1.198190   1.000000
   16        1.198191   1.000000
   17        3.118427   1.000000
   18        3.118427   1.000000
   19        6.254571  -0.000000
   20        6.254571  -0.000000
   21        9.362382   0.000000
   22        9.362382   0.000000
   23       10.008480   0.000000
   24       10.008481   0.000000
   25       10.889789   0.000000
   26       10.889790   0.000000
   27       11.831361   0.000000
   28       11.831362   0.000000
   29       12.575012   0.000000
   30       12.575012   0.000000
   31       13.596954   0.000000
   32       13.596954   0.000000
 
 -0.1540744E-32  0.3333333E+00  0.1387779E-16  0.2743484E-02
    1      -30.680061   1.000000
    2      -30.680061   1.000000
    3      -30.678376   1.000000
    4      -30.678376   1.000000
    5      -23.991343   1.000000
    6      -23.991343   1.000000
    7      -23.986701   1.000000
    8      -23.986701   1.000000
    9      -23.983504   1.000000
   10      -23.983504   1.000000
   11      -20.337506   1.000000
   12      -20.337505   1.000000
   13       -7.436781   1.000000
   14       -7.436781   1.000000
   15        0.873804   1.000000
   16        0.873804   1.000000
   17        3.298692   1.000000
   18        3.298692   1.000000
   19        5.932396  -0.000000
   20        5.932396  -0.000000
   21       10.097918   0.000000
   22       10.097919   0.000000
   23       10.336156   0.000000
   24       10.336156   0.000000
   25       10.758526   0.000000
   26       10.758526   0.000000
   27       10.992116   0.000000
   28       10.992116   0.000000
   29       13.029185   0.000000
   30       13.029185   0.000000
   31       13.302626   0.000000
   32       13.302626   0.000000
 
  0.1111111E+00  0.3333333E+00  0.0000000E+00  0.2743484E-02
    1      -30.679954   1.000000
    2      -30.679953   1.000000
    3      -30.678630   1.000000
    4      -30.678630   1.000000
    5      -23.990675   1.000000
    6      -23.990674   1.000000
    7      -23.987409   1.000000
    8      -23.987409   1.000000
    9      -23.983911   1.000000
   10      -23.983911   1.000000
   11      -20.341451   1.000000
   12      -20.341451   1.000000
   13       -7.420447   1.000000
   14       -7.420447   1.000000
   15        1.018653   1.000000
   16        1.018653   1.000000
   17        3.018941   1.000000
   18        3.018942   1.000000
   19        6.354533  -0.000000
   20        6.354534  -0.000000
   21        9.380410   0.000000
   22        9.380411   0.000000
   23        9.652810   0.000000
   24        9.652810   0.000000
   25       11.050921   0.000000
   26       11.050922   0.000000
   27       12.317095   0.000000
   28       12.317095   0.000000
   29       12.599070   0.000000
   30       12.599070   0.000000
   31       13.741726   0.000000
   32       13.741726   0.000000
 
  0.2222222E+00  0.3333333E+00  0.0000000E+00  0.2743484E-02
    1      -30.679620   1.000000
    2      -30.679620   1.000000
    3      -30.678600   1.000000
    4      -30.678600   1.000000
    5      -23.990494   1.000000
    6      -23.990494   1.000000
    7      -23.987244   1.000000
    8      -23.987244   1.000000
    9      -23.982958   1.000000
   10      -23.982958   1.000000
   11      -20.331132   1.000000
   12      -20.331131   1.000000
   13       -7.447529   1.000000
   14       -7.447529   1.000000
   15        1.026145   1.000000
   16        1.026145   1.000000
   17        2.631371   1.000000
   18        2.631371   1.000000
   19        6.768020   0.000000
   20        6.768020   0.000000
   21        8.374858   0.000000
   22        8.374858   0.000000
   23        9.326279   0.000000
   24        9.326279   0.000000
   25       11.729501   0.000000
   26       11.729501   0.000000
   27       12.906382   0.000000
   28       12.906382   0.000000
   29       14.232097   0.000000
   30       14.232097   0.000000
   31       14.433434   0.000000
   32       14.433434   0.000000
 
  0.3333333E+00  0.3333333E+00  0.0000000E+00  0.2743484E-02
    1      -30.679356   1.000000
    2      -30.679356   1.000000
    3      -30.678205   1.000000
    4      -30.678204   1.000000
    5      -23.990727   1.000000
    6      -23.990727   1.000000
    7      -23.986680   1.000000
    8      -23.986680   1.000000
    9      -23.980869   1.000000
   10      -23.980869   1.000000
   11      -20.311277   1.000000
   12      -20.311277   1.000000
   13       -7.505657   1.000000
   14       -7.505657   1.000000
   15        0.848514   1.000000
   16        0.848514   1.000000
   17        2.422621   1.000000
   18        2.422621   1.000000
   19        6.566024   0.000000