<?xml version="1.0" encoding="ISO-8859-1"?>
<modeling>
 <generator>
  <i name="program" type="string">vasp </i>
  <i name="version" type="string">5.4.4.18Apr17-6-g9f103f2a35  </i>
  <i name="subversion" type="string">(build Jul 09 2018 16:43:14) complex            parallel </i>
  <i name="platform" type="string">LinuxIFC </i>
  <i name="date" type="string">2018 11 23 </i>
  <i name="time" type="string">13:03:14 </i>
 </generator>
 <incar>
  <i type="string" name="SYSTEM">   Og_FCC</i>
  <i type="string" name="PREC">accurate</i>
  <i type="string" name="ALGO">   Fast</i>
  <i type="logical" name="ADDGRID"> T  </i>
  <i type="logical" name="LSORBIT"> T  </i>
  <i type="int" name="ISPIN">     1</i>
  <i type="int" name="MAXMIX">    50</i>
  <i type="int" name="NELM">   100</i>
  <i type="int" name="NELMDL">    -5</i>
  <i type="int" name="NELMIN">     5</i>
  <i type="int" name="IBRION">     6</i>
  <i type="int" name="NFREE">     5</i>
  <i name="EDIFF">      0.00000001</i>
  <i name="EDIFFG">      0.00001000</i>
  <i type="int" name="NSW">   999</i>
  <i type="int" name="ISIF">     3</i>
  <i type="int" name="ISYM">     2</i>
  <i name="SYMPREC">      0.00000010</i>
  <i name="ENCUT">    600.00000000</i>
  <i name="POTIM">      0.02000000</i>
  <i type="logical" name="LREAL"> F  </i>
  <i type="int" name="ISMEAR">     1</i>
  <i name="SIGMA">      0.10000000</i>
  <i name="KSPACING">      0.20000000</i>
  <i type="int" name="NWRITE">     2</i>
  <i type="logical" name="LWAVE"> F  </i>
  <i type="logical" name="LCHARG"> F  </i>
  <i type="logical" name="LVTOT"> F  </i>
  <i type="logical" name="GGA_COMPAT"> F  </i>
  <v type="int" name="KPOINT_BSE">    -1     0     0     0</v>
  <i type="int" name="NELM">   100</i>
  <i type="string" name="GGA"> PS</i>
 </incar>
 <structure name="primitive_cell" >
  <crystal>
   <varray name="basis" >
    <v>       4.35459220       0.00000000       0.00000000 </v>
    <v>       2.17729610       3.77118746      -0.00000000 </v>
    <v>       2.17729610       1.25706249       3.55550964 </v>
   </varray>
   <i name="volume">     58.38852064 </i>
   <varray name="rec_basis" >
    <v>       0.22964263      -0.13258423      -0.09375121 </v>
    <v>       0.00000000       0.26516847      -0.09375121 </v>
    <v>      -0.00000000       0.00000000       0.28125363 </v>
   </varray>
  </crystal>
  <varray name="positions" >
   <v>       0.00000000       0.00000000       0.00000000 </v>
  </varray>
 </structure>
 <varray name="primitive_index" >
  <v type="int" >        1 </v>
 </varray>
 <kpoints>
  <generation param="Gamma">
   <v type="int" name="divisions">       9        9        9 </v>
   <v name="usershift">      0.00000000       0.00000000       0.00000000 </v>
   <v name="genvec1">      0.11111111       0.00000000      -0.00000000 </v>
   <v name="genvec2">      0.00000000       0.11111111       0.00000000 </v>
   <v name="genvec3">      0.00000000      -0.00000000       0.11111111 </v>
   <v name="shift">      0.00000000       0.00000000       0.00000000 </v>
  </generation>
  <varray name="kpointlist" >
   <v>       0.00000000       0.00000000       0.00000000 </v>
   <v>       0.11111111       0.00000000      -0.00000000 </v>
   <v>       0.22222222      -0.00000000      -0.00000000 </v>
   <v>       0.33333333       0.00000000      -0.00000000 </v>
   <v>       0.44444444      -0.00000000      -0.00000000 </v>
   <v>       0.00000000       0.11111111       0.00000000 </v>
   <v>       0.11111111       0.11111111       0.00000000 </v>
   <v>       0.22222222       0.11111111      -0.00000000 </v>
   <v>       0.33333333       0.11111111      -0.00000000 </v>
   <v>       0.44444444       0.11111111      -0.00000000 </v>
   <v>      -0.44444444       0.11111111       0.00000000 </v>
   <v>      -0.33333333       0.11111111       0.00000000 </v>
   <v>      -0.22222222       0.11111111       0.00000000 </v>
   <v>      -0.11111111       0.11111111       0.00000000 </v>
   <v>       0.00000000       0.22222222       0.00000000 </v>
   <v>       0.11111111       0.22222222       0.00000000 </v>
   <v>       0.22222222       0.22222222       0.00000000 </v>
   <v>       0.33333333       0.22222222       0.00000000 </v>
   <v>       0.44444444       0.22222222      -0.00000000 </v>
   <v>      -0.44444444       0.22222222       0.00000000 </v>
   <v>      -0.33333333       0.22222222       0.00000000 </v>
   <v>      -0.22222222       0.22222222       0.00000000 </v>
   <v>      -0.11111111       0.22222222       0.00000000 </v>
   <v>      -0.00000000       0.33333333       0.00000000 </v>
   <v>       0.11111111       0.33333333       0.00000000 </v>
   <v>       0.22222222       0.33333333       0.00000000 </v>
   <v>       0.33333333       0.33333333       0.00000000 </v>
   <v>       0.44444444       0.33333333       0.00000000 </v>
   <v>      -0.44444444       0.33333333       0.00000000 </v>
   <v>      -0.33333333       0.33333333       0.00000000 </v>
   <v>      -0.22222222       0.33333333       0.00000000 </v>
   <v>      -0.11111111       0.33333333       0.00000000 </v>
   <v>       0.00000000       0.44444444       0.00000000 </v>
   <v>       0.11111111       0.44444444       0.00000000 </v>
   <v>       0.22222222       0.44444444       0.00000000 </v>
   <v>       0.33333333       0.44444444       0.00000000 </v>
   <v>       0.44444444       0.44444444       0.00000000 </v>
   <v>      -0.44444444       0.44444444       0.00000000 </v>
   <v>      -0.33333333       0.44444444       0.00000000 </v>
   <v>      -0.22222222       0.44444444       0.00000000 </v>
   <v>      -0.11111111       0.44444444       0.00000000 </v>
   <v>       0.00000000      -0.00000000       0.11111111 </v>
   <v>       0.11111111       0.00000000       0.11111111 </v>
   <v>       0.22222222      -0.00000000       0.11111111 </v>
   <v>       0.33333333       0.00000000       0.11111111 </v>
   <v>       0.44444444      -0.00000000       0.11111111 </v>
   <v>      -0.44444444       0.00000000       0.11111111 </v>
   <v>      -0.33333333      -0.00000000       0.11111111 </v>
   <v>      -0.22222222       0.00000000       0.11111111 </v>
   <v>      -0.11111111      -0.00000000       0.11111111 </v>
   <v>       0.00000000       0.11111111       0.11111111 </v>
   <v>       0.11111111       0.11111111       0.11111111 </v>
   <v>       0.22222222       0.11111111       0.11111111 </v>
   <v>       0.33333333       0.11111111       0.11111111 </v>
   <v>       0.44444444       0.11111111       0.11111111 </v>
   <v>      -0.44444444       0.11111111       0.11111111 </v>
   <v>      -0.33333333       0.11111111       0.11111111 </v>
   <v>      -0.22222222       0.11111111       0.11111111 </v>
   <v>      -0.11111111       0.11111111       0.11111111 </v>
   <v>       0.00000000       0.22222222       0.11111111 </v>
   <v>       0.11111111       0.22222222       0.11111111 </v>
   <v>       0.22222222       0.22222222       0.11111111 </v>
   <v>       0.33333333       0.22222222       0.11111111 </v>
   <v>       0.44444444       0.22222222       0.11111111 </v>
   <v>      -0.44444444       0.22222222       0.11111111 </v>
   <v>      -0.33333333       0.22222222       0.11111111 </v>
   <v>      -0.22222222       0.22222222       0.11111111 </v>
   <v>      -0.11111111       0.22222222       0.11111111 </v>
   <v>      -0.00000000       0.33333333       0.11111111 </v>
   <v>       0.11111111       0.33333333       0.11111111 </v>
   <v>       0.22222222       0.33333333       0.11111111 </v>
   <v>       0.33333333       0.33333333       0.11111111 </v>
   <v>       0.44444444       0.33333333       0.11111111 </v>
   <v>      -0.44444444       0.33333333       0.11111111 </v>
   <v>      -0.33333333       0.33333333       0.11111111 </v>
   <v>      -0.22222222       0.33333333       0.11111111 </v>
   <v>      -0.11111111       0.33333333       0.11111111 </v>
   <v>       0.00000000       0.44444444       0.11111111 </v>
   <v>       0.11111111       0.44444444       0.11111111 </v>
   <v>       0.22222222       0.44444444       0.11111111 </v>
   <v>       0.33333333       0.44444444       0.11111111 </v>
   <v>       0.44444444       0.44444444       0.11111111 </v>
   <v>      -0.44444444       0.44444444       0.11111111 </v>
   <v>      -0.33333333       0.44444444       0.11111111 </v>
   <v>      -0.22222222       0.44444444       0.11111111 </v>
   <v>      -0.11111111       0.44444444       0.11111111 </v>
   <v>       0.00000000      -0.44444444       0.11111111 </v>
   <v>       0.11111111      -0.44444444       0.11111111 </v>
   <v>       0.22222222      -0.44444444       0.11111111 </v>
   <v>       0.33333333      -0.44444444       0.11111111 </v>
   <v>       0.44444444      -0.44444444       0.11111111 </v>
   <v>      -0.44444444      -0.44444444       0.11111111 </v>
   <v>      -0.33333333      -0.44444444       0.11111111 </v>
   <v>      -0.22222222      -0.44444444       0.11111111 </v>
   <v>      -0.11111111      -0.44444444       0.11111111 </v>
   <v>       0.00000000      -0.33333333       0.11111111 </v>
   <v>       0.11111111      -0.33333333       0.11111111 </v>
   <v>       0.22222222      -0.33333333       0.11111111 </v>
   <v>       0.33333333      -0.33333333       0.11111111 </v>
   <v>       0.44444444      -0.33333333       0.11111111 </v>
   <v>      -0.44444444      -0.33333333       0.11111111 </v>
   <v>      -0.33333333      -0.33333333       0.11111111 </v>
   <v>      -0.22222222      -0.33333333       0.11111111 </v>
   <v>      -0.11111111      -0.33333333       0.11111111 </v>
   <v>       0.00000000      -0.22222222       0.11111111 </v>
   <v>       0.11111111      -0.22222222       0.11111111 </v>
   <v>       0.22222222      -0.22222222       0.11111111 </v>
   <v>       0.33333333      -0.22222222       0.11111111 </v>
   <v>       0.44444444      -0.22222222       0.11111111 </v>
   <v>      -0.44444444      -0.22222222       0.11111111 </v>
   <v>      -0.33333333      -0.22222222       0.11111111 </v>
   <v>      -0.22222222      -0.22222222       0.11111111 </v>
   <v>      -0.11111111      -0.22222222       0.11111111 </v>
   <v>      -0.00000000      -0.11111111       0.11111111 </v>
   <v>       0.11111111      -0.11111111       0.11111111 </v>
   <v>       0.22222222      -0.11111111       0.11111111 </v>
   <v>       0.33333333      -0.11111111       0.11111111 </v>
   <v>       0.44444444      -0.11111111       0.11111111 </v>
   <v>      -0.44444444      -0.11111111       0.11111111 </v>
   <v>      -0.33333333      -0.11111111       0.11111111 </v>
   <v>      -0.22222222      -0.11111111       0.11111111 </v>
   <v>      -0.11111111      -0.11111111       0.11111111 </v>
   <v>       0.00000000      -0.00000000       0.22222222 </v>
   <v>       0.11111111       0.00000000       0.22222222 </v>
   <v>       0.22222222       0.00000000       0.22222222 </v>
   <v>       0.33333333       0.00000000       0.22222222 </v>
   <v>       0.44444444      -0.00000000       0.22222222 </v>
   <v>      -0.44444444       0.00000000       0.22222222 </v>
   <v>      -0.33333333      -0.00000000       0.22222222 </v>
   <v>      -0.22222222       0.00000000       0.22222222 </v>
   <v>      -0.11111111      -0.00000000       0.22222222 </v>
   <v>       0.00000000       0.11111111       0.22222222 </v>
   <v>       0.11111111       0.11111111       0.22222222 </v>
   <v>       0.22222222       0.11111111       0.22222222 </v>
   <v>       0.33333333       0.11111111       0.22222222 </v>
   <v>       0.44444444       0.11111111       0.22222222 </v>
   <v>      -0.44444444       0.11111111       0.22222222 </v>
   <v>      -0.33333333       0.11111111       0.22222222 </v>
   <v>      -0.22222222       0.11111111       0.22222222 </v>
   <v>      -0.11111111       0.11111111       0.22222222 </v>
   <v>       0.00000000       0.22222222       0.22222222 </v>
   <v>       0.11111111       0.22222222       0.22222222 </v>
   <v>       0.22222222       0.22222222       0.22222222 </v>
   <v>       0.33333333       0.22222222       0.22222222 </v>
   <v>       0.44444444       0.22222222       0.22222222 </v>
   <v>      -0.44444444       0.22222222       0.22222222 </v>
   <v>      -0.33333333       0.22222222       0.22222222 </v>
   <v>      -0.22222222       0.22222222       0.22222222 </v>
   <v>      -0.11111111       0.22222222       0.22222222 </v>
   <v>       0.00000000       0.33333333       0.22222222 </v>
   <v>       0.11111111       0.33333333       0.22222222 </v>
   <v>       0.22222222       0.33333333       0.22222222 </v>
   <v>       0.33333333       0.33333333       0.22222222 </v>
   <v>       0.44444444       0.33333333       0.22222222 </v>
   <v>      -0.44444444       0.33333333       0.22222222 </v>
   <v>      -0.33333333       0.33333333       0.22222222 </v>
   <v>      -0.22222222       0.33333333       0.22222222 </v>
   <v>      -0.11111111       0.33333333       0.22222222 </v>
   <v>       0.00000000       0.44444444       0.22222222 </v>
   <v>       0.11111111       0.44444444       0.22222222 </v>
   <v>       0.22222222       0.44444444       0.22222222 </v>
   <v>       0.33333333       0.44444444       0.22222222 </v>
   <v>       0.44444444       0.44444444       0.22222222 </v>
   <v>      -0.44444444       0.44444444       0.22222222 </v>
   <v>      -0.33333333       0.44444444       0.22222222 </v>
   <v>      -0.22222222       0.44444444       0.22222222 </v>
   <v>      -0.11111111       0.44444444       0.22222222 </v>
   <v>       0.00000000      -0.44444444       0.22222222 </v>
   <v>       0.11111111      -0.44444444       0.22222222 </v>
   <v>       0.22222222      -0.44444444       0.22222222 </v>
   <v>       0.33333333      -0.44444444       0.22222222 </v>
   <v>       0.44444444      -0.44444444       0.22222222 </v>
   <v>      -0.44444444      -0.44444444       0.22222222 </v>
   <v>      -0.33333333      -0.44444444       0.22222222 </v>
   <v>      -0.22222222      -0.44444444       0.22222222 </v>
   <v>      -0.11111111      -0.44444444       0.22222222 </v>
   <v>       0.00000000      -0.33333333       0.22222222 </v>
   <v>       0.11111111      -0.33333333       0.22222222 </v>
   <v>       0.22222222      -0.33333333       0.22222222 </v>
   <v>       0.33333333      -0.33333333       0.22222222 </v>
   <v>       0.44444444      -0.33333333       0.22222222 </v>
   <v>      -0.44444444      -0.33333333       0.22222222 </v>
   <v>      -0.33333333      -0.33333333       0.22222222 </v>
   <v>      -0.22222222      -0.33333333       0.22222222 </v>
   <v>      -0.11111111      -0.33333333       0.22222222 </v>
   <v>       0.00000000      -0.22222222       0.22222222 </v>
   <v>       0.11111111      -0.22222222       0.22222222 </v>
   <v>       0.22222222      -0.22222222       0.22222222 </v>
   <v>       0.33333333      -0.22222222       0.22222222 </v>
   <v>       0.44444444      -0.22222222       0.22222222 </v>
   <v>      -0.44444444      -0.22222222       0.22222222 </v>
   <v>      -0.33333333      -0.22222222       0.22222222 </v>
   <v>      -0.22222222      -0.22222222       0.22222222 </v>
   <v>      -0.11111111      -0.22222222       0.22222222 </v>
   <v>       0.00000000      -0.11111111       0.22222222 </v>
   <v>       0.11111111      -0.11111111       0.22222222 </v>
   <v>       0.22222222      -0.11111111       0.22222222 </v>
   <v>       0.33333333      -0.11111111       0.22222222 </v>
   <v>       0.44444444      -0.11111111       0.22222222 </v>
   <v>      -0.44444444      -0.11111111       0.22222222 </v>
   <v>      -0.33333333      -0.11111111       0.22222222 </v>
   <v>      -0.22222222      -0.11111111       0.22222222 </v>
   <v>      -0.11111111      -0.11111111       0.22222222 </v>
   <v>      -0.00000000      -0.00000000       0.33333333 </v>
   <v>       0.11111111       0.00000000       0.33333333 </v>
   <v>       0.22222222       0.00000000       0.33333333 </v>
   <v>       0.33333333       0.00000000       0.33333333 </v>
   <v>       0.44444444       0.00000000       0.33333333 </v>
   <v>      -0.44444444       0.00000000       0.33333333 </v>
   <v>      -0.33333333       0.00000000       0.33333333 </v>
   <v>      -0.22222222       0.00000000       0.33333333 </v>
   <v>      -0.11111111      -0.00000000       0.33333333 </v>
   <v>       0.00000000       0.11111111       0.33333333 </v>
   <v>       0.11111111       0.11111111       0.33333333 </v>
   <v>       0.22222222       0.11111111       0.33333333 </v>
   <v>       0.33333333       0.11111111       0.33333333 </v>
   <v>       0.44444444       0.11111111       0.33333333 </v>
   <v>      -0.44444444       0.11111111       0.33333333 </v>
   <v>      -0.33333333       0.11111111       0.33333333 </v>
   <v>      -0.22222222       0.11111111       0.33333333 </v>
   <v>      -0.11111111       0.11111111       0.33333333 </v>
   <v>      -0.00000000       0.22222222       0.33333333 </v>
   <v>       0.11111111       0.22222222       0.33333333 </v>
   <v>       0.22222222       0.22222222       0.33333333 </v>
   <v>       0.33333333       0.22222222       0.33333333 </v>
   <v>       0.44444444       0.22222222       0.33333333 </v>
   <v>      -0.44444444       0.22222222       0.33333333 </v>
   <v>      -0.33333333       0.22222222       0.33333333 </v>
   <v>      -0.22222222       0.22222222       0.33333333 </v>
   <v>      -0.11111111       0.22222222       0.33333333 </v>
   <v>      -0.00000000       0.33333333       0.33333333 </v>
   <v>       0.11111111       0.33333333       0.33333333 </v>
   <v>       0.22222222       0.33333333       0.33333333 </v>
   <v>       0.33333333       0.33333333       0.33333333 </v>
   <v>       0.44444444       0.33333333       0.33333333 </v>
   <v>      -0.44444444       0.33333333       0.33333333 </v>
   <v>      -0.33333333       0.33333333       0.33333333 </v>
   <v>      -0.22222222       0.33333333       0.33333333 </v>
   <v>      -0.11111111       0.33333333       0.33333333 </v>
   <v>      -0.00000000       0.44444444       0.33333333 </v>
   <v>       0.11111111       0.44444444       0.33333333 </v>
   <v>       0.22222222       0.44444444       0.33333333 </v>
   <v>       0.33333333       0.44444444       0.33333333 </v>
   <v>       0.44444444       0.44444444       0.33333333 </v>
   <v>      -0.44444444       0.44444444       0.33333333 </v>
   <v>      -0.33333333       0.44444444       0.33333333 </v>
   <v>      -0.22222222       0.44444444       0.33333333 </v>
   <v>      -0.11111111       0.44444444       0.33333333 </v>
   <v>       0.00000000      -0.44444444       0.33333333 </v>
   <v>       0.11111111      -0.44444444       0.33333333 </v>
   <v>       0.22222222      -0.44444444       0.33333333 </v>
   <v>       0.33333333      -0.44444444       0.33333333 </v>
   <v>       0.44444444      -0.44444444       0.33333333 </v>
   <v>      -0.44444444      -0.44444444       0.33333333 </v>
   <v>      -0.33333333      -0.44444444       0.33333333 </v>
   <v>      -0.22222222      -0.44444444       0.33333333 </v>
   <v>      -0.11111111      -0.44444444       0.33333333 </v>
   <v>       0.00000000      -0.33333333       0.33333333 </v>
   <v>       0.11111111      -0.33333333       0.33333333 </v>
   <v>       0.22222222      -0.33333333       0.33333333 </v>
   <v>       0.33333333      -0.33333333       0.33333333 </v>
   <v>       0.44444444      -0.33333333       0.33333333 </v>
   <v>      -0.44444444      -0.33333333       0.33333333 </v>
   <v>      -0.33333333      -0.33333333       0.33333333 </v>
   <v>      -0.22222222      -0.33333333       0.33333333 </v>
   <v>      -0.11111111      -0.33333333       0.33333333 </v>
   <v>      -0.00000000      -0.22222222       0.33333333 </v>
   <v>       0.11111111      -0.22222222       0.33333333 </v>
   <v>       0.22222222      -0.22222222       0.33333333 </v>
   <v>       0.33333333      -0.22222222       0.33333333 </v>
   <v>       0.44444444      -0.22222222       0.33333333 </v>
   <v>      -0.44444444      -0.22222222       0.33333333 </v>
   <v>      -0.33333333      -0.22222222       0.33333333 </v>
   <v>      -0.22222222      -0.22222222       0.33333333 </v>
   <v>      -0.11111111      -0.22222222       0.33333333 </v>
   <v>       0.00000000      -0.11111111       0.33333333 </v>
   <v>       0.11111111      -0.11111111       0.33333333 </v>
   <v>       0.22222222      -0.11111111       0.33333333 </v>
   <v>       0.33333333      -0.11111111       0.33333333 </v>
   <v>       0.44444444      -0.11111111       0.33333333 </v>
   <v>      -0.44444444      -0.11111111       0.33333333 </v>
   <v>      -0.33333333      -0.11111111       0.33333333 </v>
   <v>      -0.22222222      -0.11111111       0.33333333 </v>
   <v>      -0.11111111      -0.11111111       0.33333333 </v>
   <v>       0.00000000      -0.00000000       0.44444444 </v>
   <v>       0.11111111       0.00000000       0.44444444 </v>
   <v>       0.22222222       0.00000000       0.44444444 </v>
   <v>       0.33333333       0.00000000       0.44444444 </v>
   <v>       0.44444444       0.00000000       0.44444444 </v>
   <v>      -0.44444444       0.00000000       0.44444444 </v>
   <v>      -0.33333333       0.00000000       0.44444444 </v>
   <v>      -0.22222222      -0.00000000       0.44444444 </v>
   <v>      -0.11111111      -0.00000000       0.44444444 </v>
   <v>       0.00000000       0.11111111       0.44444444 </v>
   <v>       0.11111111       0.11111111       0.44444444 </v>
   <v>       0.22222222       0.11111111       0.44444444 </v>
   <v>       0.33333333       0.11111111       0.44444444 </v>
   <v>       0.44444444       0.11111111       0.44444444 </v>
   <v>      -0.44444444       0.11111111       0.44444444 </v>
   <v>      -0.33333333       0.11111111       0.44444444 </v>
   <v>      -0.22222222       0.11111111       0.44444444 </v>
   <v>      -0.11111111       0.11111111       0.44444444 </v>
   <v>       0.00000000       0.22222222       0.44444444 </v>
   <v>       0.11111111       0.22222222       0.44444444 </v>
   <v>       0.22222222       0.22222222       0.44444444 </v>
   <v>       0.33333333       0.22222222       0.44444444 </v>
   <v>       0.44444444       0.22222222       0.44444444 </v>
   <v>      -0.44444444       0.22222222       0.44444444 </v>
   <v>      -0.33333333       0.22222222       0.44444444 </v>
   <v>      -0.22222222       0.22222222       0.44444444 </v>
   <v>      -0.11111111       0.22222222       0.44444444 </v>
   <v>       0.00000000       0.33333333       0.44444444 </v>
   <v>       0.11111111       0.33333333       0.44444444 </v>
   <v>       0.22222222       0.33333333       0.44444444 </v>
   <v>       0.33333333       0.33333333       0.44444444 </v>
   <v>       0.44444444       0.33333333       0.44444444 </v>
   <v>      -0.44444444       0.33333333       0.44444444 </v>
   <v>      -0.33333333       0.33333333       0.44444444 </v>
   <v>      -0.22222222       0.33333333       0.44444444 </v>
   <v>      -0.11111111       0.33333333       0.44444444 </v>
   <v>       0.00000000       0.44444444       0.44444444 </v>
   <v>       0.11111111       0.44444444       0.44444444 </v>
   <v>       0.22222222       0.44444444       0.44444444 </v>
   <v>       0.33333333       0.44444444       0.44444444 </v>
   <v>       0.44444444       0.44444444       0.44444444 </v>
   <v>      -0.44444444       0.44444444       0.44444444 </v>
   <v>      -0.33333333       0.44444444       0.44444444 </v>
   <v>      -0.22222222       0.44444444       0.44444444 </v>
   <v>      -0.11111111       0.44444444       0.44444444 </v>
   <v>       0.00000000      -0.44444444       0.44444444 </v>
   <v>       0.11111111      -0.44444444       0.44444444 </v>
   <v>       0.22222222      -0.44444444       0.44444444 </v>
   <v>       0.33333333      -0.44444444       0.44444444 </v>
   <v>       0.44444444      -0.44444444       0.44444444 </v>
   <v>      -0.44444444      -0.44444444       0.44444444 </v>
   <v>      -0.33333333      -0.44444444       0.44444444 </v>
   <v>      -0.22222222      -0.44444444       0.44444444 </v>
   <v>      -0.11111111      -0.44444444       0.44444444 </v>
   <v>       0.00000000      -0.33333333       0.44444444 </v>
   <v>       0.11111111      -0.33333333       0.44444444 </v>
   <v>       0.22222222      -0.33333333       0.44444444 </v>
   <v>       0.33333333      -0.33333333       0.44444444 </v>
   <v>       0.44444444      -0.33333333       0.44444444 </v>
   <v>      -0.44444444      -0.33333333       0.44444444 </v>
   <v>      -0.33333333      -0.33333333       0.44444444 </v>
   <v>      -0.22222222      -0.33333333       0.44444444 </v>
   <v>      -0.11111111      -0.33333333       0.44444444 </v>
   <v>       0.00000000      -0.22222222       0.44444444 </v>
   <v>       0.11111111      -0.22222222       0.44444444 </v>
   <v>       0.22222222      -0.22222222       0.44444444 </v>
   <v>       0.33333333      -0.22222222       0.44444444 </v>
   <v>       0.44444444      -0.22222222       0.44444444 </v>
   <v>      -0.44444444      -0.22222222       0.44444444 </v>
   <v>      -0.33333333      -0.22222222       0.44444444 </v>
   <v>      -0.22222222      -0.22222222       0.44444444 </v>
   <v>      -0.11111111      -0.22222222       0.44444444 </v>
   <v>       0.00000000      -0.11111111       0.44444444 </v>
   <v>       0.11111111      -0.11111111       0.44444444 </v>
   <v>       0.22222222      -0.11111111       0.44444444 </v>
   <v>       0.33333333      -0.11111111       0.44444444 </v>
   <v>       0.44444444      -0.11111111       0.44444444 </v>
   <v>      -0.44444444      -0.11111111       0.44444444 </v>
   <v>      -0.33333333      -0.11111111       0.44444444 </v>
   <v>      -0.22222222      -0.11111111       0.44444444 </v>
   <v>      -0.11111111      -0.11111111       0.44444444 </v>
  </varray>
  <varray name="weights" >
   <v>       0.00137174 </v>
   <v>       0.00274348 </v>
   <v>       0.00274348 </v>
   <v>       0.00274348 </v>
   <v>       0.00274348 </v>
   <v>       0.00274348 </v>
   <v>       0.00274348 </v>
   <v>       0.00274348 </v>
   <v>       0.00274348 </v>
   <v>       0.00274348 </v>
   <v>       0.00274348 </v>
   <v>       0.00274348 </v>
   <v>       0.00274348 </v>
   <v>       0.00274348 </v>
   <v>       0.00274348 </v>
   <v>       0.00274348 </v>
   <v>       0.00274348 </v>
   <v>       0.00274348 </v>
   <v>       0.00274348 </v>
   <v>       0.00274348 </v>
   <v>       0.00274348 </v>
   <v>       0.00274348 </v>
   <v>       0.00274348 </v>
   <v>       0.00274348 </v>
   <v>       0.00274348 </v>
   <v>       0.00274348 </v>
   <v>       0.00274348 </v>
   <v>       0.00274348 </v>
   <v>       0.00274348 </v>
   <v>       0.00274348 </v>
   <v>       0.00274348 </v>
   <v>       0.00274348 </v>
   <v>       0.00274348 </v>
   <v>       0.00274348 </v>
   <v>       0.00274348 </v>
   <v>       0.00274348 </v>
   <v>       0.00274348 </v>
   <v>       0.00274348 </v>
   <v>       0.00274348 </v>
   <v>       0.00274348 </v>
   <v>       0.00274348 </v>
   <v>       0.00274348 </v>
   <v>       0.00274348 </v>
   <v>       0.00274348 </v>
   <v>       0.00274348 </v>
   <v>       0.00274348 </v>
   <v>       0.00274348 </v>
   <v>       0.00274348 </v>
   <v>       0.00274348 </v>
   <v>       0.00274348 </v>
   <v>       0.00274348 </v>
   <v>       0.00274348 </v>
   <v>       0.00274348 </v>
   <v>       0.00274348 </v>
   <v>       0.00274348 </v>
   <v>       0.00274348 </v>
   <v>       0.00274348 </v>
   <v>       0.00274348 </v>
   <v>       0.00274348 </v>
   <v>       0.00274348 </v>
   <v>       0.00274348 </v>
   <v>       0.00274348 </v>
   <v>       0.00274348 </v>
   <v>       0.00274348 </v>
   <v>       0.00274348 </v>
   <v>       0.00274348 </v>
   <v>       0.00274348 </v>
   <v>       0.00274348 </v>
   <v>       0.00274348 </v>
   <v>       0.00274348 </v>
   <v>       0.00274348 </v>
   <v>       0.00274348 </v>
   <v>       0.00274348 </v>
   <v>       0.00274348 </v>
   <v>       0.00274348 </v>
   <v>       0.00274348 </v>
   <v>       0.00274348 </v>
   <v>       0.00274348 </v>
   <v>       0.00274348 </v>
   <v>       0.00274348 </v>
   <v>       0.00274348 </v>
   <v>       0.00274348 </v>
   <v>       0.00274348 </v>
   <v>       0.00274348 </v>
   <v>       0.00274348 </v>
   <v>       0.00274348 </v>
   <v>       0.00274348 </v>
   <v>       0.00274348 </v>
   <v>       0.00274348 </v>
   <v>       0.00274348 </v>
   <v>       0.00274348 </v>
   <v>       0.00274348 </v>
   <v>       0.00274348 </v>
   <v>       0.00274348 </v>
   <v>       0.00274348 </v>
   <v>       0.00274348 </v>
   <v>       0.00274348 </v>
   <v>       0.00274348 </v>
   <v>       0.00274348 </v>
   <v>       0.00274348 </v>
   <v>       0.00274348 </v>
   <v>       0.00274348 </v>
   <v>       0.00274348 </v>
   <v>       0.00274348 </v>
   <v>       0.00274348 </v>
   <v>       0.00274348 </v>
   <v>       0.00274348 </v>
   <v>       0.00274348 </v>
   <v>       0.00274348 </v>
   <v>       0.00274348 </v>
   <v>       0.00274348 </v>
   <v>       0.00274348 </v>
   <v>       0.00274348 </v>
   <v>       0.00274348 </v>
   <v>       0.00274348 </v>
   <v>       0.00274348 </v>
   <v>       0.00274348 </v>
   <v>       0.00274348 </v>
   <v>       0.00274348 </v>
   <v>       0.00274348 </v>
   <v>       0.00274348 </v>
   <v>       0.00274348 </v>
   <v>       0.00274348 </v>
   <v>       0.00274348 </v>
   <v>       0.00274348 </v>
   <v>       0.00274348 </v>
   <v>       0.00274348 </v>
   <v>       0.00274348 </v>
   <v>       0.00274348 </v>
   <v>       0.00274348 </v>
   <v>       0.00274348 </v>
   <v>       0.00274348 </v>
   <v>       0.00274348 </v>
   <v>       0.00274348 </v>
   <v>       0.00274348 </v>
   <v>       0.00274348 </v>
   <v>       0.00274348 </v>
   <v>       0.00274348 </v>
   <v>       0.00274348 </v>
   <v>       0.00274348 </v>
   <v>       0.00274348 </v>
   <v>       0.00274348 </v>
   <v>       0.00274348 </v>
   <v>       0.00274348 </v>
   <v>       0.00274348 </v>
   <v>       0.00274348 </v>
   <v>       0.00274348 </v>
   <v>       0.00274348 </v>
   <v>       0.00274348 </v>
   <v>       0.00274348 </v>
   <v>       0.00274348 </v>
   <v>       0.00274348 </v>
   <v>       0.00274348 </v>
   <v>       0.00274348 </v>
   <v>       0.00274348 </v>
   <v>       0.00274348 </v>
   <v>       0.00274348 </v>
   <v>       0.00274348 </v>
   <v>       0.00274348 </v>
   <v>       0.00274348 </v>
   <v>       0.00274348 </v>
   <v>       0.00274348 </v>
   <v>       0.00274348 </v>
   <v>       0.00274348 </v>
   <v>       0.00274348 </v>
   <v>       0.00274348 </v>
   <v>       0.00274348 </v>
   <v>       0.00274348 </v>
   <v>       0.00274348 </v>
   <v>       0.00274348 </v>
   <v>       0.00274348 </v>
   <v>       0.00274348 </v>
   <v>       0.00274348 </v>
   <v>       0.00274348 </v>
   <v>       0.00274348 </v>
   <v>       0.00274348 </v>
   <v>       0.00274348 </v>
   <v>       0.00274348 </v>
   <v>       0.00274348 </v>
   <v>       0.00274348 </v>
   <v>       0.00274348 </v>
   <v>       0.00274348 </v>
   <v>       0.00274348 </v>
   <v>       0.00274348 </v>
   <v>       0.00274348 </v>
   <v>       0.00274348 </v>
   <v>       0.00274348 </v>
   <v>       0.00274348 </v>
   <v>       0.00274348 </v>
   <v>       0.00274348 </v>
   <v>       0.00274348 </v>
   <v>       0.00274348 </v>
   <v>       0.00274348 </v>
   <v>       0.00274348 </v>
   <v>       0.00274348 </v>
   <v>       0.00274348 </v>
   <v>       0.00274348 </v>
   <v>       0.00274348 </v>
   <v>       0.00274348 </v>
   <v>       0.00274348 </v>
   <v>       0.00274348 </v>
   <v>       0.00274348 </v>
   <v>       0.00274348 </v>
   <v>       0.00274348 </v>
   <v>       0.00274348 </v>
   <v>       0.00274348 </v>
   <v>       0.00274348 </v>
   <v>       0.00274348 </v>
   <v>       0.00274348 </v>
   <v>       0.00274348 </v>
   <v>       0.00274348 </v>
   <v>       0.00274348 </v>
   <v>       0.00274348 </v>
   <v>       0.00274348 </v>
   <v>       0.00274348 </v>
   <v>       0.00274348 </v>
   <v>       0.00274348 </v>
   <v>       0.00274348 </v>
   <v>       0.00274348 </v>
   <v>       0.00274348 </v>
   <v>       0.00274348 </v>
   <v>       0.00274348 </v>
   <v>       0.00274348 </v>
   <v>       0.00274348 </v>
   <v>       0.00274348 </v>
   <v>       0.00274348 </v>
   <v>       0.00274348 </v>
   <v>       0.00274348 </v>
   <v>       0.00274348 </v>
   <v>       0.00274348 </v>
   <v>       0.00274348 </v>
   <v>       0.00274348 </v>
   <v>       0.00274348 </v>
   <v>       0.00274348 </v>
   <v>       0.00274348 </v>
   <v>       0.00274348 </v>
   <v>       0.00274348 </v>
   <v>       0.00274348 </v>
   <v>       0.00274348 </v>
   <v>       0.00274348 </v>
   <v>       0.00274348 </v>
   <v>       0.00274348 </v>
   <v>       0.00274348 </v>
   <v>       0.00274348 </v>
   <v>       0.00274348 </v>
   <v>       0.00274348 </v>
   <v>       0.00274348 </v>
   <v>       0.00274348 </v>
   <v>       0.00274348 </v>
   <v>       0.00274348 </v>
   <v>       0.00274348 </v>
   <v>       0.00274348 </v>
   <v>       0.00274348 </v>
   <v>       0.00274348 </v>
   <v>       0.00274348 </v>
   <v>       0.00274348 </v>
   <v>       0.00274348 </v>
   <v>       0.00274348 </v>
   <v>       0.00274348 </v>
   <v>       0.00274348 </v>
   <v>       0.00274348 </v>
   <v>       0.00274348 </v>
   <v>       0.00274348 </v>
   <v>       0.00274348 </v>
   <v>       0.00274348 </v>
   <v>       0.00274348 </v>
   <v>       0.00274348 </v>
   <v>       0.00274348 </v>
   <v>       0.00274348 </v>
   <v>       0.00274348 </v>
   <v>       0.00274348 </v>
   <v>       0.00274348 </v>
   <v>       0.00274348 </v>
   <v>       0.00274348 </v>
   <v>       0.00274348 </v>
   <v>       0.00274348 </v>
   <v>       0.00274348 </v>
   <v>       0.00274348 </v>
   <v>       0.00274348 </v>
   <v>       0.00274348 </v>
   <v>       0.00274348 </v>
   <v>       0.00274348 </v>
   <v>       0.00274348 </v>
   <v>       0.00274348 </v>
   <v>       0.00274348 </v>
   <v>       0.00274348 </v>
   <v>       0.00274348 </v>
   <v>       0.00274348 </v>
   <v>       0.00274348 </v>
   <v>       0.00274348 </v>
   <v>       0.00274348 </v>
   <v>       0.00274348 </v>
   <v>       0.00274348 </v>
   <v>       0.00274348 </v>
   <v>       0.00274348 </v>
   <v>       0.00274348 </v>
   <v>       0.00274348 </v>
   <v>       0.00274348 </v>
   <v>       0.00274348 </v>
   <v>       0.00274348 </v>
   <v>       0.00274348 </v>
   <v>       0.00274348 </v>
   <v>       0.00274348 </v>
   <v>       0.00274348 </v>
   <v>       0.00274348 </v>
   <v>       0.00274348 </v>
   <v>       0.00274348 </v>
   <v>       0.00274348 </v>
   <v>       0.00274348 </v>
   <v>       0.00274348 </v>
   <v>       0.00274348 </v>
   <v>       0.00274348 </v>
   <v>       0.00274348 </v>
   <v>       0.00274348 </v>
   <v>       0.00274348 </v>
   <v>       0.00274348 </v>
   <v>       0.00274348 </v>
   <v>       0.00274348 </v>
   <v>       0.00274348 </v>
   <v>       0.00274348 </v>
   <v>       0.00274348 </v>
   <v>       0.00274348 </v>
   <v>       0.00274348 </v>
   <v>       0.00274348 </v>
   <v>       0.00274348 </v>
   <v>       0.00274348 </v>
   <v>       0.00274348 </v>
   <v>       0.00274348 </v>
   <v>       0.00274348 </v>
   <v>       0.00274348 </v>
   <v>       0.00274348 </v>
   <v>       0.00274348 </v>
   <v>       0.00274348 </v>
   <v>       0.00274348 </v>
   <v>       0.00274348 </v>
   <v>       0.00274348 </v>
   <v>       0.00274348 </v>
   <v>       0.00274348 </v>
   <v>       0.00274348 </v>
   <v>       0.00274348 </v>
   <v>       0.00274348 </v>
   <v>       0.00274348 </v>
   <v>       0.00274348 </v>
   <v>       0.00274348 </v>
   <v>       0.00274348 </v>
   <v>       0.00274348 </v>
   <v>       0.00274348 </v>
   <v>       0.00274348 </v>
   <v>       0.00274348 </v>
   <v>       0.00274348 </v>
   <v>       0.00274348 </v>
   <v>       0.00274348 </v>
   <v>       0.00274348 </v>
   <v>       0.00274348 </v>
   <v>       0.00274348 </v>
   <v>       0.00274348 </v>
   <v>       0.00274348 </v>
   <v>       0.00274348 </v>
   <v>       0.00274348 </v>
   <v>       0.00274348 </v>
   <v>       0.00274348 </v>
   <v>       0.00274348 </v>
   <v>       0.00274348 </v>
   <v>       0.00274348 </v>
   <v>       0.00274348 </v>
  </varray>
 </kpoints>
 <parameters>
  <separator name="general" >
   <i type="string" name="SYSTEM">Og_FCC</i>
   <i type="logical" name="LCOMPAT"> F  </i>
  </separator>
  <separator name="electronic" >
   <i type="string" name="PREC">accura</i>
   <i name="ENMAX">    600.00000000</i>
   <i name="ENAUG">    361.02500000</i>
   <i name="EDIFF">      0.00000001</i>
   <i type="int" name="IALGO">    68</i>
   <i type="int" name="IWAVPR">    11</i>
   <i type="int" name="NBANDS">    32</i>
   <i name="NELECT">     18.00000000</i>
   <i type="int" name="TURBO">     0</i>
   <i type="int" name="IRESTART">     0</i>
   <i type="int" name="NREBOOT">     0</i>
   <i type="int" name="NMIN">     0</i>
   <i name="EREF">      0.00000000</i>
   <separator name="electronic smearing" >
    <i type="int" name="ISMEAR">     1</i>
    <i name="SIGMA">      0.10000000</i>
    <i name="KSPACING">      0.20000000</i>
    <i type="logical" name="KGAMMA"> T  </i>
   </separator>
   <separator name="electronic projectors" >
    <i type="logical" name="LREAL"> F  </i>
    <v name="ROPT">      0.00000000</v>
    <i type="int" name="LMAXPAW">  -100</i>
    <i type="int" name="LMAXMIX">     2</i>
    <i type="logical" name="NLSPLINE"> F  </i>
   </separator>
   <separator name="electronic startup" >
    <i type="int" name="ISTART">     0</i>
    <i type="int" name="ICHARG">     2</i>
    <i type="int" name="INIWAV">     1</i>
   </separator>
   <separator name="electronic spin" >
    <i type="int" name="ISPIN">     1</i>
    <i type="logical" name="LNONCOLLINEAR"> T  </i>
    <v name="MAGMOM">      1.00000000      1.00000000      1.00000000</v>
    <i name="NUPDOWN">     -1.00000000</i>
    <i type="logical" name="LSORBIT"> T  </i>
    <v name="SAXIS">      0.00000000      0.00000000      1.00000000</v>
    <i type="logical" name="LSPIRAL"> F  </i>
    <v name="QSPIRAL">      0.00000000      0.00000000      0.00000000</v>
    <i type="logical" name="LZEROZ"> F  </i>
   </separator>
   <separator name="electronic exchange-correlation" >
    <i type="logical" name="LASPH"> F  </i>
    <i type="logical" name="LMETAGGA"> F  </i>
   </separator>
   <separator name="electronic convergence" >
    <i type="int" name="NELM">   100</i>
    <i type="int" name="NELMDL">    -5</i>
    <i type="int" name="NELMIN">     5</i>
    <i name="ENINI">    600.00000000</i>
    <separator name="electronic convergence detail" >
     <i type="logical" name="LDIAG"> T  </i>
     <i type="logical" name="LSUBROT"> F  </i>
     <i name="WEIMIN">      0.00100000</i>
     <i name="EBREAK">      0.00000000</i>
     <i name="DEPER">      0.30000000</i>
     <i type="int" name="NRMM">     4</i>
     <i name="TIME">      0.40000000</i>
    </separator>
   </separator>
   <separator name="electronic mixer" >
    <i name="AMIX">      0.40000000</i>
    <i name="BMIX">      1.00000000</i>
    <i name="AMIN">      0.10000000</i>
    <i name="AMIX_MAG">      1.60000000</i>
    <i name="BMIX_MAG">      1.00000000</i>
    <separator name="electronic mixer details" >
     <i type="int" name="IMIX">     4</i>
     <i type="logical" name="MIXFIRST"> F  </i>
     <i type="int" name="MAXMIX">    50</i>
     <i name="WC">    100.00000000</i>
     <i type="int" name="INIMIX">     1</i>
     <i type="int" name="MIXPRE">     1</i>
     <i type="int" name="MREMOVE">     5</i>
    </separator>
   </separator>
   <separator name="electronic dipolcorrection" >
    <i type="logical" name="LDIPOL"> F  </i>
    <i type="logical" name="LMONO"> F  </i>
    <i type="int" name="IDIPOL">     0</i>
    <i name="EPSILON">      1.00000000</i>
    <v name="DIPOL">   -100.00000000   -100.00000000   -100.00000000</v>
    <i name="EFIELD">      0.00000000</i>
   </separator>
  </separator>
  <separator name="grids" >
   <i type="int" name="NGX">    36</i>
   <i type="int" name="NGY">    36</i>
   <i type="int" name="NGZ">    36</i>
   <i type="int" name="NGXF">    72</i>
   <i type="int" name="NGYF">    72</i>
   <i type="int" name="NGZF">    72</i>
   <i type="logical" name="ADDGRID"> T  </i>
  </separator>
  <separator name="ionic" >
   <i type="int" name="NSW">    49</i>
   <i type="int" name="IBRION">     6</i>
   <i type="int" name="MDALGO">     0</i>
   <i type="int" name="ISIF">     3</i>
   <i name="PSTRESS">      0.00000000</i>
   <i name="EDIFFG">      0.00001000</i>
   <i type="int" name="NFREE">     2</i>
   <i name="POTIM">      0.02000000</i>
   <i name="SMASS">     -3.00000000</i>
   <i name="SCALEE">      1.00000000</i>
  </separator>
  <separator name="ionic md" >
   <i name="TEBEG">      0.00010000</i>
   <i name="TEEND">      0.00010000</i>
   <i type="int" name="NBLOCK">     1</i>
   <i type="int" name="KBLOCK">    49</i>
   <i type="int" name="NPACO">   256</i>
   <i name="APACO">     16.00000000</i>
  </separator>
  <separator name="symmetry" >
   <i type="int" name="ISYM">     2</i>
   <i name="SYMPREC">      0.00000010</i>
  </separator>
  <separator name="dos" >
   <i type="int" name="LORBIT">     0</i>
   <v name="RWIGS">     -1.00000000</v>
   <i type="int" name="NEDOS">   301</i>
   <i name="EMIN">     10.00000000</i>
   <i name="EMAX">    -10.00000000</i>
   <i name="EFERMI">      0.00000000</i>
  </separator>
  <separator name="writing" >
   <i type="int" name="NWRITE">     2</i>
   <i type="logical" name="LWAVE"> F  </i>
   <i type="logical" name="LDOWNSAMPLE"> F  </i>
   <i type="logical" name="LCHARG"> F  </i>
   <i type="logical" name="LPARD"> F  </i>
   <i type="logical" name="LVTOT"> F  </i>
   <i type="logical" name="LVHAR"> F  </i>
   <i type="logical" name="LELF"> F  </i>
   <i type="logical" name="LOPTICS"> F  </i>
   <v name="STM">      0.00000000      0.00000000      0.00000000      0.00000000      0.00000000      0.00000000      0.00000000</v>
  </separator>
  <separator name="performance" >
   <i type="int" name="NPAR">    32</i>
   <i type="int" name="NSIM">     4</i>
   <i type="int" name="NBLK">    -1</i>
   <i type="logical" name="LPLANE"> T  </i>
   <i type="logical" name="LSCALAPACK"> T  </i>
   <i type="logical" name="LSCAAWARE"> F  </i>
   <i type="logical" name="LSCALU"> F  </i>
   <i type="logical" name="LASYNC"> F  </i>
   <i type="logical" name="LORBITALREAL"> F  </i>
  </separator>
  <separator name="miscellaneous" >
   <i type="int" name="IDIOT">     3</i>
   <i type="int" name="ISPECIAL">     0</i>
   <i type="logical" name="LMUSIC"> F  </i>
   <v name="POMASS">      0.01000000</v>
   <v name="DARWINR">      0.00000000</v>
   <v name="DARWINV">      1.00000000</v>
   <i type="logical" name="LCORR"> T  </i>
  </separator>
  <i type="logical" name="GGA_COMPAT"> F  </i>
  <i type="logical" name="LBERRY"> F  </i>
  <i type="int" name="ICORELEVEL">     0</i>
  <i type="logical" name="LDAU"> F  </i>
  <i type="int" name="I_CONSTRAINED_M">     0</i>
  <separator name="electronic exchange-correlation" >
   <i type="string" name="GGA">PS</i>
   <i type="int" name="VOSKOWN">     0</i>
   <i type="logical" name="LHFCALC"> F  </i>
   <i type="string" name="PRECFOCK"></i>
   <i type="logical" name="LSYMGRAD"> F  </i>
   <i type="logical" name="LHFONE"> F  </i>
   <i type="logical" name="LRHFCALC"> F  </i>
   <i type="logical" name="LTHOMAS"> F  </i>
   <i type="logical" name="LMODELHF"> F  </i>
   <i name="ENCUT4O">     -1.00000000</i>
   <i type="int" name="EXXOEP">     0</i>
   <i type="int" name="FOURORBIT">     0</i>
   <i name="AEXX">      0.00000000</i>
   <i name="HFALPHA">      0.00000000</i>
   <i name="MCALPHA">      0.00000000</i>
   <i name="ALDAX">      1.00000000</i>
   <i name="AGGAX">      1.00000000</i>
   <i name="ALDAC">      1.00000000</i>
   <i name="AGGAC">      1.00000000</i>
   <i type="int" name="NKREDX">     1</i>
   <i type="int" name="NKREDY">     1</i>
   <i type="int" name="NKREDZ">     1</i>
   <i type="logical" name="SHIFTRED"> F  </i>
   <i type="logical" name="ODDONLY"> F  </i>
   <i type="logical" name="EVENONLY"> F  </i>
   <i type="int" name="LMAXFOCK">     0</i>
   <i type="int" name="NMAXFOCKAE">     0</i>
   <i type="logical" name="LFOCKAEDFT"> F  </i>
   <i name="HFSCREEN">      0.00000000</i>
   <i name="HFSCREENC">      0.00000000</i>
   <i type="int" name="NBANDSGWLOW">     0</i>
  </separator>
  <separator name="vdW DFT" >
   <i type="logical" name="LUSE_VDW"> F  </i>
   <i name="Zab_VDW">     -0.84910000</i>
   <i name="PARAM1">      0.12340000</i>
   <i name="PARAM2">      1.00000000</i>
   <i name="PARAM3">      0.00000000</i>
  </separator>
  <separator name="model GW" >
   <i type="int" name="MODEL_GW">     0</i>
   <i name="MODEL_EPS0">     35.03311238</i>
   <i name="MODEL_ALPHA">      1.00000000</i>
  </separator>
  <separator name="linear response parameters" >
   <i type="logical" name="LEPSILON"> F  </i>
   <i type="logical" name="LRPA"> F  </i>
   <i type="logical" name="LNABLA"> F  </i>
   <i type="logical" name="LVEL"> F  </i>
   <i type="int" name="KINTER">     0</i>
   <i name="CSHIFT">      0.10000000</i>
   <i name="OMEGAMAX">     -1.00000000</i>
   <i name="DEG_THRESHOLD">      0.00200000</i>
   <i name="RTIME">     -0.10000000</i>
   <i name="WPLASMAI">      0.00000000</i>
   <v name="DFIELD">      0.00000000      0.00000000      0.00000000</v>
   <v name="WPLASMA">      0.00000000      0.00000000      0.00000000      0.00000000      0.00000000      0.00000000      0.00000000      0.00000000      0.00000000</v>
  </separator>
  <separator name="orbital magnetization" >
   <i type="logical" name="NUCIND"> F  </i>
   <v name="MAGPOS">      0.00000000      0.00000000      0.00000000</v>
   <i type="logical" name="LNICSALL"> T  </i>
   <i type="logical" name="ORBITALMAG"> F  </i>
   <i type="logical" name="LMAGBLOCH"> F  </i>
   <i type="logical" name="LCHIMAG"> F  </i>
   <i type="logical" name="LGAUGE"> T  </i>
   <i type="int" name="MAGATOM">     0</i>
   <v name="MAGDIPOL">      0.00000000      0.00000000      0.00000000</v>
   <v name="AVECCONST">      0.00000000      0.00000000      0.00000000</v>
  </separator>
  <separator name="response functions" >
   <i type="logical" name="LADDER"> F  </i>
   <i type="logical" name="LRPAFORCE"> F  </i>
   <i type="logical" name="LFXC"> F  </i>
   <i type="logical" name="LHARTREE"> T  </i>
   <i type="int" name="IBSE">     0</i>
   <v type="int" name="KPOINT">    -1     0     0     0</v>
   <i type="logical" name="LTCTE"> F  </i>
   <i type="logical" name="LTETE"> F  </i>
   <i type="logical" name="LTRIPLET"> F  </i>
   <i type="logical" name="LFXCEPS"> F  </i>
   <i type="logical" name="LFXHEG"> F  </i>
   <i type="int" name="NATURALO">     2</i>
   <i type="logical" name="L2ORDER"> F  </i>
   <i type="logical" name="LMP2LT"> F  </i>
   <i type="logical" name="LUSEW"> F  </i>
   <i name="ENCUTGW">     -2.00000000</i>
   <i name="ENCUTGWSOFT">     -2.00000000</i>
   <i name="ENCUTLF">     -1.00000000</i>
   <i type="int" name="LMAXMP2">    -1</i>
   <i name="SCISSOR">      0.00000000</i>
   <i type="int" name="NOMEGA">     0</i>
   <i type="int" name="NOMEGAR">     0</i>
   <i type="int" name="NBANDSGW">    -1</i>
   <i type="int" name="NBANDSO">    -1</i>
   <i type="int" name="NBANDSV">    -1</i>
   <i type="int" name="NELM">   100</i>
   <i type="int" name="NELMHF">     1</i>
   <i type="int" name="DIM">     3</i>
   <i type="int" name="ANTIRES">     0</i>
   <i name="OMEGAMAX">    -30.00000000</i>
   <i name="OMEGAMIN">    -30.00000000</i>
   <i name="OMEGATL">   -200.00000000</i>
   <i type="int" name="OMEGAGRID">   140</i>
   <i name="CSHIFT">     -0.10000000</i>
   <i type="logical" name="SELFENERGY"> F  </i>
   <i type="logical" name="LSPECTRAL"> F  </i>
   <i type="logical" name="LSPECTRALGW"> F  </i>
   <i type="logical" name="LSINGLES"> F  </i>
   <i type="logical" name="LFERMIGW"> F  </i>
   <i type="logical" name="ODDONLYGW"> F  </i>
   <i type="logical" name="EVENONLYGW"> F  </i>
   <i type="int" name="NKREDLFX">     1</i>
   <i type="int" name="NKREDLFY">     1</i>
   <i type="int" name="NKREDLFZ">     1</i>
   <i type="int" name="MAXMEM">  2800</i>
   <i type="int" name="TELESCOPE">     0</i>
   <i type="int" name="TAUPAR">     1</i>
   <i type="int" name="OMEGAPAR">    -1</i>
   <i name="LAMBDA">      1.00000000</i>
  </separator>
  <separator name="External order field" >
   <i name="OFIELD_KAPPA">      0.00000000</i>
   <v name="OFIELD_K">      0.00000000      0.00000000      0.00000000</v>
   <i name="OFIELD_Q6_NEAR">      0.00000000</i>
   <i name="OFIELD_Q6_FAR">      0.00000000</i>
   <i name="OFIELD_A">      0.00000000</i>
  </separator>
 </parameters>
 <atominfo>
  <atoms>       1 </atoms>
  <types>       1 </types>
  <array name="atoms" >
   <dimension dim="1">ion</dimension>
   <field type="string">element</field>
   <field type="int">atomtype</field>
   <set>
    <rc><c>Og</c><c>   1</c></rc>
   </set>
  </array>
  <array name="atomtypes" >
   <dimension dim="1">type</dimension>
   <field type="int">atomspertype</field>
   <field type="string">element</field>
   <field>mass</field>
   <field>valence</field>
   <field type="string">pseudopotential</field>
   <set>
    <rc><c>   1</c><c>Og</c><c>      0.01000000</c><c>     18.00000000</c><c>  PAW Og, JanMewes Oct 18               </c></rc>
   </set>
  </array>
 </atominfo>
 <structure name="initialpos" >
  <crystal>
   <varray name="basis" >
    <v>       4.35459220       0.00000000       0.00000000 </v>
    <v>       2.17729610       3.77118746      -0.00000000 </v>
    <v>       2.17729610       1.25706249       3.55550964 </v>
   </varray>
   <i name="volume">     58.38852064 </i>
   <varray name="rec_basis" >
    <v>       0.22964263      -0.13258423      -0.09375121 </v>
    <v>       0.00000000       0.26516847      -0.09375121 </v>
    <v>      -0.00000000       0.00000000       0.28125363 </v>
   </varray>
  </crystal>
  <varray name="positions" >
   <v>       0.00000000       0.00000000       0.00000000 </v>
  </varray>
 </structure>
 <calculation>
  <scstep>
   <time name="dav">    9.60    9.61</time>
   <time name="total">    9.76    9.77</time>
   <energy>
    <i name="alphaZ">     65.34258032 </i>
    <i name="ewald">  -1736.74027323 </i>
    <i name="hartreedc">   -663.11394304 </i>
    <i name="XCdc">    -66.97906185 </i>
    <i name="pawpsdc">   2266.13158641 </i>
    <i name="pawaedc">  -2183.94925607 </i>
    <i name="eentropy">     -0.00005346 </i>
    <i name="bandstr">    -94.18561681 </i>
    <i name="atom">   2642.01744135 </i>
    <i name="e_fr_energy">    228.52340362 </i>
    <i name="e_wo_entrp">    228.52345708 </i>
    <i name="e_0_energy">    228.52342144 </i>
   </energy>
  </scstep>
  <scstep>
   <time name="dav">    9.58    9.58</time>
   <time name="total">    9.58    9.58</time>
   <energy>
    <i name="e_fr_energy">     -9.88131789 </i>
    <i name="e_wo_entrp">     -9.88132817 </i>
    <i name="e_0_energy">     -9.88132132 </i>
   </energy>
  </scstep>
  <scstep>
   <time name="dav">   18.31   18.31</time>
   <time name="total">   18.31   18.32</time>
   <energy>
    <i name="e_fr_energy">    -13.69997884 </i>
    <i name="e_wo_entrp">    -13.69998629 </i>
    <i name="e_0_energy">    -13.69998132 </i>
   </energy>
  </scstep>
  <scstep>
   <time name="dav">   13.51   13.51</time>
   <time name="total">   13.51   13.52</time>
   <energy>
    <i name="e_fr_energy">    -13.70831241 </i>
    <i name="e_wo_entrp">    -13.70832556 </i>
    <i name="e_0_energy">    -13.70831679 </i>
   </energy>
  </scstep>
  <scstep>
   <time name="dav">   19.60   19.60</time>
   <time name="total">   20.30   20.30</time>
   <energy>
    <i name="e_fr_energy">    -13.70837670 </i>
    <i name="e_wo_entrp">    -13.70838984 </i>
    <i name="e_0_energy">    -13.70838108 </i>
   </energy>
  </scstep>
  <scstep>
   <time name="diag">    3.08    3.08</time>
   <time name="diis">    6.69    6.69</time>
   <time name="orth">    0.20    0.20</time>
   <time name="total">   10.81   10.81</time>
   <energy>
    <i name="e_fr_energy">    -13.57614843 </i>
    <i name="e_wo_entrp">    -13.57613058 </i>
    <i name="e_0_energy">    -13.57614248 </i>
   </energy>
  </scstep>
  <scstep>
   <time name="diag">    3.13    3.13</time>
   <time name="diis">    6.65    6.65</time>
   <time name="orth">    0.19    0.19</time>
   <time name="total">   10.97   10.97</time>
   <energy>
    <i name="e_fr_energy">    -13.57871371 </i>
    <i name="e_wo_entrp">    -13.57869884 </i>
    <i name="e_0_energy">    -13.57870876 </i>
   </energy>
  </scstep>
  <scstep>
   <time name="diag">    3.13    3.13</time>
   <time name="diis">    6.05    6.05</time>
   <time name="orth">    0.17    0.17</time>
   <time name="total">   10.19   10.19</time>
   <energy>
    <i name="e_fr_energy">    -13.58862079 </i>
    <i name="e_wo_entrp">    -13.58859739 </i>
    <i name="e_0_energy">    -13.58861299 </i>
   </energy>
  </scstep>
  <scstep>
   <time name="diag">    3.10    3.10</time>
   <time name="diis">    6.95    6.96</time>
   <time name="orth">    0.18    0.18</time>
   <time name="total">   11.07   11.07</time>
   <energy>
    <i name="e_fr_energy">    -13.59376916 </i>
    <i name="e_wo_entrp">    -13.59374560 </i>
    <i name="e_0_energy">    -13.59376131 </i>
   </energy>
  </scstep>
  <scstep>
   <time name="diag">    3.12    3.12</time>
   <time name="diis">    6.80    6.80</time>
   <time name="orth">    0.17    0.17</time>
   <time name="total">   10.95   10.95</time>
   <energy>
    <i name="e_fr_energy">    -13.59477697 </i>
    <i name="e_wo_entrp">    -13.59475240 </i>
    <i name="e_0_energy">    -13.59476878 </i>
   </energy>
  </scstep>
  <scstep>
   <time name="diag">    3.12    3.12</time>
   <time name="diis">    6.75    6.75</time>
   <time name="orth">    0.18    0.18</time>
   <time name="total">   10.89   10.89</time>
   <energy>
    <i name="e_fr_energy">    -13.59480676 </i>
    <i name="e_wo_entrp">    -13.59478203 </i>
    <i name="e_0_energy">    -13.59479851 </i>
   </energy>
  </scstep>
  <scstep>
   <time name="diag">    3.05    3.05</time>
   <time name="diis">    6.21    6.21</time>
   <time name="orth">    0.18    0.18</time>
   <time name="total">   10.28   10.28</time>
   <energy>
    <i name="e_fr_energy">    -13.59484723 </i>
    <i name="e_wo_entrp">    -13.59482250 </i>
    <i name="e_0_energy">    -13.59483899 </i>
   </energy>
  </scstep>
  <scstep>
   <time name="diag">    3.02    3.02</time>
   <time name="diis">    6.70    6.70</time>
   <time name="orth">    0.18    0.18</time>
   <time name="total">   10.74   10.74</time>
   <energy>
    <i name="e_fr_energy">    -13.59485107 </i>
    <i name="e_wo_entrp">    -13.59482633 </i>
    <i name="e_0_energy">    -13.59484282 </i>
   </energy>
  </scstep>
  <scstep>
   <time name="diag">    2.97    2.97</time>
   <time name="diis">    6.70    6.70</time>
   <time name="orth">    0.18    0.18</time>
   <time name="total">   10.70   10.70</time>
   <energy>
    <i name="e_fr_energy">    -13.59485138 </i>
    <i name="e_wo_entrp">    -13.59482664 </i>
    <i name="e_0_energy">    -13.59484313 </i>
   </energy>
  </scstep>
  <scstep>
   <time name="diag">    3.14    3.14</time>
   <time name="diis">    7.87    7.87</time>
   <time name="orth">    0.17    0.17</time>
   <time name="total">   12.02   12.02</time>
   <energy>
    <i name="e_fr_energy">    -13.59485147 </i>
    <i name="e_wo_entrp">    -13.59482673 </i>
    <i name="e_0_energy">    -13.59484322 </i>
   </energy>
  </scstep>
  <scstep>
   <time name="diag">    3.05    3.05</time>
   <time name="diis">    7.71    7.71</time>
   <time name="orth">    0.18    0.18</time>
   <time name="total">   11.78   11.79</time>
   <energy>
    <i name="e_fr_energy">    -13.59485102 </i>
    <i name="e_wo_entrp">    -13.59482627 </i>
    <i name="e_0_energy">    -13.59484277 </i>
   </energy>
  </scstep>
  <scstep>
   <time name="diag">    3.01    3.01</time>
   <time name="diis">    7.32    7.32</time>
   <time name="orth">    0.17    0.17</time>
   <time name="total">   10.65   10.65</time>
   <energy>
    <i name="alphaZ">     65.34258032 </i>
    <i name="ewald">  -1736.74027323 </i>
    <i name="hartreedc">   -675.12879633 </i>
    <i name="XCdc">    -66.67054015 </i>
    <i name="pawpsdc">   2310.52253963 </i>
    <i name="pawaedc">  -2237.11889761 </i>
    <i name="eentropy">     -0.00002474 </i>
    <i name="bandstr">   -315.81888026 </i>
    <i name="atom">   2642.01744135 </i>
    <i name="e_fr_energy">    -13.59485102 </i>
    <i name="e_wo_entrp">    -13.59482628 </i>
    <i name="e_0_energy">    -13.59484277 </i>
   </energy>
  </scstep>
  <structure>
   <crystal>
    <varray name="basis" >
     <v>       4.35459220       0.00000000       0.00000000 </v>
     <v>       2.17729610       3.77118746      -0.00000000 </v>
     <v>       2.17729610       1.25706249       3.55550964 </v>
    </varray>
    <i name="volume">     58.38852064 </i>
    <varray name="rec_basis" >
     <v>       0.22964263      -0.13258423      -0.09375121 </v>
     <v>       0.00000000       0.26516847      -0.09375121 </v>
     <v>      -0.00000000       0.00000000       0.28125363 </v>
    </varray>
   </crystal>
   <varray name="positions" >
    <v>       0.00000000       0.00000000       0.00000000 </v>
   </varray>
  </structure>
  <varray name="forces" >
   <v>       0.00000000       0.00000000      -0.00000000 </v>
  </varray>
  <varray name="stress" >
   <v>       0.15994887       0.00019303       0.00010318 </v>
   <v>       0.00019349       0.16001008       0.00031107 </v>
   <v>       0.00010940       0.00031701       0.16002922 </v>
  </varray>
  <energy>
   <i name="e_fr_energy">    -13.59485102 </i>
   <i name="e_wo_entrp">    -13.59484277 </i>
   <i name="e_0_energy">     -0.00002474 </i>
  </energy>
  <kpoints>
   <generation param="Gamma">
    <v type="int" name="divisions">       9        9        9 </v>
    <v name="usershift">      0.00000000       0.00000000       0.00000000 </v>
    <v name="genvec1">      0.11111111       0.00000000      -0.00000000 </v>
    <v name="genvec2">      0.00000000       0.11111111       0.00000000 </v>
    <v name="genvec3">      0.00000000      -0.00000000       0.11111111 </v>
    <v name="shift">      0.00000000       0.00000000       0.00000000 </v>
   </generation>
   <varray name="kpointlist" >
    <v>       0.00000000       0.00000000       0.00000000 </v>
    <v>       0.11111111       0.00000000      -0.00000000 </v>
    <v>       0.22222222       0.00000000       0.00000000 </v>
    <v>       0.33333333       0.00000000      -0.00000000 </v>
    <v>       0.44444444       0.00000000       0.00000000 </v>
    <v>      -0.00000000       0.11111111      -0.00000000 </v>
    <v>       0.11111111       0.11111111       0.00000000 </v>
    <v>       0.22222222       0.11111111      -0.00000000 </v>
    <v>       0.33333333       0.11111111      -0.00000000 </v>
    <v>       0.44444444       0.11111111      -0.00000000 </v>
    <v>      -0.44444444       0.11111111       0.00000000 </v>
    <v>      -0.33333333       0.11111111       0.00000000 </v>
    <v>      -0.22222222       0.11111111       0.00000000 </v>
    <v>      -0.11111111       0.11111111       0.00000000 </v>
    <v>      -0.00000000       0.22222222      -0.00000000 </v>
    <v>       0.11111111       0.22222222       0.00000000 </v>
    <v>       0.22222222       0.22222222      -0.00000000 </v>
    <v>       0.33333333       0.22222222      -0.00000000 </v>
    <v>       0.44444444       0.22222222      -0.00000000 </v>
    <v>      -0.44444444       0.22222222       0.00000000 </v>
    <v>      -0.33333333       0.22222222       0.00000000 </v>
    <v>      -0.22222222       0.22222222       0.00000000 </v>
    <v>      -0.11111111       0.22222222      -0.00000000 </v>
    <v>      -0.00000000       0.33333333      -0.00000000 </v>
    <v>       0.11111111       0.33333333       0.00000000 </v>
    <v>       0.22222222       0.33333333      -0.00000000 </v>
    <v>       0.33333333       0.33333333      -0.00000000 </v>
    <v>       0.44444444       0.33333333       0.00000000 </v>
    <v>      -0.44444444       0.33333333      -0.00000000 </v>
    <v>      -0.33333333       0.33333333       0.00000000 </v>
    <v>      -0.22222222       0.33333333       0.00000000 </v>
    <v>      -0.11111111       0.33333333      -0.00000000 </v>
    <v>      -0.00000000       0.44444444      -0.00000000 </v>
    <v>       0.11111111       0.44444444       0.00000000 </v>
    <v>       0.22222222       0.44444444       0.00000000 </v>
    <v>       0.33333333       0.44444444      -0.00000000 </v>
    <v>       0.44444444       0.44444444      -0.00000000 </v>
    <v>      -0.44444444       0.44444444       0.00000000 </v>
    <v>      -0.33333333       0.44444444       0.00000000 </v>
    <v>      -0.22222222       0.44444444      -0.00000000 </v>
    <v>      -0.11111111       0.44444444      -0.00000000 </v>
    <v>       0.00000000      -0.00000000       0.11111111 </v>
    <v>       0.11111111       0.00000000       0.11111111 </v>
    <v>       0.22222222      -0.00000000       0.11111111 </v>
    <v>       0.33333333       0.00000000       0.11111111 </v>
    <v>       0.44444444       0.00000000       0.11111111 </v>
    <v>      -0.44444444      -0.00000000       0.11111111 </v>
    <v>      -0.33333333      -0.00000000       0.11111111 </v>
    <v>      -0.22222222      -0.00000000       0.11111111 </v>
    <v>      -0.11111111      -0.00000000       0.11111111 </v>
    <v>       0.00000000       0.11111111       0.11111111 </v>
    <v>       0.11111111       0.11111111       0.11111111 </v>
    <v>       0.22222222       0.11111111       0.11111111 </v>
    <v>       0.33333333       0.11111111       0.11111111 </v>
    <v>       0.44444444       0.11111111       0.11111111 </v>
    <v>      -0.44444444       0.11111111       0.11111111 </v>
    <v>      -0.33333333       0.11111111       0.11111111 </v>
    <v>      -0.22222222       0.11111111       0.11111111 </v>
    <v>      -0.11111111       0.11111111       0.11111111 </v>
    <v>      -0.00000000       0.22222222       0.11111111 </v>
    <v>       0.11111111       0.22222222       0.11111111 </v>
    <v>       0.22222222       0.22222222       0.11111111 </v>
    <v>       0.33333333       0.22222222       0.11111111 </v>
    <v>       0.44444444       0.22222222       0.11111111 </v>
    <v>      -0.44444444       0.22222222       0.11111111 </v>
    <v>      -0.33333333       0.22222222       0.11111111 </v>
    <v>      -0.22222222       0.22222222       0.11111111 </v>
    <v>      -0.11111111       0.22222222       0.11111111 </v>
    <v>      -0.00000000       0.33333333       0.11111111 </v>
    <v>       0.11111111       0.33333333       0.11111111 </v>
    <v>       0.22222222       0.33333333       0.11111111 </v>
    <v>       0.33333333       0.33333333       0.11111111 </v>
    <v>       0.44444444       0.33333333       0.11111111 </v>
    <v>      -0.44444444       0.33333333       0.11111111 </v>
    <v>      -0.33333333       0.33333333       0.11111111 </v>
    <v>      -0.22222222       0.33333333       0.11111111 </v>
    <v>      -0.11111111       0.33333333       0.11111111 </v>
    <v>      -0.00000000       0.44444444       0.11111111 </v>
    <v>       0.11111111       0.44444444       0.11111111 </v>
    <v>       0.22222222       0.44444444       0.11111111 </v>
    <v>       0.33333333       0.44444444       0.11111111 </v>
    <v>       0.44444444       0.44444444       0.11111111 </v>
    <v>      -0.44444444       0.44444444       0.11111111 </v>
    <v>      -0.33333333       0.44444444       0.11111111 </v>
    <v>      -0.22222222       0.44444444       0.11111111 </v>
    <v>      -0.11111111       0.44444444       0.11111111 </v>
    <v>      -0.00000000      -0.44444444       0.11111111 </v>
    <v>       0.11111111      -0.44444444       0.11111111 </v>
    <v>       0.22222222      -0.44444444       0.11111111 </v>
    <v>       0.33333333      -0.44444444       0.11111111 </v>
    <v>       0.44444444      -0.44444444       0.11111111 </v>
    <v>      -0.44444444      -0.44444444       0.11111111 </v>
    <v>      -0.33333333      -0.44444444       0.11111111 </v>
    <v>      -0.22222222      -0.44444444       0.11111111 </v>
    <v>      -0.11111111      -0.44444444       0.11111111 </v>
    <v>       0.00000000      -0.33333333       0.11111111 </v>
    <v>       0.11111111      -0.33333333       0.11111111 </v>
    <v>       0.22222222      -0.33333333       0.11111111 </v>
    <v>       0.33333333      -0.33333333       0.11111111 </v>
    <v>       0.44444444      -0.33333333       0.11111111 </v>
    <v>      -0.44444444      -0.33333333       0.11111111 </v>
    <v>      -0.33333333      -0.33333333       0.11111111 </v>
    <v>      -0.22222222      -0.33333333       0.11111111 </v>
    <v>      -0.11111111      -0.33333333       0.11111111 </v>
    <v>      -0.00000000      -0.22222222       0.11111111 </v>
    <v>       0.11111111      -0.22222222       0.11111111 </v>
    <v>       0.22222222      -0.22222222       0.11111111 </v>
    <v>       0.33333333      -0.22222222       0.11111111 </v>
    <v>       0.44444444      -0.22222222       0.11111111 </v>
    <v>      -0.44444444      -0.22222222       0.11111111 </v>
    <v>      -0.33333333      -0.22222222       0.11111111 </v>
    <v>      -0.22222222      -0.22222222       0.11111111 </v>
    <v>      -0.11111111      -0.22222222       0.11111111 </v>
    <v>       0.00000000      -0.11111111       0.11111111 </v>
    <v>       0.11111111      -0.11111111       0.11111111 </v>
    <v>       0.22222222      -0.11111111       0.11111111 </v>
    <v>       0.33333333      -0.11111111       0.11111111 </v>
    <v>       0.44444444      -0.11111111       0.11111111 </v>
    <v>      -0.44444444      -0.11111111       0.11111111 </v>
    <v>      -0.33333333      -0.11111111       0.11111111 </v>
    <v>      -0.22222222      -0.11111111       0.11111111 </v>
    <v>      -0.11111111      -0.11111111       0.11111111 </v>
    <v>       0.00000000       0.00000000       0.22222222 </v>
    <v>       0.11111111       0.00000000       0.22222222 </v>
    <v>       0.22222222       0.00000000       0.22222222 </v>
    <v>       0.33333333      -0.00000000       0.22222222 </v>
    <v>       0.44444444      -0.00000000       0.22222222 </v>
    <v>      -0.44444444      -0.00000000       0.22222222 </v>
    <v>      -0.33333333      -0.00000000       0.22222222 </v>
    <v>      -0.22222222      -0.00000000       0.22222222 </v>
    <v>      -0.11111111      -0.00000000       0.22222222 </v>
    <v>       0.00000000       0.11111111       0.22222222 </v>
    <v>       0.11111111       0.11111111       0.22222222 </v>
    <v>       0.22222222       0.11111111       0.22222222 </v>
    <v>       0.33333333       0.11111111       0.22222222 </v>
    <v>       0.44444444       0.11111111       0.22222222 </v>
    <v>      -0.44444444       0.11111111       0.22222222 </v>
    <v>      -0.33333333       0.11111111       0.22222222 </v>
    <v>      -0.22222222       0.11111111       0.22222222 </v>
    <v>      -0.11111111       0.11111111       0.22222222 </v>
    <v>       0.00000000       0.22222222       0.22222222 </v>
    <v>       0.11111111       0.22222222       0.22222222 </v>
    <v>       0.22222222       0.22222222       0.22222222 </v>
    <v>       0.33333333       0.22222222       0.22222222 </v>
    <v>       0.44444444       0.22222222       0.22222222 </v>
    <v>      -0.44444444       0.22222222       0.22222222 </v>
    <v>      -0.33333333       0.22222222       0.22222222 </v>
    <v>      -0.22222222       0.22222222       0.22222222 </v>
    <v>      -0.11111111       0.22222222       0.22222222 </v>
    <v>       0.00000000       0.33333333       0.22222222 </v>
    <v>       0.11111111       0.33333333       0.22222222 </v>
    <v>       0.22222222       0.33333333       0.22222222 </v>
    <v>       0.33333333       0.33333333       0.22222222 </v>
    <v>       0.44444444       0.33333333       0.22222222 </v>
    <v>      -0.44444444       0.33333333       0.22222222 </v>
    <v>      -0.33333333       0.33333333       0.22222222 </v>
    <v>      -0.22222222       0.33333333       0.22222222 </v>
    <v>      -0.11111111       0.33333333       0.22222222 </v>
    <v>       0.00000000       0.44444444       0.22222222 </v>
    <v>       0.11111111       0.44444444       0.22222222 </v>
    <v>       0.22222222       0.44444444       0.22222222 </v>
    <v>       0.33333333       0.44444444       0.22222222 </v>
    <v>       0.44444444       0.44444444       0.22222222 </v>
    <v>      -0.44444444       0.44444444       0.22222222 </v>
    <v>      -0.33333333       0.44444444       0.22222222 </v>
    <v>      -0.22222222       0.44444444       0.22222222 </v>
    <v>      -0.11111111       0.44444444       0.22222222 </v>
    <v>       0.00000000      -0.44444444       0.22222222 </v>
    <v>       0.11111111      -0.44444444       0.22222222 </v>
    <v>       0.22222222      -0.44444444       0.22222222 </v>
    <v>       0.33333333      -0.44444444       0.22222222 </v>
    <v>       0.44444444      -0.44444444       0.22222222 </v>
    <v>      -0.44444444      -0.44444444       0.22222222 </v>
    <v>      -0.33333333      -0.44444444       0.22222222 </v>
    <v>      -0.22222222      -0.44444444       0.22222222 </v>
    <v>      -0.11111111      -0.44444444       0.22222222 </v>
    <v>       0.00000000      -0.33333333       0.22222222 </v>
    <v>       0.11111111      -0.33333333       0.22222222 </v>
    <v>       0.22222222      -0.33333333       0.22222222 </v>
    <v>       0.33333333      -0.33333333       0.22222222 </v>
    <v>       0.44444444      -0.33333333       0.22222222 </v>
    <v>      -0.44444444      -0.33333333       0.22222222 </v>
    <v>      -0.33333333      -0.33333333       0.22222222 </v>
    <v>      -0.22222222      -0.33333333       0.22222222 </v>
    <v>      -0.11111111      -0.33333333       0.22222222 </v>
    <v>       0.00000000      -0.22222222       0.22222222 </v>
    <v>       0.11111111      -0.22222222       0.22222222 </v>
    <v>       0.22222222      -0.22222222       0.22222222 </v>
    <v>       0.33333333      -0.22222222       0.22222222 </v>
    <v>       0.44444444      -0.22222222       0.22222222 </v>
    <v>      -0.44444444      -0.22222222       0.22222222 </v>
    <v>      -0.33333333      -0.22222222       0.22222222 </v>
    <v>      -0.22222222      -0.22222222       0.22222222 </v>
    <v>      -0.11111111      -0.22222222       0.22222222 </v>
    <v>       0.00000000      -0.11111111       0.22222222 </v>
    <v>       0.11111111      -0.11111111       0.22222222 </v>
    <v>       0.22222222      -0.11111111       0.22222222 </v>
    <v>       0.33333333      -0.11111111       0.22222222 </v>
    <v>       0.44444444      -0.11111111       0.22222222 </v>
    <v>      -0.44444444      -0.11111111       0.22222222 </v>
    <v>      -0.33333333      -0.11111111       0.22222222 </v>
    <v>      -0.22222222      -0.11111111       0.22222222 </v>
    <v>      -0.11111111      -0.11111111       0.22222222 </v>
    <v>       0.00000000      -0.00000000       0.33333333 </v>
    <v>       0.11111111       0.00000000       0.33333333 </v>
    <v>       0.22222222       0.00000000       0.33333333 </v>
    <v>       0.33333333       0.00000000       0.33333333 </v>
    <v>       0.44444444       0.00000000       0.33333333 </v>
    <v>      -0.44444444      -0.00000000       0.33333333 </v>
    <v>      -0.33333333       0.00000000       0.33333333 </v>
    <v>      -0.22222222      -0.00000000       0.33333333 </v>
    <v>      -0.11111111      -0.00000000       0.33333333 </v>
    <v>      -0.00000000       0.11111111       0.33333333 </v>
    <v>       0.11111111       0.11111111       0.33333333 </v>
    <v>       0.22222222       0.11111111       0.33333333 </v>
    <v>       0.33333333       0.11111111       0.33333333 </v>
    <v>       0.44444444       0.11111111       0.33333333 </v>
    <v>      -0.44444444       0.11111111       0.33333333 </v>
    <v>      -0.33333333       0.11111111       0.33333333 </v>
    <v>      -0.22222222       0.11111111       0.33333333 </v>
    <v>      -0.11111111       0.11111111       0.33333333 </v>
    <v>       0.00000000       0.22222222       0.33333333 </v>
    <v>       0.11111111       0.22222222       0.33333333 </v>
    <v>       0.22222222       0.22222222       0.33333333 </v>
    <v>       0.33333333       0.22222222       0.33333333 </v>
    <v>       0.44444444       0.22222222       0.33333333 </v>
    <v>      -0.44444444       0.22222222       0.33333333 </v>
    <v>      -0.33333333       0.22222222       0.33333333 </v>
    <v>      -0.22222222       0.22222222       0.33333333 </v>
    <v>      -0.11111111       0.22222222       0.33333333 </v>
    <v>      -0.00000000       0.33333333       0.33333333 </v>
    <v>       0.11111111       0.33333333       0.33333333 </v>
    <v>       0.22222222       0.33333333       0.33333333 </v>
    <v>       0.33333333       0.33333333       0.33333333 </v>
    <v>       0.44444444       0.33333333       0.33333333 </v>
    <v>      -0.44444444       0.33333333       0.33333333 </v>
    <v>      -0.33333333       0.33333333       0.33333333 </v>
    <v>      -0.22222222       0.33333333       0.33333333 </v>
    <v>      -0.11111111       0.33333333       0.33333333 </v>
    <v>      -0.00000000       0.44444444       0.33333333 </v>
    <v>       0.11111111       0.44444444       0.33333333 </v>
    <v>       0.22222222       0.44444444       0.33333333 </v>
    <v>       0.33333333       0.44444444       0.33333333 </v>
    <v>       0.44444444       0.44444444       0.33333333 </v>
    <v>      -0.44444444       0.44444444       0.33333333 </v>
    <v>      -0.33333333       0.44444444       0.33333333 </v>
    <v>      -0.22222222       0.44444444       0.33333333 </v>
    <v>      -0.11111111       0.44444444       0.33333333 </v>
    <v>       0.00000000      -0.44444444       0.33333333 </v>
    <v>       0.11111111      -0.44444444       0.33333333 </v>
    <v>       0.22222222      -0.44444444       0.33333333 </v>
    <v>       0.33333333      -0.44444444       0.33333333 </v>
    <v>       0.44444444      -0.44444444       0.33333333 </v>
    <v>      -0.44444444      -0.44444444       0.33333333 </v>
    <v>      -0.33333333      -0.44444444       0.33333333 </v>
    <v>      -0.22222222      -0.44444444       0.33333333 </v>
    <v>      -0.11111111      -0.44444444       0.33333333 </v>
    <v>       0.00000000      -0.33333333       0.33333333 </v>
    <v>       0.11111111      -0.33333333       0.33333333 </v>
    <v>       0.22222222      -0.33333333       0.33333333 </v>
    <v>       0.33333333      -0.33333333       0.33333333 </v>
    <v>       0.44444444      -0.33333333       0.33333333 </v>
    <v>      -0.44444444      -0.33333333       0.33333333 </v>
    <v>      -0.33333333      -0.33333333       0.33333333 </v>
    <v>      -0.22222222      -0.33333333       0.33333333 </v>
    <v>      -0.11111111      -0.33333333       0.33333333 </v>
    <v>      -0.00000000      -0.22222222       0.33333333 </v>
    <v>       0.11111111      -0.22222222       0.33333333 </v>
    <v>       0.22222222      -0.22222222       0.33333333 </v>
    <v>       0.33333333      -0.22222222       0.33333333 </v>
    <v>       0.44444444      -0.22222222       0.33333333 </v>
    <v>      -0.44444444      -0.22222222       0.33333333 </v>
    <v>      -0.33333333      -0.22222222       0.33333333 </v>
    <v>      -0.22222222      -0.22222222       0.33333333 </v>
    <v>      -0.11111111      -0.22222222       0.33333333 </v>
    <v>       0.00000000      -0.11111111       0.33333333 </v>
    <v>       0.11111111      -0.11111111       0.33333333 </v>
    <v>       0.22222222      -0.11111111       0.33333333 </v>
    <v>       0.33333333      -0.11111111       0.33333333 </v>
    <v>       0.44444444      -0.11111111       0.33333333 </v>
    <v>      -0.44444444      -0.11111111       0.33333333 </v>
    <v>      -0.33333333      -0.11111111       0.33333333 </v>
    <v>      -0.22222222      -0.11111111       0.33333333 </v>
    <v>      -0.11111111      -0.11111111       0.33333333 </v>
    <v>       0.00000000       0.00000000       0.44444444 </v>
    <v>       0.11111111       0.00000000       0.44444444 </v>
    <v>       0.22222222       0.00000000       0.44444444 </v>
    <v>       0.33333333       0.00000000       0.44444444 </v>
    <v>       0.44444444       0.00000000       0.44444444 </v>
    <v>      -0.44444444      -0.00000000       0.44444444 </v>
    <v>      -0.33333333       0.00000000       0.44444444 </v>
    <v>      -0.22222222      -0.00000000       0.44444444 </v>
    <v>      -0.11111111      -0.00000000       0.44444444 </v>
    <v>      -0.00000000       0.11111111       0.44444444 </v>
    <v>       0.11111111       0.11111111       0.44444444 </v>
    <v>       0.22222222       0.11111111       0.44444444 </v>
    <v>       0.33333333       0.11111111       0.44444444 </v>
    <v>       0.44444444       0.11111111       0.44444444 </v>
    <v>      -0.44444444       0.11111111       0.44444444 </v>
    <v>      -0.33333333       0.11111111       0.44444444 </v>
    <v>      -0.22222222       0.11111111       0.44444444 </v>
    <v>      -0.11111111       0.11111111       0.44444444 </v>
    <v>       0.00000000       0.22222222       0.44444444 </v>
    <v>       0.11111111       0.22222222       0.44444444 </v>
    <v>       0.22222222       0.22222222       0.44444444 </v>
    <v>       0.33333333       0.22222222       0.44444444 </v>
    <v>       0.44444444       0.22222222       0.44444444 </v>
    <v>      -0.44444444       0.22222222       0.44444444 </v>
    <v>      -0.33333333       0.22222222       0.44444444 </v>
    <v>      -0.22222222       0.22222222       0.44444444 </v>
    <v>      -0.11111111       0.22222222       0.44444444 </v>
    <v>       0.00000000       0.33333333       0.44444444 </v>
    <v>       0.11111111       0.33333333       0.44444444 </v>
    <v>       0.22222222       0.33333333       0.44444444 </v>
    <v>       0.33333333       0.33333333       0.44444444 </v>
    <v>       0.44444444       0.33333333       0.44444444 </v>
    <v>      -0.44444444       0.33333333       0.44444444 </v>
    <v>      -0.33333333       0.33333333       0.44444444 </v>
    <v>      -0.22222222       0.33333333       0.44444444 </v>
    <v>      -0.11111111       0.33333333       0.44444444 </v>
    <v>       0.00000000       0.44444444       0.44444444 </v>
    <v>       0.11111111       0.44444444       0.44444444 </v>
    <v>       0.22222222       0.44444444       0.44444444 </v>
    <v>       0.33333333       0.44444444       0.44444444 </v>
    <v>       0.44444444       0.44444444       0.44444444 </v>
    <v>      -0.44444444       0.44444444       0.44444444 </v>
    <v>      -0.33333333       0.44444444       0.44444444 </v>
[...]
       <r>     3.6223     0.0000     0.0000 </r>
       <r>     3.7961     0.0000     0.0000 </r>
       <r>     3.9699     0.0000     0.0000 </r>
       <r>     4.1437     0.0000     0.0000 </r>
       <r>     4.3175     0.0000     0.0000 </r>
       <r>     4.4913     0.0000     0.0000 </r>
       <r>     4.6651     0.0000     0.0000 </r>
       <r>     4.8389     0.0000     0.0000 </r>
       <r>     5.0128     0.0000     0.0000 </r>
       <r>     5.1866     0.0000     0.0000 </r>
       <r>     5.3604     0.0000     0.0000 </r>
       <r>     5.5342     0.0000     0.0000 </r>
       <r>     5.7080     0.0000     0.0000 </r>
       <r>     5.8818     0.0000     0.0000 </r>
       <r>     6.0556     0.0000     0.0000 </r>
       <r>     6.2294     0.0000     0.0000 </r>
       <r>     6.4032     0.0000     0.0000 </r>
       <r>     6.5770     0.0000     0.0000 </r>
       <r>     6.7508     0.0000     0.0000 </r>
       <r>     6.9246     0.0000     0.0000 </r>
       <r>     7.0984     0.0000     0.0000 </r>
       <r>     7.2722     0.0000     0.0000 </r>
       <r>     7.4460     0.0000     0.0000 </r>
       <r>     7.6198     0.0000     0.0000 </r>
       <r>     7.7936     0.0000     0.0000 </r>
       <r>     7.9674     0.0000     0.0000 </r>
       <r>     8.1413     0.0000     0.0000 </r>
       <r>     8.3151     0.0000     0.0000 </r>
       <r>     8.4889     0.0000     0.0000 </r>
       <r>     8.6627     0.0000     0.0000 </r>
       <r>     8.8365     0.0000     0.0000 </r>
       <r>     9.0103     0.0000     0.0000 </r>
       <r>     9.1841     0.0000     0.0000 </r>
       <r>     9.3579     0.0000     0.0000 </r>
       <r>     9.5317     0.0000     0.0000 </r>
       <r>     9.7055     0.0000     0.0000 </r>
       <r>     9.8793     0.0000     0.0000 </r>
       <r>    10.0531     0.0000     0.0000 </r>
       <r>    10.2269     0.0000     0.0000 </r>
       <r>    10.4007     0.0000     0.0000 </r>
       <r>    10.5745     0.0000     0.0000 </r>
       <r>    10.7483     0.0000     0.0000 </r>
       <r>    10.9221     0.0000     0.0000 </r>
       <r>    11.0959     0.0000     0.0000 </r>
       <r>    11.2697     0.0000     0.0000 </r>
       <r>    11.4436     0.0000     0.0000 </r>
       <r>    11.6174     0.0000     0.0000 </r>
       <r>    11.7912     0.0000     0.0000 </r>
       <r>    11.9650     0.0000     0.0000 </r>
       <r>    12.1388     0.0000     0.0000 </r>
       <r>    12.3126     0.0000     0.0000 </r>
       <r>    12.4864     0.0000     0.0000 </r>
       <r>    12.6602     0.0000     0.0000 </r>
       <r>    12.8340     0.0000     0.0000 </r>
       <r>    13.0078     0.0000     0.0000 </r>
       <r>    13.1816     0.0000     0.0000 </r>
       <r>    13.3554     0.0000     0.0000 </r>
       <r>    13.5292     0.0000     0.0000 </r>
       <r>    13.7030     0.0000     0.0000 </r>
       <r>    13.8768     0.0000     0.0000 </r>
       <r>    14.0506     0.0000     0.0000 </r>
       <r>    14.2244     0.0000     0.0000 </r>
       <r>    14.3982     0.0000     0.0000 </r>
       <r>    14.5720     0.0000     0.0000 </r>
       <r>    14.7459     0.0000     0.0000 </r>
       <r>    14.9197     0.0000     0.0000 </r>
       <r>    15.0935     0.0000     0.0000 </r>
       <r>    15.2673     0.0000     0.0000 </r>
       <r>    15.4411     0.0000     0.0000 </r>
       <r>    15.6149     0.0000     0.0000 </r>
       <r>    15.7887     0.0000     0.0000 </r>
       <r>    15.9625     0.0000     0.0000 </r>
       <r>    16.1363     0.0000     0.0000 </r>
       <r>    16.3101     0.0000     0.0000 </r>
       <r>    16.4839     0.0000     0.0000 </r>
       <r>    16.6577     0.0000     0.0000 </r>
       <r>    16.8315     0.0000     0.0000 </r>
       <r>    17.0053     0.0000     0.0000 </r>
       <r>    17.1791     0.0000     0.0000 </r>
       <r>    17.3529     0.0000     0.0000 </r>
       <r>    17.5267     0.0000     0.0000 </r>
       <r>    17.7005     0.0000     0.0000 </r>
       <r>    17.8743     0.0000     0.0000 </r>
       <r>    18.0482     0.0000     0.0000 </r>
       <r>    18.2220     0.0000     0.0000 </r>
       <r>    18.3958     0.0000     0.0000 </r>
       <r>    18.5696     0.0000     0.0000 </r>
       <r>    18.7434     0.0000     0.0000 </r>
       <r>    18.9172     0.0000     0.0000 </r>
       <r>    19.0910     0.0000     0.0000 </r>
      </set>
      <set comment="spin 4">
       <r>   -33.0506     0.0000     0.0000 </r>
       <r>   -32.8768     0.0000     0.0000 </r>
       <r>   -32.7030     0.0000     0.0000 </r>
       <r>   -32.5292     0.0000     0.0000 </r>
       <r>   -32.3554     0.0000     0.0000 </r>
       <r>   -32.1816     0.0000     0.0000 </r>
       <r>   -32.0078     0.0000     0.0000 </r>
       <r>   -31.8340     0.0000     0.0000 </r>
       <r>   -31.6602     0.0000     0.0000 </r>
       <r>   -31.4864     0.0000     0.0000 </r>
       <r>   -31.3126     0.0000     0.0000 </r>
       <r>   -31.1388     0.0000     0.0000 </r>
       <r>   -30.9649     0.0000     0.0000 </r>
       <r>   -30.7911     0.0000     0.0000 </r>
       <r>   -30.6173     0.0000     0.0000 </r>
       <r>   -30.4435     0.0000     0.0000 </r>
       <r>   -30.2697     0.0000     0.0000 </r>
       <r>   -30.0959     0.0000     0.0000 </r>
       <r>   -29.9221     0.0000     0.0000 </r>
       <r>   -29.7483     0.0000     0.0000 </r>
       <r>   -29.5745     0.0000     0.0000 </r>
       <r>   -29.4007     0.0000     0.0000 </r>
       <r>   -29.2269     0.0000     0.0000 </r>
       <r>   -29.0531     0.0000     0.0000 </r>
       <r>   -28.8793     0.0000     0.0000 </r>
       <r>   -28.7055     0.0000     0.0000 </r>
       <r>   -28.5317     0.0000     0.0000 </r>
       <r>   -28.3579     0.0000     0.0000 </r>
       <r>   -28.1841     0.0000     0.0000 </r>
       <r>   -28.0103     0.0000     0.0000 </r>
       <r>   -27.8365     0.0000     0.0000 </r>
       <r>   -27.6626     0.0000     0.0000 </r>
       <r>   -27.4888     0.0000     0.0000 </r>
       <r>   -27.3150     0.0000     0.0000 </r>
       <r>   -27.1412     0.0000     0.0000 </r>
       <r>   -26.9674     0.0000     0.0000 </r>
       <r>   -26.7936     0.0000     0.0000 </r>
       <r>   -26.6198     0.0000     0.0000 </r>
       <r>   -26.4460     0.0000     0.0000 </r>
       <r>   -26.2722     0.0000     0.0000 </r>
       <r>   -26.0984     0.0000     0.0000 </r>
       <r>   -25.9246     0.0000     0.0000 </r>
       <r>   -25.7508     0.0000     0.0000 </r>
       <r>   -25.5770     0.0000     0.0000 </r>
       <r>   -25.4032     0.0000     0.0000 </r>
       <r>   -25.2294     0.0000     0.0000 </r>
       <r>   -25.0556     0.0000     0.0000 </r>
       <r>   -24.8818     0.0000     0.0000 </r>
       <r>   -24.7080     0.0000     0.0000 </r>
       <r>   -24.5342     0.0000     0.0000 </r>
       <r>   -24.3603     0.0000     0.0000 </r>
       <r>   -24.1865     0.0000     0.0000 </r>
       <r>   -24.0127     0.0000     0.0000 </r>
       <r>   -23.8389     0.0000     0.0000 </r>
       <r>   -23.6651     0.0000     0.0000 </r>
       <r>   -23.4913     0.0000     0.0000 </r>
       <r>   -23.3175     0.0000     0.0000 </r>
       <r>   -23.1437     0.0000     0.0000 </r>
       <r>   -22.9699     0.0000     0.0000 </r>
       <r>   -22.7961     0.0000     0.0000 </r>
       <r>   -22.6223     0.0000     0.0000 </r>
       <r>   -22.4485     0.0000     0.0000 </r>
       <r>   -22.2747     0.0000     0.0000 </r>
       <r>   -22.1009     0.0000     0.0000 </r>
       <r>   -21.9271     0.0000     0.0000 </r>
       <r>   -21.7533     0.0000     0.0000 </r>
       <r>   -21.5795     0.0000     0.0000 </r>
       <r>   -21.4057     0.0000     0.0000 </r>
       <r>   -21.2319     0.0000     0.0000 </r>
       <r>   -21.0580     0.0000     0.0000 </r>
       <r>   -20.8842     0.0000     0.0000 </r>
       <r>   -20.7104     0.0000     0.0000 </r>
       <r>   -20.5366     0.0000     0.0000 </r>
       <r>   -20.3628     0.0000     0.0000 </r>
       <r>   -20.1890     0.0000     0.0000 </r>
       <r>   -20.0152     0.0000     0.0000 </r>
       <r>   -19.8414     0.0000     0.0000 </r>
       <r>   -19.6676     0.0000     0.0000 </r>
       <r>   -19.4938     0.0000     0.0000 </r>
       <r>   -19.3200     0.0000     0.0000 </r>
       <r>   -19.1462     0.0000     0.0000 </r>
       <r>   -18.9724     0.0000     0.0000 </r>
       <r>   -18.7986     0.0000     0.0000 </r>
       <r>   -18.6248     0.0000     0.0000 </r>
       <r>   -18.4510     0.0000     0.0000 </r>
       <r>   -18.2772     0.0000     0.0000 </r>
       <r>   -18.1034     0.0000     0.0000 </r>
       <r>   -17.9295     0.0000     0.0000 </r>
       <r>   -17.7557     0.0000     0.0000 </r>
       <r>   -17.5819     0.0000     0.0000 </r>
       <r>   -17.4081     0.0000     0.0000 </r>
       <r>   -17.2343     0.0000     0.0000 </r>
       <r>   -17.0605     0.0000     0.0000 </r>
       <r>   -16.8867     0.0000     0.0000 </r>
       <r>   -16.7129     0.0000     0.0000 </r>
       <r>   -16.5391     0.0000     0.0000 </r>
       <r>   -16.3653     0.0000     0.0000 </r>
       <r>   -16.1915     0.0000     0.0000 </r>
       <r>   -16.0177     0.0000     0.0000 </r>
       <r>   -15.8439     0.0000     0.0000 </r>
       <r>   -15.6701     0.0000     0.0000 </r>
       <r>   -15.4963     0.0000     0.0000 </r>
       <r>   -15.3225     0.0000     0.0000 </r>
       <r>   -15.1487     0.0000     0.0000 </r>
       <r>   -14.9749     0.0000     0.0000 </r>
       <r>   -14.8011     0.0000     0.0000 </r>
       <r>   -14.6272     0.0000     0.0000 </r>
       <r>   -14.4534     0.0000     0.0000 </r>
       <r>   -14.2796     0.0000     0.0000 </r>
       <r>   -14.1058     0.0000     0.0000 </r>
       <r>   -13.9320     0.0000     0.0000 </r>
       <r>   -13.7582     0.0000     0.0000 </r>
       <r>   -13.5844     0.0000     0.0000 </r>
       <r>   -13.4106     0.0000     0.0000 </r>
       <r>   -13.2368     0.0000     0.0000 </r>
       <r>   -13.0630     0.0000     0.0000 </r>
       <r>   -12.8892     0.0000     0.0000 </r>
       <r>   -12.7154     0.0000     0.0000 </r>
       <r>   -12.5416     0.0000     0.0000 </r>
       <r>   -12.3678     0.0000     0.0000 </r>
       <r>   -12.1940     0.0000     0.0000 </r>
       <r>   -12.0202     0.0000     0.0000 </r>
       <r>   -11.8464     0.0000     0.0000 </r>
       <r>   -11.6726     0.0000     0.0000 </r>
       <r>   -11.4988     0.0000     0.0000 </r>
       <r>   -11.3249     0.0000     0.0000 </r>
       <r>   -11.1511     0.0000     0.0000 </r>
       <r>   -10.9773     0.0000     0.0000 </r>
       <r>   -10.8035     0.0000     0.0000 </r>
       <r>   -10.6297     0.0000     0.0000 </r>
       <r>   -10.4559     0.0000     0.0000 </r>
       <r>   -10.2821     0.0000     0.0000 </r>
       <r>   -10.1083     0.0000     0.0000 </r>
       <r>    -9.9345     0.0000     0.0000 </r>
       <r>    -9.7607     0.0000     0.0000 </r>
       <r>    -9.5869     0.0000     0.0000 </r>
       <r>    -9.4131     0.0000     0.0000 </r>
       <r>    -9.2393     0.0000     0.0000 </r>
       <r>    -9.0655     0.0000     0.0000 </r>
       <r>    -8.8917     0.0000     0.0000 </r>
       <r>    -8.7179     0.0000     0.0000 </r>
       <r>    -8.5441     0.0000     0.0000 </r>
       <r>    -8.3703     0.0000     0.0000 </r>
       <r>    -8.1965     0.0000     0.0000 </r>
       <r>    -8.0226     0.0000     0.0000 </r>
       <r>    -7.8488     0.0000     0.0000 </r>
       <r>    -7.6750     0.0000     0.0000 </r>
       <r>    -7.5012     0.0000     0.0000 </r>
       <r>    -7.3274     0.0000     0.0000 </r>
       <r>    -7.1536     0.0000     0.0000 </r>
       <r>    -6.9798     0.0000     0.0000 </r>
       <r>    -6.8060     0.0000     0.0000 </r>
       <r>    -6.6322     0.0000     0.0000 </r>
       <r>    -6.4584     0.0000     0.0000 </r>
       <r>    -6.2846     0.0000     0.0000 </r>
       <r>    -6.1108     0.0000     0.0000 </r>
       <r>    -5.9370     0.0000     0.0000 </r>
       <r>    -5.7632     0.0000     0.0000 </r>
       <r>    -5.5894     0.0000     0.0000 </r>
       <r>    -5.4156     0.0000     0.0000 </r>
       <r>    -5.2418     0.0000     0.0000 </r>
       <r>    -5.0680     0.0000     0.0000 </r>
       <r>    -4.8941     0.0000     0.0000 </r>
       <r>    -4.7203     0.0000     0.0000 </r>
       <r>    -4.5465     0.0000     0.0000 </r>
       <r>    -4.3727     0.0000     0.0000 </r>
       <r>    -4.1989     0.0000     0.0000 </r>
       <r>    -4.0251     0.0000     0.0000 </r>
       <r>    -3.8513     0.0000     0.0000 </r>
       <r>    -3.6775     0.0000     0.0000 </r>
       <r>    -3.5037     0.0000     0.0000 </r>
       <r>    -3.3299     0.0000     0.0000 </r>
       <r>    -3.1561     0.0000     0.0000 </r>
       <r>    -2.9823     0.0000     0.0000 </r>
       <r>    -2.8085     0.0000     0.0000 </r>
       <r>    -2.6347     0.0000     0.0000 </r>
       <r>    -2.4609     0.0000     0.0000 </r>
       <r>    -2.2871     0.0000     0.0000 </r>
       <r>    -2.1133     0.0000     0.0000 </r>
       <r>    -1.9395     0.0000     0.0000 </r>
       <r>    -1.7657     0.0000     0.0000 </r>
       <r>    -1.5918     0.0000     0.0000 </r>
       <r>    -1.4180     0.0000     0.0000 </r>
       <r>    -1.2442     0.0000     0.0000 </r>
       <r>    -1.0704     0.0000     0.0000 </r>
       <r>    -0.8966     0.0000     0.0000 </r>
       <r>    -0.7228     0.0000     0.0000 </r>
       <r>    -0.5490     0.0000     0.0000 </r>
       <r>    -0.3752     0.0000     0.0000 </r>
       <r>    -0.2014     0.0000     0.0000 </r>
       <r>    -0.0276     0.0000     0.0000 </r>
       <r>     0.1462     0.0000     0.0000 </r>
       <r>     0.3200     0.0000     0.0000 </r>
       <r>     0.4938     0.0000     0.0000 </r>
       <r>     0.6676     0.0000     0.0000 </r>
       <r>     0.8414     0.0000     0.0000 </r>
       <r>     1.0152     0.0000     0.0000 </r>
       <r>     1.1890     0.0000     0.0000 </r>
       <r>     1.3628     0.0000     0.0000 </r>
       <r>     1.5366     0.0000     0.0000 </r>
       <r>     1.7105     0.0000     0.0000 </r>
       <r>     1.8843     0.0000     0.0000 </r>
       <r>     2.0581     0.0000     0.0000 </r>
       <r>     2.2319     0.0000     0.0000 </r>
       <r>     2.4057     0.0000     0.0000 </r>
       <r>     2.5795     0.0000     0.0000 </r>
       <r>     2.7533     0.0000     0.0000 </r>
       <r>     2.9271     0.0000     0.0000 </r>
       <r>     3.1009     0.0000     0.0000 </r>
       <r>     3.2747     0.0000     0.0000 </r>
       <r>     3.4485     0.0000     0.0000 </r>
       <r>     3.6223     0.0000     0.0000 </r>
       <r>     3.7961     0.0000     0.0000 </r>
       <r>     3.9699     0.0000     0.0000 </r>
       <r>     4.1437     0.0000     0.0000 </r>
       <r>     4.3175     0.0000     0.0000 </r>
       <r>     4.4913     0.0000     0.0000 </r>
       <r>     4.6651     0.0000     0.0000 </r>
       <r>     4.8389     0.0000     0.0000 </r>
       <r>     5.0128     0.0000     0.0000 </r>
       <r>     5.1866     0.0000     0.0000 </r>
       <r>     5.3604     0.0000     0.0000 </r>
       <r>     5.5342     0.0000     0.0000 </r>
       <r>     5.7080     0.0000     0.0000 </r>
       <r>     5.8818     0.0000     0.0000 </r>
       <r>     6.0556     0.0000     0.0000 </r>
       <r>     6.2294     0.0000     0.0000 </r>
       <r>     6.4032     0.0000     0.0000 </r>
       <r>     6.5770     0.0000     0.0000 </r>
       <r>     6.7508     0.0000     0.0000 </r>
       <r>     6.9246     0.0000     0.0000 </r>
       <r>     7.0984     0.0000     0.0000 </r>
       <r>     7.2722     0.0000     0.0000 </r>
       <r>     7.4460     0.0000     0.0000 </r>
       <r>     7.6198     0.0000     0.0000 </r>
       <r>     7.7936     0.0000     0.0000 </r>
       <r>     7.9674     0.0000     0.0000 </r>
       <r>     8.1413     0.0000     0.0000 </r>
       <r>     8.3151     0.0000     0.0000 </r>
       <r>     8.4889     0.0000     0.0000 </r>
       <r>     8.6627     0.0000     0.0000 </r>
       <r>     8.8365     0.0000     0.0000 </r>
       <r>     9.0103     0.0000     0.0000 </r>
       <r>     9.1841     0.0000     0.0000 </r>
       <r>     9.3579     0.0000     0.0000 </r>
       <r>     9.5317     0.0000     0.0000 </r>
       <r>     9.7055     0.0000     0.0000 </r>
       <r>     9.8793     0.0000     0.0000 </r>
       <r>    10.0531     0.0000     0.0000 </r>
       <r>    10.2269     0.0000     0.0000 </r>
       <r>    10.4007     0.0000     0.0000 </r>
       <r>    10.5745     0.0000     0.0000 </r>
       <r>    10.7483     0.0000     0.0000 </r>
       <r>    10.9221     0.0000     0.0000 </r>
       <r>    11.0959     0.0000     0.0000 </r>
       <r>    11.2697     0.0000     0.0000 </r>
       <r>    11.4436     0.0000     0.0000 </r>
       <r>    11.6174     0.0000     0.0000 </r>
       <r>    11.7912     0.0000     0.0000 </r>
       <r>    11.9650     0.0000     0.0000 </r>
       <r>    12.1388     0.0000     0.0000 </r>
       <r>    12.3126     0.0000     0.0000 </r>
       <r>    12.4864     0.0000     0.0000 </r>
       <r>    12.6602     0.0000     0.0000 </r>
       <r>    12.8340     0.0000     0.0000 </r>
       <r>    13.0078     0.0000     0.0000 </r>
       <r>    13.1816     0.0000     0.0000 </r>
       <r>    13.3554     0.0000     0.0000 </r>
       <r>    13.5292     0.0000     0.0000 </r>
       <r>    13.7030     0.0000     0.0000 </r>
       <r>    13.8768     0.0000     0.0000 </r>
       <r>    14.0506     0.0000     0.0000 </r>
       <r>    14.2244     0.0000     0.0000 </r>
       <r>    14.3982     0.0000     0.0000 </r>
       <r>    14.5720     0.0000     0.0000 </r>
       <r>    14.7459     0.0000     0.0000 </r>
       <r>    14.9197     0.0000     0.0000 </r>
       <r>    15.0935     0.0000     0.0000 </r>
       <r>    15.2673     0.0000     0.0000 </r>
       <r>    15.4411     0.0000     0.0000 </r>
       <r>    15.6149     0.0000     0.0000 </r>
       <r>    15.7887     0.0000     0.0000 </r>
       <r>    15.9625     0.0000     0.0000 </r>
       <r>    16.1363     0.0000     0.0000 </r>
       <r>    16.3101     0.0000     0.0000 </r>
       <r>    16.4839     0.0000     0.0000 </r>
       <r>    16.6577     0.0000     0.0000 </r>
       <r>    16.8315     0.0000     0.0000 </r>
       <r>    17.0053     0.0000     0.0000 </r>
       <r>    17.1791     0.0000     0.0000 </r>
       <r>    17.3529     0.0000     0.0000 </r>
       <r>    17.5267     0.0000     0.0000 </r>
       <r>    17.7005     0.0000     0.0000 </r>
       <r>    17.8743     0.0000     0.0000 </r>
       <r>    18.0482     0.0000     0.0000 </r>
       <r>    18.2220     0.0000     0.0000 </r>
       <r>    18.3958     0.0000     0.0000 </r>
       <r>    18.5696     0.0000     0.0000 </r>
       <r>    18.7434     0.0000     0.0000 </r>
       <r>    18.9172     0.0000     0.0000 </r>
       <r>    19.0910     0.0000     0.0000 </r>
      </set>
     </set>
    </array>
   </total>
  </dos>
 </calculation>
 <structure name="finalpos" >
  <crystal>
   <varray name="basis" >
    <v>       4.35459220       0.00000000       0.00000000 </v>
    <v>       2.17729610       3.77118746      -0.00000000 </v>
    <v>       2.17729610       1.25706249       3.55550964 </v>
   </varray>
   <i name="volume">     58.38852064 </i>
   <varray name="rec_basis" >
    <v>       0.22964263      -0.13258423      -0.09375121 </v>
    <v>       0.00000000       0.26516847      -0.09375121 </v>
    <v>      -0.00000000       0.00000000       0.28125363 </v>
   </varray>
  </crystal>
  <varray name="positions" >
   <v>       0.00187502       0.00187502      -0.00562507 </v>
  </varray>
 </structure>
</modeling>
