   1   1   0   0
  0.6083477E+02  0.4414576E-09  0.4414576E-09  0.4414576E-09  0.1000000E-15
  1.000000000000000E-004
  CAR 
 Og_FCC                                  
     19.17298541    -49.63453359  301     -1.41193069      1.00000000
    -49.635  0.0000E+00  0.0000E+00
    -49.405  0.0000E+00  0.0000E+00
    -49.176  0.0000E+00  0.0000E+00
    -48.946  0.0000E+00  0.0000E+00
    -48.717  0.0000E+00  0.0000E+00
    -48.488  0.0000E+00  0.0000E+00
    -48.258  0.0000E+00  0.0000E+00
    -48.029  0.0000E+00  0.0000E+00
    -47.800  0.0000E+00  0.0000E+00
    -47.570  0.0000E+00  0.0000E+00
    -47.341  0.0000E+00  0.0000E+00
    -47.112  0.0000E+00  0.0000E+00
    -46.882  0.0000E+00  0.0000E+00
    -46.653  0.2910E-03  0.6673E-04
    -46.424  0.1727E+02  0.3961E+01
    -46.194  0.1691E+00  0.4000E+01
    -45.965  0.0000E+00  0.4000E+01
    -45.735  0.0000E+00  0.4000E+01
    -45.506  0.0000E+00  0.4000E+01
    -45.277  0.0000E+00  0.4000E+01
    -45.047  0.0000E+00  0.4000E+01
    -44.818  0.0000E+00  0.4000E+01
    -44.589  0.0000E+00  0.4000E+01
    -44.359  0.0000E+00  0.4000E+01
    -44.130  0.0000E+00  0.4000E+01
    -43.901  0.0000E+00  0.4000E+01
    -43.671  0.0000E+00  0.4000E+01
    -43.442  0.0000E+00  0.4000E+01
    -43.212  0.0000E+00  0.4000E+01
    -42.983  0.0000E+00  0.4000E+01
    -42.754  0.0000E+00  0.4000E+01
    -42.524  0.0000E+00  0.4000E+01
    -42.295  0.0000E+00  0.4000E+01
    -42.066  0.2719E+00  0.4062E+01
    -41.836  0.2589E+02  0.1000E+02
    -41.607  0.3905E-03  0.1000E+02
    -41.378  0.0000E+00  0.1000E+02
    -41.148  0.0000E+00  0.1000E+02
    -40.919  0.0000E+00  0.1000E+02
    -40.690  0.0000E+00  0.1000E+02
    -40.460  0.0000E+00  0.1000E+02
    -40.231  0.0000E+00  0.1000E+02
    -40.001  0.0000E+00  0.1000E+02
    -39.772  0.0000E+00  0.1000E+02
    -39.543  0.0000E+00  0.1000E+02
    -39.313  0.0000E+00  0.1000E+02
    -39.084  0.0000E+00  0.1000E+02
    -38.855  0.0000E+00  0.1000E+02
    -38.625  0.0000E+00  0.1000E+02
    -38.396  0.0000E+00  0.1000E+02
    -38.167  0.0000E+00  0.1000E+02
    -37.937  0.0000E+00  0.1000E+02
    -37.708  0.0000E+00  0.1000E+02
    -37.479  0.0000E+00  0.1000E+02
    -37.249  0.0000E+00  0.1000E+02
    -37.020  0.0000E+00  0.1000E+02
    -36.790  0.0000E+00  0.1000E+02
    -36.561  0.0000E+00  0.1000E+02
    -36.332  0.0000E+00  0.1000E+02
    -36.102  0.0000E+00  0.1000E+02
    -35.873  0.0000E+00  0.1000E+02
    -35.644  0.0000E+00  0.1000E+02
    -35.414  0.0000E+00  0.1000E+02
    -35.185  0.0000E+00  0.1000E+02
    -34.956  0.0000E+00  0.1000E+02
    -34.726  0.0000E+00  0.1000E+02
    -34.497  0.0000E+00  0.1000E+02
    -34.268  0.0000E+00  0.1000E+02
    -34.038  0.0000E+00  0.1000E+02
    -33.809  0.0000E+00  0.1000E+02
    -33.579  0.0000E+00  0.1000E+02
    -33.350  0.0000E+00  0.1000E+02
    -33.121  0.0000E+00  0.1000E+02
    -32.891  0.0000E+00  0.1000E+02
    -32.662  0.0000E+00  0.1000E+02
    -32.433  0.0000E+00  0.1000E+02
    -32.203  0.0000E+00  0.1000E+02
    -31.974  0.0000E+00  0.1000E+02
    -31.745  0.0000E+00  0.1000E+02
    -31.515  0.0000E+00  0.1000E+02
    -31.286  0.0000E+00  0.1000E+02
    -31.057  0.0000E+00  0.1000E+02
    -30.827  0.0000E+00  0.1000E+02
    -30.598  0.0000E+00  0.1000E+02
    -30.368  0.0000E+00  0.1000E+02
    -30.139  0.0000E+00  0.1000E+02
    -29.910  0.0000E+00  0.1000E+02
    -29.680  0.0000E+00  0.1000E+02
    -29.451  0.0000E+00  0.1000E+02
    -29.222  0.0000E+00  0.1000E+02
    -28.992  0.0000E+00  0.1000E+02
    -28.763  0.0000E+00  0.1000E+02
    -28.534  0.0000E+00  0.1000E+02
    -28.304  0.0000E+00  0.1000E+02
    -28.075  0.0000E+00  0.1000E+02
    -27.845  0.0000E+00  0.1000E+02
    -27.616  0.0000E+00  0.1000E+02
    -27.387  0.0000E+00  0.1000E+02
    -27.157  0.0000E+00  0.1000E+02
    -26.928  0.0000E+00  0.1000E+02
    -26.699  0.0000E+00  0.1000E+02
    -26.469  0.0000E+00  0.1000E+02
    -26.240  0.0000E+00  0.1000E+02
    -26.011  0.0000E+00  0.1000E+02
    -25.781  0.0000E+00  0.1000E+02
    -25.552  0.0000E+00  0.1000E+02
    -25.323  0.0000E+00  0.1000E+02
    -25.093  0.0000E+00  0.1000E+02
    -24.864  0.0000E+00  0.1000E+02
    -24.634  0.0000E+00  0.1000E+02
    -24.405  0.0000E+00  0.1000E+02
    -24.176  0.0000E+00  0.1000E+02
    -23.946  0.0000E+00  0.1000E+02
    -23.717  0.0000E+00  0.1000E+02
    -23.488  0.0000E+00  0.1000E+02
    -23.258  0.0000E+00  0.1000E+02
    -23.029  0.0000E+00  0.1000E+02
    -22.800  0.0000E+00  0.1000E+02
    -22.570  0.0000E+00  0.1000E+02
    -22.341  0.0000E+00  0.1000E+02
    -22.112  0.0000E+00  0.1000E+02
    -21.882  0.0000E+00  0.1000E+02
    -21.653  0.0000E+00  0.1000E+02
    -21.423  0.0000E+00  0.1000E+02
    -21.194  0.0000E+00  0.1000E+02
    -20.965  0.0000E+00  0.1000E+02
    -20.735  0.0000E+00  0.1000E+02
    -20.506  0.0000E+00  0.1000E+02
    -20.277  0.0000E+00  0.1000E+02
    -20.047  0.0000E+00  0.1000E+02
    -19.818  0.0000E+00  0.1000E+02
    -19.589  0.0000E+00  0.1000E+02
    -19.359  0.0000E+00  0.1000E+02
    -19.130  0.2897E-12  0.1000E+02
    -18.901  0.3276E-01  0.1001E+02
    -18.671  0.4757E+01  0.1110E+02
    -18.442  0.3931E+01  0.1200E+02
    -18.212  0.0000E+00  0.1200E+02
    -17.983  0.0000E+00  0.1200E+02
    -17.754  0.0000E+00  0.1200E+02
    -17.524  0.0000E+00  0.1200E+02
    -17.295  0.0000E+00  0.1200E+02
    -17.066  0.0000E+00  0.1200E+02
    -16.836  0.0000E+00  0.1200E+02
    -16.607  0.0000E+00  0.1200E+02
    -16.378  0.0000E+00  0.1200E+02
    -16.148  0.0000E+00  0.1200E+02
    -15.919  0.0000E+00  0.1200E+02
    -15.689  0.0000E+00  0.1200E+02
    -15.460  0.0000E+00  0.1200E+02
    -15.231  0.0000E+00  0.1200E+02
    -15.001  0.0000E+00  0.1200E+02
    -14.772  0.0000E+00  0.1200E+02
    -14.543  0.0000E+00  0.1200E+02
    -14.313  0.0000E+00  0.1200E+02
    -14.084  0.0000E+00  0.1200E+02
    -13.855  0.0000E+00  0.1200E+02
    -13.625  0.0000E+00  0.1200E+02
    -13.396  0.0000E+00  0.1200E+02
    -13.167  0.0000E+00  0.1200E+02
    -12.937  0.0000E+00  0.1200E+02
    -12.708  0.0000E+00  0.1200E+02
    -12.478  0.0000E+00  0.1200E+02
    -12.249  0.0000E+00  0.1200E+02
    -12.020  0.0000E+00  0.1200E+02
    -11.790  0.0000E+00  0.1200E+02
    -11.561  0.0000E+00  0.1200E+02
    -11.332  0.0000E+00  0.1200E+02
    -11.102  0.0000E+00  0.1200E+02
    -10.873  0.0000E+00  0.1200E+02
    -10.644  0.0000E+00  0.1200E+02
    -10.414  0.0000E+00  0.1200E+02
    -10.185  0.0000E+00  0.1200E+02
     -9.956  0.0000E+00  0.1200E+02
     -9.726  0.0000E+00  0.1200E+02
     -9.497  0.0000E+00  0.1200E+02
     -9.267  0.0000E+00  0.1200E+02
     -9.038  0.0000E+00  0.1200E+02
     -8.809  0.0000E+00  0.1200E+02
     -8.579  0.0000E+00  0.1200E+02
     -8.350  0.0000E+00  0.1200E+02
     -8.121  0.0000E+00  0.1200E+02
     -7.891  0.0000E+00  0.1200E+02
     -7.662  0.0000E+00  0.1200E+02
     -7.433  0.0000E+00  0.1200E+02
     -7.203  0.0000E+00  0.1200E+02
     -6.974  0.0000E+00  0.1200E+02
     -6.745  0.0000E+00  0.1200E+02
     -6.515  0.5353E-04  0.1200E+02
     -6.286  0.4018E+01  0.1292E+02
     -6.056  0.3234E+01  0.1366E+02
     -5.827  0.8917E+00  0.1387E+02
     -5.598  0.5445E+00  0.1399E+02
     -5.368  0.3095E-01  0.1400E+02
     -5.139  0.0000E+00  0.1400E+02
     -4.910  0.0000E+00  0.1400E+02
     -4.680  0.0000E+00  0.1400E+02
     -4.451  0.0000E+00  0.1400E+02
     -4.222  0.0000E+00  0.1400E+02
     -3.992  0.0000E+00  0.1400E+02
     -3.763  0.6723E-17  0.1400E+02
     -3.533  0.1191E-01  0.1400E+02
     -3.304  0.4429E+01  0.1502E+02
     -3.075  0.1952E+01  0.1547E+02
     -2.845  0.1366E+01  0.1578E+02
     -2.616  0.2578E+01  0.1637E+02
     -2.387  0.1874E+01  0.1680E+02
     -2.157  0.2814E+01  0.1745E+02
     -1.928  0.1571E+01  0.1781E+02
     -1.699  0.7492E+00  0.1798E+02
     -1.469  0.9417E-01  0.1800E+02
     -1.240  0.0000E+00  0.1800E+02
     -1.011  0.0000E+00  0.1800E+02
     -0.781  0.0000E+00  0.1800E+02
     -0.552  0.0000E+00  0.1800E+02
     -0.322  0.0000E+00  0.1800E+02
     -0.093  0.0000E+00  0.1800E+02
      0.136  0.0000E+00  0.1800E+02
      0.366  0.0000E+00  0.1800E+02
      0.595  0.0000E+00  0.1800E+02
      0.824  0.0000E+00  0.1800E+02
      1.054  0.0000E+00  0.1800E+02
      1.283  0.0000E+00  0.1800E+02
      1.512  0.0000E+00  0.1800E+02
      1.742  0.0000E+00  0.1800E+02
      1.971  0.0000E+00  0.1800E+02
      2.200  0.0000E+00  0.1800E+02
      2.430  0.0000E+00  0.1800E+02
      2.659  0.0000E+00  0.1800E+02
      2.889  0.7715E-08  0.1800E+02
      3.118  0.3717E-01  0.1801E+02
      3.347  0.3202E-02  0.1801E+02
      3.577  0.0000E+00  0.1801E+02
      3.806  0.1463E-05  0.1801E+02
      4.035  0.3164E+00  0.1808E+02
      4.265  0.7692E-01  0.1810E+02
      4.494  0.1718E+00  0.1814E+02
      4.723  0.1175E+00  0.1817E+02
      4.953  0.4891E+00  0.1828E+02
      5.182  0.1073E+01  0.1852E+02
      5.411  0.1590E+01  0.1889E+02
      5.641  0.1437E+01  0.1922E+02
      5.870  0.1590E+01  0.1958E+02
      6.100  0.1111E+01  0.1984E+02
      6.329  0.1656E+01  0.2022E+02
      6.558  0.3832E+00  0.2031E+02
      6.788  0.1221E+01  0.2059E+02
      7.017  0.2271E+01  0.2111E+02
      7.246  0.2780E+01  0.2174E+02
      7.476  0.1237E+01  0.2203E+02
      7.705  0.1365E+00  0.2206E+02
      7.934  0.1155E+01  0.2232E+02
      8.164  0.1251E+01  0.2261E+02
      8.393  0.2006E+01  0.2307E+02
      8.622  0.2171E+01  0.2357E+02
      8.852  0.2519E+01  0.2415E+02
      9.081  0.1904E+01  0.2458E+02
      9.311  0.1490E+01  0.2493E+02
      9.540  0.1413E+01  0.2525E+02
      9.769  0.3293E+00  0.2532E+02
      9.999  0.1126E+01  0.2558E+02
     10.228  0.3349E+00  0.2566E+02
     10.457  0.6227E+00  0.2580E+02
     10.687  0.1587E+01  0.2617E+02
     10.916  0.8917E+00  0.2637E+02
     11.145  0.9391E+00  0.2659E+02
     11.375  0.5894E+00  0.2672E+02
     11.604  0.5812E+00  0.2685E+02
     11.834  0.5436E+00  0.2698E+02
     12.063  0.4761E+00  0.2709E+02
     12.292  0.4814E+00  0.2720E+02
     12.522  0.4341E+00  0.2730E+02
     12.751  0.4402E+00  0.2740E+02
     12.980  0.4631E+00  0.2751E+02
     13.210  0.4688E+00  0.2761E+02
     13.439  0.2381E+00  0.2767E+02
     13.668  0.4188E+00  0.2776E+02
     13.898  0.2680E+00  0.2783E+02
     14.127  0.1059E+00  0.2785E+02
     14.356  0.1827E+00  0.2789E+02
     14.586  0.1493E+00  0.2793E+02
     14.815  0.4160E-01  0.2794E+02
     15.045  0.6461E-01  0.2795E+02
     15.274  0.2912E-01  0.2796E+02
     15.503  0.4689E-01  0.2797E+02
     15.733  0.7883E-01  0.2799E+02
     15.962  0.2881E-01  0.2799E+02
     16.191  0.3249E-01  0.2800E+02
     16.421  0.3689E-06  0.2800E+02
     16.650  0.0000E+00  0.2800E+02
     16.879  0.0000E+00  0.2800E+02
     17.109  0.0000E+00  0.2800E+02
     17.338  0.0000E+00  0.2800E+02
     17.567  0.0000E+00  0.2800E+02
     17.797  0.0000E+00  0.2800E+02
     18.026  0.0000E+00  0.2800E+02
     18.256  0.0000E+00  0.2800E+02
     18.485  0.0000E+00  0.2800E+02
     18.714  0.0000E+00  0.2800E+02
     18.944  0.0000E+00  0.2800E+02
     19.173  0.0000E+00  0.2800E+02
