    1    1    1    1
  0.6083477E+02  0.4414576E-09  0.4414576E-09  0.4414576E-09  0.1000000E-15
  1.000000000000000E-004
  CAR 
 Og_FCC                                  
     18    216     28
 
  0.0000000E+00  0.0000000E+00  0.0000000E+00  0.4629630E-02
    1      -46.506919   1.000000
    2      -46.506897   1.000000
    3      -46.506826   1.000000
    4      -46.506798   1.000000
    5      -41.985523   1.000000
    6      -41.985483   1.000000
    7      -41.984840   1.000000
    8      -41.984795   1.000000
    9      -41.984756   1.000000
   10      -41.984735   1.000000
   11      -18.891095   1.000000
   12      -18.891034   1.000000
   13       -5.572060   1.000000
   14       -5.571943   1.000000
   15       -1.667697   1.000000
   16       -1.667600   1.000000
   17       -1.667534   1.000000
   18       -1.667431   1.000000
   19        3.068039   0.000000
   20        3.068081   0.000000
   21        8.514666   0.000000
   22        8.514699   0.000000
   23        8.514713   0.000000
   24        8.514754   0.000000
   25        8.642716   0.000000
   26        8.642766   0.000000
   27       10.297403   0.000000
   28       10.297410   0.000000
 
  0.1666667E+00  0.1538294E-16  0.3469447E-16  0.4629630E-02
    1      -46.506609   1.000000
    2      -46.506595   1.000000
    3      -46.506327   1.000000
    4      -46.506286   1.000000
    5      -41.984941   1.000000
    6      -41.984914   1.000000
    7      -41.984108   1.000000
    8      -41.984052   1.000000
    9      -41.983982   1.000000
   10      -41.983976   1.000000
   11      -18.839331   1.000000
   12      -18.839268   1.000000
   13       -5.740273   1.000000
   14       -5.740165   1.000000
   15       -2.259112   1.000000
   16       -2.258976   1.000000
   17       -1.746256   1.000000
   18       -1.746203   1.000000
   19        3.962875   0.000000
   20        3.962902   0.000000
   21        7.761826   0.000000
   22        7.761950   0.000000
   23        8.722908   0.000000
   24        8.722917   0.000000
   25        8.840169   0.000000
   26        8.840195   0.000000
   27       10.388688   0.000000
   28       11.010690   0.000000
 
  0.3333333E+00  0.5852146E-16  0.6938894E-16  0.4629630E-02
    1      -46.506761   1.000000
    2      -46.506745   1.000000
    3      -46.506418   1.000000
    4      -46.506381   1.000000
    5      -41.985756   1.000000
    6      -41.985717   1.000000
    7      -41.984985   1.000000
    8      -41.984936   1.000000
    9      -41.984702   1.000000
   10      -41.984670   1.000000
   11      -18.744058   1.000000
   12      -18.743994   1.000000
   13       -6.121246   1.000000
   14       -6.121142   1.000000
   15       -3.042146   1.000000
   16       -3.042050   1.000000
   17       -1.906686   1.000000
   18       -1.906623   1.000000
   19        4.858843   0.000000
   20        4.858867   0.000000
   21        8.124475   0.000000
   22        8.124495   0.000000
   23        8.377590   0.000000
   24        8.377636   0.000000
   25        8.512865   0.000000
   26        8.512925   0.000000
   27       10.362063   0.000000
   28       10.784417   0.000000
 
  0.5000000E+00  0.3227103E-16  0.5551115E-16  0.4629630E-02
    1      -46.506490   1.000000
    2      -46.506477   1.000000
    3      -46.505875   1.000000
    4      -46.505834   1.000000
    5      -41.985081   1.000000
    6      -41.985063   1.000000
    7      -41.983560   1.000000
    8      -41.983507   1.000000
    9      -41.983394   1.000000
   10      -41.983385   1.000000
   11      -18.687022   1.000000
   12      -18.686956   1.000000
   13       -6.325660   1.000000
   14       -6.325563   1.000000
   15       -3.321070   1.000000
   16       -3.320966   1.000000
   17       -1.980735   1.000000
   18       -1.980660   1.000000
   19        4.899628   0.000000
   20        4.899687   0.000000
   21        8.098035   0.000000
   22        8.098078   0.000000
   23        8.221088   0.000000
   24        8.221123   0.000000
   25        8.788068   0.000000
   26        8.788093   0.000000
   27       10.701529   0.000000
   28       10.701541   0.000000
 
 -0.3333333E+00 -0.5852146E-16 -0.6938894E-16  0.4629630E-02
    1      -46.506761   1.000000
    2      -46.506745   1.000000
    3      -46.506419   1.000000
    4      -46.506382   1.000000
    5      -41.985756   1.000000
    6      -41.985717   1.000000
    7      -41.984986   1.000000
    8      -41.984937   1.000000
    9      -41.984703   1.000000
   10      -41.984671   1.000000
   11      -18.744057   1.000000
   12      -18.743994   1.000000
   13       -6.121245   1.000000
   14       -6.121138   1.000000
   15       -3.042144   1.000000
   16       -3.042046   1.000000
   17       -1.906682   1.000000
   18       -1.906617   1.000000
   19        4.858852   0.000000
   20        4.858873   0.000000
   21        8.124468   0.000000
   22        8.124499   0.000000
   23        8.377650   0.000000
   24        8.377683   0.000000
   25        8.512861   0.000000
   26        8.512901   0.000000
   27       11.272042   0.000000
   28       11.283760   0.000000
 
 -0.1666667E+00 -0.1538294E-16 -0.3469447E-16  0.4629630E-02
    1      -46.506609   1.000000
    2      -46.506594   1.000000
    3      -46.506328   1.000000
    4      -46.506286   1.000000
    5      -41.984941   1.000000
    6      -41.984913   1.000000
    7      -41.984107   1.000000
    8      -41.984052   1.000000
    9      -41.983981   1.000000
   10      -41.983975   1.000000
   11      -18.839331   1.000000
   12      -18.839268   1.000000
   13       -5.740266   1.000000
   14       -5.740159   1.000000
   15       -2.259112   1.000000
   16       -2.258983   1.000000
   17       -1.746262   1.000000
   18       -1.746207   1.000000
   19        3.962879   0.000000
   20        3.962898   0.000000
   21        7.761700   0.000000
   22        7.761738   0.000000
   23        8.722921   0.000000
   24        8.722921   0.000000
   25        8.840178   0.000000
   26        8.840187   0.000000
   27       10.475620   0.000000
   28       10.577327   0.000000
 
  0.0000000E+00  0.1666667E+00 -0.6938894E-17  0.4629630E-02
    1      -46.506579   1.000000
    2      -46.506546   1.000000
    3      -46.506367   1.000000
    4      -46.506342   1.000000
    5      -41.984894   1.000000
    6      -41.984873   1.000000
    7      -41.984144   1.000000
    8      -41.984085   1.000000
    9      -41.984024   1.000000
   10      -41.983984   1.000000
   11      -18.839358   1.000000
   12      -18.839294   1.000000
   13       -5.740277   1.000000
   14       -5.740192   1.000000
   15       -2.259153   1.000000
   16       -2.259048   1.000000
   17       -1.746251   1.000000
   18       -1.746149   1.000000
   19        3.962892   0.000000
   20        3.962922   0.000000
   21        7.761679   0.000000
   22        7.761682   0.000000
   23        8.722936   0.000000
   24        8.722973   0.000000
   25        8.840210   0.000000
   26        8.840234   0.000000
   27       10.389584   0.000000
   28       10.402560   0.000000
 
  0.1666667E+00  0.1666667E+00  0.2775558E-16  0.4629630E-02
    1      -46.506446   1.000000
    2      -46.506429   1.000000
    3      -46.506236   1.000000
    4      -46.506216   1.000000
    5      -41.984514   1.000000
    6      -41.984465   1.000000
    7      -41.984079   1.000000
    8      -41.984051   1.000000
    9      -41.983798   1.000000
   10      -41.983770   1.000000
   11      -18.822317   1.000000
   12      -18.822246   1.000000
   13       -5.784749   1.000000
   14       -5.784646   1.000000
   15       -2.312300   1.000000
   16       -2.312264   1.000000
   17       -1.916546   1.000000
   18       -1.916441   1.000000
   19        4.284170   0.000000
   20        4.284201   0.000000
   21        7.248076   0.000000
   22        7.248078   0.000000
   23        8.791701   0.000000
   24        8.878236   0.000000
   25        9.118209   0.000000
   26        9.196893   0.000000
   27        9.293533   0.000000
   28       11.731691   0.000000
 
  0.3333333E+00  0.1666667E+00  0.5551115E-16  0.4629630E-02
    1      -46.506368   1.000000
    2      -46.506343   1.000000
    3      -46.506204   1.000000
    4      -46.506175   1.000000
    5      -41.984514   1.000000
    6      -41.984496   1.000000
    7      -41.984253   1.000000
    8      -41.984213   1.000000
    9      -41.983760   1.000000
   10      -41.983741   1.000000
   11      -18.740950   1.000000
   12      -18.740883   1.000000
   13       -6.067272   1.000000
   14       -6.067183   1.000000
   15       -2.944654   1.000000
   16       -2.944590   1.000000
   17       -2.126439   1.000000
   18       -2.126353   1.000000
   19        5.291340   0.000000
   20        5.291364   0.000000
   21        7.012730   0.000000
   22        7.012748   0.000000
   23        7.745743   0.000000
   24        7.745765   0.000000
   25        9.317904   0.000000
   26        9.318291   0.000000
   27       10.505409   0.000000
   28       10.677202   0.000000
 
  0.5000000E+00  0.1666667E+00  0.5551115E-16  0.4629630E-02
    1      -46.506257   1.000000
    2      -46.506236   1.000000
    3      -46.505871   1.000000
    4      -46.505832   1.000000
    5      -41.984298   1.000000
    6      -41.984264   1.000000
    7      -41.983587   1.000000
    8      -41.983539   1.000000
    9      -41.983285   1.000000
   10      -41.983275   1.000000
   11      -18.670597   1.000000
   12      -18.670522   1.000000
   13       -6.305629   1.000000
   14       -6.305526   1.000000
   15       -3.349884   1.000000
   16       -3.349803   1.000000
   17       -2.287634   1.000000
   18       -2.287592   1.000000
   19        5.583133   0.000000
   20        5.583193   0.000000
   21        7.011629   0.000000
   22        7.011670   0.000000
   23        8.561076   0.000000
   24        8.561087   0.000000
   25        8.877528   0.000000
   26        8.877558   0.000000
   27       11.354972   0.000000
   28       11.991952   0.000000
 
 -0.3333333E+00  0.1666667E+00 -0.7632783E-16  0.4629630E-02
    1      -46.506333   1.000000
    2      -46.506311   1.000000
    3      -46.506047   1.000000
    4      -46.506017   1.000000
    5      -41.984541   1.000000
    6      -41.984509   1.000000
    7      -41.983960   1.000000
    8      -41.983942   1.000000
    9      -41.983492   1.000000
   10      -41.983429   1.000000
   11      -18.689232   1.000000
   12      -18.689163   1.000000
   13       -6.247231   1.000000
   14       -6.247148   1.000000
   15       -3.279572   1.000000
   16       -3.279472   1.000000
   17       -2.233607   1.000000
   18       -2.233591   1.000000
   19        5.711095   0.000000
   20        5.711104   0.000000
   21        7.176314   0.000000
   22        7.176346   0.000000
   23        8.254271   0.000000
   24        8.254337   0.000000
   25        8.741202   0.000000
   26        8.741612   0.000000
   27       10.897669   0.000000
   28       11.845248   0.000000
 
 -0.1666667E+00  0.1666667E+00 -0.3250864E-16  0.4629630E-02
    1      -46.506325   1.000000
    2      -46.506303   1.000000
    3      -46.506172   1.000000
    4      -46.506137   1.000000
    5      -41.984563   1.000000
    6      -41.984525   1.000000
    7      -41.984329   1.000000
    8      -41.984294   1.000000
    9      -41.983779   1.000000
   10      -41.983721   1.000000
   11      -18.773131   1.000000
   12      -18.773058   1.000000
   13       -5.962834   1.000000
   14       -5.962730   1.000000
   15       -2.768670   1.000000
   16       -2.768558   1.000000
   17       -1.976218   1.000000
   18       -1.976192   1.000000
   19        5.020946   0.000000
   20        5.020952   0.000000
   21        7.354768   0.000000
   22        7.354817   0.000000
   23        8.115185   0.000000
   24        8.115283   0.000000
   25        9.214667   0.000000
   26        9.235847   0.000000
   27        9.330741   0.000000
   28       10.663218   0.000000
 
  0.0000000E+00  0.3333333E+00  0.0000000E+00  0.4629630E-02
    1      -46.506715   1.000000
    2      -46.506681   1.000000
    3      -46.506464   1.000000
    4      -46.506445   1.000000
    5      -41.985674   1.000000
    6      -41.985650   1.000000
    7      -41.985030   1.000000
    8      -41.984980   1.000000
    9      -41.984735   1.000000
   10      -41.984695   1.000000
   11      -18.744057   1.000000
   12      -18.743993   1.000000
   13       -6.121280   1.000000
   14       -6.121164   1.000000
   15       -3.042152   1.000000
   16       -3.042088   1.000000
   17       -1.906598   1.000000
   18       -1.906502   1.000000
   19        4.858867   0.000000
   20        4.858900   0.000000
   21        8.124405   0.000000
   22        8.124413   0.000000
   23        8.377664   0.000000
   24        8.377681   0.000000
   25        8.512948   0.000000
   26        8.513026   0.000000
   27       10.967742   0.000000
   28       11.756636   0.000000
 
  0.1666667E+00  0.3333333E+00  0.2775558E-16  0.4629630E-02
    1      -46.506356   1.000000
    2      -46.506340   1.000000
    3      -46.506205   1.000000
    4      -46.506174   1.000000
    5      -41.984532   1.000000
    6      -41.984507   1.000000
    7      -41.984236   1.000000
    8      -41.984210   1.000000
    9      -41.983745   1.000000
   10      -41.983720   1.000000
   11      -18.740919   1.000000
   12      -18.740853   1.000000
   13       -6.067293   1.000000
   14       -6.067184   1.000000
   15       -2.944666   1.000000
   16       -2.944598   1.000000
   17       -2.126443   1.000000
   18       -2.126308   1.000000
   19        5.291345   0.000000
   20        5.291371   0.000000
   21        7.012747   0.000000
   22        7.012825   0.000000
   23        7.745814   0.000000
   24        7.745986   0.000000
   25        9.319501   0.000000
   26        9.343069   0.000000
   27       11.172228   0.000000
   28       12.416103   0.000000
 
  0.3333333E+00  0.3333333E+00  0.1110223E-15  0.4629630E-02
    1      -46.506625   1.000000
    2      -46.506607   1.000000
    3      -46.506382   1.000000
    4      -46.506362   1.000000
    5      -41.984944   1.000000
    6      -41.984898   1.000000
    7      -41.984236   1.000000
    8      -41.984224   1.000000
    9      -41.983768   1.000000
   10      -41.983760   1.000000
   11      -18.694512   1.000000
   12      -18.694446   1.000000
   13       -6.200359   1.000000
   14       -6.200255   1.000000
   15       -3.155142   1.000000
   16       -3.155122   1.000000
   17       -2.379475   1.000000
   18       -2.379390   1.000000
   19        5.130380   0.000000
   20        5.130435   0.000000
   21        6.090273   0.000000
   22        6.090279   0.000000
   23        8.551328   0.000000
   24        8.551345   0.000000
   25       10.630578   0.000000
   26       10.686299   0.000000
   27       11.083508   0.000000
   28       13.542538   0.000000
 
  0.5000000E+00  0.3333333E+00  0.5551115E-16  0.4629630E-02
    1      -46.506267   1.000000
    2      -46.506253   1.000000
    3      -46.505904   1.000000
    4      -46.505862   1.000000
    5      -41.984352   1.000000
    6      -41.984332   1.000000
    7      -41.983755   1.000000
    8      -41.983710   1.000000
    9      -41.983045   1.000000
   10      -41.983026   1.000000
   11      -18.639083   1.000000
   12      -18.639015   1.000000
   13       -6.341602   1.000000
   14       -6.341501   1.000000
   15       -3.396134   1.000000
   16       -3.396082   1.000000
   17       -2.612881   1.000000
   18       -2.612797   1.000000
   19        5.193385   0.000000
   20        5.193472   0.000000
   21        6.319354   0.000000
   22        6.319361   0.000000
   23        8.879095   0.000000
   24        8.902804   0.000000
   25       10.605196   0.000000
   26       10.749705   0.000000
   27       13.220024   0.000000
   28       14.267442   0.000000
 
 -0.3333333E+00  0.3333333E+00 -0.4976727E-16  0.4629630E-02
    1      -46.506496   1.000000
    2      -46.506474   1.000000
    3      -46.506310   1.000000
    4      -46.506279   1.000000
    5      -41.984585   1.000000
    6      -41.984557   1.000000
    7      -41.983889   1.000000
    8      -41.983835   1.000000
    9      -41.983756   1.000000
   10      -41.983745   1.000000
   11      -18.642588   1.000000
   12      -18.642523   1.000000
   13       -6.339472   1.000000
   14       -6.339367   1.000000
   15       -3.457276   1.000000
   16       -3.457207   1.000000
   17       -2.635163   1.000000
   18       -2.635128   1.000000
   19        5.769816   0.000000
   20        5.769861   0.000000
   21        7.168050   0.000000
   22        7.168142   0.000000
   23        8.545367   0.000000
   24        8.545377   0.000000
   25        9.793761   0.000000
   26        9.802356   0.000000
   27       11.206361   0.000000
   28       11.418787   0.000000
 
 -0.1666667E+00  0.3333333E+00 -0.2775558E-16  0.4629630E-02
    1      -46.506334   1.000000
    2      -46.506315   1.000000
    3      -46.506032   1.000000
    4      -46.506004   1.000000
    5      -41.984518   1.000000
    6      -41.984502   1.000000
    7      -41.983973   1.000000
    8      -41.983944   1.000000
    9      -41.983478   1.000000
   10      -41.983413   1.000000
   11      -18.689204   1.000000
   12      -18.689136   1.000000
   13       -6.247223   1.000000
   14       -6.247119   1.000000
   15       -3.279560   1.000000
   16       -3.279469   1.000000
   17       -2.233671   1.000000
   18       -2.233577   1.000000
   19        5.711114   0.000000
   20        5.711133   0.000000
   21        7.176294   0.000000
   22        7.176321   0.000000
   23        8.254273   0.000000
   24        8.254274   0.000000
   25        8.741154   0.000000
   26        8.741162   0.000000
   27       10.897355   0.000000
   28       11.566287   0.000000
 
  0.7703720E-33  0.5000000E+00  0.2775558E-16  0.4629630E-02
    1      -46.506462   1.000000
    2      -46.506429   1.000000
    3      -46.505915   1.000000
    4      -46.505889   1.000000
    5      -41.985040   1.000000
    6      -41.985016   1.000000
    7      -41.983576   1.000000
    8      -41.983504   1.000000
    9      -41.983472   1.000000
   10      -41.983422   1.000000
   11      -18.687049   1.000000
   12      -18.686981   1.000000
   13       -6.325695   1.000000
   14       -6.325611   1.000000
   15       -3.321084   1.000000
   16       -3.321007   1.000000
   17       -1.980754   1.000000
   18       -1.980652   1.000000
   19        4.899639   0.000000
   20        4.899672   0.000000
   21        8.098083   0.000000
   22        8.098145   0.000000
   23        8.221143   0.000000
   24        8.221204   0.000000
   25        8.788114   0.000000
   26        8.788506   0.000000
   27       12.554290   0.000000
   28       13.201602   0.000000
 
  0.1666667E+00  0.5000000E+00  0.0000000E+00  0.4629630E-02
    1      -46.506231   1.000000
    2      -46.506202   1.000000
    3      -46.505891   1.000000
    4      -46.505870   1.000000
    5      -41.984251   1.000000
    6      -41.984228   1.000000
    7      -41.983606   1.000000
    8      -41.983568   1.000000
    9      -41.983305   1.000000
   10      -41.983290   1.000000
   11      -18.670596   1.000000
   12      -18.670521   1.000000
   13       -6.305646   1.000000
   14       -6.305547   1.000000
   15       -3.349889   1.000000
   16       -3.349825   1.000000
   17       -2.287631   1.000000
   18       -2.287551   1.000000
   19        5.583137   0.000000
   20        5.583179   0.000000
   21        7.011649   0.000000
   22        7.011681   0.000000
   23        8.561012   0.000000
   24        8.561016   0.000000
   25        8.877510   0.000000
   26        8.877584   0.000000
   27       13.552385   0.000000
   28       13.624529   0.000000
 
  0.3333333E+00  0.5000000E+00  0.5551115E-16  0.4629630E-02
    1      -46.506249   1.000000
    2      -46.506222   1.000000
    3      -46.505926   1.000000
    4      -46.505908   1.000000
    5      -41.984351   1.000000
    6      -41.984323   1.000000
    7      -41.983734   1.000000
    8      -41.983706   1.000000
    9      -41.983087   1.000000
   10      -41.983058   1.000000
   11      -18.639111   1.000000
   12      -18.639042   1.000000
   13       -6.341590   1.000000
   14       -6.341508   1.000000
   15       -3.396165   1.000000
   16       -3.396106   1.000000
   17       -2.612911   1.000000
   18       -2.612819   1.000000
   19        5.193336   0.000000
   20        5.193372   0.000000
   21        6.319349   0.000000
   22        6.319366   0.000000
   23        8.879081   0.000000
   24        8.879408   0.000000
   25       10.603785   0.000000
   26       10.738381   0.000000
   27       12.261399   0.000000
   28       12.543861   0.000000
 
  0.5000000E+00  0.5000000E+00  0.1110223E-15  0.4629630E-02
    1      -46.506171   1.000000
    2      -46.506156   1.000000
    3      -46.505739   1.000000
    4      -46.505721   1.000000
    5      -41.984547   1.000000
    6      -41.984498   1.000000
    7      -41.983478   1.000000
    8      -41.983447   1.000000
    9      -41.983184   1.000000
   10      -41.983149   1.000000
   11      -18.620826   1.000000
   12      -18.620749   1.000000
   13       -6.395537   1.000000
   14       -6.395441   1.000000
   15       -3.466971   1.000000
   16       -3.466934   1.000000
   17       -2.586496   1.000000
   18       -2.586418   1.000000
   19        4.656862   0.000000
   20        4.656918   0.000000
   21        5.688444   0.000000
   22        5.688447   0.000000
   23       10.321233   0.000000
   24       10.327862   0.000000
   25       12.789380   0.000000
   26       12.796918   0.000000
   27       14.510438   0.000000
   28       15.803302   0.000000
 
 -0.3333333E+00  0.5000000E+00 -0.5551115E-16  0.4629630E-02
    1      -46.506250   1.000000
    2      -46.506221   1.000000
    3      -46.505926   1.000000
    4      -46.505907   1.000000
    5      -41.984351   1.000000
    6      -41.984322   1.000000
    7      -41.983734   1.000000
    8      -41.983706   1.000000
    9      -41.983086   1.000000
   10      -41.983057   1.000000
   11      -18.639111   1.000000
   12      -18.639041   1.000000
   13       -6.341597   1.000000
   14       -6.341517   1.000000
   15       -3.396165   1.000000
   16       -3.396109   1.000000
   17       -2.612858   1.000000
   18       -2.612715   1.000000
   19        5.193346   0.000000
   20        5.193388   0.000000
   21        6.319648   0.000000
   22        6.319701   0.000000
   23        8.879080   0.000000
   24        8.879091   0.000000
   25       10.607566   0.000000
   26       10.627445   0.000000
   27       12.569381   0.000000
   28       13.166951   0.000000
 
 -0.1666667E+00  0.5000000E+00 -0.2775558E-16  0.4629630E-02
    1      -46.506231   1.000000
    2      -46.506202   1.000000
    3      -46.505891   1.000000
    4      -46.505871   1.000000
    5      -41.984250   1.000000
    6      -41.984227   1.000000
    7      -41.983607   1.000000
    8      -41.983568   1.000000
    9      -41.983304   1.000000
   10      -41.983290   1.000000
   11      -18.670598   1.000000
   12      -18.670522   1.000000
   13       -6.305638   1.000000
   14       -6.305540   1.000000
   15       -3.349889   1.000000
   16       -3.349825   1.000000
   17       -2.287646   1.000000
   18       -2.287558   1.000000
   19        5.583154   0.000000
   20        5.583193   0.000000
   21        7.011643   0.000000
   22        7.011669   0.000000
   23        8.561164   0.000000
   24        8.561178   0.000000
   25        8.877609   0.000000
   26        8.877610   0.000000
   27       12.761767   0.000000
   28       12.958496   0.000000
 
  0.0000000E+00 -0.3333333E+00  0.0000000E+00  0.4629630E-02
    1      -46.506716   1.000000
    2      -46.506681   1.000000
    3      -46.506466   1.000000
    4      -46.506447   1.000000
    5      -41.985675   1.000000
    6      -41.985650   1.000000
    7      -41.985032   1.000000
    8      -41.984981   1.000000
    9      -41.984738   1.000000
   10      -41.984697   1.000000
   11      -18.744057   1.000000
   12      -18.743993   1.000000
   13       -6.121284   1.000000
   14       -6.121166   1.000000
   15       -3.042148   1.000000
   16       -3.042076   1.000000
   17       -1.906629   1.000000
   18       -1.906525   1.000000
   19        4.858879   0.000000
   20        4.858903   0.000000
   21        8.124466   0.000000
   22        8.124612   0.000000
   23        8.377687   0.000000
   24        8.377748   0.000000
   25        8.512951   0.000000
   26        8.513035   0.000000
   27       10.470082   0.000000
   28       10.699832   0.000000
 
  0.1666667E+00 -0.3333333E+00  0.2775558E-16  0.4629630E-02
    1      -46.506335   1.000000
    2      -46.506316   1.000000
    3      -46.506033   1.000000
    4      -46.506004   1.000000
    5      -41.984520   1.000000
    6      -41.984504   1.000000
    7      -41.983975   1.000000
    8      -41.983946   1.000000
    9      -41.983480   1.000000
   10      -41.983415   1.000000
   11      -18.689203   1.000000
   12      -18.689136   1.000000
   13       -6.247224   1.000000
   14       -6.247118   1.000000
   15       -3.279553   1.000000
   16       -3.279455   1.000000
   17       -2.233645   1.000000
   18       -2.233559   1.000000
   19        5.711131   0.000000
   20        5.711134   0.000000
   21        7.176335   0.000000
   22        7.176578   0.000000
   23        8.254277   0.000000
   24        8.266946   0.000000
   25        8.741186   0.000000
   26        8.745840   0.000000
   27       10.983911   0.000000
   28       15.027653   0.000000
 
  0.3333333E+00 -0.3333333E+00  0.4976727E-16  0.4629630E-02
    1      -46.506496   1.000000
    2      -46.506474   1.000000
    3      -46.506311   1.000000
    4      -46.506280   1.000000
    5      -41.984585   1.000000
    6      -41.984557   1.000000
    7      -41.983890   1.000000
    8      -41.983835   1.000000
    9      -41.983756   1.000000
   10      -41.983745   1.000000
   11      -18.642588   1.000000
   12      -18.642522   1.000000
   13       -6.339472   1.000000
   14       -6.339365   1.000000
   15       -3.457281   1.000000
   16       -3.457209   1.000000
   17       -2.635171   1.000000
   18       -2.635108   1.000000
   19        5.769818   0.000000
   20        5.769860   0.000000
   21        7.168296   0.000000
   22        7.168576   0.000000
   23        8.545361   0.000000
   24        8.545367   0.000000
   25        9.789783   0.000000
   26        9.792869   0.000000
   27       10.745304   0.000000
   28       10.881289   0.000000
 
  0.5000000E+00 -0.3333333E+00  0.9714451E-16  0.4629630E-02
    1      -46.506268   1.000000
    2      -46.506254   1.000000
    3      -46.505905   1.000000
    4      -46.505863   1.000000
    5      -41.984354   1.000000
    6      -41.984333   1.000000
    7      -41.983756   1.000000
    8      -41.983710   1.000000
    9      -41.983046   1.000000
   10      -41.983027   1.000000
   11      -18.639082   1.000000
   12      -18.639014   1.000000
   13       -6.341513   1.000000
   14       -6.341399   1.000000
   15       -3.395905   1.000000
   16       -3.395818   1.000000
   17       -2.612855   1.000000
   18       -2.612766   1.000000
   19        5.193337   0.000000
   20        5.193367   0.000000
   21        6.319360   0.000000
   22        6.319366   0.000000
   23        8.879022   0.000000
   24        8.879041   0.000000
   25       10.603811   0.000000
   26       10.603895   0.000000
   27       11.683109   0.000000
   28       11.702973   0.000000
 
 -0.3333333E+00 -0.3333333E+00 -0.1110223E-15  0.4629630E-02
    1      -46.506626   1.000000
    2      -46.506608   1.000000
    3      -46.506383   1.000000
    4      -46.506363   1.000000
    5      -41.984946   1.000000
    6      -41.984900   1.000000
    7      -41.984238   1.000000
    8      -41.984227   1.000000
    9      -41.983769   1.000000
   10      -41.983761   1.000000
   11      -18.694511   1.000000
   12      -18.694446   1.000000
   13       -6.200351   1.000000
   14       -6.200246   1.000000
   15       -3.155144   1.000000
   16       -3.155128   1.000000
   17       -2.379479   1.000000
   18       -2.379389   1.000000
   19        5.130405   0.000000
   20        5.130457   0.000000
   21        6.090276   0.000000
   22        6.090279   0.000000
   23        8.551291   0.000000
   24        8.551309   0.000000
   25       10.621017   0.000000
   26       10.621021   0.000000
   27       11.020443   0.000000
   28       11.020532   0.000000
 
 -0.1666667E+00 -0.3333333E+00 -0.2775558E-16  0.4629630E-02
    1      -46.506357   1.000000
    2      -46.506340   1.000000
    3      -46.506206   1.000000
    4      -46.506174   1.000000
    5      -41.984533   1.000000
    6      -41.984508   1.000000
    7      -41.984236   1.000000
    8      -41.984210   1.000000
    9      -41.983745   1.000000
   10      -41.983720   1.000000
   11      -18.740923   1.000000
   12      -18.740857   1.000000
   13       -6.067281   1.000000
   14       -6.067173   1.000000
   15       -2.944663   1.000000
   16       -2.944601   1.000000
   17       -2.126436   1.000000
   18       -2.126297   1.000000
   19        5.291353   0.000000
   20        5.291381   0.000000
   21        7.012700   0.000000
   22        7.012742   0.000000
   23        7.745730   0.000000
   24        7.745751   0.000000
   25        9.317914   0.000000
   26        9.317960   0.000000
   27       10.505656   0.000000
   28       10.505982   0.000000
 
  0.0000000E+00 -0.1666667E+00  0.6938894E-17  0.4629630E-02
    1      -46.506578   1.000000
    2      -46.506544   1.000000
    3      -46.506366   1.000000
    4      -46.506342   1.000000