   1   1   0   0
  0.5837391E+02  0.4354229E-09  0.4354229E-09  0.4354229E-09  0.1000000E-15
  1.000000000000000E-004
  CAR 
 Og_FCC                                  
     17.24210377    -32.96065811  301      3.73977482      1.00000000
    -32.961  0.0000E+00  0.0000E+00
    -32.793  0.0000E+00  0.0000E+00
    -32.626  0.0000E+00  0.0000E+00
    -32.459  0.0000E+00  0.0000E+00
    -32.291  0.0000E+00  0.0000E+00
    -32.124  0.0000E+00  0.0000E+00
    -31.957  0.0000E+00  0.0000E+00
    -31.789  0.0000E+00  0.0000E+00
    -31.622 -0.1068E-36 -0.1787E-37
    -31.455 -0.2893E-24 -0.4841E-25
    -31.287 -0.2763E-14 -0.4624E-15
    -31.120 -0.8579E-07 -0.1436E-07
    -30.953 -0.8188E-02 -0.1370E-02
    -30.785 -0.7493E+00 -0.1268E+00
    -30.618  0.2265E+02  0.3663E+01
    -30.451  0.2086E+01  0.4012E+01
    -30.283 -0.7433E-01  0.4000E+01
    -30.116 -0.4601E-05  0.4000E+01
    -29.948 -0.7804E-12  0.4000E+01
    -29.781  0.0000E+00  0.4000E+01
    -29.614  0.0000E+00  0.4000E+01
    -29.446  0.0000E+00  0.4000E+01
    -29.279  0.0000E+00  0.4000E+01
    -29.112  0.0000E+00  0.4000E+01
    -28.944  0.0000E+00  0.4000E+01
    -28.777  0.0000E+00  0.4000E+01
    -28.610  0.0000E+00  0.4000E+01
    -28.442  0.0000E+00  0.4000E+01
    -28.275  0.0000E+00  0.4000E+01
    -28.108  0.0000E+00  0.4000E+01
    -27.940  0.0000E+00  0.4000E+01
    -27.773  0.0000E+00  0.4000E+01
    -27.606  0.0000E+00  0.4000E+01
    -27.438  0.0000E+00  0.4000E+01
    -27.271  0.0000E+00  0.4000E+01
    -27.104  0.0000E+00  0.4000E+01
    -26.936  0.0000E+00  0.4000E+01
    -26.769  0.0000E+00  0.4000E+01
    -26.602  0.0000E+00  0.4000E+01
    -26.434  0.0000E+00  0.4000E+01
    -26.267  0.0000E+00  0.4000E+01
    -26.100  0.0000E+00  0.4000E+01
    -25.932  0.0000E+00  0.4000E+01
    -25.765  0.0000E+00  0.4000E+01
    -25.598  0.0000E+00  0.4000E+01
    -25.430  0.0000E+00  0.4000E+01
    -25.263  0.0000E+00  0.4000E+01
    -25.096  0.0000E+00  0.4000E+01
    -24.928 -0.2319E-36  0.4000E+01
    -24.761 -0.5738E-24  0.4000E+01
    -24.594 -0.5053E-14  0.4000E+01
    -24.426 -0.1460E-06  0.4000E+01
    -24.259 -0.1309E-01  0.3998E+01
    -24.092 -0.1091E+01  0.3815E+01
    -23.924  0.3409E+02  0.9519E+01
    -23.757  0.2980E+01  0.1002E+02
    -23.589 -0.1079E+00  0.1000E+02
    -23.422 -0.6592E-05  0.1000E+02
    -23.255 -0.1119E-11  0.1000E+02
    -23.087  0.0000E+00  0.1000E+02
    -22.920  0.0000E+00  0.1000E+02
    -22.753  0.0000E+00  0.1000E+02
    -22.585  0.0000E+00  0.1000E+02
    -22.418  0.0000E+00  0.1000E+02
    -22.251  0.0000E+00  0.1000E+02
    -22.083  0.0000E+00  0.1000E+02
    -21.916  0.0000E+00  0.1000E+02
    -21.749  0.0000E+00  0.1000E+02
    -21.581  0.0000E+00  0.1000E+02
    -21.414  0.0000E+00  0.1000E+02
    -21.247 -0.1054E-30  0.1000E+02
    -21.079 -0.8535E-20  0.1000E+02
    -20.912 -0.2589E-11  0.1000E+02
    -20.745 -0.3176E-05  0.1000E+02
    -20.577 -0.1691E-01  0.9997E+01
    -20.410  0.1161E+00  0.1002E+02
    -20.243  0.1073E+02  0.1181E+02
    -20.075  0.1166E+01  0.1201E+02
    -19.908 -0.4300E-01  0.1200E+02
    -19.741 -0.4811E-05  0.1200E+02
    -19.573 -0.1616E-11  0.1200E+02
    -19.406  0.0000E+00  0.1200E+02
    -19.239  0.0000E+00  0.1200E+02
    -19.071  0.0000E+00  0.1200E+02
    -18.904  0.0000E+00  0.1200E+02
    -18.737  0.0000E+00  0.1200E+02
    -18.569  0.0000E+00  0.1200E+02
    -18.402  0.0000E+00  0.1200E+02
    -18.235  0.0000E+00  0.1200E+02
    -18.067  0.0000E+00  0.1200E+02
    -17.900  0.0000E+00  0.1200E+02
    -17.732  0.0000E+00  0.1200E+02
    -17.565  0.0000E+00  0.1200E+02
    -17.398  0.0000E+00  0.1200E+02
    -17.230  0.0000E+00  0.1200E+02
    -17.063  0.0000E+00  0.1200E+02
    -16.896  0.0000E+00  0.1200E+02
    -16.728  0.0000E+00  0.1200E+02
    -16.561  0.0000E+00  0.1200E+02
    -16.394  0.0000E+00  0.1200E+02
    -16.226  0.0000E+00  0.1200E+02
    -16.059  0.0000E+00  0.1200E+02
    -15.892  0.0000E+00  0.1200E+02
    -15.724  0.0000E+00  0.1200E+02
    -15.557  0.0000E+00  0.1200E+02
    -15.390  0.0000E+00  0.1200E+02
    -15.222  0.0000E+00  0.1200E+02
    -15.055  0.0000E+00  0.1200E+02
    -14.888  0.0000E+00  0.1200E+02
    -14.720  0.0000E+00  0.1200E+02
    -14.553  0.0000E+00  0.1200E+02
    -14.386  0.0000E+00  0.1200E+02
    -14.218  0.0000E+00  0.1200E+02
    -14.051  0.0000E+00  0.1200E+02
    -13.884  0.0000E+00  0.1200E+02
    -13.716  0.0000E+00  0.1200E+02
    -13.549  0.0000E+00  0.1200E+02
    -13.382  0.0000E+00  0.1200E+02
    -13.214  0.0000E+00  0.1200E+02
    -13.047  0.0000E+00  0.1200E+02
    -12.880  0.0000E+00  0.1200E+02
    -12.712  0.0000E+00  0.1200E+02
    -12.545  0.0000E+00  0.1200E+02
    -12.378  0.0000E+00  0.1200E+02
    -12.210  0.0000E+00  0.1200E+02
    -12.043  0.0000E+00  0.1200E+02
    -11.875  0.0000E+00  0.1200E+02
    -11.708  0.0000E+00  0.1200E+02
    -11.541  0.0000E+00  0.1200E+02
    -11.373  0.0000E+00  0.1200E+02
    -11.206  0.0000E+00  0.1200E+02
    -11.039  0.0000E+00  0.1200E+02
    -10.871  0.0000E+00  0.1200E+02
    -10.704  0.0000E+00  0.1200E+02
    -10.537  0.0000E+00  0.1200E+02
    -10.369  0.0000E+00  0.1200E+02
    -10.202  0.0000E+00  0.1200E+02
    -10.035  0.0000E+00  0.1200E+02
     -9.867  0.0000E+00  0.1200E+02
     -9.700  0.0000E+00  0.1200E+02
     -9.533  0.0000E+00  0.1200E+02
     -9.365  0.0000E+00  0.1200E+02
     -9.198  0.0000E+00  0.1200E+02
     -9.031  0.0000E+00  0.1200E+02
     -8.863  0.0000E+00  0.1200E+02
     -8.696  0.0000E+00  0.1200E+02
     -8.529 -0.2411E-36  0.1200E+02
     -8.361 -0.3474E-24  0.1200E+02
     -8.194 -0.1806E-14  0.1200E+02
     -8.027 -0.3360E-07  0.1200E+02
     -7.859 -0.2130E-02  0.1200E+02
     -7.692 -0.1998E+00  0.1197E+02
     -7.525  0.6384E+01  0.1303E+02
     -7.357  0.4690E+01  0.1382E+02
     -7.190  0.1029E+01  0.1399E+02
     -7.023  0.5362E-01  0.1400E+02
     -6.855 -0.3178E-02  0.1400E+02
     -6.688 -0.1301E-05  0.1400E+02
     -6.521 -0.2415E-11  0.1400E+02
     -6.353  0.0000E+00  0.1400E+02
     -6.186  0.0000E+00  0.1400E+02
     -6.019  0.0000E+00  0.1400E+02
     -5.851  0.0000E+00  0.1400E+02
     -5.684  0.0000E+00  0.1400E+02
     -5.516  0.0000E+00  0.1400E+02
     -5.349  0.0000E+00  0.1400E+02
     -5.182  0.0000E+00  0.1400E+02
     -5.014  0.0000E+00  0.1400E+02
     -4.847  0.0000E+00  0.1400E+02
     -4.680  0.0000E+00  0.1400E+02
     -4.512  0.0000E+00  0.1400E+02
     -4.345  0.0000E+00  0.1400E+02
     -4.178  0.0000E+00  0.1400E+02
     -4.010  0.0000E+00  0.1400E+02
     -3.843  0.0000E+00  0.1400E+02
     -3.676  0.0000E+00  0.1400E+02
     -3.508  0.0000E+00  0.1400E+02
     -3.341  0.0000E+00  0.1400E+02
     -3.174  0.0000E+00  0.1400E+02
     -3.006  0.0000E+00  0.1400E+02
     -2.839  0.0000E+00  0.1400E+02
     -2.672  0.0000E+00  0.1400E+02
     -2.504  0.0000E+00  0.1400E+02
     -2.337  0.0000E+00  0.1400E+02
     -2.170  0.0000E+00  0.1400E+02
     -2.002  0.0000E+00  0.1400E+02
     -1.835  0.0000E+00  0.1400E+02
     -1.668  0.0000E+00  0.1400E+02
     -1.500  0.0000E+00  0.1400E+02
     -1.333  0.0000E+00  0.1400E+02
     -1.166  0.0000E+00  0.1400E+02
     -0.998  0.0000E+00  0.1400E+02
     -0.831  0.0000E+00  0.1400E+02
     -0.664  0.0000E+00  0.1400E+02
     -0.496  0.0000E+00  0.1400E+02
     -0.329 -0.5682E-31  0.1400E+02
     -0.162 -0.5906E-20  0.1400E+02
      0.006 -0.2088E-11  0.1400E+02
      0.173 -0.2591E-05  0.1400E+02
      0.341 -0.1108E-01  0.1400E+02
      0.508  0.1372E+00  0.1402E+02
      0.675  0.5539E+01  0.1495E+02
      0.843  0.3187E+01  0.1548E+02
      1.010  0.7757E+00  0.1561E+02
      1.177  0.6922E+00  0.1573E+02
      1.345  0.5818E+00  0.1582E+02
      1.512  0.3105E+00  0.1588E+02
      1.679  0.8820E+00  0.1602E+02
      1.847  0.1489E+01  0.1627E+02
      2.014  0.1794E+01  0.1657E+02
      2.181  0.9476E+00  0.1673E+02
      2.349  0.1895E+01  0.1705E+02
      2.516  0.8550E+00  0.1719E+02
      2.683  0.1073E+01  0.1737E+02
      2.851  0.8013E+00  0.1751E+02
      3.018  0.1127E+01  0.1769E+02
      3.185  0.6308E+00  0.1780E+02
      3.353  0.5983E+00  0.1790E+02
      3.520  0.4028E+00  0.1797E+02
      3.687  0.1491E+00  0.1799E+02
      3.855  0.6566E-01  0.1800E+02
      4.022 -0.2411E-02  0.1800E+02
      4.189 -0.6442E-05  0.1800E+02
      4.357 -0.1571E-07  0.1800E+02
      4.524 -0.3184E-03  0.1800E+02
      4.691  0.7878E-02  0.1800E+02
      4.859  0.1262E+00  0.1803E+02
      5.026  0.2460E-01  0.1803E+02
      5.193  0.7426E-01  0.1804E+02
      5.361 -0.8016E-02  0.1804E+02
      5.528  0.1172E+00  0.1806E+02
      5.695  0.2031E+00  0.1809E+02
      5.863  0.2114E+00  0.1813E+02
      6.030  0.4662E+00  0.1821E+02
      6.197  0.1083E+00  0.1823E+02
      6.365  0.7943E+00  0.1836E+02
      6.532  0.1694E+01  0.1864E+02
      6.700  0.1086E+01  0.1882E+02
      6.867  0.7034E+00  0.1894E+02
      7.034  0.1489E+01  0.1919E+02
      7.202  0.2553E+01  0.1962E+02
      7.369  0.1026E+01  0.1979E+02
      7.536  0.1031E+01  0.1996E+02
      7.704  0.3873E+00  0.2003E+02
      7.871  0.3535E+00  0.2009E+02
      8.038  0.5740E+00  0.2018E+02
      8.206  0.7863E-01  0.2020E+02
      8.373  0.7195E+00  0.2032E+02
      8.540  0.3676E+01  0.2093E+02
      8.708  0.1499E+01  0.2118E+02
      8.875  0.1108E+01  0.2137E+02
      9.042  0.5872E+00  0.2146E+02
      9.210  0.1223E+01  0.2167E+02
      9.377  0.1523E+01  0.2192E+02
      9.544  0.1784E+01  0.2222E+02
      9.712  0.2577E+01  0.2265E+02
      9.879  0.5586E+00  0.2275E+02
     10.046  0.6941E+00  0.2286E+02
     10.214  0.1272E+01  0.2308E+02
     10.381  0.2560E+01  0.2351E+02
     10.548  0.1986E+01  0.2384E+02
     10.716  0.1031E+01  0.2401E+02
     10.883  0.6209E+00  0.2411E+02
     11.050  0.1502E+01  0.2437E+02
     11.218  0.1232E+01  0.2457E+02
     11.385  0.3254E+01  0.2512E+02
     11.552  0.1800E+01  0.2542E+02
     11.720  0.1029E+01  0.2559E+02
     11.887  0.1770E+01  0.2589E+02
     12.054  0.1127E+01  0.2607E+02
     12.222  0.1251E+01  0.2628E+02
     12.389  0.8619E+00  0.2643E+02
     12.557  0.1337E+01  0.2665E+02
     12.724  0.1895E+01  0.2697E+02
     12.891  0.1219E+01  0.2717E+02
     13.059  0.6051E+00  0.2727E+02
     13.226  0.5691E+00  0.2737E+02
     13.393  0.1966E+01  0.2770E+02
     13.561  0.5386E+00  0.2779E+02
     13.728  0.5253E-01  0.2780E+02
     13.895  0.4277E-01  0.2780E+02
     14.063  0.4647E+00  0.2788E+02
     14.230  0.1656E+00  0.2791E+02
     14.397  0.3019E+00  0.2796E+02
     14.565  0.1134E+00  0.2798E+02
     14.732  0.6807E-01  0.2799E+02
     14.899  0.3758E-01  0.2800E+02
     15.067  0.1857E-01  0.2800E+02
     15.234 -0.6185E-03  0.2800E+02
     15.401 -0.6147E-05  0.2800E+02
     15.569 -0.6830E-10  0.2800E+02
     15.736 -0.3640E-17  0.2800E+02
     15.903  0.0000E+00  0.2800E+02
     16.071  0.0000E+00  0.2800E+02
     16.238  0.0000E+00  0.2800E+02
     16.405  0.0000E+00  0.2800E+02
     16.573  0.0000E+00  0.2800E+02
     16.740  0.0000E+00  0.2800E+02
     16.907  0.0000E+00  0.2800E+02
     17.075  0.0000E+00  0.2800E+02
     17.242  0.0000E+00  0.2800E+02
