    1    1    1    1
  0.5837391E+02  0.4354229E-09  0.4354229E-09  0.4354229E-09  0.1000000E-15
  1.000000000000000E-004
  CAR 
 Og_FCC                                  
     18    365     28
 
  0.0000000E+00  0.0000000E+00  0.0000000E+00  0.1371742E-02
    1      -30.678714   1.000000
    2      -30.678714   1.000000
    3      -30.678713   1.000000
    4      -30.678712   1.000000
    5      -23.991198   1.000000
    6      -23.991197   1.000000
    7      -23.987344   1.000000
    8      -23.987344   1.000000
    9      -23.987344   1.000000
   10      -23.987343   1.000000
   11      -20.416039   1.000000
   12      -20.416039   1.000000
   13       -7.167973   1.000000
   14       -7.167971   1.000000
   15        3.429391   1.000052
   16        3.429405   1.000052
   17        3.734931   0.540937
   18        3.734932   0.540928
   19        3.734933   0.540923
   20        3.734933   0.540921
   21       10.611080   0.000000
   22       10.611081   0.000000
   23       10.611083   0.000000
   24       10.611083   0.000000
   25       10.840331   0.000000
   26       10.840333   0.000000
   27       11.029289   0.000000
   28       11.029295   0.000000
 
  0.1111111E+00  0.1491955E-16  0.0000000E+00  0.2743484E-02
    1      -30.678664   1.000000
    2      -30.678664   1.000000
    3      -30.678423   1.000000
    4      -30.678423   1.000000
    5      -23.990437   1.000000
    6      -23.990437   1.000000
    7      -23.987459   1.000000
    8      -23.987459   1.000000
    9      -23.986466   1.000000
   10      -23.986466   1.000000
   11      -20.403784   1.000000
   12      -20.403784   1.000000
   13       -7.209524   1.000000
   14       -7.209522   1.000000
   15        2.447735   1.000000
   16        2.447741   1.000000
   17        3.660494   0.988184
   18        3.660495   0.988182
   19        4.756705  -0.000000
   20        4.756712  -0.000000
   21        9.769627   0.000000
   22        9.769628   0.000000
   23       10.733230   0.000000
   24       10.733231   0.000000
   25       11.016301   0.000000
   26       11.016303   0.000000
   27       12.042892   0.000000
   28       12.478046   0.000000
 
  0.2222222E+00  0.2983911E-16  0.0000000E+00  0.2743484E-02
    1      -30.678469   1.000000
    2      -30.678469   1.000000
    3      -30.677553   1.000000
    4      -30.677553   1.000000
    5      -23.989287   1.000000
    6      -23.989287   1.000000
    7      -23.986965   1.000000
    8      -23.986964   1.000000
    9      -23.984226   1.000000
   10      -23.984226   1.000000
   11      -20.372159   1.000000
   12      -20.372159   1.000000
   13       -7.314765   1.000000
   14       -7.314764   1.000000
   15        1.525082   1.000000
   16        1.525086   1.000000
   17        3.484169   1.000898
   18        3.484170   1.000898
   19        5.630124  -0.000000
   20        5.630131  -0.000000
   21        9.539341   0.000000
   22        9.539345   0.000000
   23       10.707519   0.000000
   24       10.707520   0.000000
   25       11.066192   0.000000
   26       11.066211   0.000000
   27       11.490964   0.000000
   28       11.493145   0.000000
 
  0.3333333E+00  0.5863645E-16 -0.1387779E-16  0.2743484E-02
    1      -30.678237   1.000000
    2      -30.678237   1.000000
    3      -30.676549   1.000000
    4      -30.676549   1.000000
    5      -23.989522   1.000000
    6      -23.989522   1.000000
    7      -23.984874   1.000000
    8      -23.984874   1.000000
    9      -23.981674   1.000000
   10      -23.981673   1.000000
   11      -20.335706   1.000000
   12      -20.335706   1.000000
   13       -7.434961   1.000000
   14       -7.434959   1.000000
   15        0.875304   1.000000
   16        0.875307   1.000000
   17        3.301187   1.000000
   18        3.301188   1.000000
   19        5.934540  -0.000000
   20        5.934545  -0.000000
   21       10.100768   0.000000
   22       10.100788   0.000000
   23       10.338538   0.000000
   24       10.338538   0.000000
   25       10.761008   0.000000
   26       10.761012   0.000000
   27       10.994185   0.000000
   28       10.994199   0.000000
 
  0.4444444E+00  0.5967822E-16  0.0000000E+00  0.2743484E-02
    1      -30.678087   1.000000
    2      -30.678087   1.000000
    3      -30.675917   1.000000
    4      -30.675917   1.000000
    5      -23.989899   1.000000
    6      -23.989899   1.000000
    7      -23.983297   1.000000
    8      -23.983297   1.000000
    9      -23.980007   1.000000
   10      -23.980007   1.000000
   11      -20.311639   1.000000
   12      -20.311639   1.000000
   13       -7.513739   1.000000
   14       -7.513737   1.000000
   15        0.541742   1.000000
   16        0.541745   1.000000
   17        3.190002   1.000000
   18        3.190003   1.000000
   19        5.941758  -0.000000
   20        5.941761  -0.000000
   21       10.082446   0.000000
   22       10.082447   0.000000
   23       10.236878   0.000000
   24       10.236919   0.000000
   25       10.480837   0.000000
   26       10.480838   0.000000
   27       11.607288   0.000000
   28       11.607291   0.000000
 
  0.1925930E-33  0.1111111E+00 -0.6938894E-17  0.2743484E-02
    1      -30.678664   1.000000
    2      -30.678664   1.000000
    3      -30.678423   1.000000
    4      -30.678423   1.000000
    5      -23.990437   1.000000
    6      -23.990437   1.000000
    7      -23.987459   1.000000
    8      -23.987459   1.000000
    9      -23.986466   1.000000
   10      -23.986466   1.000000
   11      -20.403784   1.000000
   12      -20.403784   1.000000
   13       -7.209524   1.000000
   14       -7.209522   1.000000
   15        2.447735   1.000000
   16        2.447741   1.000000
   17        3.660494   0.988185
   18        3.660495   0.988182
   19        4.756705  -0.000000
   20        4.756712  -0.000000
   21        9.769627   0.000000
   22        9.769628   0.000000
   23       10.733229   0.000000
   24       10.733234   0.000000
   25       11.016299   0.000000
   26       11.016316   0.000000
   27       12.044355   0.000000
   28       12.170712   0.000000
 
  0.1111111E+00  0.1111111E+00 -0.2775558E-16  0.2743484E-02
    1      -30.678562   1.000000
    2      -30.678561   1.000000
    3      -30.678385   1.000000
    4      -30.678385   1.000000
    5      -23.990301   1.000000
    6      -23.990301   1.000000
    7      -23.986950   1.000000
    8      -23.986949   1.000000
    9      -23.986602   1.000000
   10      -23.986602   1.000000
   11      -20.399674   1.000000
   12      -20.399674   1.000000
   13       -7.222831   1.000000
   14       -7.222829   1.000000
   15        2.340579   1.000000
   16        2.340585   1.000000
   17        3.482201   1.000820
   18        3.482201   1.000820
   19        5.053662  -0.000000
   20        5.053669  -0.000000
   21        9.475035   0.000000
   22        9.475036   0.000000
   23       10.751858   0.000000
   24       10.751859   0.000000
   25       11.331169   0.000000
   26       11.331200   0.000000
   27       11.382254   0.000000
   28       11.382475   0.000000
 
  0.2222222E+00  0.1111111E+00  0.2775558E-16  0.2743484E-02
    1      -30.678369   1.000000
    2      -30.678368   1.000000
    3      -30.677733   1.000000
    4      -30.677733   1.000000
    5      -23.989263   1.000000
    6      -23.989263   1.000000
    7      -23.986901   1.000000
    8      -23.986901   1.000000
    9      -23.984583   1.000000
   10      -23.984583   1.000000
   11      -20.374497   1.000000
   12      -20.374496   1.000000
   13       -7.305415   1.000000
   14       -7.305414   1.000000
   15        1.657391   1.000000
   16        1.657395   1.000000
   17        3.260865   1.000000
   18        3.260866   1.000000
   19        5.864081  -0.000000
   20        5.864089  -0.000000
   21        9.099410   0.000000
   22        9.099411   0.000000
   23       10.227974   0.000000
   24       10.227988   0.000000
   25       11.170547   0.000000
   26       11.170550   0.000000
   27       11.841925   0.000000
   28       11.842286   0.000000
 
  0.3333333E+00  0.1111111E+00  0.0000000E+00  0.2743484E-02
    1      -30.678130   1.000000
    2      -30.678129   1.000000
    3      -30.676803   1.000000
    4      -30.676803   1.000000
    5      -23.988852   1.000000
    6      -23.988852   1.000000
    7      -23.985584   1.000000
    8      -23.985584   1.000000
    9      -23.982080   1.000000
   10      -23.982080   1.000000
   11      -20.339656   1.000000
   12      -20.339656   1.000000
   13       -7.418612   1.000000
   14       -7.418610   1.000000
   15        1.020185   1.000000
   16        1.020188   1.000000
   17        3.021265   1.000000
   18        3.021266   1.000000
   19        6.356964  -0.000000
   20        6.356970  -0.000000
   21        9.382794   0.000000
   22        9.382807   0.000000
   23        9.655089   0.000000
   24        9.655097   0.000000
   25       11.053508   0.000000
   26       11.053518   0.000000
   27       12.328327   0.000000
   28       12.502905   0.000000
 
  0.4444444E+00  0.1111111E+00 -0.2775558E-16  0.2743484E-02
    1      -30.677932   1.000000
    2      -30.677932   1.000000
    3      -30.676057   1.000000
    4      -30.676057   1.000000
    5      -23.989115   1.000000
    6      -23.989114   1.000000
    7      -23.983612   1.000000
    8      -23.983612   1.000000
    9      -23.980406   1.000000
   10      -23.980406   1.000000
   11      -20.311399   1.000000
   12      -20.311399   1.000000
   13       -7.509368   1.000000
   14       -7.509367   1.000000
   15        0.622497   1.000000
   16        0.622499   1.000000
   17        2.837242   1.000000
   18        2.837242   1.000000
   19        6.453516  -0.000000
   20        6.453520  -0.000000
   21        9.103417   0.000000
   22        9.103439   0.000000
   23       10.412043   0.000000
   24       10.412047   0.000000
   25       10.933523   0.000000
   26       10.933526   0.000000
   27       12.050614   0.000000
   28       12.050681   0.000000
 
 -0.4444444E+00  0.1111111E+00 -0.2775558E-16  0.2743484E-02
    1      -30.677885   1.000000
    2      -30.677885   1.000000
    3      -30.675873   1.000000
    4      -30.675873   1.000000
    5      -23.989193   1.000000
    6      -23.989193   1.000000
    7      -23.982897   1.000000
    8      -23.982897   1.000000
    9      -23.980100   1.000000
   10      -23.980100   1.000000
   11      -20.303380   1.000000
   12      -20.303380   1.000000
   13       -7.535190   1.000000
   14       -7.535188   1.000000
   15        0.519028   1.000000
   16        0.519030   1.000000
   17        2.783967   1.000000
   18        2.783967   1.000000
   19        6.470966   0.000000
   20        6.470969   0.000000
   21        9.031366   0.000000
   22        9.031390   0.000000
   23       10.428518   0.000000
   24       10.428519   0.000000
   25       11.275633   0.000000
   26       11.275647   0.000000
   27       12.203154   0.000000
   28       12.203181   0.000000
 
 -0.3333333E+00  0.1111111E+00 -0.1387779E-16  0.2743484E-02
    1      -30.677983   1.000000
    2      -30.677983   1.000000
    3      -30.676262   1.000000
    4      -30.676261   1.000000
    5      -23.988910   1.000000
    6      -23.988910   1.000000
    7      -23.984184   1.000000
    8      -23.984183   1.000000
    9      -23.980994   1.000000
   10      -23.980994   1.000000
   11      -20.319391   1.000000
   12      -20.319391   1.000000
   13       -7.483981   1.000000
   14       -7.483979   1.000000
   15        0.720160   1.000000
   16        0.720162   1.000000
   17        2.886022   1.000000
   18        2.886023   1.000000
   19        6.480755   0.000000
   20        6.480758   0.000000
   21        9.261250   0.000000
   22        9.261273   0.000000
   23       10.336066   0.000000
   24       10.336074   0.000000
   25       10.677508   0.000000
   26       10.677510   0.000000
   27       12.300997   0.000000
   28       12.312458   0.000000
 
 -0.2222222E+00  0.1111111E+00 -0.6938894E-17  0.2743484E-02
    1      -30.678224   1.000000
    2      -30.678224   1.000000
    3      -30.677101   1.000000
    4      -30.677100   1.000000
    5      -23.988516   1.000000
    6      -23.988516   1.000000
    7      -23.986537   1.000000
    8      -23.986537   1.000000
    9      -23.982926   1.000000
   10      -23.982925   1.000000
   11      -20.351751   1.000000
   12      -20.351751   1.000000
   13       -7.379934   1.000000
   14       -7.379932   1.000000
   15        1.199772   1.000000
   16        1.199775   1.000000
   17        3.120801   1.000000
   18        3.120802   1.000000
   19        6.257115  -0.000000
   20        6.257121  -0.000000
   21        9.364794   0.000000
   22        9.364798   0.000000
   23       10.010766   0.000000
   24       10.010784   0.000000
   25       10.892203   0.000000
   26       10.892208   0.000000
   27       11.834316   0.000000
   28       11.843101   0.000000
 
 -0.1111111E+00  0.1111111E+00 -0.3816916E-17  0.2743484E-02
    1      -30.678490   1.000000
    2      -30.678490   1.000000
    3      -30.677953   1.000000
    4      -30.677952   1.000000
    5      -23.989387   1.000000
    6      -23.989387   1.000000
    7      -23.987472   1.000000
    8      -23.987472   1.000000
    9      -23.985179   1.000000
   10      -23.985178   1.000000
   11      -20.384984   1.000000
   12      -20.384984   1.000000
   13       -7.271602   1.000000
   14       -7.271600   1.000000
   15        1.867274   1.000000
   16        1.867278   1.000000
   17        3.426359   1.000043
   18        3.426360   1.000043
   19        5.517550  -0.000000
   20        5.517558  -0.000000
   21        9.366446   0.000000
   22        9.366447   0.000000
   23       10.611359   0.000000
   24       10.611370   0.000000
   25       11.113276   0.000000
   26       11.113315   0.000000
   27       11.653558   0.000000
   28       11.661232   0.000000
 
 -0.3851860E-33  0.2222222E+00 -0.1387779E-16  0.2743484E-02
    1      -30.678470   1.000000
    2      -30.678470   1.000000
    3      -30.677553   1.000000
    4      -30.677552   1.000000
    5      -23.989287   1.000000
    6      -23.989287   1.000000
    7      -23.986964   1.000000
    8      -23.986964   1.000000
    9      -23.984226   1.000000
   10      -23.984226   1.000000
   11      -20.372159   1.000000
   12      -20.372159   1.000000
   13       -7.314765   1.000000
   14       -7.314764   1.000000
   15        1.525082   1.000000
   16        1.525086   1.000000
   17        3.484169   1.000898
   18        3.484170   1.000898
   19        5.630124  -0.000000
   20        5.630131  -0.000000
   21        9.539341   0.000000
   22        9.539345   0.000000
   23       10.707519   0.000000
   24       10.707520   0.000000
   25       11.066205   0.000000
   26       11.066276   0.000000
   27       11.490925   0.000000
   28       11.496340   0.000000
 
  0.1111111E+00  0.2222222E+00 -0.1387779E-16  0.2743484E-02
    1      -30.678369   1.000000
    2      -30.678369   1.000000
    3      -30.677732   1.000000
    4      -30.677732   1.000000
    5      -23.989263   1.000000
    6      -23.989263   1.000000
    7      -23.986901   1.000000
    8      -23.986901   1.000000
    9      -23.984583   1.000000
   10      -23.984583   1.000000
   11      -20.374497   1.000000
   12      -20.374496   1.000000
   13       -7.305415   1.000000
   14       -7.305414   1.000000
   15        1.657391   1.000000
   16        1.657395   1.000000
   17        3.260865   1.000000
   18        3.260866   1.000000
   19        5.864081  -0.000000
   20        5.864089  -0.000000
   21        9.099410   0.000000
   22        9.099411   0.000000
   23       10.227974   0.000000
   24       10.227988   0.000000
   25       11.170548   0.000000
   26       11.170555   0.000000
   27       11.841944   0.000000
   28       11.842156   0.000000
 
  0.2222222E+00  0.2222222E+00  0.0000000E+00  0.2743484E-02
    1      -30.678084   1.000000
    2      -30.678084   1.000000
    3      -30.677457   1.000000
    4      -30.677457   1.000000
    5      -23.989268   1.000000
    6      -23.989267   1.000000
    7      -23.985954   1.000000
    8      -23.985953   1.000000
    9      -23.983448   1.000000
   10      -23.983447   1.000000
   11      -20.357697   1.000000
   12      -20.357696   1.000000
   13       -7.357442   1.000000
   14       -7.357440   1.000000
   15        1.430896   1.000000
   16        1.430899   1.000000
   17        2.936866   1.000000
   18        2.936867   1.000000
   19        6.388087  -0.000000
   20        6.388099  -0.000000
   21        8.495623   0.000000
   22        8.495624   0.000000
   23        9.676811   0.000000
   24        9.676825   0.000000
   25       11.431006   0.000000
   26       11.431007   0.000000
   27       12.375133   0.000000
   28       12.375134   0.000000
 
  0.3333333E+00  0.2222222E+00  0.0000000E+00  0.2743484E-02
    1      -30.677795   1.000000
    2      -30.677794   1.000000
    3      -30.676774   1.000000
    4      -30.676774   1.000000
    5      -23.988670   1.000000
    6      -23.988670   1.000000
    7      -23.985420   1.000000
    8      -23.985420   1.000000
    9      -23.981126   1.000000
   10      -23.981126   1.000000
   11      -20.329326   1.000000
   12      -20.329326   1.000000
   13       -7.445710   1.000000
   14       -7.445709   1.000000
   15        1.027674   1.000000
   16        1.027676   1.000000
   17        2.633520   1.000000
   18        2.633521   1.000000
   19        6.770472   0.000000
   20        6.770488   0.000000
   21        8.376882   0.000000
   22        8.376884   0.000000
   23        9.328628   0.000000
   24        9.328638   0.000000
   25       11.732376   0.000000
   26       11.732377   0.000000
   27       12.909499   0.000000
   28       12.909634   0.000000
 
  0.4444444E+00  0.2222222E+00  0.5551115E-16  0.2743484E-02
    1      -30.677532   1.000000
    2      -30.677532   1.000000
    3      -30.676159   1.000000
    4      -30.676158   1.000000
    5      -23.988070   1.000000
    6      -23.988070   1.000000
    7      -23.984206   1.000000
    8      -23.984206   1.000000
    9      -23.979737   1.000000
   10      -23.979736   1.000000
   11      -20.302632   1.000000
   12      -20.302632   1.000000
   13       -7.527702   1.000000
   14       -7.527700   1.000000
   15        0.707426   1.000000
   16        0.707428   1.000000
   17        2.322116   1.000000
   18        2.322117   1.000000
   19        6.958312   0.000000
   20        6.958326   0.000000
   21        8.526782   0.000000
   22        8.526794   0.000000
   23        9.618124   0.000000
   24        9.618127   0.000000
   25       11.547260   0.000000
   26       11.547262   0.000000
   27       13.212474   0.000000
   28       13.213309   0.000000
 
 -0.4444444E+00  0.2222222E+00 -0.2775558E-16  0.2743484E-02
    1      -30.677398   1.000000
    2      -30.677398   1.000000
    3      -30.675898   1.000000
    4      -30.675898   1.000000
    5      -23.987765   1.000000
    6      -23.987765   1.000000
    7      -23.982661   1.000000
    8      -23.982661   1.000000
    9      -23.980127   1.000000
   10      -23.980126   1.000000
   11      -20.290289   1.000000
   12      -20.290289   1.000000
   13       -7.565239   1.000000
   14       -7.565237   1.000000
   15        0.566468   1.000000
   16        0.566469   1.000000
   17        2.155783   1.000000
   18        2.155783   1.000000
   19        7.138545   0.000000
   20        7.138555   0.000000
   21        8.446806   0.000000
   22        8.446825   0.000000
   23       10.611483   0.000000
   24       10.611488   0.000000
   25       11.369424   0.000000
   26       11.369426   0.000000
   27       12.603053   0.000000
   28       12.603112   0.000000
 
 -0.3333333E+00  0.2222222E+00  0.6938894E-17  0.2743484E-02
    1      -30.677480   1.000000
    2      -30.677480   1.000000
    3      -30.676063   1.000000
    4      -30.676063   1.000000
    5      -23.987495   1.000000
    6      -23.987495   1.000000
    7      -23.982954   1.000000
    8      -23.982954   1.000000
    9      -23.981054   1.000000
   10      -23.981054   1.000000
   11      -20.298205   1.000000
   12      -20.298205   1.000000
   13       -7.542043   1.000000
   14       -7.542041   1.000000
   15        0.624838   1.000000
   16        0.624840   1.000000
   17        2.242127   1.000000
   18        2.242127   1.000000
   19        7.346412   0.000000
   20        7.346416   0.000000
   21        8.459847   0.000000
   22        8.459871   0.000000
   23       10.396430   0.000000
   24       10.396437   0.000000
   25       11.347730   0.000000
   26       11.347733   0.000000
   27       12.767475   0.000000
   28       12.863293   0.000000
 
 -0.2222222E+00  0.2222222E+00 -0.2625400E-16  0.2743484E-02
    1      -30.677812   1.000000
    2      -30.677812   1.000000
    3      -30.676547   1.000000
    4      -30.676546   1.000000
    5      -23.987390   1.000000
    6      -23.987390   1.000000
    7      -23.985478   1.000000
    8      -23.985478   1.000000
    9      -23.981572   1.000000
   10      -23.981572   1.000000
   11      -20.322584   1.000000
   12      -20.322584   1.000000
   13       -7.469364   1.000000
   14       -7.469362   1.000000
   15        0.859915   1.000000
   16        0.859918   1.000000
   17        2.593156   1.000000
   18        2.593157   1.000000
   19        7.113700   0.000000
   20        7.113704   0.000000
   21        8.820158   0.000000
   22        8.820177   0.000000
   23        9.754781   0.000000
   24        9.754790   0.000000
   25       11.118533   0.000000
   26       11.118539   0.000000
   27       11.903876   0.000000
   28       11.903881   0.000000
 
 -0.1111111E+00  0.2222222E+00 -0.1387779E-16  0.2743484E-02
    1      -30.678224   1.000000
    2      -30.678224   1.000000
    3      -30.677100   1.000000
    4      -30.677100   1.000000
    5      -23.988516   1.000000
    6      -23.988516   1.000000
    7      -23.986537   1.000000
    8      -23.986536   1.000000
    9      -23.982926   1.000000
   10      -23.982925   1.000000
   11      -20.351751   1.000000
   12      -20.351751   1.000000
   13       -7.379934   1.000000
   14       -7.379932   1.000000
   15        1.199772   1.000000
   16        1.199775   1.000000
   17        3.120801   1.000000
   18        3.120802   1.000000
   19        6.257114  -0.000000
   20        6.257121  -0.000000
   21        9.364794   0.000000
   22        9.364798   0.000000
   23       10.010766   0.000000
   24       10.010784   0.000000
   25       10.892203   0.000000
   26       10.892205   0.000000
   27       11.833980   0.000000
   28       11.835732   0.000000
 
 -0.7703720E-33  0.3333333E+00  0.0000000E+00  0.2743484E-02
    1      -30.678238   1.000000
    2      -30.678237   1.000000
    3      -30.676549   1.000000
    4      -30.676549   1.000000
    5      -23.989523   1.000000
    6      -23.989522   1.000000
    7      -23.984874   1.000000
    8      -23.984873   1.000000
    9      -23.981673   1.000000
   10      -23.981673   1.000000
   11      -20.335706   1.000000
   12      -20.335706   1.000000
   13       -7.434961   1.000000
   14       -7.434959   1.000000
   15        0.875304   1.000000
   16        0.875308   1.000000
   17        3.301187   1.000000
   18        3.301188   1.000000
   19        5.934540  -0.000000
   20        5.934545  -0.000000
   21       10.100768   0.000000
   22       10.100789   0.000000
   23       10.338537   0.000000
   24       10.338539   0.000000
   25       10.761008   0.000000
   26       10.761012   0.000000
   27       10.994184   0.000000
   28       10.994199   0.000000
 
  0.1111111E+00  0.3333333E+00 -0.5551115E-16  0.2743484E-02
    1      -30.678130   1.000000
    2      -30.678130   1.000000
    3      -30.676803   1.000000
    4      -30.676803   1.000000
    5      -23.988852   1.000000
    6      -23.988852   1.000000
    7      -23.985584   1.000000
    8      -23.985584   1.000000
    9      -23.982080   1.000000
   10      -23.982080   1.000000
   11      -20.339656   1.000000
   12      -20.339656   1.000000
   13       -7.418612   1.000000
   14       -7.418610   1.000000
   15        1.020185   1.000000
   16        1.020189   1.000000
   17        3.021265   1.000000
   18        3.021266   1.000000
   19        6.356964  -0.000000
   20        6.356970  -0.000000
   21        9.382794   0.000000
   22        9.382807   0.000000
   23        9.655089   0.000000
   24        9.655097   0.000000
   25       11.053509   0.000000
   26       11.053527   0.000000
   27       12.325641   0.000000
   28       12.595895   0.000000
 
  0.2222222E+00  0.3333333E+00  0.0000000E+00  0.2743484E-02
    1      -30.677795   1.000000
    2      -30.677795   1.000000
    3      -30.676774   1.000000
    4      -30.676774   1.000000
    5      -23.988671   1.000000
    6      -23.988670   1.000000
    7      -23.985420   1.000000
    8      -23.985420   1.000000
    9      -23.981126   1.000000
   10      -23.981126   1.000000
   11      -20.329326   1.000000
   12      -20.329326   1.000000
   13       -7.445710   1.000000
   14       -7.445709   1.000000
   15        1.027674   1.000000
   16        1.027676   1.000000
   17        2.633520   1.000000
   18        2.633521   1.000000
   19        6.770472   0.000000
   20        6.770488   0.000000
   21        8.376882   0.000000
   22        8.376884   0.000000
   23        9.328628   0.000000
   24        9.328638   0.000000
   25       11.732376   0.000000
   26       11.732377   0.000000
   27       12.909498   0.000000
   28       12.909524   0.000000
 
  0.3333333E+00  0.3333333E+00  0.2775558E-16  0.2743484E-02
    1      -30.677529   1.000000
    2      -30.677529   1.000000
    3      -30.676380   1.000000
    4      -30.676379   1.000000
    5      -23.988903   1.000000
    6      -23.988903   1.000000
    7      -23.984855   1.000000
    8      -23.984855   1.000000
    9      -23.979037   1.000000
   10      -23.979036   1.000000
   11      -20.309452   1.000000
   12      -20.309452   1.000000
   13       -7.503880   1.000000
   14       -7.503878   1.000000
   15        0.849992   1.000000
   16        0.849993   1.000000
   17        2.424692   1.000000
   18        2.424693   1.000000
   19        6.568072   0.000000
   20        6.568096   0.000000
   21        7.839906   0.000000
   22        7.839907   0.000000
   23        9.683025   0.000000
   24        9.683030   0.000000
   25       12.481828   0.000000
   26       12.481830   0.000000
   27       13.573870   0.000000
   28       13.573928   0.000000
 
  0.4444444E+00  0.3333333E+00 -0.5551115E-16  0.2743484E-02
    1      -30.677258   1.000000
    2      -30.677257   1.000000
    3      -30.675962   1.000000
    4      -30.675961   1.000000
    5      -23.988369   1.000000
    6      -23.988369   1.000000
    7      -23.984340   1.000000
    8      -23.984340   1.000000
    9      -23.977661   1.000000
   10      -23.977661   1.000000
   11      -20.289281   1.000000
   12      -20.289281   1.000000
   13       -7.562912   1.000000
   14       -7.562911   1.000000
   15        0.675237   1.000000
   16        0.675237   1.000000
   17        2.139272   1.000000
   18        2.139272   1.000000
   19        6.533771   0.000000
   20        6.533797   0.000000
   21        7.885033   0.000000
   22        7.885034   0.000000
   23        9.946970   0.000000
   24        9.946973   0.000000
   25       12.696960   0.000000
   26       12.696961   0.000000
   27       13.948426   0.000000
   28       13.948749   0.000000
 
 -0.4444444E+00  0.3333333E+00 -0.5551115E-16  0.2743484E-02
    1      -30.677023   1.000000
    2      -30.677023   1.000000
    3      -30.675822   1.000000
    4      -30.675821   1.000000
    5      -23.987406   1.000000
    6      -23.987406   1.000000
    7      -23.983494   1.000000
    8      -23.983494   1.000000
    9      -23.978173   1.000000
   10      -23.978173   1.000000
   11      -20.278391   1.000000
   12      -20.278390   1.000000
   13       -7.593954   1.000000
   14       -7.593953   1.000000
   15        0.612473   1.000000
   16        0.612473   1.000000
   17        1.835843   1.000000
   18        1.835844   1.000000
   19        6.786982   0.000000
   20        6.787006   0.000000
   21        8.380240   0.000000
   22        8.380246   0.000000
   23       10.243329   0.000000
   24       10.243330   0.000000
   25       12.136209   0.000000
   26       12.136214   0.000000
   27       13.223953   0.000000
   28       13.224329   0.000000
 
 -0.3333333E+00  0.3333333E+00 -0.3706209E-16  0.2743484E-02
    1      -30.677054   1.000000
    2      -30.677054   1.000000
    3      -30.675911   1.000000
    4      -30.675910   1.000000
    5      -23.986929   1.000000
    6      -23.986929   1.000000
    7      -23.982261   1.000000
    8      -23.982261   1.000000
    9      -23.980323   1.000000
   10      -23.980323   1.000000
   11      -20.281952   1.000000
   12      -20.281952   1.000000
   13       -7.584837   1.000000
   14       -7.584835   1.000000
   15        0.605654   1.000000
   16        0.605655   1.000000
   17        1.832415   1.000000
   18        1.832416   1.000000
   19        7.201507   0.000000
   20        7.201525   0.000000
   21        8.573943   0.000000
   22        8.573955   0.000000
   23       11.088568   0.000000
   24       11.088576   0.000000
   25       11.260627   0.000000
   26       11.260628   0.000000
   27       12.254850   0.000000
   28       12.255057   0.000000
 
 -0.2222222E+00  0.3333333E+00 -0.2775558E-16  0.2743484E-02
    1      -30.677480   1.000000
    2      -30.677480   1.000000
    3      -30.676063   1.000000
    4      -30.676062   1.000000