<?xml version="1.0" encoding="ISO-8859-1"?>
<modeling>
 <generator>
  <i name="program" type="string">vasp </i>
  <i name="version" type="string">5.4.4.18Apr17-6-g9f103f2a35  </i>
  <i name="subversion" type="string">(build Jul 09 2018 16:43:14) complex            parallel </i>
  <i name="platform" type="string">LinuxIFC </i>
  <i name="date" type="string">2018 11 23 </i>
  <i name="time" type="string">02:48:43 </i>
 </generator>
 <incar>
  <i type="string" name="SYSTEM">   Og_FCC</i>
  <i type="string" name="PREC">accurate</i>
  <i type="string" name="ALGO">   Fast</i>
  <i type="logical" name="ADDGRID"> T  </i>
  <i type="logical" name="LSORBIT"> T  </i>
  <i type="int" name="ISPIN">     1</i>
  <i type="int" name="MAXMIX">    50</i>
  <i type="int" name="NELM">   100</i>
  <i type="int" name="NELMDL">    -5</i>
  <i type="int" name="NELMIN">     5</i>
  <i type="int" name="IBRION">    -1</i>
  <i type="int" name="NFREE">     5</i>
  <i name="EDIFF">      0.00000010</i>
  <i name="EDIFFG">      0.00001000</i>
  <i type="int" name="NSW">     1</i>
  <i type="int" name="ISIF">     7</i>
  <i type="int" name="ISYM">     2</i>
  <i name="SYMPREC">      0.00000010</i>
  <i name="ENCUT">    600.00000000</i>
  <i name="POTIM">      0.10000000</i>
  <i type="logical" name="LREAL"> F  </i>
  <i type="int" name="ISMEAR">     1</i>
  <i name="SIGMA">      0.10000000</i>
  <i name="KSPACING">      0.20000000</i>
  <i type="int" name="NWRITE">     2</i>
  <i type="logical" name="LWAVE"> F  </i>
  <i type="logical" name="LCHARG"> F  </i>
  <i type="logical" name="LVTOT"> F  </i>
  <i type="logical" name="GGA_COMPAT"> F  </i>
  <v type="int" name="KPOINT_BSE">    -1     0     0     0</v>
  <i type="int" name="NELM">   100</i>
  <i type="string" name="GGA"> PS</i>
 </incar>
 <structure name="primitive_cell" >
  <crystal>
   <varray name="basis" >
    <v>       4.35422896       0.00000000       0.00000000 </v>
    <v>       2.17711448       3.77087289      -0.00000000 </v>
    <v>       2.17711448       1.25695763       3.55521306 </v>
   </varray>
   <i name="volume">     58.37391055 </i>
   <varray name="rec_basis" >
    <v>       0.22966179      -0.13259529      -0.09375903 </v>
    <v>       0.00000000       0.26519059      -0.09375903 </v>
    <v>      -0.00000000       0.00000000       0.28127709 </v>
   </varray>
  </crystal>
  <varray name="positions" >
   <v>       0.00000000       0.00000000       0.00000000 </v>
  </varray>
 </structure>
 <varray name="primitive_index" >
  <v type="int" >        1 </v>
 </varray>
 <kpoints>
  <generation param="Gamma">
   <v type="int" name="divisions">       9        9        9 </v>
   <v name="usershift">      0.00000000       0.00000000       0.00000000 </v>
   <v name="genvec1">      0.11111111       0.00000000       0.00000000 </v>
   <v name="genvec2">     -0.00000000       0.11111111       0.00000000 </v>
   <v name="genvec3">     -0.00000000       0.00000000       0.11111111 </v>
   <v name="shift">      0.00000000       0.00000000       0.00000000 </v>
  </generation>
  <varray name="kpointlist" >
   <v>       0.00000000       0.00000000       0.00000000 </v>
   <v>       0.11111111       0.00000000       0.00000000 </v>
   <v>       0.22222222       0.00000000       0.00000000 </v>
   <v>       0.33333333       0.00000000      -0.00000000 </v>
   <v>       0.44444444       0.00000000       0.00000000 </v>
   <v>       0.00000000       0.11111111      -0.00000000 </v>
   <v>       0.11111111       0.11111111      -0.00000000 </v>
   <v>       0.22222222       0.11111111       0.00000000 </v>
   <v>       0.33333333       0.11111111       0.00000000 </v>
   <v>       0.44444444       0.11111111      -0.00000000 </v>
   <v>      -0.44444444       0.11111111      -0.00000000 </v>
   <v>      -0.33333333       0.11111111      -0.00000000 </v>
   <v>      -0.22222222       0.11111111      -0.00000000 </v>
   <v>      -0.11111111       0.11111111      -0.00000000 </v>
   <v>      -0.00000000       0.22222222      -0.00000000 </v>
   <v>       0.11111111       0.22222222      -0.00000000 </v>
   <v>       0.22222222       0.22222222       0.00000000 </v>
   <v>       0.33333333       0.22222222       0.00000000 </v>
   <v>       0.44444444       0.22222222       0.00000000 </v>
   <v>      -0.44444444       0.22222222      -0.00000000 </v>
   <v>      -0.33333333       0.22222222       0.00000000 </v>
   <v>      -0.22222222       0.22222222      -0.00000000 </v>
   <v>      -0.11111111       0.22222222      -0.00000000 </v>
   <v>      -0.00000000       0.33333333       0.00000000 </v>
   <v>       0.11111111       0.33333333      -0.00000000 </v>
   <v>       0.22222222       0.33333333       0.00000000 </v>
   <v>       0.33333333       0.33333333       0.00000000 </v>
   <v>       0.44444444       0.33333333      -0.00000000 </v>
   <v>      -0.44444444       0.33333333      -0.00000000 </v>
   <v>      -0.33333333       0.33333333      -0.00000000 </v>
   <v>      -0.22222222       0.33333333      -0.00000000 </v>
   <v>      -0.11111111       0.33333333       0.00000000 </v>
   <v>      -0.00000000       0.44444444      -0.00000000 </v>
   <v>       0.11111111       0.44444444      -0.00000000 </v>
   <v>       0.22222222       0.44444444      -0.00000000 </v>
   <v>       0.33333333       0.44444444      -0.00000000 </v>
   <v>       0.44444444       0.44444444       0.00000000 </v>
   <v>      -0.44444444       0.44444444      -0.00000000 </v>
   <v>      -0.33333333       0.44444444       0.00000000 </v>
   <v>      -0.22222222       0.44444444       0.00000000 </v>
   <v>      -0.11111111       0.44444444       0.00000000 </v>
   <v>      -0.00000000      -0.00000000       0.11111111 </v>
   <v>       0.11111111       0.00000000       0.11111111 </v>
   <v>       0.22222222       0.00000000       0.11111111 </v>
   <v>       0.33333333       0.00000000       0.11111111 </v>
   <v>       0.44444444       0.00000000       0.11111111 </v>
   <v>      -0.44444444      -0.00000000       0.11111111 </v>
   <v>      -0.33333333      -0.00000000       0.11111111 </v>
   <v>      -0.22222222      -0.00000000       0.11111111 </v>
   <v>      -0.11111111      -0.00000000       0.11111111 </v>
   <v>      -0.00000000       0.11111111       0.11111111 </v>
   <v>       0.11111111       0.11111111       0.11111111 </v>
   <v>       0.22222222       0.11111111       0.11111111 </v>
   <v>       0.33333333       0.11111111       0.11111111 </v>
   <v>       0.44444444       0.11111111       0.11111111 </v>
   <v>      -0.44444444       0.11111111       0.11111111 </v>
   <v>      -0.33333333       0.11111111       0.11111111 </v>
   <v>      -0.22222222       0.11111111       0.11111111 </v>
   <v>      -0.11111111       0.11111111       0.11111111 </v>
   <v>      -0.00000000       0.22222222       0.11111111 </v>
   <v>       0.11111111       0.22222222       0.11111111 </v>
   <v>       0.22222222       0.22222222       0.11111111 </v>
   <v>       0.33333333       0.22222222       0.11111111 </v>
   <v>       0.44444444       0.22222222       0.11111111 </v>
   <v>      -0.44444444       0.22222222       0.11111111 </v>
   <v>      -0.33333333       0.22222222       0.11111111 </v>
   <v>      -0.22222222       0.22222222       0.11111111 </v>
   <v>      -0.11111111       0.22222222       0.11111111 </v>
   <v>      -0.00000000       0.33333333       0.11111111 </v>
   <v>       0.11111111       0.33333333       0.11111111 </v>
   <v>       0.22222222       0.33333333       0.11111111 </v>
   <v>       0.33333333       0.33333333       0.11111111 </v>
   <v>       0.44444444       0.33333333       0.11111111 </v>
   <v>      -0.44444444       0.33333333       0.11111111 </v>
   <v>      -0.33333333       0.33333333       0.11111111 </v>
   <v>      -0.22222222       0.33333333       0.11111111 </v>
   <v>      -0.11111111       0.33333333       0.11111111 </v>
   <v>      -0.00000000       0.44444444       0.11111111 </v>
   <v>       0.11111111       0.44444444       0.11111111 </v>
   <v>       0.22222222       0.44444444       0.11111111 </v>
   <v>       0.33333333       0.44444444       0.11111111 </v>
   <v>       0.44444444       0.44444444       0.11111111 </v>
   <v>      -0.44444444       0.44444444       0.11111111 </v>
   <v>      -0.33333333       0.44444444       0.11111111 </v>
   <v>      -0.22222222       0.44444444       0.11111111 </v>
   <v>      -0.11111111       0.44444444       0.11111111 </v>
   <v>       0.00000000      -0.44444444       0.11111111 </v>
   <v>       0.11111111      -0.44444444       0.11111111 </v>
   <v>       0.22222222      -0.44444444       0.11111111 </v>
   <v>       0.33333333      -0.44444444       0.11111111 </v>
   <v>       0.44444444      -0.44444444       0.11111111 </v>
   <v>      -0.44444444      -0.44444444       0.11111111 </v>
   <v>      -0.33333333      -0.44444444       0.11111111 </v>
   <v>      -0.22222222      -0.44444444       0.11111111 </v>
   <v>      -0.11111111      -0.44444444       0.11111111 </v>
   <v>       0.00000000      -0.33333333       0.11111111 </v>
   <v>       0.11111111      -0.33333333       0.11111111 </v>
   <v>       0.22222222      -0.33333333       0.11111111 </v>
   <v>       0.33333333      -0.33333333       0.11111111 </v>
   <v>       0.44444444      -0.33333333       0.11111111 </v>
   <v>      -0.44444444      -0.33333333       0.11111111 </v>
   <v>      -0.33333333      -0.33333333       0.11111111 </v>
   <v>      -0.22222222      -0.33333333       0.11111111 </v>
   <v>      -0.11111111      -0.33333333       0.11111111 </v>
   <v>      -0.00000000      -0.22222222       0.11111111 </v>
   <v>       0.11111111      -0.22222222       0.11111111 </v>
   <v>       0.22222222      -0.22222222       0.11111111 </v>
   <v>       0.33333333      -0.22222222       0.11111111 </v>
   <v>       0.44444444      -0.22222222       0.11111111 </v>
   <v>      -0.44444444      -0.22222222       0.11111111 </v>
   <v>      -0.33333333      -0.22222222       0.11111111 </v>
   <v>      -0.22222222      -0.22222222       0.11111111 </v>
   <v>      -0.11111111      -0.22222222       0.11111111 </v>
   <v>       0.00000000      -0.11111111       0.11111111 </v>
   <v>       0.11111111      -0.11111111       0.11111111 </v>
   <v>       0.22222222      -0.11111111       0.11111111 </v>
   <v>       0.33333333      -0.11111111       0.11111111 </v>
   <v>       0.44444444      -0.11111111       0.11111111 </v>
   <v>      -0.44444444      -0.11111111       0.11111111 </v>
   <v>      -0.33333333      -0.11111111       0.11111111 </v>
   <v>      -0.22222222      -0.11111111       0.11111111 </v>
   <v>      -0.11111111      -0.11111111       0.11111111 </v>
   <v>       0.00000000      -0.00000000       0.22222222 </v>
   <v>       0.11111111       0.00000000       0.22222222 </v>
   <v>       0.22222222       0.00000000       0.22222222 </v>
   <v>       0.33333333       0.00000000       0.22222222 </v>
   <v>       0.44444444       0.00000000       0.22222222 </v>
   <v>      -0.44444444      -0.00000000       0.22222222 </v>
   <v>      -0.33333333      -0.00000000       0.22222222 </v>
   <v>      -0.22222222      -0.00000000       0.22222222 </v>
   <v>      -0.11111111      -0.00000000       0.22222222 </v>
   <v>      -0.00000000       0.11111111       0.22222222 </v>
   <v>       0.11111111       0.11111111       0.22222222 </v>
   <v>       0.22222222       0.11111111       0.22222222 </v>
   <v>       0.33333333       0.11111111       0.22222222 </v>
   <v>       0.44444444       0.11111111       0.22222222 </v>
   <v>      -0.44444444       0.11111111       0.22222222 </v>
   <v>      -0.33333333       0.11111111       0.22222222 </v>
   <v>      -0.22222222       0.11111111       0.22222222 </v>
   <v>      -0.11111111       0.11111111       0.22222222 </v>
   <v>       0.00000000       0.22222222       0.22222222 </v>
   <v>       0.11111111       0.22222222       0.22222222 </v>
   <v>       0.22222222       0.22222222       0.22222222 </v>
   <v>       0.33333333       0.22222222       0.22222222 </v>
   <v>       0.44444444       0.22222222       0.22222222 </v>
   <v>      -0.44444444       0.22222222       0.22222222 </v>
   <v>      -0.33333333       0.22222222       0.22222222 </v>
   <v>      -0.22222222       0.22222222       0.22222222 </v>
   <v>      -0.11111111       0.22222222       0.22222222 </v>
   <v>      -0.00000000       0.33333333       0.22222222 </v>
   <v>       0.11111111       0.33333333       0.22222222 </v>
   <v>       0.22222222       0.33333333       0.22222222 </v>
   <v>       0.33333333       0.33333333       0.22222222 </v>
   <v>       0.44444444       0.33333333       0.22222222 </v>
   <v>      -0.44444444       0.33333333       0.22222222 </v>
   <v>      -0.33333333       0.33333333       0.22222222 </v>
   <v>      -0.22222222       0.33333333       0.22222222 </v>
   <v>      -0.11111111       0.33333333       0.22222222 </v>
   <v>      -0.00000000       0.44444444       0.22222222 </v>
   <v>       0.11111111       0.44444444       0.22222222 </v>
   <v>       0.22222222       0.44444444       0.22222222 </v>
   <v>       0.33333333       0.44444444       0.22222222 </v>
   <v>       0.44444444       0.44444444       0.22222222 </v>
   <v>      -0.44444444       0.44444444       0.22222222 </v>
   <v>      -0.33333333       0.44444444       0.22222222 </v>
   <v>      -0.22222222       0.44444444       0.22222222 </v>
   <v>      -0.11111111       0.44444444       0.22222222 </v>
   <v>       0.00000000      -0.44444444       0.22222222 </v>
   <v>       0.11111111      -0.44444444       0.22222222 </v>
   <v>       0.22222222      -0.44444444       0.22222222 </v>
   <v>       0.33333333      -0.44444444       0.22222222 </v>
   <v>       0.44444444      -0.44444444       0.22222222 </v>
   <v>      -0.44444444      -0.44444444       0.22222222 </v>
   <v>      -0.33333333      -0.44444444       0.22222222 </v>
   <v>      -0.22222222      -0.44444444       0.22222222 </v>
   <v>      -0.11111111      -0.44444444       0.22222222 </v>
   <v>       0.00000000      -0.33333333       0.22222222 </v>
   <v>       0.11111111      -0.33333333       0.22222222 </v>
   <v>       0.22222222      -0.33333333       0.22222222 </v>
   <v>       0.33333333      -0.33333333       0.22222222 </v>
   <v>       0.44444444      -0.33333333       0.22222222 </v>
   <v>      -0.44444444      -0.33333333       0.22222222 </v>
   <v>      -0.33333333      -0.33333333       0.22222222 </v>
   <v>      -0.22222222      -0.33333333       0.22222222 </v>
   <v>      -0.11111111      -0.33333333       0.22222222 </v>
   <v>       0.00000000      -0.22222222       0.22222222 </v>
   <v>       0.11111111      -0.22222222       0.22222222 </v>
   <v>       0.22222222      -0.22222222       0.22222222 </v>
   <v>       0.33333333      -0.22222222       0.22222222 </v>
   <v>       0.44444444      -0.22222222       0.22222222 </v>
   <v>      -0.44444444      -0.22222222       0.22222222 </v>
   <v>      -0.33333333      -0.22222222       0.22222222 </v>
   <v>      -0.22222222      -0.22222222       0.22222222 </v>
   <v>      -0.11111111      -0.22222222       0.22222222 </v>
   <v>      -0.00000000      -0.11111111       0.22222222 </v>
   <v>       0.11111111      -0.11111111       0.22222222 </v>
   <v>       0.22222222      -0.11111111       0.22222222 </v>
   <v>       0.33333333      -0.11111111       0.22222222 </v>
   <v>       0.44444444      -0.11111111       0.22222222 </v>
   <v>      -0.44444444      -0.11111111       0.22222222 </v>
   <v>      -0.33333333      -0.11111111       0.22222222 </v>
   <v>      -0.22222222      -0.11111111       0.22222222 </v>
   <v>      -0.11111111      -0.11111111       0.22222222 </v>
   <v>      -0.00000000      -0.00000000       0.33333333 </v>
   <v>       0.11111111       0.00000000       0.33333333 </v>
   <v>       0.22222222       0.00000000       0.33333333 </v>
   <v>       0.33333333       0.00000000       0.33333333 </v>
   <v>       0.44444444       0.00000000       0.33333333 </v>
   <v>      -0.44444444      -0.00000000       0.33333333 </v>
   <v>      -0.33333333      -0.00000000       0.33333333 </v>
   <v>      -0.22222222      -0.00000000       0.33333333 </v>
   <v>      -0.11111111      -0.00000000       0.33333333 </v>
   <v>      -0.00000000       0.11111111       0.33333333 </v>
   <v>       0.11111111       0.11111111       0.33333333 </v>
   <v>       0.22222222       0.11111111       0.33333333 </v>
   <v>       0.33333333       0.11111111       0.33333333 </v>
   <v>       0.44444444       0.11111111       0.33333333 </v>
   <v>      -0.44444444       0.11111111       0.33333333 </v>
   <v>      -0.33333333       0.11111111       0.33333333 </v>
   <v>      -0.22222222       0.11111111       0.33333333 </v>
   <v>      -0.11111111       0.11111111       0.33333333 </v>
   <v>      -0.00000000       0.22222222       0.33333333 </v>
   <v>       0.11111111       0.22222222       0.33333333 </v>
   <v>       0.22222222       0.22222222       0.33333333 </v>
   <v>       0.33333333       0.22222222       0.33333333 </v>
   <v>       0.44444444       0.22222222       0.33333333 </v>
   <v>      -0.44444444       0.22222222       0.33333333 </v>
   <v>      -0.33333333       0.22222222       0.33333333 </v>
   <v>      -0.22222222       0.22222222       0.33333333 </v>
   <v>      -0.11111111       0.22222222       0.33333333 </v>
   <v>      -0.00000000       0.33333333       0.33333333 </v>
   <v>       0.11111111       0.33333333       0.33333333 </v>
   <v>       0.22222222       0.33333333       0.33333333 </v>
   <v>       0.33333333       0.33333333       0.33333333 </v>
   <v>       0.44444444       0.33333333       0.33333333 </v>
   <v>      -0.44444444       0.33333333       0.33333333 </v>
   <v>      -0.33333333       0.33333333       0.33333333 </v>
   <v>      -0.22222222       0.33333333       0.33333333 </v>
   <v>      -0.11111111       0.33333333       0.33333333 </v>
   <v>      -0.00000000       0.44444444       0.33333333 </v>
   <v>       0.11111111       0.44444444       0.33333333 </v>
   <v>       0.22222222       0.44444444       0.33333333 </v>
   <v>       0.33333333       0.44444444       0.33333333 </v>
   <v>       0.44444444       0.44444444       0.33333333 </v>
   <v>      -0.44444444       0.44444444       0.33333333 </v>
   <v>      -0.33333333       0.44444444       0.33333333 </v>
   <v>      -0.22222222       0.44444444       0.33333333 </v>
   <v>      -0.11111111       0.44444444       0.33333333 </v>
   <v>       0.00000000      -0.44444444       0.33333333 </v>
   <v>       0.11111111      -0.44444444       0.33333333 </v>
   <v>       0.22222222      -0.44444444       0.33333333 </v>
   <v>       0.33333333      -0.44444444       0.33333333 </v>
   <v>       0.44444444      -0.44444444       0.33333333 </v>
   <v>      -0.44444444      -0.44444444       0.33333333 </v>
   <v>      -0.33333333      -0.44444444       0.33333333 </v>
   <v>      -0.22222222      -0.44444444       0.33333333 </v>
   <v>      -0.11111111      -0.44444444       0.33333333 </v>
   <v>       0.00000000      -0.33333333       0.33333333 </v>
   <v>       0.11111111      -0.33333333       0.33333333 </v>
   <v>       0.22222222      -0.33333333       0.33333333 </v>
   <v>       0.33333333      -0.33333333       0.33333333 </v>
   <v>       0.44444444      -0.33333333       0.33333333 </v>
   <v>      -0.44444444      -0.33333333       0.33333333 </v>
   <v>      -0.33333333      -0.33333333       0.33333333 </v>
   <v>      -0.22222222      -0.33333333       0.33333333 </v>
   <v>      -0.11111111      -0.33333333       0.33333333 </v>
   <v>       0.00000000      -0.22222222       0.33333333 </v>
   <v>       0.11111111      -0.22222222       0.33333333 </v>
   <v>       0.22222222      -0.22222222       0.33333333 </v>
   <v>       0.33333333      -0.22222222       0.33333333 </v>
   <v>       0.44444444      -0.22222222       0.33333333 </v>
   <v>      -0.44444444      -0.22222222       0.33333333 </v>
   <v>      -0.33333333      -0.22222222       0.33333333 </v>
   <v>      -0.22222222      -0.22222222       0.33333333 </v>
   <v>      -0.11111111      -0.22222222       0.33333333 </v>
   <v>      -0.00000000      -0.11111111       0.33333333 </v>
   <v>       0.11111111      -0.11111111       0.33333333 </v>
   <v>       0.22222222      -0.11111111       0.33333333 </v>
   <v>       0.33333333      -0.11111111       0.33333333 </v>
   <v>       0.44444444      -0.11111111       0.33333333 </v>
   <v>      -0.44444444      -0.11111111       0.33333333 </v>
   <v>      -0.33333333      -0.11111111       0.33333333 </v>
   <v>      -0.22222222      -0.11111111       0.33333333 </v>
   <v>      -0.11111111      -0.11111111       0.33333333 </v>
   <v>       0.00000000      -0.00000000       0.44444444 </v>
   <v>       0.11111111       0.00000000       0.44444444 </v>
   <v>       0.22222222       0.00000000       0.44444444 </v>
   <v>       0.33333333       0.00000000       0.44444444 </v>
   <v>       0.44444444       0.00000000       0.44444444 </v>
   <v>      -0.44444444      -0.00000000       0.44444444 </v>
   <v>      -0.33333333      -0.00000000       0.44444444 </v>
   <v>      -0.22222222      -0.00000000       0.44444444 </v>
   <v>      -0.11111111      -0.00000000       0.44444444 </v>
   <v>       0.00000000       0.11111111       0.44444444 </v>
   <v>       0.11111111       0.11111111       0.44444444 </v>
   <v>       0.22222222       0.11111111       0.44444444 </v>
   <v>       0.33333333       0.11111111       0.44444444 </v>
   <v>       0.44444444       0.11111111       0.44444444 </v>
   <v>      -0.44444444       0.11111111       0.44444444 </v>
   <v>      -0.33333333       0.11111111       0.44444444 </v>
   <v>      -0.22222222       0.11111111       0.44444444 </v>
   <v>      -0.11111111       0.11111111       0.44444444 </v>
   <v>      -0.00000000       0.22222222       0.44444444 </v>
   <v>       0.11111111       0.22222222       0.44444444 </v>
   <v>       0.22222222       0.22222222       0.44444444 </v>
   <v>       0.33333333       0.22222222       0.44444444 </v>
   <v>       0.44444444       0.22222222       0.44444444 </v>
   <v>      -0.44444444       0.22222222       0.44444444 </v>
   <v>      -0.33333333       0.22222222       0.44444444 </v>
   <v>      -0.22222222       0.22222222       0.44444444 </v>
   <v>      -0.11111111       0.22222222       0.44444444 </v>
   <v>      -0.00000000       0.33333333       0.44444444 </v>
   <v>       0.11111111       0.33333333       0.44444444 </v>
   <v>       0.22222222       0.33333333       0.44444444 </v>
   <v>       0.33333333       0.33333333       0.44444444 </v>
   <v>       0.44444444       0.33333333       0.44444444 </v>
   <v>      -0.44444444       0.33333333       0.44444444 </v>
   <v>      -0.33333333       0.33333333       0.44444444 </v>
   <v>      -0.22222222       0.33333333       0.44444444 </v>
   <v>      -0.11111111       0.33333333       0.44444444 </v>
   <v>       0.00000000       0.44444444       0.44444444 </v>
   <v>       0.11111111       0.44444444       0.44444444 </v>
   <v>       0.22222222       0.44444444       0.44444444 </v>
   <v>       0.33333333       0.44444444       0.44444444 </v>
   <v>       0.44444444       0.44444444       0.44444444 </v>
   <v>      -0.44444444       0.44444444       0.44444444 </v>
   <v>      -0.33333333       0.44444444       0.44444444 </v>
   <v>      -0.22222222       0.44444444       0.44444444 </v>
   <v>      -0.11111111       0.44444444       0.44444444 </v>
   <v>       0.00000000      -0.44444444       0.44444444 </v>
   <v>       0.11111111      -0.44444444       0.44444444 </v>
   <v>       0.22222222      -0.44444444       0.44444444 </v>
   <v>       0.33333333      -0.44444444       0.44444444 </v>
   <v>       0.44444444      -0.44444444       0.44444444 </v>
   <v>      -0.44444444      -0.44444444       0.44444444 </v>
   <v>      -0.33333333      -0.44444444       0.44444444 </v>
   <v>      -0.22222222      -0.44444444       0.44444444 </v>
   <v>      -0.11111111      -0.44444444       0.44444444 </v>
   <v>       0.00000000      -0.33333333       0.44444444 </v>
   <v>       0.11111111      -0.33333333       0.44444444 </v>
   <v>       0.22222222      -0.33333333       0.44444444 </v>
   <v>       0.33333333      -0.33333333       0.44444444 </v>
   <v>       0.44444444      -0.33333333       0.44444444 </v>
   <v>      -0.44444444      -0.33333333       0.44444444 </v>
   <v>      -0.33333333      -0.33333333       0.44444444 </v>
   <v>      -0.22222222      -0.33333333       0.44444444 </v>
   <v>      -0.11111111      -0.33333333       0.44444444 </v>
   <v>       0.00000000      -0.22222222       0.44444444 </v>
   <v>       0.11111111      -0.22222222       0.44444444 </v>
   <v>       0.22222222      -0.22222222       0.44444444 </v>
   <v>       0.33333333      -0.22222222       0.44444444 </v>
   <v>       0.44444444      -0.22222222       0.44444444 </v>
   <v>      -0.44444444      -0.22222222       0.44444444 </v>
   <v>      -0.33333333      -0.22222222       0.44444444 </v>
   <v>      -0.22222222      -0.22222222       0.44444444 </v>
   <v>      -0.11111111      -0.22222222       0.44444444 </v>
   <v>      -0.00000000      -0.11111111       0.44444444 </v>
   <v>       0.11111111      -0.11111111       0.44444444 </v>
   <v>       0.22222222      -0.11111111       0.44444444 </v>
   <v>       0.33333333      -0.11111111       0.44444444 </v>
   <v>       0.44444444      -0.11111111       0.44444444 </v>
   <v>      -0.44444444      -0.11111111       0.44444444 </v>
   <v>      -0.33333333      -0.11111111       0.44444444 </v>
   <v>      -0.22222222      -0.11111111       0.44444444 </v>
   <v>      -0.11111111      -0.11111111       0.44444444 </v>
  </varray>
  <varray name="weights" >
   <v>       0.00137174 </v>
   <v>       0.00274348 </v>
   <v>       0.00274348 </v>
   <v>       0.00274348 </v>
   <v>       0.00274348 </v>
   <v>       0.00274348 </v>
   <v>       0.00274348 </v>
   <v>       0.00274348 </v>
   <v>       0.00274348 </v>
   <v>       0.00274348 </v>
   <v>       0.00274348 </v>
   <v>       0.00274348 </v>
   <v>       0.00274348 </v>
   <v>       0.00274348 </v>
   <v>       0.00274348 </v>
   <v>       0.00274348 </v>
   <v>       0.00274348 </v>
   <v>       0.00274348 </v>
   <v>       0.00274348 </v>
   <v>       0.00274348 </v>
   <v>       0.00274348 </v>
   <v>       0.00274348 </v>
   <v>       0.00274348 </v>
   <v>       0.00274348 </v>
   <v>       0.00274348 </v>
   <v>       0.00274348 </v>
   <v>       0.00274348 </v>
   <v>       0.00274348 </v>
   <v>       0.00274348 </v>
   <v>       0.00274348 </v>
   <v>       0.00274348 </v>
   <v>       0.00274348 </v>
   <v>       0.00274348 </v>
   <v>       0.00274348 </v>
   <v>       0.00274348 </v>
   <v>       0.00274348 </v>
   <v>       0.00274348 </v>
   <v>       0.00274348 </v>
   <v>       0.00274348 </v>
   <v>       0.00274348 </v>
   <v>       0.00274348 </v>
   <v>       0.00274348 </v>
   <v>       0.00274348 </v>
   <v>       0.00274348 </v>
   <v>       0.00274348 </v>
   <v>       0.00274348 </v>
   <v>       0.00274348 </v>
   <v>       0.00274348 </v>
   <v>       0.00274348 </v>
   <v>       0.00274348 </v>
   <v>       0.00274348 </v>
   <v>       0.00274348 </v>
   <v>       0.00274348 </v>
   <v>       0.00274348 </v>
   <v>       0.00274348 </v>
   <v>       0.00274348 </v>
   <v>       0.00274348 </v>
   <v>       0.00274348 </v>
   <v>       0.00274348 </v>
   <v>       0.00274348 </v>
   <v>       0.00274348 </v>
   <v>       0.00274348 </v>
   <v>       0.00274348 </v>
   <v>       0.00274348 </v>
   <v>       0.00274348 </v>
   <v>       0.00274348 </v>
   <v>       0.00274348 </v>
   <v>       0.00274348 </v>
   <v>       0.00274348 </v>
   <v>       0.00274348 </v>
   <v>       0.00274348 </v>
   <v>       0.00274348 </v>
   <v>       0.00274348 </v>
   <v>       0.00274348 </v>
   <v>       0.00274348 </v>
   <v>       0.00274348 </v>
   <v>       0.00274348 </v>
   <v>       0.00274348 </v>
   <v>       0.00274348 </v>
   <v>       0.00274348 </v>
   <v>       0.00274348 </v>
   <v>       0.00274348 </v>
   <v>       0.00274348 </v>
   <v>       0.00274348 </v>
   <v>       0.00274348 </v>
   <v>       0.00274348 </v>
   <v>       0.00274348 </v>
   <v>       0.00274348 </v>
   <v>       0.00274348 </v>
   <v>       0.00274348 </v>
   <v>       0.00274348 </v>
   <v>       0.00274348 </v>
   <v>       0.00274348 </v>
   <v>       0.00274348 </v>
   <v>       0.00274348 </v>
   <v>       0.00274348 </v>
   <v>       0.00274348 </v>
   <v>       0.00274348 </v>
   <v>       0.00274348 </v>
   <v>       0.00274348 </v>
   <v>       0.00274348 </v>
   <v>       0.00274348 </v>
   <v>       0.00274348 </v>
   <v>       0.00274348 </v>
   <v>       0.00274348 </v>
   <v>       0.00274348 </v>
   <v>       0.00274348 </v>
   <v>       0.00274348 </v>
   <v>       0.00274348 </v>
   <v>       0.00274348 </v>
   <v>       0.00274348 </v>
   <v>       0.00274348 </v>
   <v>       0.00274348 </v>
   <v>       0.00274348 </v>
   <v>       0.00274348 </v>
   <v>       0.00274348 </v>
   <v>       0.00274348 </v>
   <v>       0.00274348 </v>
   <v>       0.00274348 </v>
   <v>       0.00274348 </v>
   <v>       0.00274348 </v>
   <v>       0.00274348 </v>
   <v>       0.00274348 </v>
   <v>       0.00274348 </v>
   <v>       0.00274348 </v>
   <v>       0.00274348 </v>
   <v>       0.00274348 </v>
   <v>       0.00274348 </v>
   <v>       0.00274348 </v>
   <v>       0.00274348 </v>
   <v>       0.00274348 </v>
   <v>       0.00274348 </v>
   <v>       0.00274348 </v>
   <v>       0.00274348 </v>
   <v>       0.00274348 </v>
   <v>       0.00274348 </v>
   <v>       0.00274348 </v>
   <v>       0.00274348 </v>
   <v>       0.00274348 </v>
   <v>       0.00274348 </v>
   <v>       0.00274348 </v>
   <v>       0.00274348 </v>
   <v>       0.00274348 </v>
   <v>       0.00274348 </v>
   <v>       0.00274348 </v>
   <v>       0.00274348 </v>
   <v>       0.00274348 </v>
   <v>       0.00274348 </v>
   <v>       0.00274348 </v>
   <v>       0.00274348 </v>
   <v>       0.00274348 </v>
   <v>       0.00274348 </v>
   <v>       0.00274348 </v>
   <v>       0.00274348 </v>
   <v>       0.00274348 </v>
   <v>       0.00274348 </v>
   <v>       0.00274348 </v>
   <v>       0.00274348 </v>
   <v>       0.00274348 </v>
   <v>       0.00274348 </v>
   <v>       0.00274348 </v>
   <v>       0.00274348 </v>
   <v>       0.00274348 </v>
   <v>       0.00274348 </v>
   <v>       0.00274348 </v>
   <v>       0.00274348 </v>
   <v>       0.00274348 </v>
   <v>       0.00274348 </v>
   <v>       0.00274348 </v>
   <v>       0.00274348 </v>
   <v>       0.00274348 </v>
   <v>       0.00274348 </v>
   <v>       0.00274348 </v>
   <v>       0.00274348 </v>
   <v>       0.00274348 </v>
   <v>       0.00274348 </v>
   <v>       0.00274348 </v>
   <v>       0.00274348 </v>
   <v>       0.00274348 </v>
   <v>       0.00274348 </v>
   <v>       0.00274348 </v>
   <v>       0.00274348 </v>
   <v>       0.00274348 </v>
   <v>       0.00274348 </v>
   <v>       0.00274348 </v>
   <v>       0.00274348 </v>
   <v>       0.00274348 </v>
   <v>       0.00274348 </v>
   <v>       0.00274348 </v>
   <v>       0.00274348 </v>
   <v>       0.00274348 </v>
   <v>       0.00274348 </v>
   <v>       0.00274348 </v>
   <v>       0.00274348 </v>
   <v>       0.00274348 </v>
   <v>       0.00274348 </v>
   <v>       0.00274348 </v>
   <v>       0.00274348 </v>
   <v>       0.00274348 </v>
   <v>       0.00274348 </v>
   <v>       0.00274348 </v>
   <v>       0.00274348 </v>
   <v>       0.00274348 </v>
   <v>       0.00274348 </v>
   <v>       0.00274348 </v>
   <v>       0.00274348 </v>
   <v>       0.00274348 </v>
   <v>       0.00274348 </v>
   <v>       0.00274348 </v>
   <v>       0.00274348 </v>
   <v>       0.00274348 </v>
   <v>       0.00274348 </v>
   <v>       0.00274348 </v>
   <v>       0.00274348 </v>
   <v>       0.00274348 </v>
   <v>       0.00274348 </v>
   <v>       0.00274348 </v>
   <v>       0.00274348 </v>
   <v>       0.00274348 </v>
   <v>       0.00274348 </v>
   <v>       0.00274348 </v>
   <v>       0.00274348 </v>
   <v>       0.00274348 </v>
   <v>       0.00274348 </v>
   <v>       0.00274348 </v>
   <v>       0.00274348 </v>
   <v>       0.00274348 </v>
   <v>       0.00274348 </v>
   <v>       0.00274348 </v>
   <v>       0.00274348 </v>
   <v>       0.00274348 </v>
   <v>       0.00274348 </v>
   <v>       0.00274348 </v>
   <v>       0.00274348 </v>
   <v>       0.00274348 </v>
   <v>       0.00274348 </v>
   <v>       0.00274348 </v>
   <v>       0.00274348 </v>
   <v>       0.00274348 </v>
   <v>       0.00274348 </v>
   <v>       0.00274348 </v>
   <v>       0.00274348 </v>
   <v>       0.00274348 </v>
   <v>       0.00274348 </v>
   <v>       0.00274348 </v>
   <v>       0.00274348 </v>
   <v>       0.00274348 </v>
   <v>       0.00274348 </v>
   <v>       0.00274348 </v>
   <v>       0.00274348 </v>
   <v>       0.00274348 </v>
   <v>       0.00274348 </v>
   <v>       0.00274348 </v>
   <v>       0.00274348 </v>
   <v>       0.00274348 </v>
   <v>       0.00274348 </v>
   <v>       0.00274348 </v>
   <v>       0.00274348 </v>
   <v>       0.00274348 </v>
   <v>       0.00274348 </v>
   <v>       0.00274348 </v>
   <v>       0.00274348 </v>
   <v>       0.00274348 </v>
   <v>       0.00274348 </v>
   <v>       0.00274348 </v>
   <v>       0.00274348 </v>
   <v>       0.00274348 </v>
   <v>       0.00274348 </v>
   <v>       0.00274348 </v>
   <v>       0.00274348 </v>
   <v>       0.00274348 </v>
   <v>       0.00274348 </v>
   <v>       0.00274348 </v>
   <v>       0.00274348 </v>
   <v>       0.00274348 </v>
   <v>       0.00274348 </v>
   <v>       0.00274348 </v>
   <v>       0.00274348 </v>
   <v>       0.00274348 </v>
   <v>       0.00274348 </v>
   <v>       0.00274348 </v>
   <v>       0.00274348 </v>
   <v>       0.00274348 </v>
   <v>       0.00274348 </v>
   <v>       0.00274348 </v>
   <v>       0.00274348 </v>
   <v>       0.00274348 </v>
   <v>       0.00274348 </v>
   <v>       0.00274348 </v>
   <v>       0.00274348 </v>
   <v>       0.00274348 </v>
   <v>       0.00274348 </v>
   <v>       0.00274348 </v>
   <v>       0.00274348 </v>
   <v>       0.00274348 </v>
   <v>       0.00274348 </v>
   <v>       0.00274348 </v>
   <v>       0.00274348 </v>
   <v>       0.00274348 </v>
   <v>       0.00274348 </v>
   <v>       0.00274348 </v>
   <v>       0.00274348 </v>
   <v>       0.00274348 </v>
   <v>       0.00274348 </v>
   <v>       0.00274348 </v>
   <v>       0.00274348 </v>
   <v>       0.00274348 </v>
   <v>       0.00274348 </v>
   <v>       0.00274348 </v>
   <v>       0.00274348 </v>
   <v>       0.00274348 </v>
   <v>       0.00274348 </v>
   <v>       0.00274348 </v>
   <v>       0.00274348 </v>
   <v>       0.00274348 </v>
   <v>       0.00274348 </v>
   <v>       0.00274348 </v>
   <v>       0.00274348 </v>
   <v>       0.00274348 </v>
   <v>       0.00274348 </v>
   <v>       0.00274348 </v>
   <v>       0.00274348 </v>
   <v>       0.00274348 </v>
   <v>       0.00274348 </v>
   <v>       0.00274348 </v>
   <v>       0.00274348 </v>
   <v>       0.00274348 </v>
   <v>       0.00274348 </v>
   <v>       0.00274348 </v>
   <v>       0.00274348 </v>
   <v>       0.00274348 </v>
   <v>       0.00274348 </v>
   <v>       0.00274348 </v>
   <v>       0.00274348 </v>
   <v>       0.00274348 </v>
   <v>       0.00274348 </v>
   <v>       0.00274348 </v>
   <v>       0.00274348 </v>
   <v>       0.00274348 </v>
   <v>       0.00274348 </v>
   <v>       0.00274348 </v>
   <v>       0.00274348 </v>
   <v>       0.00274348 </v>
   <v>       0.00274348 </v>
   <v>       0.00274348 </v>
   <v>       0.00274348 </v>
   <v>       0.00274348 </v>
   <v>       0.00274348 </v>
   <v>       0.00274348 </v>
   <v>       0.00274348 </v>
   <v>       0.00274348 </v>
   <v>       0.00274348 </v>
   <v>       0.00274348 </v>
   <v>       0.00274348 </v>
   <v>       0.00274348 </v>
   <v>       0.00274348 </v>
   <v>       0.00274348 </v>
   <v>       0.00274348 </v>
   <v>       0.00274348 </v>
   <v>       0.00274348 </v>
   <v>       0.00274348 </v>
   <v>       0.00274348 </v>
   <v>       0.00274348 </v>
   <v>       0.00274348 </v>
   <v>       0.00274348 </v>
  </varray>
 </kpoints>
 <parameters>
  <separator name="general" >
   <i type="string" name="SYSTEM">Og_FCC</i>
   <i type="logical" name="LCOMPAT"> F  </i>
  </separator>
  <separator name="electronic" >
   <i type="string" name="PREC">accura</i>
   <i name="ENMAX">    600.00000000</i>
   <i name="ENAUG">    361.02500000</i>
   <i name="EDIFF">      0.00000010</i>
   <i type="int" name="IALGO">    68</i>
   <i type="int" name="IWAVPR">    10</i>
   <i type="int" name="NBANDS">    28</i>
   <i name="NELECT">     18.00000000</i>
   <i type="int" name="TURBO">     0</i>
   <i type="int" name="IRESTART">     0</i>
   <i type="int" name="NREBOOT">     0</i>
   <i type="int" name="NMIN">     0</i>
   <i name="EREF">      0.00000000</i>
   <separator name="electronic smearing" >
    <i type="int" name="ISMEAR">     1</i>
    <i name="SIGMA">      0.10000000</i>
    <i name="KSPACING">      0.20000000</i>
    <i type="logical" name="KGAMMA"> T  </i>
   </separator>
   <separator name="electronic projectors" >
    <i type="logical" name="LREAL"> F  </i>
    <v name="ROPT">      0.00000000</v>
    <i type="int" name="LMAXPAW">  -100</i>
    <i type="int" name="LMAXMIX">     2</i>
    <i type="logical" name="NLSPLINE"> F  </i>
   </separator>
   <separator name="electronic startup" >
    <i type="int" name="ISTART">     0</i>
    <i type="int" name="ICHARG">     2</i>
    <i type="int" name="INIWAV">     1</i>
   </separator>
   <separator name="electronic spin" >
    <i type="int" name="ISPIN">     1</i>
    <i type="logical" name="LNONCOLLINEAR"> T  </i>
    <v name="MAGMOM">      1.00000000      1.00000000      1.00000000</v>
    <i name="NUPDOWN">     -1.00000000</i>
    <i type="logical" name="LSORBIT"> T  </i>
    <v name="SAXIS">      0.00000000      0.00000000      1.00000000</v>
    <i type="logical" name="LSPIRAL"> F  </i>
    <v name="QSPIRAL">      0.00000000      0.00000000      0.00000000</v>
    <i type="logical" name="LZEROZ"> F  </i>
   </separator>
   <separator name="electronic exchange-correlation" >
    <i type="logical" name="LASPH"> F  </i>
    <i type="logical" name="LMETAGGA"> F  </i>
   </separator>
   <separator name="electronic convergence" >
    <i type="int" name="NELM">   100</i>
    <i type="int" name="NELMDL">    -5</i>
    <i type="int" name="NELMIN">     5</i>
    <i name="ENINI">    600.00000000</i>
    <separator name="electronic convergence detail" >
     <i type="logical" name="LDIAG"> T  </i>
     <i type="logical" name="LSUBROT"> F  </i>
     <i name="WEIMIN">      0.00000000</i>
     <i name="EBREAK">      0.00000000</i>
     <i name="DEPER">      0.30000000</i>
     <i type="int" name="NRMM">     4</i>
     <i name="TIME">      0.40000000</i>
    </separator>
   </separator>
   <separator name="electronic mixer" >
    <i name="AMIX">      0.40000000</i>
    <i name="BMIX">      1.00000000</i>
    <i name="AMIN">      0.10000000</i>
    <i name="AMIX_MAG">      1.60000000</i>
    <i name="BMIX_MAG">      1.00000000</i>
    <separator name="electronic mixer details" >
     <i type="int" name="IMIX">     4</i>
     <i type="logical" name="MIXFIRST"> F  </i>
     <i type="int" name="MAXMIX">    50</i>
     <i name="WC">    100.00000000</i>
     <i type="int" name="INIMIX">     1</i>
     <i type="int" name="MIXPRE">     1</i>
     <i type="int" name="MREMOVE">     5</i>
    </separator>
   </separator>
   <separator name="electronic dipolcorrection" >
    <i type="logical" name="LDIPOL"> F  </i>
    <i type="logical" name="LMONO"> F  </i>
    <i type="int" name="IDIPOL">     0</i>
    <i name="EPSILON">      1.00000000</i>
    <v name="DIPOL">   -100.00000000   -100.00000000   -100.00000000</v>
    <i name="EFIELD">      0.00000000</i>
   </separator>
  </separator>
  <separator name="grids" >
   <i type="int" name="NGX">    36</i>
   <i type="int" name="NGY">    36</i>
   <i type="int" name="NGZ">    36</i>
   <i type="int" name="NGXF">    72</i>
   <i type="int" name="NGYF">    72</i>
   <i type="int" name="NGZF">    72</i>
   <i type="logical" name="ADDGRID"> T  </i>
  </separator>
  <separator name="ionic" >
   <i type="int" name="NSW">     1</i>
   <i type="int" name="IBRION">    -1</i>
   <i type="int" name="MDALGO">     0</i>
   <i type="int" name="ISIF">     7</i>
   <i name="PSTRESS">      0.00000000</i>
   <i name="EDIFFG">      0.00001000</i>
   <i type="int" name="NFREE">     5</i>
   <i name="POTIM">      0.10000000</i>
   <i name="SMASS">     -3.00000000</i>
   <i name="SCALEE">      1.00000000</i>
  </separator>
  <separator name="ionic md" >
   <i name="TEBEG">      0.00010000</i>
   <i name="TEEND">      0.00010000</i>
   <i type="int" name="NBLOCK">     1</i>
   <i type="int" name="KBLOCK">     1</i>
   <i type="int" name="NPACO">   256</i>
   <i name="APACO">     16.00000000</i>
  </separator>
  <separator name="symmetry" >
   <i type="int" name="ISYM">     2</i>
   <i name="SYMPREC">      0.00000010</i>
  </separator>
  <separator name="dos" >
   <i type="int" name="LORBIT">     0</i>
   <v name="RWIGS">     -1.00000000</v>
   <i type="int" name="NEDOS">   301</i>
   <i name="EMIN">     10.00000000</i>
   <i name="EMAX">    -10.00000000</i>
   <i name="EFERMI">      0.00000000</i>
  </separator>
  <separator name="writing" >
   <i type="int" name="NWRITE">     2</i>
   <i type="logical" name="LWAVE"> F  </i>
   <i type="logical" name="LDOWNSAMPLE"> F  </i>
   <i type="logical" name="LCHARG"> F  </i>
   <i type="logical" name="LPARD"> F  </i>
   <i type="logical" name="LVTOT"> F  </i>
   <i type="logical" name="LVHAR"> F  </i>
   <i type="logical" name="LELF"> F  </i>
   <i type="logical" name="LOPTICS"> F  </i>
   <v name="STM">      0.00000000      0.00000000      0.00000000      0.00000000      0.00000000      0.00000000      0.00000000</v>
  </separator>
  <separator name="performance" >
   <i type="int" name="NPAR">     1</i>
   <i type="int" name="NSIM">     4</i>
   <i type="int" name="NBLK">    -1</i>
   <i type="logical" name="LPLANE"> T  </i>
   <i type="logical" name="LSCALAPACK"> T  </i>
   <i type="logical" name="LSCAAWARE"> F  </i>
   <i type="logical" name="LSCALU"> F  </i>
   <i type="logical" name="LASYNC"> F  </i>
   <i type="logical" name="LORBITALREAL"> F  </i>
  </separator>
  <separator name="miscellaneous" >
   <i type="int" name="IDIOT">     3</i>
   <i type="int" name="ISPECIAL">     0</i>
   <i type="logical" name="LMUSIC"> F  </i>
   <v name="POMASS">      0.01000000</v>
   <v name="DARWINR">      0.00000000</v>
   <v name="DARWINV">      1.00000000</v>
   <i type="logical" name="LCORR"> T  </i>
  </separator>
  <i type="logical" name="GGA_COMPAT"> F  </i>
  <i type="logical" name="LBERRY"> F  </i>
  <i type="int" name="ICORELEVEL">     0</i>
  <i type="logical" name="LDAU"> F  </i>
  <i type="int" name="I_CONSTRAINED_M">     0</i>
  <separator name="electronic exchange-correlation" >
   <i type="string" name="GGA">PS</i>
   <i type="int" name="VOSKOWN">     0</i>
   <i type="logical" name="LHFCALC"> F  </i>
   <i type="string" name="PRECFOCK"></i>
   <i type="logical" name="LSYMGRAD"> F  </i>
   <i type="logical" name="LHFONE"> F  </i>
   <i type="logical" name="LRHFCALC"> F  </i>
   <i type="logical" name="LTHOMAS"> F  </i>
   <i type="logical" name="LMODELHF"> F  </i>
   <i name="ENCUT4O">     -1.00000000</i>
   <i type="int" name="EXXOEP">     0</i>
   <i type="int" name="FOURORBIT">     0</i>
   <i name="AEXX">      0.00000000</i>
   <i name="HFALPHA">      0.00000000</i>
   <i name="MCALPHA">      0.00000000</i>
   <i name="ALDAX">      1.00000000</i>
   <i name="AGGAX">      1.00000000</i>
   <i name="ALDAC">      1.00000000</i>
   <i name="AGGAC">      1.00000000</i>
   <i type="int" name="NKREDX">     1</i>
   <i type="int" name="NKREDY">     1</i>
   <i type="int" name="NKREDZ">     1</i>
   <i type="logical" name="SHIFTRED"> F  </i>
   <i type="logical" name="ODDONLY"> F  </i>
   <i type="logical" name="EVENONLY"> F  </i>
   <i type="int" name="LMAXFOCK">     0</i>
   <i type="int" name="NMAXFOCKAE">     0</i>
   <i type="logical" name="LFOCKAEDFT"> F  </i>
   <i name="HFSCREEN">      0.00000000</i>
   <i name="HFSCREENC">      0.00000000</i>
   <i type="int" name="NBANDSGWLOW">     0</i>
  </separator>
  <separator name="vdW DFT" >
   <i type="logical" name="LUSE_VDW"> F  </i>
   <i name="Zab_VDW">     -0.84910000</i>
   <i name="PARAM1">      0.12340000</i>
   <i name="PARAM2">      1.00000000</i>
   <i name="PARAM3">      0.00000000</i>
  </separator>
  <separator name="model GW" >
   <i type="int" name="MODEL_GW">     0</i>
   <i name="MODEL_EPS0">     35.02434633</i>
   <i name="MODEL_ALPHA">      1.00000000</i>
  </separator>
  <separator name="linear response parameters" >
   <i type="logical" name="LEPSILON"> F  </i>
   <i type="logical" name="LRPA"> F  </i>
   <i type="logical" name="LNABLA"> F  </i>
   <i type="logical" name="LVEL"> F  </i>
   <i type="int" name="KINTER">     0</i>
   <i name="CSHIFT">      0.10000000</i>
   <i name="OMEGAMAX">     -1.00000000</i>
   <i name="DEG_THRESHOLD">      0.00200000</i>
   <i name="RTIME">     -0.10000000</i>
   <i name="WPLASMAI">      0.00000000</i>
   <v name="DFIELD">      0.00000000      0.00000000      0.00000000</v>
   <v name="WPLASMA">      0.00000000      0.00000000      0.00000000      0.00000000      0.00000000      0.00000000      0.00000000      0.00000000      0.00000000</v>
  </separator>
  <separator name="orbital magnetization" >
   <i type="logical" name="NUCIND"> F  </i>
   <v name="MAGPOS">      0.00000000      0.00000000      0.00000000</v>
   <i type="logical" name="LNICSALL"> T  </i>
   <i type="logical" name="ORBITALMAG"> F  </i>
   <i type="logical" name="LMAGBLOCH"> F  </i>
   <i type="logical" name="LCHIMAG"> F  </i>
   <i type="logical" name="LGAUGE"> T  </i>
   <i type="int" name="MAGATOM">     0</i>
   <v name="MAGDIPOL">      0.00000000      0.00000000      0.00000000</v>
   <v name="AVECCONST">      0.00000000      0.00000000      0.00000000</v>
  </separator>
  <separator name="response functions" >
   <i type="logical" name="LADDER"> F  </i>
   <i type="logical" name="LRPAFORCE"> F  </i>
   <i type="logical" name="LFXC"> F  </i>
   <i type="logical" name="LHARTREE"> T  </i>
   <i type="int" name="IBSE">     0</i>
   <v type="int" name="KPOINT">    -1     0     0     0</v>
   <i type="logical" name="LTCTE"> F  </i>
   <i type="logical" name="LTETE"> F  </i>
   <i type="logical" name="LTRIPLET"> F  </i>
   <i type="logical" name="LFXCEPS"> F  </i>
   <i type="logical" name="LFXHEG"> F  </i>
   <i type="int" name="NATURALO">     2</i>
   <i type="logical" name="L2ORDER"> F  </i>
   <i type="logical" name="LMP2LT"> F  </i>
   <i type="logical" name="LUSEW"> F  </i>
   <i name="ENCUTGW">     -2.00000000</i>
   <i name="ENCUTGWSOFT">     -2.00000000</i>
   <i name="ENCUTLF">     -1.00000000</i>
   <i type="int" name="LMAXMP2">    -1</i>
   <i name="SCISSOR">      0.00000000</i>
   <i type="int" name="NOMEGA">     0</i>
   <i type="int" name="NOMEGAR">     0</i>
   <i type="int" name="NBANDSGW">    -1</i>
   <i type="int" name="NBANDSO">    -1</i>
   <i type="int" name="NBANDSV">    -1</i>
   <i type="int" name="NELM">   100</i>
   <i type="int" name="NELMHF">     1</i>
   <i type="int" name="DIM">     3</i>
   <i type="int" name="ANTIRES">     0</i>
   <i name="OMEGAMAX">    -30.00000000</i>
   <i name="OMEGAMIN">    -30.00000000</i>
   <i name="OMEGATL">   -200.00000000</i>
   <i type="int" name="OMEGAGRID">   140</i>
   <i name="CSHIFT">     -0.10000000</i>
   <i type="logical" name="SELFENERGY"> F  </i>
   <i type="logical" name="LSPECTRAL"> F  </i>
   <i type="logical" name="LSPECTRALGW"> F  </i>
   <i type="logical" name="LSINGLES"> F  </i>
   <i type="logical" name="LFERMIGW"> F  </i>
   <i type="logical" name="ODDONLYGW"> F  </i>
   <i type="logical" name="EVENONLYGW"> F  </i>
   <i type="int" name="NKREDLFX">     1</i>
   <i type="int" name="NKREDLFY">     1</i>
   <i type="int" name="NKREDLFZ">     1</i>
   <i type="int" name="MAXMEM">  2800</i>
   <i type="int" name="TELESCOPE">     0</i>
   <i type="int" name="TAUPAR">     1</i>
   <i type="int" name="OMEGAPAR">    -1</i>
   <i name="LAMBDA">      1.00000000</i>
  </separator>
  <separator name="External order field" >
   <i name="OFIELD_KAPPA">      0.00000000</i>
   <v name="OFIELD_K">      0.00000000      0.00000000      0.00000000</v>
   <i name="OFIELD_Q6_NEAR">      0.00000000</i>
   <i name="OFIELD_Q6_FAR">      0.00000000</i>
   <i name="OFIELD_A">      0.00000000</i>
  </separator>
 </parameters>
 <atominfo>
  <atoms>       1 </atoms>
  <types>       1 </types>
  <array name="atoms" >
   <dimension dim="1">ion</dimension>
   <field type="string">element</field>
   <field type="int">atomtype</field>
   <set>
    <rc><c>Og</c><c>   1</c></rc>
   </set>
  </array>
  <array name="atomtypes" >
   <dimension dim="1">type</dimension>
   <field type="int">atomspertype</field>
   <field type="string">element</field>
   <field>mass</field>
   <field>valence</field>
   <field type="string">pseudopotential</field>
   <set>
    <rc><c>   1</c><c>Og</c><c>      0.01000000</c><c>     18.00000000</c><c>  PAW Og, JanMewes Oct 18               </c></rc>
   </set>
  </array>
 </atominfo>
 <structure name="initialpos" >
  <crystal>
   <varray name="basis" >
    <v>       4.35422896       0.00000000       0.00000000 </v>
    <v>       2.17711448       3.77087289      -0.00000000 </v>
    <v>       2.17711448       1.25695763       3.55521306 </v>
   </varray>
   <i name="volume">     58.37391055 </i>
   <varray name="rec_basis" >
    <v>       0.22966179      -0.13259529      -0.09375903 </v>
    <v>       0.00000000       0.26519059      -0.09375903 </v>
    <v>      -0.00000000       0.00000000       0.28127709 </v>
   </varray>
  </crystal>
  <varray name="positions" >
   <v>       0.00000000       0.00000000       0.00000000 </v>
  </varray>
  <varray name="velocities" >
   <v>       0.00000000       0.00000000       0.00000000 </v>
  </varray>
 </structure>
 <calculation>
  <scstep>
   <time name="dav">    7.74    7.74</time>
   <time name="total">    8.32    8.32</time>
   <energy>
    <i name="alphaZ">     65.35893457 </i>
    <i name="ewald">  -1736.88515430 </i>
    <i name="hartreedc">   -663.01894307 </i>
    <i name="XCdc">    -66.97878209 </i>
    <i name="pawpsdc">   2266.13158641 </i>
    <i name="pawaedc">  -2183.94925607 </i>
    <i name="eentropy">     -0.00011666 </i>
    <i name="bandstr">    -15.33224916 </i>
    <i name="atom">   2642.01744135 </i>
    <i name="e_fr_energy">    307.34346099 </i>
    <i name="e_wo_entrp">    307.34357765 </i>
    <i name="e_0_energy">    307.34349988 </i>
   </energy>
  </scstep>
  <scstep>
   <time name="dav">    9.15    9.15</time>
   <time name="total">    9.15    9.15</time>
   <energy>
    <i name="e_fr_energy">      1.49025303 </i>
    <i name="e_wo_entrp">      1.49036628 </i>
    <i name="e_0_energy">      1.49029078 </i>
   </energy>
  </scstep>
  <scstep>
   <time name="dav">    8.60    8.60</time>
   <time name="total">    8.60    8.60</time>
   <energy>
    <i name="e_fr_energy">    -13.24639464 </i>
    <i name="e_wo_entrp">    -13.24642782 </i>
    <i name="e_0_energy">    -13.24640570 </i>
   </energy>
  </scstep>
  <scstep>
   <time name="dav">    9.97    9.97</time>
   <time name="total">    9.98    9.98</time>
   <energy>
    <i name="e_fr_energy">    -13.69225645 </i>
    <i name="e_wo_entrp">    -13.69226917 </i>
    <i name="e_0_energy">    -13.69226069 </i>
   </energy>
  </scstep>
  <scstep>
   <time name="dav">    9.32    9.32</time>
   <time name="total">   10.35   10.36</time>
   <energy>
    <i name="e_fr_energy">    -13.70780870 </i>
    <i name="e_wo_entrp">    -13.70782155 </i>
    <i name="e_0_energy">    -13.70781299 </i>
   </energy>
  </scstep>
  <scstep>
   <time name="diag">    1.81    1.82</time>
   <time name="diis">    9.41    9.41</time>
   <time name="orth">    0.05    0.05</time>
   <time name="total">   12.97   12.97</time>
   <energy>
    <i name="e_fr_energy">    -13.57562995 </i>
    <i name="e_wo_entrp">    -13.57561208 </i>
    <i name="e_0_energy">    -13.57562400 </i>
   </energy>
  </scstep>
  <scstep>
   <time name="diag">    1.81    1.81</time>
   <time name="diis">    9.14    9.14</time>
   <time name="orth">    0.05    0.05</time>
   <time name="total">   12.77   12.77</time>
   <energy>
    <i name="e_fr_energy">    -13.57800312 </i>
    <i name="e_wo_entrp">    -13.57798823 </i>
    <i name="e_0_energy">    -13.57799816 </i>
   </energy>
  </scstep>
  <scstep>
   <time name="diag">    1.81    1.81</time>
   <time name="diis">    9.25    9.25</time>
   <time name="orth">    0.05    0.05</time>
   <time name="total">   12.75   12.75</time>
   <energy>
    <i name="e_fr_energy">    -13.58837678 </i>
    <i name="e_wo_entrp">    -13.58835347 </i>
    <i name="e_0_energy">    -13.58836901 </i>
   </energy>
  </scstep>
  <scstep>
   <time name="diag">    1.81    1.81</time>
   <time name="diis">   10.31   10.31</time>
   <time name="orth">    0.05    0.05</time>
   <time name="total">   13.80   13.80</time>
   <energy>
    <i name="e_fr_energy">    -13.59376462 </i>
    <i name="e_wo_entrp">    -13.59374110 </i>
    <i name="e_0_energy">    -13.59375678 </i>
   </energy>
  </scstep>
  <scstep>
   <time name="diag">    1.81    1.81</time>
   <time name="diis">   10.71   10.71</time>
   <time name="orth">    0.05    0.05</time>
   <time name="total">   14.24   14.24</time>
   <energy>
    <i name="e_fr_energy">    -13.59476584 </i>
    <i name="e_wo_entrp">    -13.59474132 </i>
    <i name="e_0_energy">    -13.59475767 </i>
   </energy>
  </scstep>
  <scstep>
   <time name="diag">    1.81    1.81</time>
   <time name="diis">   10.42   10.42</time>
   <time name="orth">    0.05    0.05</time>
   <time name="total">   13.94   13.94</time>
   <energy>
    <i name="e_fr_energy">    -13.59480533 </i>
    <i name="e_wo_entrp">    -13.59478063 </i>
    <i name="e_0_energy">    -13.59479709 </i>
   </energy>
  </scstep>
  <scstep>
   <time name="diag">    1.82    1.82</time>
   <time name="diis">   10.05   10.05</time>
   <time name="orth">    0.05    0.05</time>
   <time name="total">   13.56   13.56</time>
   <energy>
    <i name="e_fr_energy">    -13.59483988 </i>
    <i name="e_wo_entrp">    -13.59481519 </i>
    <i name="e_0_energy">    -13.59483165 </i>
   </energy>
  </scstep>
  <scstep>
   <time name="diag">    1.80    1.80</time>
   <time name="diis">   10.93   10.93</time>
   <time name="orth">    0.05    0.05</time>
   <time name="total">   14.43   14.43</time>
   <energy>
    <i name="e_fr_energy">    -13.59484827 </i>
    <i name="e_wo_entrp">    -13.59482357 </i>
    <i name="e_0_energy">    -13.59484004 </i>
   </energy>
  </scstep>
  <scstep>
   <time name="diag">    1.81    1.81</time>
   <time name="diis">   10.82   10.82</time>
   <time name="orth">    0.05    0.05</time>
   <time name="total">   14.36   14.36</time>
   <energy>
    <i name="e_fr_energy">    -13.59485004 </i>
    <i name="e_wo_entrp">    -13.59482533 </i>
    <i name="e_0_energy">    -13.59484181 </i>
   </energy>
  </scstep>
  <scstep>
   <time name="diag">    1.81    1.81</time>
   <time name="diis">   11.19   11.19</time>
   <time name="orth">    0.05    0.05</time>
   <time name="total">   14.69   14.69</time>
   <energy>
    <i name="e_fr_energy">    -13.59485032 </i>
    <i name="e_wo_entrp">    -13.59482561 </i>
    <i name="e_0_energy">    -13.59484208 </i>
   </energy>
  </scstep>
  <scstep>
   <time name="diag">    1.81    1.81</time>
   <time name="diis">    9.46    9.46</time>
   <time name="orth">    0.05    0.05</time>
   <time name="total">   12.97   12.97</time>
   <energy>
    <i name="e_fr_energy">    -13.59484971 </i>
    <i name="e_wo_entrp">    -13.59482500 </i>
    <i name="e_0_energy">    -13.59484147 </i>
   </energy>
  </scstep>
  <scstep>
   <time name="diag">    1.80    1.80</time>
   <time name="diis">    7.89    7.89</time>
   <time name="orth">    0.05    0.05</time>
   <time name="total">   10.29   10.29</time>
   <energy>
    <i name="alphaZ">     65.35893457 </i>
    <i name="ewald">  -1736.88515430 </i>
    <i name="hartreedc">   -675.03372501 </i>
    <i name="XCdc">    -66.67027228 </i>
    <i name="pawpsdc">   2310.51557631 </i>
    <i name="pawaedc">  -2237.11151791 </i>
    <i name="eentropy">     -0.00002471 </i>
    <i name="bandstr">   -315.78610768 </i>
    <i name="atom">   2642.01744135 </i>
    <i name="e_fr_energy">    -13.59484965 </i>
    <i name="e_wo_entrp">    -13.59482494 </i>
    <i name="e_0_energy">    -13.59484141 </i>
   </energy>
  </scstep>
  <structure>
   <crystal>
    <varray name="basis" >
     <v>       4.35422896       0.00000000       0.00000000 </v>
     <v>       2.17711448       3.77087289      -0.00000000 </v>
     <v>       2.17711448       1.25695763       3.55521306 </v>
    </varray>
    <i name="volume">     58.37391055 </i>
    <varray name="rec_basis" >
     <v>       0.22966179      -0.13259529      -0.09375903 </v>
     <v>       0.00000000       0.26519059      -0.09375903 </v>
     <v>      -0.00000000       0.00000000       0.28127709 </v>
    </varray>
   </crystal>
   <varray name="positions" >
    <v>       0.00000000       0.00000000       0.00000000 </v>
   </varray>
  </structure>
  <varray name="forces" >
   <v>      -0.00000000      -0.00000000      -0.00000000 </v>
  </varray>
  <varray name="stress" >
   <v>       0.23644924       0.00050700       0.00038953 </v>
   <v>       0.00047470       0.23667952       0.00035079 </v>
   <v>       0.00037675       0.00036952       0.23675884 </v>
  </varray>
  <energy>
   <i name="e_fr_energy">    -13.59484965 </i>
   <i name="e_wo_entrp">    -13.59484141 </i>
   <i name="e_0_energy">     -0.00002471 </i>
  </energy>
  <time name="totalsc">  217.90  217.92</time>
  <eigenvalues>
   <array>
    <dimension dim="1">band</dimension>
    <dimension dim="2">kpoint</dimension>
    <dimension dim="3">spin</dimension>
    <field>eigene</field>
    <field>occ</field>
    <set>
     <set comment="spin 1">
      <set comment="kpoint 1">
       <r>  -30.6787    1.0000 </r>
       <r>  -30.6787    1.0000 </r>
       <r>  -30.6787    1.0000 </r>
       <r>  -30.6787    1.0000 </r>
       <r>  -23.9912    1.0000 </r>
       <r>  -23.9912    1.0000 </r>
       <r>  -23.9873    1.0000 </r>
       <r>  -23.9873    1.0000 </r>
       <r>  -23.9873    1.0000 </r>
       <r>  -23.9873    1.0000 </r>
       <r>  -20.4160    1.0000 </r>
       <r>  -20.4160    1.0000 </r>
       <r>   -7.1680    1.0000 </r>
       <r>   -7.1680    1.0000 </r>
       <r>    3.4294    1.0001 </r>
       <r>    3.4294    1.0001 </r>
       <r>    3.7349    0.5409 </r>
       <r>    3.7349    0.5409 </r>
       <r>    3.7349    0.5409 </r>
       <r>    3.7349    0.5409 </r>
       <r>   10.6111    0.0000 </r>
       <r>   10.6111    0.0000 </r>
       <r>   10.6111    0.0000 </r>
       <r>   10.6111    0.0000 </r>
       <r>   10.8403    0.0000 </r>
       <r>   10.8403    0.0000 </r>
       <r>   11.0293    0.0000 </r>
       <r>   11.0293    0.0000 </r>
      </set>
      <set comment="kpoint 2">
       <r>  -30.6787    1.0000 </r>
       <r>  -30.6787    1.0000 </r>
       <r>  -30.6784    1.0000 </r>
       <r>  -30.6784    1.0000 </r>
       <r>  -23.9904    1.0000 </r>
       <r>  -23.9904    1.0000 </r>
       <r>  -23.9875    1.0000 </r>
       <r>  -23.9875    1.0000 </r>
       <r>  -23.9865    1.0000 </r>
       <r>  -23.9865    1.0000 </r>
       <r>  -20.4038    1.0000 </r>
       <r>  -20.4038    1.0000 </r>
       <r>   -7.2095    1.0000 </r>
       <r>   -7.2095    1.0000 </r>
       <r>    2.4477    1.0000 </r>
       <r>    2.4477    1.0000 </r>
       <r>    3.6605    0.9882 </r>
       <r>    3.6605    0.9882 </r>
       <r>    4.7567   -0.0000 </r>
       <r>    4.7567   -0.0000 </r>
       <r>    9.7696    0.0000 </r>
       <r>    9.7696    0.0000 </r>
       <r>   10.7332    0.0000 </r>
       <r>   10.7332    0.0000 </r>
       <r>   11.0163    0.0000 </r>
       <r>   11.0163    0.0000 </r>
       <r>   12.0429    0.0000 </r>
       <r>   12.4780    0.0000 </r>
      </set>
      <set comment="kpoint 3">
       <r>  -30.6785    1.0000 </r>
       <r>  -30.6785    1.0000 </r>
       <r>  -30.6776    1.0000 </r>
       <r>  -30.6776    1.0000 </r>
       <r>  -23.9893    1.0000 </r>
       <r>  -23.9893    1.0000 </r>
       <r>  -23.9870    1.0000 </r>
       <r>  -23.9870    1.0000 </r>
       <r>  -23.9842    1.0000 </r>
       <r>  -23.9842    1.0000 </r>
       <r>  -20.3722    1.0000 </r>
       <r>  -20.3722    1.0000 </r>
       <r>   -7.3148    1.0000 </r>
       <r>   -7.3148    1.0000 </r>
       <r>    1.5251    1.0000 </r>
       <r>    1.5251    1.0000 </r>
       <r>    3.4842    1.0009 </r>
       <r>    3.4842    1.0009 </r>
       <r>    5.6301   -0.0000 </r>
       <r>    5.6301   -0.0000 </r>
       <r>    9.5393    0.0000 </r>
       <r>    9.5393    0.0000 </r>
       <r>   10.7075    0.0000 </r>
       <r>   10.7075    0.0000 </r>
       <r>   11.0662    0.0000 </r>
       <r>   11.0662    0.0000 </r>
       <r>   11.4910    0.0000 </r>
       <r>   11.4931    0.0000 </r>
      </set>
      <set comment="kpoint 4">
       <r>  -30.6782    1.0000 </r>
       <r>  -30.6782    1.0000 </r>
       <r>  -30.6765    1.0000 </r>
       <r>  -30.6765    1.0000 </r>
       <r>  -23.9895    1.0000 </r>
       <r>  -23.9895    1.0000 </r>
       <r>  -23.9849    1.0000 </r>
       <r>  -23.9849    1.0000 </r>
       <r>  -23.9817    1.0000 </r>
       <r>  -23.9817    1.0000 </r>
       <r>  -20.3357    1.0000 </r>
       <r>  -20.3357    1.0000 </r>
       <r>   -7.4350    1.0000 </r>
       <r>   -7.4350    1.0000 </r>
       <r>    0.8753    1.0000 </r>
       <r>    0.8753    1.0000 </r>
       <r>    3.3012    1.0000 </r>
       <r>    3.3012    1.0000 </r>
       <r>    5.9345   -0.0000 </r>
       <r>    5.9345   -0.0000 </r>
       <r>   10.1008    0.0000 </r>
       <r>   10.1008    0.0000 </r>
       <r>   10.3385    0.0000 </r>
       <r>   10.3385    0.0000 </r>
       <r>   10.7610    0.0000 </r>
       <r>   10.7610    0.0000 </r>
       <r>   10.9942    0.0000 </r>
       <r>   10.9942    0.0000 </r>
      </set>
      <set comment="kpoint 5">
       <r>  -30.6781    1.0000 </r>
       <r>  -30.6781    1.0000 </r>
       <r>  -30.6759    1.0000 </r>
       <r>  -30.6759    1.0000 </r>
       <r>  -23.9899    1.0000 </r>
       <r>  -23.9899    1.0000 </r>
       <r>  -23.9833    1.0000 </r>
       <r>  -23.9833    1.0000 </r>
       <r>  -23.9800    1.0000 </r>
       <r>  -23.9800    1.0000 </r>
       <r>  -20.3116    1.0000 </r>
       <r>  -20.3116    1.0000 </r>
       <r>   -7.5137    1.0000 </r>
       <r>   -7.5137    1.0000 </r>
       <r>    0.5417    1.0000 </r>
       <r>    0.5417    1.0000 </r>
       <r>    3.1900    1.0000 </r>
       <r>    3.1900    1.0000 </r>
       <r>    5.9418   -0.0000 </r>
       <r>    5.9418   -0.0000 </r>
       <r>   10.0824    0.0000 </r>
       <r>   10.0824    0.0000 </r>
       <r>   10.2369    0.0000 </r>
       <r>   10.2369    0.0000 </r>
       <r>   10.4808    0.0000 </r>
       <r>   10.4808    0.0000 </r>
       <r>   11.6073    0.0000 </r>
       <r>   11.6073    0.0000 </r>
      </set>
      <set comment="kpoint 6">
       <r>  -30.6787    1.0000 </r>
       <r>  -30.6787    1.0000 </r>
       <r>  -30.6784    1.0000 </r>
       <r>  -30.6784    1.0000 </r>
       <r>  -23.9904    1.0000 </r>
       <r>  -23.9904    1.0000 </r>
       <r>  -23.9875    1.0000 </r>
       <r>  -23.9875    1.0000 </r>
       <r>  -23.9865    1.0000 </r>
       <r>  -23.9865    1.0000 </r>
       <r>  -20.4038    1.0000 </r>
       <r>  -20.4038    1.0000 </r>
       <r>   -7.2095    1.0000 </r>
       <r>   -7.2095    1.0000 </r>
       <r>    2.4477    1.0000 </r>
       <r>    2.4477    1.0000 </r>
       <r>    3.6605    0.9882 </r>
       <r>    3.6605    0.9882 </r>
       <r>    4.7567   -0.0000 </r>
       <r>    4.7567   -0.0000 </r>
       <r>    9.7696    0.0000 </r>
       <r>    9.7696    0.0000 </r>
       <r>   10.7332    0.0000 </r>
       <r>   10.7332    0.0000 </r>
       <r>   11.0163    0.0000 </r>
       <r>   11.0163    0.0000 </r>
       <r>   12.0444    0.0000 </r>
       <r>   12.1707    0.0000 </r>
      </set>
      <set comment="kpoint 7">
       <r>  -30.6786    1.0000 </r>
       <r>  -30.6786    1.0000 </r>
       <r>  -30.6784    1.0000 </r>
       <r>  -30.6784    1.0000 </r>
       <r>  -23.9903    1.0000 </r>
       <r>  -23.9903    1.0000 </r>
       <r>  -23.9869    1.0000 </r>
       <r>  -23.9869    1.0000 </r>
       <r>  -23.9866    1.0000 </r>
       <r>  -23.9866    1.0000 </r>
       <r>  -20.3997    1.0000 </r>
       <r>  -20.3997    1.0000 </r>
       <r>   -7.2228    1.0000 </r>
       <r>   -7.2228    1.0000 </r>
       <r>    2.3406    1.0000 </r>
       <r>    2.3406    1.0000 </r>
       <r>    3.4822    1.0008 </r>
       <r>    3.4822    1.0008 </r>
       <r>    5.0537   -0.0000 </r>
       <r>    5.0537   -0.0000 </r>
       <r>    9.4750    0.0000 </r>
       <r>    9.4750    0.0000 </r>
       <r>   10.7519    0.0000 </r>
       <r>   10.7519    0.0000 </r>
       <r>   11.3312    0.0000 </r>
       <r>   11.3312    0.0000 </r>
       <r>   11.3823    0.0000 </r>
       <r>   11.3825    0.0000 </r>
      </set>
      <set comment="kpoint 8">
       <r>  -30.6784    1.0000 </r>
       <r>  -30.6784    1.0000 </r>
       <r>  -30.6777    1.0000 </r>
       <r>  -30.6777    1.0000 </r>
       <r>  -23.9893    1.0000 </r>
       <r>  -23.9893    1.0000 </r>
       <r>  -23.9869    1.0000 </r>
       <r>  -23.9869    1.0000 </r>
       <r>  -23.9846    1.0000 </r>
       <r>  -23.9846    1.0000 </r>
       <r>  -20.3745    1.0000 </r>
       <r>  -20.3745    1.0000 </r>
       <r>   -7.3054    1.0000 </r>
       <r>   -7.3054    1.0000 </r>
       <r>    1.6574    1.0000 </r>
       <r>    1.6574    1.0000 </r>
       <r>    3.2609    1.0000 </r>
       <r>    3.2609    1.0000 </r>
       <r>    5.8641   -0.0000 </r>
       <r>    5.8641   -0.0000 </r>
       <r>    9.0994    0.0000 </r>
       <r>    9.0994    0.0000 </r>
       <r>   10.2280    0.0000 </r>
       <r>   10.2280    0.0000 </r>
       <r>   11.1705    0.0000 </r>
       <r>   11.1706    0.0000 </r>
       <r>   11.8419    0.0000 </r>
       <r>   11.8423    0.0000 </r>
      </set>
      <set comment="kpoint 9">
       <r>  -30.6781    1.0000 </r>
       <r>  -30.6781    1.0000 </r>
       <r>  -30.6768    1.0000 </r>
       <r>  -30.6768    1.0000 </r>
       <r>  -23.9889    1.0000 </r>
       <r>  -23.9889    1.0000 </r>
       <r>  -23.9856    1.0000 </r>
       <r>  -23.9856    1.0000 </r>
       <r>  -23.9821    1.0000 </r>
       <r>  -23.9821    1.0000 </r>
       <r>  -20.3397    1.0000 </r>
       <r>  -20.3397    1.0000 </r>
       <r>   -7.4186    1.0000 </r>
       <r>   -7.4186    1.0000 </r>
       <r>    1.0202    1.0000 </r>
       <r>    1.0202    1.0000 </r>
       <r>    3.0213    1.0000 </r>
       <r>    3.0213    1.0000 </r>
       <r>    6.3570   -0.0000 </r>
       <r>    6.3570   -0.0000 </r>
       <r>    9.3828    0.0000 </r>
       <r>    9.3828    0.0000 </r>
       <r>    9.6551    0.0000 </r>
       <r>    9.6551    0.0000 </r>
       <r>   11.0535    0.0000 </r>
       <r>   11.0535    0.0000 </r>
       <r>   12.3283    0.0000 </r>
       <r>   12.5029    0.0000 </r>
      </set>
      <set comment="kpoint 10">
       <r>  -30.6779    1.0000 </r>
       <r>  -30.6779    1.0000 </r>
       <r>  -30.6761    1.0000 </r>
       <r>  -30.6761    1.0000 </r>
       <r>  -23.9891    1.0000 </r>
       <r>  -23.9891    1.0000 </r>
       <r>  -23.9836    1.0000 </r>
       <r>  -23.9836    1.0000 </r>
       <r>  -23.9804    1.0000 </r>
       <r>  -23.9804    1.0000 </r>
       <r>  -20.3114    1.0000 </r>
       <r>  -20.3114    1.0000 </r>
       <r>   -7.5094    1.0000 </r>
       <r>   -7.5094    1.0000 </r>
       <r>    0.6225    1.0000 </r>
       <r>    0.6225    1.0000 </r>
       <r>    2.8372    1.0000 </r>
       <r>    2.8372    1.0000 </r>
       <r>    6.4535   -0.0000 </r>
       <r>    6.4535   -0.0000 </r>
       <r>    9.1034    0.0000 </r>
       <r>    9.1034    0.0000 </r>
       <r>   10.4120    0.0000 </r>
       <r>   10.4120    0.0000 </r>
       <r>   10.9335    0.0000 </r>
       <r>   10.9335    0.0000 </r>
       <r>   12.0506    0.0000 </r>
       <r>   12.0507    0.0000 </r>
      </set>
      <set comment="kpoint 11">
       <r>  -30.6779    1.0000 </r>
       <r>  -30.6779    1.0000 </r>
       <r>  -30.6759    1.0000 </r>
       <r>  -30.6759    1.0000 </r>
       <r>  -23.9892    1.0000 </r>
       <r>  -23.9892    1.0000 </r>
       <r>  -23.9829    1.0000 </r>
       <r>  -23.9829    1.0000 </r>
       <r>  -23.9801    1.0000 </r>
       <r>  -23.9801    1.0000 </r>
       <r>  -20.3034    1.0000 </r>
       <r>  -20.3034    1.0000 </r>
       <r>   -7.5352    1.0000 </r>
       <r>   -7.5352    1.0000 </r>
       <r>    0.5190    1.0000 </r>
       <r>    0.5190    1.0000 </r>
       <r>    2.7840    1.0000 </r>
       <r>    2.7840    1.0000 </r>
       <r>    6.4710    0.0000 </r>
       <r>    6.4710    0.0000 </r>
       <r>    9.0314    0.0000 </r>
       <r>    9.0314    0.0000 </r>
       <r>   10.4285    0.0000 </r>
       <r>   10.4285    0.0000 </r>
       <r>   11.2756    0.0000 </r>
       <r>   11.2756    0.0000 </r>
       <r>   12.2032    0.0000 </r>
       <r>   12.2032    0.0000 </r>
      </set>
      <set comment="kpoint 12">
       <r>  -30.6780    1.0000 </r>
       <r>  -30.6780    1.0000 </r>
       <r>  -30.6763    1.0000 </r>
       <r>  -30.6763    1.0000 </r>
       <r>  -23.9889    1.0000 </r>
       <r>  -23.9889    1.0000 </r>
       <r>  -23.9842    1.0000 </r>
       <r>  -23.9842    1.0000 </r>
       <r>  -23.9810    1.0000 </r>
       <r>  -23.9810    1.0000 </r>
       <r>  -20.3194    1.0000 </r>
       <r>  -20.3194    1.0000 </r>
       <r>   -7.4840    1.0000 </r>
       <r>   -7.4840    1.0000 </r>
       <r>    0.7202    1.0000 </r>
       <r>    0.7202    1.0000 </r>
       <r>    2.8860    1.0000 </r>
       <r>    2.8860    1.0000 </r>
       <r>    6.4808    0.0000 </r>
       <r>    6.4808    0.0000 </r>
       <r>    9.2613    0.0000 </r>
       <r>    9.2613    0.0000 </r>
       <r>   10.3361    0.0000 </r>
       <r>   10.3361    0.0000 </r>
       <r>   10.6775    0.0000 </r>
       <r>   10.6775    0.0000 </r>
       <r>   12.3010    0.0000 </r>
       <r>   12.3125    0.0000 </r>
      </set>
      <set comment="kpoint 13">
       <r>  -30.6782    1.0000 </r>
       <r>  -30.6782    1.0000 </r>
       <r>  -30.6771    1.0000 </r>
       <r>  -30.6771    1.0000 </r>
       <r>  -23.9885    1.0000 </r>
       <r>  -23.9885    1.0000 </r>
       <r>  -23.9865    1.0000 </r>
       <r>  -23.9865    1.0000 </r>
       <r>  -23.9829    1.0000 </r>
       <r>  -23.9829    1.0000 </r>
       <r>  -20.3518    1.0000 </r>
       <r>  -20.3518    1.0000 </r>
       <r>   -7.3799    1.0000 </r>
       <r>   -7.3799    1.0000 </r>
       <r>    1.1998    1.0000 </r>
       <r>    1.1998    1.0000 </r>
       <r>    3.1208    1.0000 </r>
       <r>    3.1208    1.0000 </r>
       <r>    6.2571   -0.0000 </r>
       <r>    6.2571   -0.0000 </r>
       <r>    9.3648    0.0000 </r>
       <r>    9.3648    0.0000 </r>
       <r>   10.0108    0.0000 </r>
       <r>   10.0108    0.0000 </r>
       <r>   10.8922    0.0000 </r>
       <r>   10.8922    0.0000 </r>
       <r>   11.8343    0.0000 </r>
       <r>   11.8431    0.0000 </r>
      </set>
      <set comment="kpoint 14">
       <r>  -30.6785    1.0000 </r>
       <r>  -30.6785    1.0000 </r>
       <r>  -30.6780    1.0000 </r>
       <r>  -30.6780    1.0000 </r>
       <r>  -23.9894    1.0000 </r>
       <r>  -23.9894    1.0000 </r>
       <r>  -23.9875    1.0000 </r>
       <r>  -23.9875    1.0000 </r>
       <r>  -23.9852    1.0000 </r>
       <r>  -23.9852    1.0000 </r>
       <r>  -20.3850    1.0000 </r>
       <r>  -20.3850    1.0000 </r>
       <r>   -7.2716    1.0000 </r>
       <r>   -7.2716    1.0000 </r>
       <r>    1.8673    1.0000 </r>
       <r>    1.8673    1.0000 </r>
       <r>    3.4264    1.0000 </r>
       <r>    3.4264    1.0000 </r>
       <r>    5.5176   -0.0000 </r>
       <r>    5.5176   -0.0000 </r>
       <r>    9.3664    0.0000 </r>
       <r>    9.3664    0.0000 </r>
       <r>   10.6114    0.0000 </r>
       <r>   10.6114    0.0000 </r>
       <r>   11.1133    0.0000 </r>
       <r>   11.1133    0.0000 </r>
       <r>   11.6536    0.0000 </r>
       <r>   11.6612    0.0000 </r>
      </set>
      <set comment="kpoint 15">
       <r>  -30.6785    1.0000 </r>
       <r>  -30.6785    1.0000 </r>
       <r>  -30.6776    1.0000 </r>
       <r>  -30.6776    1.0000 </r>
       <r>  -23.9893    1.0000 </r>
       <r>  -23.9893    1.0000 </r>
       <r>  -23.9870    1.0000 </r>
       <r>  -23.9870    1.0000 </r>
       <r>  -23.9842    1.0000 </r>
       <r>  -23.9842    1.0000 </r>
       <r>  -20.3722    1.0000 </r>
       <r>  -20.3722    1.0000 </r>
       <r>   -7.3148    1.0000 </r>
       <r>   -7.3148    1.0000 </r>
       <r>    1.5251    1.0000 </r>
       <r>    1.5251    1.0000 </r>
       <r>    3.4842    1.0009 </r>
       <r>    3.4842    1.0009 </r>
       <r>    5.6301   -0.0000 </r>
       <r>    5.6301   -0.0000 </r>
       <r>    9.5393    0.0000 </r>
       <r>    9.5393    0.0000 </r>
       <r>   10.7075    0.0000 </r>
       <r>   10.7075    0.0000 </r>
       <r>   11.0662    0.0000 </r>
       <r>   11.0663    0.0000 </r>
       <r>   11.4909    0.0000 </r>
       <r>   11.4963    0.0000 </r>
      </set>
      <set comment="kpoint 16">
       <r>  -30.6784    1.0000 </r>
       <r>  -30.6784    1.0000 </r>
       <r>  -30.6777    1.0000 </r>
       <r>  -30.6777    1.0000 </r>
       <r>  -23.9893    1.0000 </r>
       <r>  -23.9893    1.0000 </r>
       <r>  -23.9869    1.0000 </r>
       <r>  -23.9869    1.0000 </r>
       <r>  -23.9846    1.0000 </r>
       <r>  -23.9846    1.0000 </r>
       <r>  -20.3745    1.0000 </r>
       <r>  -20.3745    1.0000 </r>
       <r>   -7.3054    1.0000 </r>
       <r>   -7.3054    1.0000 </r>
       <r>    1.6574    1.0000 </r>
       <r>    1.6574    1.0000 </r>
       <r>    3.2609    1.0000 </r>
       <r>    3.2609    1.0000 </r>
       <r>    5.8641   -0.0000 </r>
       <r>    5.8641   -0.0000 </r>
       <r>    9.0994    0.0000 </r>
       <r>    9.0994    0.0000 </r>
       <r>   10.2280    0.0000 </r>
       <r>   10.2280    0.0000 </r>
       <r>   11.1705    0.0000 </r>
       <r>   11.1706    0.0000 </r>
       <r>   11.8419    0.0000 </r>
       <r>   11.8422    0.0000 </r>
      </set>
      <set comment="kpoint 17">
       <r>  -30.6781    1.0000 </r>
       <r>  -30.6781    1.0000 </r>
       <r>  -30.6775    1.0000 </r>
       <r>  -30.6775    1.0000 </r>
       <r>  -23.9893    1.0000 </r>
       <r>  -23.9893    1.0000 </r>
       <r>  -23.9860    1.0000 </r>
       <r>  -23.9860    1.0000 </r>
       <r>  -23.9834    1.0000 </r>
       <r>  -23.9834    1.0000 </r>
       <r>  -20.3577    1.0000 </r>
       <r>  -20.3577    1.0000 </r>
       <r>   -7.3574    1.0000 </r>
       <r>   -7.3574    1.0000 </r>
       <r>    1.4309    1.0000 </r>
       <r>    1.4309    1.0000 </r>
       <r>    2.9369    1.0000 </r>
       <r>    2.9369    1.0000 </r>
       <r>    6.3881   -0.0000 </r>
       <r>    6.3881   -0.0000 </r>
       <r>    8.4956    0.0000 </r>
       <r>    8.4956    0.0000 </r>
       <r>    9.6768    0.0000 </r>
       <r>    9.6768    0.0000 </r>
       <r>   11.4310    0.0000 </r>
       <r>   11.4310    0.0000 </r>
       <r>   12.3751    0.0000 </r>
       <r>   12.3751    0.0000 </r>
      </set>
      <set comment="kpoint 18">
       <r>  -30.6778    1.0000 </r>
       <r>  -30.6778    1.0000 </r>
       <r>  -30.6768    1.0000 </r>
       <r>  -30.6768    1.0000 </r>
       <r>  -23.9887    1.0000 </r>
       <r>  -23.9887    1.0000 </r>
       <r>  -23.9854    1.0000 </r>
       <r>  -23.9854    1.0000 </r>
       <r>  -23.9811    1.0000 </r>
       <r>  -23.9811    1.0000 </r>
       <r>  -20.3293    1.0000 </r>
       <r>  -20.3293    1.0000 </r>
       <r>   -7.4457    1.0000 </r>
       <r>   -7.4457    1.0000 </r>
       <r>    1.0277    1.0000 </r>
       <r>    1.0277    1.0000 </r>
       <r>    2.6335    1.0000 </r>
       <r>    2.6335    1.0000 </r>
       <r>    6.7705    0.0000 </r>
       <r>    6.7705    0.0000 </r>
       <r>    8.3769    0.0000 </r>
       <r>    8.3769    0.0000 </r>
       <r>    9.3286    0.0000 </r>
       <r>    9.3286    0.0000 </r>
       <r>   11.7324    0.0000 </r>
       <r>   11.7324    0.0000 </r>
       <r>   12.9095    0.0000 </r>
       <r>   12.9096    0.0000 </r>
      </set>
      <set comment="kpoint 19">
       <r>  -30.6775    1.0000 </r>
       <r>  -30.6775    1.0000 </r>
       <r>  -30.6762    1.0000 </r>
       <r>  -30.6762    1.0000 </r>
       <r>  -23.9881    1.0000 </r>
       <r>  -23.9881    1.0000 </r>
       <r>  -23.9842    1.0000 </r>
       <r>  -23.9842    1.0000 </r>
       <r>  -23.9797    1.0000 </r>
       <r>  -23.9797    1.0000 </r>
       <r>  -20.3026    1.0000 </r>
       <r>  -20.3026    1.0000 </r>
       <r>   -7.5277    1.0000 </r>
       <r>   -7.5277    1.0000 </r>
       <r>    0.7074    1.0000 </r>
       <r>    0.7074    1.0000 </r>
       <r>    2.3221    1.0000 </r>
       <r>    2.3221    1.0000 </r>
       <r>    6.9583    0.0000 </r>
       <r>    6.9583    0.0000 </r>
       <r>    8.5268    0.0000 </r>
       <r>    8.5268    0.0000 </r>
       <r>    9.6181    0.0000 </r>
       <r>    9.6181    0.0000 </r>
       <r>   11.5473    0.0000 </r>
       <r>   11.5473    0.0000 </r>
       <r>   13.2125    0.0000 </r>
       <r>   13.2133    0.0000 </r>
      </set>
      <set comment="kpoint 20">
       <r>  -30.6774    1.0000 </r>
       <r>  -30.6774    1.0000 </r>
       <r>  -30.6759    1.0000 </r>
       <r>  -30.6759    1.0000 </r>
       <r>  -23.9878    1.0000 </r>
       <r>  -23.9878    1.0000 </r>
       <r>  -23.9827    1.0000 </r>
       <r>  -23.9827    1.0000 </r>
       <r>  -23.9801    1.0000 </r>
       <r>  -23.9801    1.0000 </r>
       <r>  -20.2903    1.0000 </r>
       <r>  -20.2903    1.0000 </r>
       <r>   -7.5652    1.0000 </r>
       <r>   -7.5652    1.0000 </r>
       <r>    0.5665    1.0000 </r>
       <r>    0.5665    1.0000 </r>
       <r>    2.1558    1.0000 </r>
       <r>    2.1558    1.0000 </r>
       <r>    7.1385    0.0000 </r>
       <r>    7.1386    0.0000 </r>
       <r>    8.4468    0.0000 </r>
       <r>    8.4468    0.0000 </r>
       <r>   10.6115    0.0000 </r>
       <r>   10.6115    0.0000 </r>
       <r>   11.3694    0.0000 </r>
       <r>   11.3694    0.0000 </r>
       <r>   12.6031    0.0000 </r>
       <r>   12.6031    0.0000 </r>
      </set>
      <set comment="kpoint 21">
       <r>  -30.6775    1.0000 </r>
[...]
       <r>     2.6833     0.0000     0.0000 </r>
       <r>     2.8506     0.0000     0.0000 </r>
       <r>     3.0180     0.0000     0.0000 </r>
       <r>     3.1853     0.0000     0.0000 </r>
       <r>     3.3527     0.0000     0.0000 </r>
       <r>     3.5200     0.0000     0.0000 </r>
       <r>     3.6874     0.0000     0.0000 </r>
       <r>     3.8547     0.0000     0.0000 </r>
       <r>     4.0220     0.0000     0.0000 </r>
       <r>     4.1894     0.0000     0.0000 </r>
       <r>     4.3567     0.0000     0.0000 </r>
       <r>     4.5241     0.0000     0.0000 </r>
       <r>     4.6914     0.0000     0.0000 </r>
       <r>     4.8588     0.0000     0.0000 </r>
       <r>     5.0261     0.0000     0.0000 </r>
       <r>     5.1934     0.0000     0.0000 </r>
       <r>     5.3608     0.0000     0.0000 </r>
       <r>     5.5281     0.0000     0.0000 </r>
       <r>     5.6955     0.0000     0.0000 </r>
       <r>     5.8628     0.0000     0.0000 </r>
       <r>     6.0302     0.0000     0.0000 </r>
       <r>     6.1975     0.0000     0.0000 </r>
       <r>     6.3648     0.0000     0.0000 </r>
       <r>     6.5322     0.0000     0.0000 </r>
       <r>     6.6995     0.0000     0.0000 </r>
       <r>     6.8669     0.0000     0.0000 </r>
       <r>     7.0342     0.0000     0.0000 </r>
       <r>     7.2016     0.0000     0.0000 </r>
       <r>     7.3689     0.0000     0.0000 </r>
       <r>     7.5362     0.0000     0.0000 </r>
       <r>     7.7036     0.0000     0.0000 </r>
       <r>     7.8709     0.0000     0.0000 </r>
       <r>     8.0383     0.0000     0.0000 </r>
       <r>     8.2056     0.0000     0.0000 </r>
       <r>     8.3729     0.0000     0.0000 </r>
       <r>     8.5403     0.0000     0.0000 </r>
       <r>     8.7076     0.0000     0.0000 </r>
       <r>     8.8750     0.0000     0.0000 </r>
       <r>     9.0423     0.0000     0.0000 </r>
       <r>     9.2097     0.0000     0.0000 </r>
       <r>     9.3770     0.0000     0.0000 </r>
       <r>     9.5443     0.0000     0.0000 </r>
       <r>     9.7117     0.0000     0.0000 </r>
       <r>     9.8790     0.0000     0.0000 </r>
       <r>    10.0464     0.0000     0.0000 </r>
       <r>    10.2137     0.0000     0.0000 </r>
       <r>    10.3811     0.0000     0.0000 </r>
       <r>    10.5484     0.0000     0.0000 </r>
       <r>    10.7157     0.0000     0.0000 </r>
       <r>    10.8831     0.0000     0.0000 </r>
       <r>    11.0504     0.0000     0.0000 </r>
       <r>    11.2178     0.0000     0.0000 </r>
       <r>    11.3851     0.0000     0.0000 </r>
       <r>    11.5525     0.0000     0.0000 </r>
       <r>    11.7198     0.0000     0.0000 </r>
       <r>    11.8871     0.0000     0.0000 </r>
       <r>    12.0545     0.0000     0.0000 </r>
       <r>    12.2218     0.0000     0.0000 </r>
       <r>    12.3892     0.0000     0.0000 </r>
       <r>    12.5565     0.0000     0.0000 </r>
       <r>    12.7239     0.0000     0.0000 </r>
       <r>    12.8912     0.0000     0.0000 </r>
       <r>    13.0585     0.0000     0.0000 </r>
       <r>    13.2259     0.0000     0.0000 </r>
       <r>    13.3932     0.0000     0.0000 </r>
       <r>    13.5606     0.0000     0.0000 </r>
       <r>    13.7279     0.0000     0.0000 </r>
       <r>    13.8953     0.0000     0.0000 </r>
       <r>    14.0626     0.0000     0.0000 </r>
       <r>    14.2299     0.0000     0.0000 </r>
       <r>    14.3973     0.0000     0.0000 </r>
       <r>    14.5646     0.0000     0.0000 </r>
       <r>    14.7320     0.0000     0.0000 </r>
       <r>    14.8993     0.0000     0.0000 </r>
       <r>    15.0667     0.0000     0.0000 </r>
       <r>    15.2340     0.0000     0.0000 </r>
       <r>    15.4013     0.0000     0.0000 </r>
       <r>    15.5687     0.0000     0.0000 </r>
       <r>    15.7360     0.0000     0.0000 </r>
       <r>    15.9034     0.0000     0.0000 </r>
       <r>    16.0707     0.0000     0.0000 </r>
       <r>    16.2380     0.0000     0.0000 </r>
       <r>    16.4054     0.0000     0.0000 </r>
       <r>    16.5727     0.0000     0.0000 </r>
       <r>    16.7401     0.0000     0.0000 </r>
       <r>    16.9074     0.0000     0.0000 </r>
       <r>    17.0748     0.0000     0.0000 </r>
       <r>    17.2421     0.0000     0.0000 </r>
      </set>
      <set comment="spin 4">
       <r>   -32.9607     0.0000     0.0000 </r>
       <r>   -32.7933     0.0000     0.0000 </r>
       <r>   -32.6260     0.0000     0.0000 </r>
       <r>   -32.4586     0.0000     0.0000 </r>
       <r>   -32.2913     0.0000     0.0000 </r>
       <r>   -32.1239     0.0000     0.0000 </r>
       <r>   -31.9566     0.0000     0.0000 </r>
       <r>   -31.7893     0.0000     0.0000 </r>
       <r>   -31.6219     0.0000     0.0000 </r>
       <r>   -31.4546     0.0000     0.0000 </r>
       <r>   -31.2872     0.0000     0.0000 </r>
       <r>   -31.1199     0.0000     0.0000 </r>
       <r>   -30.9525     0.0000     0.0000 </r>
       <r>   -30.7852     0.0000     0.0000 </r>
       <r>   -30.6179     0.0000     0.0000 </r>
       <r>   -30.4505     0.0000     0.0000 </r>
       <r>   -30.2832     0.0000     0.0000 </r>
       <r>   -30.1158     0.0000     0.0000 </r>
       <r>   -29.9485     0.0000     0.0000 </r>
       <r>   -29.7811     0.0000     0.0000 </r>
       <r>   -29.6138     0.0000     0.0000 </r>
       <r>   -29.4465     0.0000     0.0000 </r>
       <r>   -29.2791     0.0000     0.0000 </r>
       <r>   -29.1118     0.0000     0.0000 </r>
       <r>   -28.9444     0.0000     0.0000 </r>
       <r>   -28.7771     0.0000     0.0000 </r>
       <r>   -28.6098     0.0000     0.0000 </r>
       <r>   -28.4424     0.0000     0.0000 </r>
       <r>   -28.2751     0.0000     0.0000 </r>
       <r>   -28.1077     0.0000     0.0000 </r>
       <r>   -27.9404     0.0000     0.0000 </r>
       <r>   -27.7730     0.0000     0.0000 </r>
       <r>   -27.6057     0.0000     0.0000 </r>
       <r>   -27.4384     0.0000     0.0000 </r>
       <r>   -27.2710     0.0000     0.0000 </r>
       <r>   -27.1037     0.0000     0.0000 </r>
       <r>   -26.9363     0.0000     0.0000 </r>
       <r>   -26.7690     0.0000     0.0000 </r>
       <r>   -26.6016     0.0000     0.0000 </r>
       <r>   -26.4343     0.0000     0.0000 </r>
       <r>   -26.2670     0.0000     0.0000 </r>
       <r>   -26.0996     0.0000     0.0000 </r>
       <r>   -25.9323     0.0000     0.0000 </r>
       <r>   -25.7649     0.0000     0.0000 </r>
       <r>   -25.5976     0.0000     0.0000 </r>
       <r>   -25.4302     0.0000     0.0000 </r>
       <r>   -25.2629     0.0000     0.0000 </r>
       <r>   -25.0956     0.0000     0.0000 </r>
       <r>   -24.9282     0.0000     0.0000 </r>
       <r>   -24.7609     0.0000     0.0000 </r>
       <r>   -24.5935     0.0000     0.0000 </r>
       <r>   -24.4262     0.0000     0.0000 </r>
       <r>   -24.2588     0.0000     0.0000 </r>
       <r>   -24.0915     0.0000     0.0000 </r>
       <r>   -23.9242     0.0000     0.0000 </r>
       <r>   -23.7568     0.0000     0.0000 </r>
       <r>   -23.5895     0.0000     0.0000 </r>
       <r>   -23.4221     0.0000     0.0000 </r>
       <r>   -23.2548     0.0000     0.0000 </r>
       <r>   -23.0874     0.0000     0.0000 </r>
       <r>   -22.9201     0.0000     0.0000 </r>
       <r>   -22.7528     0.0000     0.0000 </r>
       <r>   -22.5854     0.0000     0.0000 </r>
       <r>   -22.4181     0.0000     0.0000 </r>
       <r>   -22.2507     0.0000     0.0000 </r>
       <r>   -22.0834     0.0000     0.0000 </r>
       <r>   -21.9161     0.0000     0.0000 </r>
       <r>   -21.7487     0.0000     0.0000 </r>
       <r>   -21.5814     0.0000     0.0000 </r>
       <r>   -21.4140     0.0000     0.0000 </r>
       <r>   -21.2467     0.0000     0.0000 </r>
       <r>   -21.0793     0.0000     0.0000 </r>
       <r>   -20.9120     0.0000     0.0000 </r>
       <r>   -20.7447     0.0000     0.0000 </r>
       <r>   -20.5773     0.0000     0.0000 </r>
       <r>   -20.4100     0.0000     0.0000 </r>
       <r>   -20.2426     0.0000     0.0000 </r>
       <r>   -20.0753     0.0000     0.0000 </r>
       <r>   -19.9079     0.0000     0.0000 </r>
       <r>   -19.7406     0.0000     0.0000 </r>
       <r>   -19.5733     0.0000     0.0000 </r>
       <r>   -19.4059     0.0000     0.0000 </r>
       <r>   -19.2386     0.0000     0.0000 </r>
       <r>   -19.0712     0.0000     0.0000 </r>
       <r>   -18.9039     0.0000     0.0000 </r>
       <r>   -18.7365     0.0000     0.0000 </r>
       <r>   -18.5692     0.0000     0.0000 </r>
       <r>   -18.4019     0.0000     0.0000 </r>
       <r>   -18.2345     0.0000     0.0000 </r>
       <r>   -18.0672     0.0000     0.0000 </r>
       <r>   -17.8998     0.0000     0.0000 </r>
       <r>   -17.7325     0.0000     0.0000 </r>
       <r>   -17.5651     0.0000     0.0000 </r>
       <r>   -17.3978     0.0000     0.0000 </r>
       <r>   -17.2305     0.0000     0.0000 </r>
       <r>   -17.0631     0.0000     0.0000 </r>
       <r>   -16.8958     0.0000     0.0000 </r>
       <r>   -16.7284     0.0000     0.0000 </r>
       <r>   -16.5611     0.0000     0.0000 </r>
       <r>   -16.3937     0.0000     0.0000 </r>
       <r>   -16.2264     0.0000     0.0000 </r>
       <r>   -16.0591     0.0000     0.0000 </r>
       <r>   -15.8917     0.0000     0.0000 </r>
       <r>   -15.7244     0.0000     0.0000 </r>
       <r>   -15.5570     0.0000     0.0000 </r>
       <r>   -15.3897     0.0000     0.0000 </r>
       <r>   -15.2223     0.0000     0.0000 </r>
       <r>   -15.0550     0.0000     0.0000 </r>
       <r>   -14.8877     0.0000     0.0000 </r>
       <r>   -14.7203     0.0000     0.0000 </r>
       <r>   -14.5530     0.0000     0.0000 </r>
       <r>   -14.3856     0.0000     0.0000 </r>
       <r>   -14.2183     0.0000     0.0000 </r>
       <r>   -14.0510     0.0000     0.0000 </r>
       <r>   -13.8836     0.0000     0.0000 </r>
       <r>   -13.7163     0.0000     0.0000 </r>
       <r>   -13.5489     0.0000     0.0000 </r>
       <r>   -13.3816     0.0000     0.0000 </r>
       <r>   -13.2142     0.0000     0.0000 </r>
       <r>   -13.0469     0.0000     0.0000 </r>
       <r>   -12.8796     0.0000     0.0000 </r>
       <r>   -12.7122     0.0000     0.0000 </r>
       <r>   -12.5449     0.0000     0.0000 </r>
       <r>   -12.3775     0.0000     0.0000 </r>
       <r>   -12.2102     0.0000     0.0000 </r>
       <r>   -12.0428     0.0000     0.0000 </r>
       <r>   -11.8755     0.0000     0.0000 </r>
       <r>   -11.7082     0.0000     0.0000 </r>
       <r>   -11.5408     0.0000     0.0000 </r>
       <r>   -11.3735     0.0000     0.0000 </r>
       <r>   -11.2061     0.0000     0.0000 </r>
       <r>   -11.0388     0.0000     0.0000 </r>
       <r>   -10.8714     0.0000     0.0000 </r>
       <r>   -10.7041     0.0000     0.0000 </r>
       <r>   -10.5368     0.0000     0.0000 </r>
       <r>   -10.3694     0.0000     0.0000 </r>
       <r>   -10.2021     0.0000     0.0000 </r>
       <r>   -10.0347     0.0000     0.0000 </r>
       <r>    -9.8674     0.0000     0.0000 </r>
       <r>    -9.7000     0.0000     0.0000 </r>
       <r>    -9.5327     0.0000     0.0000 </r>
       <r>    -9.3654     0.0000     0.0000 </r>
       <r>    -9.1980     0.0000     0.0000 </r>
       <r>    -9.0307     0.0000     0.0000 </r>
       <r>    -8.8633     0.0000     0.0000 </r>
       <r>    -8.6960     0.0000     0.0000 </r>
       <r>    -8.5286     0.0000     0.0000 </r>
       <r>    -8.3613     0.0000     0.0000 </r>
       <r>    -8.1940     0.0000     0.0000 </r>
       <r>    -8.0266     0.0000     0.0000 </r>
       <r>    -7.8593     0.0000     0.0000 </r>
       <r>    -7.6919     0.0000     0.0000 </r>
       <r>    -7.5246     0.0000     0.0000 </r>
       <r>    -7.3572     0.0000     0.0000 </r>
       <r>    -7.1899     0.0000     0.0000 </r>
       <r>    -7.0226     0.0000     0.0000 </r>
       <r>    -6.8552     0.0000     0.0000 </r>
       <r>    -6.6879     0.0000     0.0000 </r>
       <r>    -6.5205     0.0000     0.0000 </r>
       <r>    -6.3532     0.0000     0.0000 </r>
       <r>    -6.1859     0.0000     0.0000 </r>
       <r>    -6.0185     0.0000     0.0000 </r>
       <r>    -5.8512     0.0000     0.0000 </r>
       <r>    -5.6838     0.0000     0.0000 </r>
       <r>    -5.5165     0.0000     0.0000 </r>
       <r>    -5.3491     0.0000     0.0000 </r>
       <r>    -5.1818     0.0000     0.0000 </r>
       <r>    -5.0145     0.0000     0.0000 </r>
       <r>    -4.8471     0.0000     0.0000 </r>
       <r>    -4.6798     0.0000     0.0000 </r>
       <r>    -4.5124     0.0000     0.0000 </r>
       <r>    -4.3451     0.0000     0.0000 </r>
       <r>    -4.1777     0.0000     0.0000 </r>
       <r>    -4.0104     0.0000     0.0000 </r>
       <r>    -3.8431     0.0000     0.0000 </r>
       <r>    -3.6757     0.0000     0.0000 </r>
       <r>    -3.5084     0.0000     0.0000 </r>
       <r>    -3.3410     0.0000     0.0000 </r>
       <r>    -3.1737     0.0000     0.0000 </r>
       <r>    -3.0063     0.0000     0.0000 </r>
       <r>    -2.8390     0.0000     0.0000 </r>
       <r>    -2.6717     0.0000     0.0000 </r>
       <r>    -2.5043     0.0000     0.0000 </r>
       <r>    -2.3370     0.0000     0.0000 </r>
       <r>    -2.1696     0.0000     0.0000 </r>
       <r>    -2.0023     0.0000     0.0000 </r>
       <r>    -1.8349     0.0000     0.0000 </r>
       <r>    -1.6676     0.0000     0.0000 </r>
       <r>    -1.5003     0.0000     0.0000 </r>
       <r>    -1.3329     0.0000     0.0000 </r>
       <r>    -1.1656     0.0000     0.0000 </r>
       <r>    -0.9982     0.0000     0.0000 </r>
       <r>    -0.8309     0.0000     0.0000 </r>
       <r>    -0.6635     0.0000     0.0000 </r>
       <r>    -0.4962     0.0000     0.0000 </r>
       <r>    -0.3289     0.0000     0.0000 </r>
       <r>    -0.1615     0.0000     0.0000 </r>
       <r>     0.0058     0.0000     0.0000 </r>
       <r>     0.1732     0.0000     0.0000 </r>
       <r>     0.3405     0.0000     0.0000 </r>
       <r>     0.5078     0.0000     0.0000 </r>
       <r>     0.6752     0.0000     0.0000 </r>
       <r>     0.8425     0.0000     0.0000 </r>
       <r>     1.0099     0.0000     0.0000 </r>
       <r>     1.1772     0.0000     0.0000 </r>
       <r>     1.3446     0.0000     0.0000 </r>
       <r>     1.5119     0.0000     0.0000 </r>
       <r>     1.6792     0.0000     0.0000 </r>
       <r>     1.8466     0.0000     0.0000 </r>
       <r>     2.0139     0.0000     0.0000 </r>
       <r>     2.1813     0.0000     0.0000 </r>
       <r>     2.3486     0.0000     0.0000 </r>
       <r>     2.5160     0.0000     0.0000 </r>
       <r>     2.6833     0.0000     0.0000 </r>
       <r>     2.8506     0.0000     0.0000 </r>
       <r>     3.0180     0.0000     0.0000 </r>
       <r>     3.1853     0.0000     0.0000 </r>
       <r>     3.3527     0.0000     0.0000 </r>
       <r>     3.5200     0.0000     0.0000 </r>
       <r>     3.6874     0.0000     0.0000 </r>
       <r>     3.8547     0.0000     0.0000 </r>
       <r>     4.0220     0.0000     0.0000 </r>
       <r>     4.1894     0.0000     0.0000 </r>
       <r>     4.3567     0.0000     0.0000 </r>
       <r>     4.5241     0.0000     0.0000 </r>
       <r>     4.6914     0.0000     0.0000 </r>
       <r>     4.8588     0.0000     0.0000 </r>
       <r>     5.0261     0.0000     0.0000 </r>
       <r>     5.1934     0.0000     0.0000 </r>
       <r>     5.3608     0.0000     0.0000 </r>
       <r>     5.5281     0.0000     0.0000 </r>
       <r>     5.6955     0.0000     0.0000 </r>
       <r>     5.8628     0.0000     0.0000 </r>
       <r>     6.0302     0.0000     0.0000 </r>
       <r>     6.1975     0.0000     0.0000 </r>
       <r>     6.3648     0.0000     0.0000 </r>
       <r>     6.5322     0.0000     0.0000 </r>
       <r>     6.6995     0.0000     0.0000 </r>
       <r>     6.8669     0.0000     0.0000 </r>
       <r>     7.0342     0.0000     0.0000 </r>
       <r>     7.2016     0.0000     0.0000 </r>
       <r>     7.3689     0.0000     0.0000 </r>
       <r>     7.5362     0.0000     0.0000 </r>
       <r>     7.7036     0.0000     0.0000 </r>
       <r>     7.8709     0.0000     0.0000 </r>
       <r>     8.0383     0.0000     0.0000 </r>
       <r>     8.2056     0.0000     0.0000 </r>
       <r>     8.3729     0.0000     0.0000 </r>
       <r>     8.5403     0.0000     0.0000 </r>
       <r>     8.7076     0.0000     0.0000 </r>
       <r>     8.8750     0.0000     0.0000 </r>
       <r>     9.0423     0.0000     0.0000 </r>
       <r>     9.2097     0.0000     0.0000 </r>
       <r>     9.3770     0.0000     0.0000 </r>
       <r>     9.5443     0.0000     0.0000 </r>
       <r>     9.7117     0.0000     0.0000 </r>
       <r>     9.8790     0.0000     0.0000 </r>
       <r>    10.0464     0.0000     0.0000 </r>
       <r>    10.2137     0.0000     0.0000 </r>
       <r>    10.3811     0.0000     0.0000 </r>
       <r>    10.5484     0.0000     0.0000 </r>
       <r>    10.7157     0.0000     0.0000 </r>
       <r>    10.8831     0.0000     0.0000 </r>
       <r>    11.0504     0.0000     0.0000 </r>
       <r>    11.2178     0.0000     0.0000 </r>
       <r>    11.3851     0.0000     0.0000 </r>
       <r>    11.5525     0.0000     0.0000 </r>
       <r>    11.7198     0.0000     0.0000 </r>
       <r>    11.8871     0.0000     0.0000 </r>
       <r>    12.0545     0.0000     0.0000 </r>
       <r>    12.2218     0.0000     0.0000 </r>
       <r>    12.3892     0.0000     0.0000 </r>
       <r>    12.5565     0.0000     0.0000 </r>
       <r>    12.7239     0.0000     0.0000 </r>
       <r>    12.8912     0.0000     0.0000 </r>
       <r>    13.0585     0.0000     0.0000 </r>
       <r>    13.2259     0.0000     0.0000 </r>
       <r>    13.3932     0.0000     0.0000 </r>
       <r>    13.5606     0.0000     0.0000 </r>
       <r>    13.7279     0.0000     0.0000 </r>
       <r>    13.8953     0.0000     0.0000 </r>
       <r>    14.0626     0.0000     0.0000 </r>
       <r>    14.2299     0.0000     0.0000 </r>
       <r>    14.3973     0.0000     0.0000 </r>
       <r>    14.5646     0.0000     0.0000 </r>
       <r>    14.7320     0.0000     0.0000 </r>
       <r>    14.8993     0.0000     0.0000 </r>
       <r>    15.0667     0.0000     0.0000 </r>
       <r>    15.2340     0.0000     0.0000 </r>
       <r>    15.4013     0.0000     0.0000 </r>
       <r>    15.5687     0.0000     0.0000 </r>
       <r>    15.7360     0.0000     0.0000 </r>
       <r>    15.9034     0.0000     0.0000 </r>
       <r>    16.0707     0.0000     0.0000 </r>
       <r>    16.2380     0.0000     0.0000 </r>
       <r>    16.4054     0.0000     0.0000 </r>
       <r>    16.5727     0.0000     0.0000 </r>
       <r>    16.7401     0.0000     0.0000 </r>
       <r>    16.9074     0.0000     0.0000 </r>
       <r>    17.0748     0.0000     0.0000 </r>
       <r>    17.2421     0.0000     0.0000 </r>
      </set>
     </set>
    </array>
   </total>
  </dos>
 </calculation>
 <structure name="finalpos" >
  <crystal>
   <varray name="basis" >
    <v>       4.35422896       0.00000000       0.00000000 </v>
    <v>       2.17711448       3.77087289      -0.00000000 </v>
    <v>       2.17711448       1.25695763       3.55521306 </v>
   </varray>
   <i name="volume">     58.37391055 </i>
   <varray name="rec_basis" >
    <v>       0.22966179      -0.13259529      -0.09375903 </v>
    <v>       0.00000000       0.26519059      -0.09375903 </v>
    <v>      -0.00000000       0.00000000       0.28127709 </v>
   </varray>
  </crystal>
  <varray name="positions" >
   <v>       0.00000000       0.00000000       0.00000000 </v>
  </varray>
  <varray name="velocities" >
   <v>       0.00000000       0.00000000       0.00000000 </v>
  </varray>
 </structure>
</modeling>
