   1   1   0   0
  0.5789729E+02  0.4342346E-09  0.4342346E-09  0.4342346E-09  0.1000000E-15
  1.000000000000000E-004
  CAR 
 Og_FCC                                  
     17.39544008    -32.75604085  301      3.96153950      1.00000000
    -32.756  0.0000E+00  0.0000E+00
    -32.589  0.0000E+00  0.0000E+00
    -32.422  0.0000E+00  0.0000E+00
    -32.255  0.0000E+00  0.0000E+00
    -32.087  0.0000E+00  0.0000E+00
    -31.920  0.0000E+00  0.0000E+00
    -31.753  0.0000E+00  0.0000E+00
    -31.586  0.0000E+00  0.0000E+00
    -31.419  0.0000E+00  0.0000E+00
    -31.251  0.0000E+00  0.0000E+00
    -31.084  0.0000E+00  0.0000E+00
    -30.917  0.0000E+00  0.0000E+00
    -30.750  0.0000E+00  0.0000E+00
    -30.583  0.0000E+00  0.0000E+00
    -30.416  0.0000E+00  0.4000E+01
    -30.248  0.0000E+00  0.4000E+01
    -30.081  0.0000E+00  0.4000E+01
    -29.914  0.0000E+00  0.4000E+01
    -29.747  0.0000E+00  0.4000E+01
    -29.580  0.0000E+00  0.4000E+01
    -29.413  0.0000E+00  0.4000E+01
    -29.245  0.0000E+00  0.4000E+01
    -29.078  0.0000E+00  0.4000E+01
    -28.911  0.0000E+00  0.4000E+01
    -28.744  0.0000E+00  0.4000E+01
    -28.577  0.0000E+00  0.4000E+01
    -28.410  0.0000E+00  0.4000E+01
    -28.242  0.0000E+00  0.4000E+01
    -28.075  0.0000E+00  0.4000E+01
    -27.908  0.0000E+00  0.4000E+01
    -27.741  0.0000E+00  0.4000E+01
    -27.574  0.0000E+00  0.4000E+01
    -27.407  0.0000E+00  0.4000E+01
    -27.239  0.0000E+00  0.4000E+01
    -27.072  0.0000E+00  0.4000E+01
    -26.905  0.0000E+00  0.4000E+01
    -26.738  0.0000E+00  0.4000E+01
    -26.571  0.0000E+00  0.4000E+01
    -26.404  0.0000E+00  0.4000E+01
    -26.236  0.0000E+00  0.4000E+01
    -26.069  0.0000E+00  0.4000E+01
    -25.902  0.0000E+00  0.4000E+01
    -25.735  0.0000E+00  0.4000E+01
    -25.568  0.0000E+00  0.4000E+01
    -25.400  0.0000E+00  0.4000E+01
    -25.233  0.0000E+00  0.4000E+01
    -25.066  0.0000E+00  0.4000E+01
    -24.899  0.0000E+00  0.4000E+01
    -24.732  0.0000E+00  0.4000E+01
    -24.565  0.0000E+00  0.4000E+01
    -24.397  0.0000E+00  0.4000E+01
    -24.230  0.0000E+00  0.4000E+01
    -24.063  0.0000E+00  0.4000E+01
    -23.896  0.0000E+00  0.4000E+01
    -23.729  0.0000E+00  0.1000E+02
    -23.562  0.0000E+00  0.1000E+02
    -23.394  0.0000E+00  0.1000E+02
    -23.227  0.0000E+00  0.1000E+02
    -23.060  0.0000E+00  0.1000E+02
    -22.893  0.0000E+00  0.1000E+02
    -22.726  0.0000E+00  0.1000E+02
    -22.559  0.0000E+00  0.1000E+02
    -22.391  0.0000E+00  0.1000E+02
    -22.224  0.0000E+00  0.1000E+02
    -22.057  0.0000E+00  0.1000E+02
    -21.890  0.0000E+00  0.1000E+02
    -21.723  0.0000E+00  0.1000E+02
    -21.556  0.0000E+00  0.1000E+02
    -21.388  0.0000E+00  0.1000E+02
    -21.221  0.0000E+00  0.1000E+02
    -21.054  0.0000E+00  0.1000E+02
    -20.887  0.0000E+00  0.1000E+02
    -20.720  0.0000E+00  0.1000E+02
    -20.553  0.0000E+00  0.1000E+02
    -20.385  0.0000E+00  0.1000E+02
    -20.218  0.0000E+00  0.1000E+02
    -20.051  0.0000E+00  0.1200E+02
    -19.884  0.0000E+00  0.1200E+02
    -19.717  0.0000E+00  0.1200E+02
    -19.549  0.0000E+00  0.1200E+02
    -19.382  0.0000E+00  0.1200E+02
    -19.215  0.0000E+00  0.1200E+02
    -19.048  0.0000E+00  0.1200E+02
    -18.881  0.0000E+00  0.1200E+02
    -18.714  0.0000E+00  0.1200E+02
    -18.546  0.0000E+00  0.1200E+02
    -18.379  0.0000E+00  0.1200E+02
    -18.212  0.0000E+00  0.1200E+02
    -18.045  0.0000E+00  0.1200E+02
    -17.878  0.0000E+00  0.1200E+02
    -17.711  0.0000E+00  0.1200E+02
    -17.543  0.0000E+00  0.1200E+02
    -17.376  0.0000E+00  0.1200E+02
    -17.209  0.0000E+00  0.1200E+02
    -17.042  0.0000E+00  0.1200E+02
    -16.875  0.0000E+00  0.1200E+02
    -16.708  0.0000E+00  0.1200E+02
    -16.540  0.0000E+00  0.1200E+02
    -16.373  0.0000E+00  0.1200E+02
    -16.206  0.0000E+00  0.1200E+02
    -16.039  0.0000E+00  0.1200E+02
    -15.872  0.0000E+00  0.1200E+02
    -15.705  0.0000E+00  0.1200E+02
    -15.537  0.0000E+00  0.1200E+02
    -15.370  0.0000E+00  0.1200E+02
    -15.203  0.0000E+00  0.1200E+02
    -15.036  0.0000E+00  0.1200E+02
    -14.869  0.0000E+00  0.1200E+02
    -14.702  0.0000E+00  0.1200E+02
    -14.534  0.0000E+00  0.1200E+02
    -14.367  0.0000E+00  0.1200E+02
    -14.200  0.0000E+00  0.1200E+02
    -14.033  0.0000E+00  0.1200E+02
    -13.866  0.0000E+00  0.1200E+02
    -13.698  0.0000E+00  0.1200E+02
    -13.531  0.0000E+00  0.1200E+02
    -13.364  0.0000E+00  0.1200E+02
    -13.197  0.0000E+00  0.1200E+02
    -13.030  0.0000E+00  0.1200E+02
    -12.863  0.0000E+00  0.1200E+02
    -12.695  0.0000E+00  0.1200E+02
    -12.528  0.0000E+00  0.1200E+02
    -12.361  0.0000E+00  0.1200E+02
    -12.194  0.0000E+00  0.1200E+02
    -12.027  0.0000E+00  0.1200E+02
    -11.860  0.0000E+00  0.1200E+02
    -11.692  0.0000E+00  0.1200E+02
    -11.525  0.0000E+00  0.1200E+02
    -11.358  0.0000E+00  0.1200E+02
    -11.191  0.0000E+00  0.1200E+02
    -11.024  0.0000E+00  0.1200E+02
    -10.857  0.0000E+00  0.1200E+02
    -10.689  0.0000E+00  0.1200E+02
    -10.522  0.0000E+00  0.1200E+02
    -10.355  0.0000E+00  0.1200E+02
    -10.188  0.0000E+00  0.1200E+02
    -10.021  0.0000E+00  0.1200E+02
     -9.854  0.0000E+00  0.1200E+02
     -9.686  0.0000E+00  0.1200E+02
     -9.519  0.0000E+00  0.1200E+02
     -9.352  0.0000E+00  0.1200E+02
     -9.185  0.0000E+00  0.1200E+02
     -9.018  0.0000E+00  0.1200E+02
     -8.851  0.0000E+00  0.1200E+02
     -8.683  0.0000E+00  0.1200E+02
     -8.516  0.0000E+00  0.1200E+02
     -8.349  0.0000E+00  0.1200E+02
     -8.182  0.0000E+00  0.1200E+02
     -8.015  0.0000E+00  0.1200E+02
     -7.847  0.0000E+00  0.1200E+02
     -7.680  0.0000E+00  0.1200E+02
     -7.513  0.0000E+00  0.1200E+02
     -7.346  0.1682E+01  0.1241E+02
     -7.179  0.5608E+00  0.1365E+02
     -7.012  0.0000E+00  0.1394E+02
     -6.844  0.0000E+00  0.1400E+02
     -6.677  0.0000E+00  0.1400E+02
     -6.510  0.0000E+00  0.1400E+02
     -6.343  0.0000E+00  0.1400E+02
     -6.176  0.0000E+00  0.1400E+02
     -6.009  0.0000E+00  0.1400E+02
     -5.841  0.0000E+00  0.1400E+02
     -5.674  0.0000E+00  0.1400E+02
     -5.507  0.0000E+00  0.1400E+02
     -5.340  0.0000E+00  0.1400E+02
     -5.173  0.0000E+00  0.1400E+02
     -5.006  0.0000E+00  0.1400E+02
     -4.838  0.0000E+00  0.1400E+02
     -4.671  0.0000E+00  0.1400E+02
     -4.504  0.0000E+00  0.1400E+02
     -4.337  0.0000E+00  0.1400E+02
     -4.170  0.0000E+00  0.1400E+02
     -4.003  0.0000E+00  0.1400E+02
     -3.835  0.0000E+00  0.1400E+02
     -3.668  0.0000E+00  0.1400E+02
     -3.501  0.0000E+00  0.1400E+02
     -3.334  0.0000E+00  0.1400E+02
     -3.167  0.0000E+00  0.1400E+02
     -2.999  0.0000E+00  0.1400E+02
     -2.832  0.0000E+00  0.1400E+02
     -2.665  0.0000E+00  0.1400E+02
     -2.498  0.0000E+00  0.1400E+02
     -2.331  0.0000E+00  0.1400E+02
     -2.164  0.0000E+00  0.1400E+02
     -1.996  0.0000E+00  0.1400E+02
     -1.829  0.0000E+00  0.1400E+02
     -1.662  0.0000E+00  0.1400E+02
     -1.495  0.0000E+00  0.1400E+02
     -1.328  0.0000E+00  0.1400E+02
     -1.161  0.0000E+00  0.1400E+02
     -0.993  0.0000E+00  0.1400E+02
     -0.826  0.0000E+00  0.1400E+02
     -0.659  0.0000E+00  0.1400E+02
     -0.492  0.0000E+00  0.1400E+02
     -0.325  0.0000E+00  0.1400E+02
     -0.158  0.0000E+00  0.1400E+02
      0.010  0.0000E+00  0.1400E+02
      0.177  0.0000E+00  0.1400E+02
      0.344  0.0000E+00  0.1400E+02
      0.511  0.0000E+00  0.1400E+02
      0.678  0.0000E+00  0.1400E+02
      0.845  0.5563E+00  0.1468E+02
      1.013  0.0000E+00  0.1537E+02
      1.180  0.0000E+00  0.1556E+02
      1.347  0.0000E+00  0.1575E+02
      1.514  0.0000E+00  0.1577E+02
      1.681  0.0000E+00  0.1582E+02
      1.848  0.0000E+00  0.1592E+02
      2.016  0.0000E+00  0.1634E+02
      2.183  0.0000E+00  0.1634E+02
      2.350  0.0000E+00  0.1673E+02
      2.517  0.0000E+00  0.1687E+02
      2.684  0.0000E+00  0.1723E+02
      2.852  0.0000E+00  0.1723E+02
      3.019  0.1396E+00  0.1753E+02
      3.186  0.0000E+00  0.1762E+02
      3.353  0.0000E+00  0.1772E+02
      3.520  0.0000E+00  0.1786E+02
      3.687  0.0000E+00  0.1796E+02
      3.855  0.0000E+00  0.1796E+02
      4.022  0.0000E+00  0.1800E+02
      4.189  0.0000E+00  0.1800E+02
      4.356  0.0000E+00  0.1800E+02
      4.523  0.0000E+00  0.1800E+02
      4.690  0.0000E+00  0.1800E+02
      4.858  0.0000E+00  0.1800E+02
      5.025  0.0000E+00  0.1800E+02
      5.192  0.0000E+00  0.1804E+02
      5.359  0.0000E+00  0.1804E+02
      5.526  0.0000E+00  0.1806E+02
      5.693  0.0000E+00  0.1806E+02
      5.861  0.0000E+00  0.1806E+02
      6.028  0.1636E+00  0.1811E+02
      6.195  0.0000E+00  0.1814E+02
      6.362  0.0000E+00  0.1820E+02
      6.529  0.0000E+00  0.1829E+02
      6.696  0.0000E+00  0.1831E+02
      6.864  0.0000E+00  0.1869E+02
      7.031  0.0000E+00  0.1885E+02
      7.198  0.0000E+00  0.1909E+02
      7.365  0.0000E+00  0.1927E+02
      7.532  0.3786E-08  0.1946E+02
      7.699  0.0000E+00  0.1991E+02
      7.867  0.0000E+00  0.2001E+02
      8.034  0.0000E+00  0.2004E+02
      8.201  0.0000E+00  0.2013E+02
      8.368  0.0000E+00  0.2013E+02
      8.535  0.0000E+00  0.2027E+02
      8.703  0.0000E+00  0.2048E+02
      8.870  0.0000E+00  0.2104E+02
      9.037  0.0000E+00  0.2123E+02
      9.204  0.5608E+00  0.2142E+02
      9.371  0.0000E+00  0.2161E+02
      9.538  0.0000E+00  0.2170E+02
      9.706  0.0000E+00  0.2207E+02
      9.873  0.0000E+00  0.2219E+02
     10.040  0.0000E+00  0.2246E+02
     10.207  0.0000E+00  0.2265E+02
     10.374  0.0000E+00  0.2321E+02
     10.541  0.0000E+00  0.2325E+02
     10.709  0.1584E-06  0.2343E+02
     10.876  0.9742E-07  0.2384E+02
     11.043  0.0000E+00  0.2407E+02
     11.210  0.0000E+00  0.2417E+02
     11.377  0.0000E+00  0.2442E+02
     11.544  0.0000E+00  0.2476E+02
     11.712  0.1019E+01  0.2496E+02
     11.879  0.0000E+00  0.2542E+02
     12.046  0.0000E+00  0.2573E+02
     12.213  0.0000E+00  0.2579E+02
     12.380  0.0000E+00  0.2610E+02
     12.547  0.0000E+00  0.2652E+02
     12.715  0.5608E+00  0.2685E+02
     12.882  0.0000E+00  0.2685E+02
     13.049  0.0000E+00  0.2697E+02
     13.216  0.0000E+00  0.2716E+02
     13.383  0.3089E-10  0.2732E+02
     13.550  0.0000E+00  0.2770E+02
     13.718  0.0000E+00  0.2772E+02
     13.885  0.0000E+00  0.2772E+02
     14.052  0.0000E+00  0.2772E+02
     14.219  0.0000E+00  0.2781E+02
     14.386  0.2316E+00  0.2792E+02
     14.554  0.0000E+00  0.2798E+02
     14.721  0.0000E+00  0.2798E+02
     14.888  0.0000E+00  0.2798E+02
     15.055  0.5637E-01  0.2799E+02
     15.222  0.0000E+00  0.2800E+02
     15.389  0.0000E+00  0.2800E+02
     15.557  0.0000E+00  0.2800E+02
     15.724  0.0000E+00  0.2800E+02
     15.891  0.0000E+00  0.2800E+02
     16.058  0.0000E+00  0.2800E+02
     16.225  0.0000E+00  0.2800E+02
     16.392  0.0000E+00  0.2800E+02
     16.560  0.0000E+00  0.2800E+02
     16.727  0.0000E+00  0.2800E+02
     16.894  0.0000E+00  0.2800E+02
     17.061  0.0000E+00  0.2800E+02
     17.228  0.0000E+00  0.2800E+02
     17.395  0.0000E+00  0.2800E+02
